<event>
12    1  0.2743855E-001  0.3098730E+03  0.7546771E-02  0.1080489E+00
         21   -1    0    0  502  503  0.00000000000E+00  0.00000000000E+00  0.26009060515E+03  0.26009060515E+03  0.00000000000E+00 0.  1.
         21   -1    0    0  503  504 -0.00000000000E+00 -0.00000000000E+00 -0.76213119089E+03  0.76213119089E+03  0.00000000000E+00 0.  1.
         -6    2    1    2    0  504  0.24839687912E+03  0.63050779934E+02 -0.61853532358E+03  0.69181445827E+03  0.17419784084E+03 0.  0.
        -24    2    3    3    0    0  0.36192961760E+02  0.21628866827E+02 -0.22061108574E+03  0.23892146154E+03  0.81464564522E+02 0.  0.
          6    2    1    2  502    0 -0.24839687912E+03 -0.63050779934E+02  0.11649473784E+03  0.33040733777E+03  0.17297853770E+03 0.  0.
         24    2    5    5    0    0 -0.16803621446E+03  0.26664368659E+02  0.58085996800E+02  0.19646587541E+03  0.79231933262E+02 0.  0.
          2    1    6    6  501    0 -0.87234493180E+02  0.52653914304E+02  0.22037357842E+02  0.10424939632E+03  0.00000000000E+00 0. -1.
         -1    1    6    6    0  501 -0.80801721283E+02 -0.25989545645E+02  0.36048638958E+02  0.92216479091E+02  0.00000000000E+00 0.  1.
          5    1    5    5  502    0 -0.80360664656E+02 -0.89715148593E+02  0.58408741039E+02  0.13394146237E+03  0.47000000000E+01 0. -1.
         13    1    4    4    0    0  0.40203694563E+02 -0.20689284597E+01 -0.40112986591E+02  0.56830178732E+02  0.00000000000E+00 0. -1.
        -14    1    4    4    0    0 -0.40107328024E+01  0.23697795287E+02 -0.18049809915E+03  0.18209128281E+03  0.00000000000E+00 0.  1.
         -5    1    3    3    0  504  0.21220391736E+03  0.41421913107E+02 -0.39792423784E+03  0.45289299673E+03  0.47000000000E+01 0.  1.
<mgrwt>
<rscale>  2 0.30970194E+03</rscale>
<asrwt>0</asrwt>
<pdfrwt beam="1">  1       21 0.40013939E-01 0.30987304E+03</pdfrwt>
<pdfrwt beam="2">  1       21 0.11725095E+00 0.30987304E+03</pdfrwt>
<totfact> 0.31053194E+03</totfact>
</mgrwt>
</event>
<event>
12    1  0.2743855E-001  0.2692008E+03  0.7546771E-02  0.1102340E+00
         21   -1    0    0  502  503  0.00000000000E+00  0.00000000000E+00  0.13115210271E+03  0.13115210271E+03  0.00000000000E+00 0.  1.
         21   -1    0    0  503  504 -0.00000000000E+00 -0.00000000000E+00 -0.74963454913E+03  0.74963454913E+03  0.00000000000E+00 0.  1.
         -6    2    1    2    0  504  0.20141152905E+03  0.32353817493E+02 -0.53811490440E+03  0.59984538274E+03  0.16921424088E+03 0.  0.
        -24    2    3    3    0    0  0.25745065417E+02 -0.10814487003E+02 -0.16367351170E+03  0.18397201797E+03  0.79227037315E+02 0.  0.
          6    2    1    2  502    0 -0.20141152905E+03 -0.32353817493E+02 -0.80367542012E+02  0.28094126910E+03  0.17565785304E+03 0.  0.
         24    2    5    5    0    0 -0.71256120840E+02 -0.61173879863E+02 -0.79780896348E+02  0.14754913877E+03  0.81154658497E+02 0.  0.
          2    1    6    6  501    0 -0.49762281748E+02 -0.45399194796E+02 -0.95298156296E+02  0.11670094330E+03  0.00000000000E+00 0. -1.
         -1    1    6    6    0  501 -0.21493839092E+02 -0.15774685067E+02  0.15517259948E+02  0.30848195476E+02  0.00000000000E+00 0.  1.
          5    1    5    5  502    0 -0.13015540821E+03  0.28820062370E+02 -0.58664566358E+00  0.13339213033E+03  0.47000000000E+01 0. -1.
         13    1    4    4    0    0  0.53395055117E+02 -0.16225571024E+02 -0.11080954806E+03  0.12406875919E+03  0.00000000000E+00 0. -1.
        -14    1    4    4    0    0 -0.27649989700E+02  0.54110840209E+01 -0.52863963636E+02  0.59903258776E+02  0.00000000000E+00 0.  1.
         -5    1    3    3    0  504  0.17566646363E+03  0.43168304496E+02 -0.37444139271E+03  0.41587336478E+03  0.47000000000E+01 0.  1.
<mgrwt>
<rscale>  2 0.26815480E+03</rscale>
<asrwt>0</asrwt>
<pdfrwt beam="1">  1       21 0.20177246E-01 0.26920077E+03</pdfrwt>
<pdfrwt beam="2">  1       21 0.11532839E+00 0.26920077E+03</pdfrwt>
<totfact> 0.12626496E+04</totfact>
</mgrwt>
</event>
<event>
12    1  0.2743855E-001  0.1842459E+03  0.7546771E-02  0.1163770E+00
         21   -1    0    0  502  503  0.00000000000E+00  0.00000000000E+00  0.10965947563E+03  0.10965947563E+03  0.00000000000E+00 0.  1.
         21   -1    0    0  503  504 -0.00000000000E+00 -0.00000000000E+00 -0.46102356114E+03  0.46102356114E+03  0.00000000000E+00 0.  1.
         -6    2    1    2    0  504  0.41779699449E+02  0.47307473662E+02 -0.33930644386E+03  0.38610284678E+03  0.17309825272E+03 0.  0.
        -24    2    3    3    0    0  0.58390640508E+01  0.19347587135E+02 -0.60691141804E+02  0.10375189306E+03  0.81686087081E+02 0.  0.
          6    2    1    2  502    0 -0.41779699449E+02 -0.47307473662E+02 -0.12057641652E+02  0.18458018999E+03  0.17303444589E+03 0.  0.
         24    2    5    5    0    0 -0.74618804784E+02 -0.79667934053E+02 -0.22071543050E+02  0.13716738099E+03  0.80079907913E+02 0.  0.
          2    1    6    6  501    0 -0.34185180522E+02 -0.61525177034E+02 -0.48584680891E+02  0.85524529777E+02  0.00000000000E+00 0. -1.
         -1    1    6    6    0  501 -0.40433624262E+02 -0.18142757019E+02  0.26513137841E+02  0.51642851213E+02  0.00000000000E+00 0.  1.
          5    1    5    5  502    0  0.32839105335E+02  0.32360460390E+02  0.10013901398E+02  0.47412808998E+02  0.47000000000E+01 0. -1.
         11    1    4    4    0    0 -0.33129198641E+02  0.17308198249E+02 -0.80669911590E+01  0.38238643746E+02  0.00000000000E+00 0. -1.
        -12    1    4    4    0    0  0.38968262691E+02  0.20393888853E+01 -0.52624150645E+02  0.65513249312E+02  0.00000000000E+00 0.  1.
         -5    1    3    3    0  504  0.35940635398E+02  0.27959886528E+02 -0.27861530206E+03  0.28235095372E+03  0.47000000000E+01 0.  1.
<mgrwt>
<rscale>  2 0.18423090E+03</rscale>
<asrwt>0</asrwt>
<pdfrwt beam="1">  1       21 0.16870688E-01 0.18424588E+03</pdfrwt>
<pdfrwt beam="2">  1       21 0.70926703E-01 0.18424588E+03</pdfrwt>
<totfact> 0.57165344E+04</totfact>
</mgrwt>
</event>
<event>
12    1  0.2743855E-001  0.1906606E+03  0.7546771E-02  0.1159646E+00
         21   -1    0    0  502  503  0.00000000000E+00  0.00000000000E+00  0.15566037282E+03  0.15566037282E+03  0.00000000000E+00 0. -1.
         21   -1    0    0  503  504 -0.00000000000E+00 -0.00000000000E+00 -0.36046436389E+03  0.36046436389E+03  0.00000000000E+00 0. -1.
         -6    2    1    2    0  504  0.24777197964E+02  0.76320118330E+02 -0.25976535652E+03  0.31770040069E+03  0.16436798397E+03 0.  0.
        -24    2    3    3    0    0  0.61428519001E+02  0.73990168718E+02 -0.13305877750E+03  0.18569511608E+03  0.86775744620E+02 0.  0.
          6    2    1    2  502    0 -0.24777197964E+02 -0.76320118330E+02  0.54961365450E+02  0.19842433601E+03  0.17295315964E+03 0.  0.
         24    2    5    5    0    0 -0.31000937882E+02 -0.25384168103E+02 -0.30323325112E+02  0.98781100374E+02  0.85045797106E+02 0.  0.
          4    1    6    6  501    0 -0.39459828155E+01 -0.45134208836E+02 -0.43478504598E+02  0.62793693550E+02  0.00000000000E+00 0. -1.
         -3    1    6    6    0  501 -0.27054955066E+02  0.19750040733E+02  0.13155179486E+02  0.35987406824E+02  0.00000000000E+00 0.  1.
          5    1    5    5  502    0  0.62237399175E+01 -0.50935950227E+02  0.85284690562E+02  0.99643235638E+02  0.47000000000E+01 0. -1.
         11    1    4    4    0    0  0.53327675903E+02  0.20809288972E+02 -0.11584018563E+03  0.12921229095E+03  0.00000000000E+00 0. -1.
        -12    1    4    4    0    0  0.81008430979E+01  0.53180879746E+02 -0.17218591867E+02  0.56482825136E+02  0.00000000000E+00 0.  1.
         -5    1    3    3    0  504 -0.36651321037E+02  0.23299496123E+01 -0.12670657902E+03  0.13200528461E+03  0.47000000000E+01 0.  1.
<mgrwt>
<rscale>  2 0.18869230E+03</rscale>
<asrwt>0</asrwt>
<pdfrwt beam="1">  1       21 0.23947750E-01 0.19066060E+03</pdfrwt>
<pdfrwt beam="2">  1       21 0.55456055E-01 0.19066060E+03</pdfrwt>
<totfact> 0.50438621E+04</totfact>
</mgrwt>
</event>
<event>
12    1  0.2743855E-001  0.1998807E+03  0.7546771E-02  0.1149845E+00
         21   -1    0    0  502  503  0.00000000000E+00  0.00000000000E+00  0.93330412694E+03  0.93330412694E+03  0.00000000000E+00 0. -1.
         21   -1    0    0  503  504 -0.00000000000E+00 -0.00000000000E+00 -0.48960160227E+02  0.48960160227E+02  0.00000000000E+00 0. -1.
         -6    2    1    2    0  504 -0.57799305887E+02  0.82898545389E+02  0.26797150682E+03  0.33429260120E+03  0.17242356614E+03 0.  0.
        -24    2    3    3    0    0 -0.43116318628E+02  0.86075309644E+02  0.87451642134E+02  0.15308776271E+03  0.80747120797E+02 0.  0.
          6    2    1    2  502    0  0.57799305887E+02 -0.82898545389E+02  0.61637245989E+03  0.64797168596E+03  0.17245105947E+03 0.  0.
         24    2    5    5    0    0  0.82393238949E+02 -0.36535287581E+01  0.38773609654E+03  0.40469959375E+03  0.81489180418E+02 0.  0.
          2    1    6    6  501    0  0.44919727827E+01  0.19017495934E+02  0.18947508732E+03  0.19048005588E+03  0.00000000000E+00 0. -1.
         -1    1    6    6    0  501  0.77901266166E+02 -0.22671024692E+02  0.19826100922E+03  0.21421953787E+03  0.00000000000E+00 0.  1.
          5    1    5    5  502    0 -0.24593933062E+02 -0.79245016631E+02  0.22863636335E+03  0.24327209222E+03  0.47000000000E+01 0. -1.
         13    1    4    4    0    0 -0.76815753957E+01  0.76739559150E+02  0.87241390680E+02  0.11644323418E+03  0.00000000000E+00 0. -1.
        -14    1    4    4    0    0 -0.35434743233E+02  0.93357504943E+01  0.21025145365E+00  0.36644528527E+02  0.00000000000E+00 0.  1.
         -5    1    3    3    0  504 -0.14682987259E+02 -0.31767642548E+01  0.18051986469E+03  0.18120483849E+03  0.47000000000E+01 0.  1.
<mgrwt>
<rscale>  2 0.19987478E+03</rscale>
<asrwt>0</asrwt>
<pdfrwt beam="1">  1       21 0.14358524E+00 0.19988071E+03</pdfrwt>
<pdfrwt beam="2">  1       21 0.75323330E-02 0.19988071E+03</pdfrwt>
<totfact> 0.44467490E+04</totfact>
</mgrwt>
</event>
<event>
12    1  0.2743855E-001  0.2707153E+03  0.7546771E-02  0.1101093E+00
         21   -1    0    0  502  503  0.00000000000E+00  0.00000000000E+00  0.26733865946E+03  0.26733865946E+03  0.00000000000E+00 0.  1.
         21   -1    0    0  503  504 -0.00000000000E+00 -0.00000000000E+00 -0.31043757644E+03  0.31043757644E+03  0.00000000000E+00 0. -1.
         -6    2    1    2    0  504  0.16191867385E+03  0.13103417098E+03  0.79406480121E+02  0.28063255235E+03  0.17047471791E+03 0.  0.
        -24    2    3    3    0    0  0.10417379944E+03  0.13302975456E+03  0.56940088683E+01  0.18685584259E+03  0.79583843118E+02 0.  0.
          6    2    1    2  502    0 -0.16191867385E+03 -0.13103417098E+03 -0.12250539710E+03  0.29714368354E+03  0.17291380929E+03 0.  0.
         24    2    5    5    0    0 -0.32625972699E+02 -0.10728024397E+03 -0.75830722228E+02  0.15756765804E+03  0.80645914884E+02 0.  0.
          4    1    6    6  501    0  0.12817074237E+02 -0.75185051611E+02 -0.66432466016E+02  0.10114515272E+03  0.00000000000E+00 0. -1.
         -3    1    6    6    0  501 -0.45443046936E+02 -0.32095192357E+02 -0.93982562124E+01  0.56422505325E+02  0.00000000000E+00 0.  1.
          5    1    5    5  502    0 -0.12929270115E+03 -0.23753927017E+02 -0.46674674872E+02  0.13957602550E+03  0.47000000000E+01 0. -1.
         11    1    4    4    0    0  0.75863155732E+02  0.34199581262E+02 -0.57596218922E+01  0.83414645000E+02  0.00000000000E+00 0. -1.
        -12    1    4    4    0    0  0.28310643706E+02  0.98830173301E+02  0.11453630761E+02  0.10344119759E+03  0.00000000000E+00 0.  1.
         -5    1    3    3    0  504  0.57744874412E+02 -0.19955835791E+01  0.73712471252E+02  0.93776709757E+02  0.47000000000E+01 0.  1.
<mgrwt>
<rscale>  2 0.27032666E+03</rscale>
<asrwt>0</asrwt>
<pdfrwt beam="1">  1       21 0.41129025E-01 0.27071534E+03</pdfrwt>
<pdfrwt beam="2">  1       21 0.47759627E-01 0.27071534E+03</pdfrwt>
<totfact> 0.22936514E+04</totfact>
</mgrwt>
</event>
<event>
12    1  0.2743855E-001  0.2904605E+03  0.7546771E-02  0.1090207E+00
         21   -1    0    0  502  503  0.00000000000E+00  0.00000000000E+00  0.52388649950E+03  0.52388649950E+03  0.00000000000E+00 0. -1.
         21   -1    0    0  503  504 -0.00000000000E+00 -0.00000000000E+00 -0.18929051028E+03  0.18929051028E+03  0.00000000000E+00 0.  1.
         -6    2    1    2    0  504  0.97309716476E+01 -0.23267991858E+03  0.28342962133E+02  0.29108907556E+03  0.17232205341E+03 0.  0.
        -24    2    3    3    0    0  0.37296069872E+02 -0.13077935858E+03 -0.42820493526E+02  0.16369250501E+03  0.80420172045E+02 0.  0.
          6    2    1    2  502    0 -0.97309716476E+01  0.23267991858E+03  0.30625302709E+03  0.42208793421E+03  0.17358764728E+03 0.  0.
         24    2    5    5    0    0  0.58861021537E+02  0.17027466845E+03  0.21814091554E+03  0.29408359454E+03  0.80259697081E+02 0.  0.
          2    1    6    6  501    0  0.22842853510E+02  0.11884691563E+03  0.19002231826E+03  0.22528840793E+03  0.00000000000E+00 0. -1.
         -1    1    6    6    0  501  0.36018168027E+02  0.51427752823E+02  0.28118597281E+02  0.68795186616E+02  0.00000000000E+00 0.  1.
          5    1    5    5  502    0 -0.68591993185E+02  0.62405250127E+02  0.88112111548E+02  0.12800433967E+03  0.47000000000E+01 0. -1.
         13    1    4    4    0    0  0.46582195838E+02 -0.13766192510E+03 -0.34271575361E+02  0.14931593174E+03  0.00000000000E+00 0. -1.
        -14    1    4    4    0    0 -0.92861259658E+01  0.68825665205E+01 -0.85489181651E+01  0.14376573276E+02  0.00000000000E+00 0.  1.
         -5    1    3    3    0  504 -0.27565098225E+02 -0.10190055999E+03  0.71163455659E+02  0.12739657055E+03  0.47000000000E+01 0.  1.
<mgrwt>
<rscale>  2 0.29027168E+03</rscale>
<asrwt>0</asrwt>
<pdfrwt beam="1">  1       21 0.80597923E-01 0.29046051E+03</pdfrwt>
<pdfrwt beam="2">  1       21 0.29121617E-01 0.29046051E+03</pdfrwt>
<totfact> 0.14482246E+04</totfact>
</mgrwt>
</event>
<event>
12    1  0.2743855E-001  0.2007804E+03  0.7546771E-02  0.1149167E+00
         21   -1    0    0  502  503  0.00000000000E+00  0.00000000000E+00  0.13247126107E+03  0.13247126107E+03  0.00000000000E+00 0.  1.
         21   -1    0    0  503  504 -0.00000000000E+00 -0.00000000000E+00 -0.32262079631E+03  0.32262079631E+03  0.00000000000E+00 0. -1.
         -6    2    1    2    0  504  0.86519873897E+02  0.49390039081E+02 -0.15027176642E+03  0.25078751266E+03  0.17432070498E+03 0.  0.
        -24    2    3    3    0    0 -0.10432817644E+02  0.19644623201E+01 -0.10828740024E+03  0.13488329905E+03  0.79715999124E+02 0.  0.
          6    2    1    2  502    0 -0.86519873897E+02 -0.49390039081E+02 -0.39877768821E+02  0.20430454472E+03  0.17385351882E+03 0.  0.
         24    2    5    5    0    0 -0.30417241688E+02  0.25648240367E+02 -0.59375323927E+02  0.10848965350E+03  0.81618227133E+02 0.  0.
          2    1    6    6  501    0  0.88819560448E+01  0.44684093541E+02 -0.20239401443E+02  0.49851687329E+02  0.00000000000E+00 0. -1.
         -1    1    6    6    0  501 -0.39299197733E+02 -0.19035853174E+02 -0.39135922484E+02  0.58637966176E+02  0.00000000000E+00 0.  1.
          5    1    5    5  502    0 -0.56102632208E+02 -0.75038279449E+02  0.19497555106E+02  0.95814891214E+02  0.47000000000E+01 0. -1.
         11    1    4    4    0    0  0.15931043935E+02  0.34790204879E+02 -0.49106017951E+02  0.62253975900E+02  0.00000000000E+00 0. -1.
        -12    1    4    4    0    0 -0.26363861579E+02 -0.32825742559E+02 -0.59181382289E+02  0.72629323152E+02  0.00000000000E+00 0.  1.
         -5    1    3    3    0  504  0.96952691541E+02  0.47425576761E+02 -0.41984366176E+02  0.11590421360E+03  0.47000000000E+01 0.  1.
<mgrwt>
<rscale>  2 0.20067896E+03</rscale>
<asrwt>0</asrwt>
<pdfrwt beam="1">  1       21 0.20380194E-01 0.20078041E+03</pdfrwt>
<pdfrwt beam="2">  1       21 0.49633969E-01 0.20078041E+03</pdfrwt>
<totfact> 0.85927468E+04</totfact>
</mgrwt>
</event>
<event>
12    1  0.2743855E-001  0.3341033E+03  0.7546771E-02  0.1069508E+00
         21   -1    0    0  502  503  0.00000000000E+00  0.00000000000E+00  0.85242393849E+03  0.85242393849E+03  0.00000000000E+00 0. -1.
         21   -1    0    0  503  504 -0.00000000000E+00 -0.00000000000E+00 -0.19529101770E+03  0.19529101770E+03  0.00000000000E+00 0. -1.
         -6    2    1    2    0  504 -0.13322510617E+03 -0.25105966621E+03  0.26957323860E+02  0.33518902357E+03  0.17562772930E+03 0.  0.
        -24    2    3    3    0    0 -0.30393734008E+02 -0.17422223498E+03  0.59484354034E+02  0.20268098747E+03  0.79145613131E+02 0.  0.
          6    2    1    2  502    0  0.13322510617E+03  0.25105966621E+03  0.63017559692E+03  0.71252593263E+03  0.17260369867E+03 0.  0.
         24    2    5    5    0    0  0.13571731307E+03  0.21487795198E+03  0.40783952793E+03  0.48720228736E+03  0.80257491576E+02 0.  0.
          2    1    6    6  501    0  0.10081420232E+03  0.20201586118E+03  0.31828498790E+03  0.39022973372E+03  0.00000000000E+00 0. -1.
         -1    1    6    6    0  501  0.34903110751E+02  0.12862090803E+02  0.89554540031E+02  0.96972553643E+02  0.00000000000E+00 0.  1.
          5    1    5    5  502    0 -0.24922068957E+01  0.36181714227E+02  0.22233606899E+03  0.22532364526E+03  0.47000000000E+01 0. -1.
         11    1    4    4    0    0 -0.57412559302E+02 -0.11656919275E+03  0.36228186129E+02  0.13489647932E+03  0.00000000000E+00 0. -1.
        -12    1    4    4    0    0  0.27018825294E+02 -0.57653042235E+02  0.23256167905E+02  0.67784508148E+02  0.00000000000E+00 0.  1.
         -5    1    3    3    0  504 -0.10283137216E+03 -0.76837431224E+02 -0.32527030175E+02  0.13250803610E+03  0.47000000000E+01 0.  1.
<mgrwt>
<rscale>  2 0.33370763E+03</rscale>
<asrwt>0</asrwt>
<pdfrwt beam="1">  1       21 0.13114214E+00 0.33410325E+03</pdfrwt>
<pdfrwt beam="2">  1       21 0.30044772E-01 0.33410325E+03</pdfrwt>
<totfact> 0.41022496E+03</totfact>
</mgrwt>
</event>
<event>
12    1  0.2743855E-001  0.1934948E+03  0.7546771E-02  0.1155637E+00
         21   -1    0    0  502  503  0.00000000000E+00  0.00000000000E+00  0.14811172501E+03  0.14811172501E+03  0.00000000000E+00 0. -1.
         21   -1    0    0  503  504 -0.00000000000E+00 -0.00000000000E+00 -0.63031586704E+03  0.63031586704E+03  0.00000000000E+00 0.  1.
         -6    2    1    2    0  504 -0.25562348934E+02 -0.81012808035E+02 -0.54267834104E+03  0.57570275935E+03  0.17238728648E+03 0.  0.
        -24    2    3    3    0    0 -0.13500991187E+02 -0.60952159366E+02 -0.14399408417E+03  0.17630429584E+03  0.80321018187E+02 0.  0.
          6    2    1    2  502    0  0.25562348934E+02  0.81012808035E+02  0.60474199006E+02  0.20272483271E+03  0.17384970607E+03 0.  0.
         24    2    5    5    0    0  0.50749037471E+02 -0.97289010920E+01  0.12393102542E+02  0.96883872339E+02  0.81010983255E+02 0.  0.
          2    1    6    6  501    0  0.55639961819E+02 -0.41350601881E+01 -0.23272422738E+02  0.60452541172E+02  0.00000000000E+00 0. -1.
         -1    1    6    6    0  501 -0.48909243482E+01 -0.55938409039E+01  0.35665525281E+02  0.36431331167E+02  0.00000000000E+00 0.  1.
          5    1    5    5  502    0 -0.25186688538E+02  0.90741709127E+02  0.48081096464E+02  0.10584096037E+03  0.47000000000E+01 0. -1.
         13    1    4    4    0    0  0.65510982769E+01  0.15690868118E+02 -0.52972765511E+02  0.55634828272E+02  0.00000000000E+00 0. -1.
        -14    1    4    4    0    0 -0.20052089464E+02 -0.76643027484E+02 -0.91021318657E+02  0.12066946757E+03  0.00000000000E+00 0.  1.
         -5    1    3    3    0  504 -0.12061357747E+02 -0.20060648669E+02 -0.39868425687E+03  0.39939846350E+03  0.47000000000E+01 0.  1.
<mgrwt>
<rscale>  2 0.19316572E+03</rscale>
<asrwt>0</asrwt>
<pdfrwt beam="1">  1       21 0.22786419E-01 0.19349478E+03</pdfrwt>
<pdfrwt beam="2">  1       21 0.96971674E-01 0.19349478E+03</pdfrwt>
<totfact> 0.15938933E+04</totfact>
</mgrwt>
</event>
<event>
12    1  0.2743855E-001  0.1800326E+03  0.7546771E-02  0.1167929E+00
         21   -1    0    0  502  503  0.00000000000E+00  0.00000000000E+00  0.18126751484E+03  0.18126751484E+03  0.00000000000E+00 0.  1.
         21   -1    0    0  503  504 -0.00000000000E+00 -0.00000000000E+00 -0.23231163469E+03  0.23231163469E+03  0.00000000000E+00 0.  1.
         -6    2    1    2    0  504  0.46583299310E+02  0.93340305402E+01 -0.12532512049E+03  0.21882443658E+03  0.17297577957E+03 0.  0.
        -24    2    3    3    0    0  0.12770033456E+02 -0.61244769985E+02 -0.78650032364E+02  0.12758103746E+03  0.78594515857E+02 0.  0.
          6    2    1    2  502    0 -0.46583299310E+02 -0.93340305402E+01  0.74281000639E+02  0.19475471296E+03  0.17365080841E+03 0.  0.
         24    2    5    5    0    0 -0.53821926521E+02 -0.40792455771E+02 -0.89032514524E+01  0.10540293604E+03  0.80434363412E+02 0.  0.
          2    1    6    6  501    0  0.13610847143E+01  0.48869286398E+01 -0.30235249541E+02  0.30657869103E+02  0.00000000000E+00 0. -1.
         -1    1    6    6    0  501 -0.55183011235E+02 -0.45679384411E+02  0.21331998089E+02  0.74745066938E+02  0.00000000000E+00 0.  1.
          5    1    5    5  502    0  0.72386272105E+01  0.31458425231E+02  0.83184252091E+02  0.89351776915E+02  0.47000000000E+01 0. -1.
         13    1    4    4    0    0 -0.16001110746E+02 -0.65862464065E+02 -0.69405458202E+02  0.97010398133E+02  0.00000000000E+00 0. -1.
        -14    1    4    4    0    0  0.28771144201E+02  0.46176940792E+01 -0.92445741629E+01  0.30570639325E+02  0.00000000000E+00 0.  1.
         -5    1    3    3    0  504  0.33813265854E+02  0.70578800526E+02 -0.46675088123E+02  0.91243399118E+02  0.47000000000E+01 0.  1.
<mgrwt>
<rscale>  2 0.17986961E+03</rscale>
<asrwt>0</asrwt>
<pdfrwt beam="1">  1       21 0.27887310E-01 0.18003258E+03</pdfrwt>
<pdfrwt beam="2">  1       21 0.35740251E-01 0.18003258E+03</pdfrwt>
<totfact> 0.93141955E+04</totfact>
</mgrwt>
</event>
<event>
12    1  0.2743855E-001  0.1749556E+03  0.7546771E-02  0.1172900E+00
         21   -1    0    0  502  503  0.00000000000E+00  0.00000000000E+00  0.69622255864E+02  0.69622255864E+02  0.00000000000E+00 0.  1.
         21   -1    0    0  503  504 -0.00000000000E+00 -0.00000000000E+00 -0.44286010607E+03  0.44286010607E+03  0.00000000000E+00 0.  1.
         -6    2    1    2    0  504 -0.45544954431E+01  0.25131809244E+02 -0.21254481077E+03  0.27529030530E+03  0.17308120737E+03 0.  0.
        -24    2    3    3    0    0  0.23316727248E+02  0.56938744776E+02 -0.20944920073E+03  0.23262698378E+03  0.80378202692E+02 0.  0.
          6    2    1    2  502    0  0.45544954431E+01 -0.25131809244E+02 -0.16069303944E+03  0.23719205663E+03  0.17258466774E+03 0.  0.
         24    2    5    5    0    0 -0.84208624327E+01 -0.79319466430E+02 -0.13410712500E+03  0.17527628360E+03  0.79840878869E+02 0.  0.
          2    1    6    6  501    0  0.12024974312E+02 -0.40854802428E+02 -0.12322465868E+03  0.13037649863E+03  0.00000000000E+00 0. -1.
         -1    1    6    6    0  501 -0.20445836745E+02 -0.38464664002E+02 -0.10882466318E+02  0.44899784968E+02  0.00000000000E+00 0.  1.
          5    1    5    5  502    0  0.12975357876E+02  0.54187657186E+02 -0.26585914438E+02  0.61915773029E+02  0.47000000000E+01 0. -1.
         13    1    4    4    0    0 -0.84293630144E+01  0.50265520320E+02 -0.55727778209E+02  0.75519944107E+02  0.00000000000E+00 0. -1.
        -14    1    4    4    0    0  0.31746090262E+02  0.66732244564E+01 -0.15372142252E+03  0.15710703967E+03  0.00000000000E+00 0.  1.
         -5    1    3    3    0  504 -0.27871222691E+02 -0.31806935532E+02 -0.30956100369E+01  0.42663321527E+02  0.47000000000E+01 0.  1.
<mgrwt>
<rscale>  2 0.17483265E+03</rscale>
<asrwt>0</asrwt>
<pdfrwt beam="1">  1       21 0.10711116E-01 0.17495558E+03</pdfrwt>
<pdfrwt beam="2">  1       21 0.68132326E-01 0.17495558E+03</pdfrwt>
<totfact> 0.14215804E+05</totfact>
</mgrwt>
</event>
<event>
12    1  0.2743855E-001  0.1772264E+03  0.7546771E-02  0.1170715E+00
         21   -1    0    0  502  503  0.00000000000E+00  0.00000000000E+00  0.23875861540E+03  0.23875861540E+03  0.00000000000E+00 0.  1.
         21   -1    0    0  503  504 -0.00000000000E+00 -0.00000000000E+00 -0.46534529678E+03  0.46534529678E+03  0.00000000000E+00 0.  1.
         -6    2    1    2    0  504  0.25320892047E+02 -0.12320600332E+02 -0.41179921349E+03  0.44831659997E+03  0.17497496053E+03 0.  0.
        -24    2    3    3    0    0 -0.30829505729E+02 -0.56345126148E+02 -0.28193559612E+03  0.30006790635E+03  0.80173788722E+02 0.  0.
          6    2    1    2  502    0 -0.25320892047E+02  0.12320600332E+02  0.18521253210E+03  0.25578731221E+03  0.17415660273E+03 0.  0.
         24    2    5    5    0    0 -0.62390196197E+02  0.29102478123E+02  0.53993457622E+02  0.11832349792E+03  0.79659687918E+02 0.  0.
          2    1    6    6  501    0 -0.75590720524E+02  0.12831045979E+02  0.21445787583E+02  0.79614788672E+02  0.00000000000E+00 0. -1.
         -1    1    6    6    0  501  0.13200524327E+02  0.16271432144E+02  0.32547670039E+02  0.38708709246E+02  0.00000000000E+00 0.  1.
          5    1    5    5  502    0  0.37069304149E+02 -0.16781877790E+02  0.13121907448E+03  0.13746381429E+03  0.47000000000E+01 0. -1.
         11    1    4    4    0    0 -0.34665960096E+02  0.56866396713E+01 -0.59339838804E+02  0.68958560958E+02  0.00000000000E+00 0. -1.
        -12    1    4    4    0    0  0.38364543671E+01 -0.62031765819E+02 -0.22259575731E+03  0.23110934539E+03  0.00000000000E+00 0.  1.
         -5    1    3    3    0  504  0.56150397776E+02  0.44024525815E+02 -0.12986361737E+03  0.14824869362E+03  0.47000000000E+01 0.  1.
<mgrwt>
<rscale>  2 0.17702403E+03</rscale>
<asrwt>0</asrwt>
<pdfrwt beam="1">  1       21 0.36732095E-01 0.17722636E+03</pdfrwt>
<pdfrwt beam="2">  1       21 0.71591584E-01 0.17722636E+03</pdfrwt>
<totfact> 0.12732987E+04</totfact>
</mgrwt>
</event>
<event>
12    1  0.2743855E-001  0.1937225E+03  0.7546771E-02  0.1155490E+00
         21   -1    0    0  502  503  0.00000000000E+00  0.00000000000E+00  0.17478460068E+03  0.17478460068E+03  0.00000000000E+00 0. -1.
         21   -1    0    0  503  504 -0.00000000000E+00 -0.00000000000E+00 -0.33159761128E+03  0.33159761128E+03  0.00000000000E+00 0. -1.
         -6    2    1    2    0  504  0.45593729658E+02 -0.71573919540E+02 -0.23003439993E+03  0.30073950066E+03  0.17414593868E+03 0.  0.
        -24    2    3    3    0    0 -0.35689311658E+02 -0.12457641458E+02 -0.13940327105E+03  0.16532251995E+03  0.80432231273E+02 0.  0.
          6    2    1    2  502    0 -0.45593729658E+02  0.71573919540E+02  0.73221389333E+02  0.20564271130E+03  0.17241211881E+03 0.  0.
         24    2    5    5    0    0 -0.16639856523E+02 -0.99249099188E+01 -0.11922383819E+02  0.84185154600E+02  0.81053120588E+02 0.  0.
          2    1    6    6  501    0 -0.15256193613E+02 -0.21037721009E+02  0.30638692229E+02  0.40175447855E+02  0.00000000000E+00 0. -1.
         -1    1    6    6    0  501 -0.13836629095E+01  0.11112811090E+02 -0.42561076049E+02  0.44009706745E+02  0.00000000000E+00 0.  1.
          5    1    5    5  502    0 -0.28953873135E+02  0.81498829459E+02  0.85143773152E+02  0.12145755670E+03  0.47000000000E+01 0. -1.
         13    1    4    4    0    0 -0.38452313707E+02  0.27045433702E+02 -0.56901696619E+02  0.73809477655E+02  0.00000000000E+00 0. -1.
        -14    1    4    4    0    0  0.27630020494E+01 -0.39503075161E+02 -0.82501574430E+02  0.91513042299E+02  0.00000000000E+00 0.  1.
         -5    1    3    3    0  504  0.81283041315E+02 -0.59116278082E+02 -0.90631128885E+02  0.13541698070E+03  0.47000000000E+01 0.  1.
<mgrwt>
<rscale>  2 0.19333208E+03</rscale>
<asrwt>0</asrwt>
<pdfrwt beam="1">  1       21 0.26889939E-01 0.19372254E+03</pdfrwt>
<pdfrwt beam="2">  1       21 0.51015017E-01 0.19372254E+03</pdfrwt>
<totfact> 0.48107407E+04</totfact>
</mgrwt>
</event>
<event>
12    1  0.2743855E-001  0.2170156E+03  0.7546771E-02  0.1138652E+00
         21   -1    0    0  502  503  0.00000000000E+00  0.00000000000E+00  0.31756509838E+03  0.31756509838E+03  0.00000000000E+00 0. -1.
         21   -1    0    0  503  504 -0.00000000000E+00 -0.00000000000E+00 -0.19263782004E+03  0.19263782004E+03  0.00000000000E+00 0. -1.
         -6    2    1    2    0  504  0.10233273672E+03  0.28996684934E+02  0.19484709145E+03  0.28220166496E+03  0.17424004683E+03 0.  0.
        -24    2    3    3    0    0  0.51977620428E+02 -0.39782091322E+02  0.62398376497E+02  0.12462339903E+03  0.85750489106E+02 0.  0.
          6    2    1    2  502    0 -0.10233273672E+03 -0.28996684934E+02 -0.69919813104E+02  0.22800125346E+03  0.18916393571E+03 0.  0.
         24    2    5    5    0    0 -0.37852708095E+02 -0.73834212717E+02 -0.89496882428E+02  0.14692456364E+03  0.81809638539E+02 0.  0.
          2    1    6    6  501    0 -0.45694137027E+02 -0.77209472119E+01 -0.19367516368E+02  0.50226167231E+02  0.00000000000E+00 0. -1.
         -1    1    6    6    0  501  0.78414289315E+01 -0.66113265505E+02 -0.70129366060E+02  0.96698396405E+02  0.00000000000E+00 0.  1.
          5    1    5    5  502    0 -0.64480028622E+02  0.44837527782E+02  0.19577069324E+02  0.81076689819E+02  0.47000000000E+01 0. -1.
         11    1    4    4    0    0  0.20280324526E+02 -0.64468189429E+02  0.41934586760E+02  0.79535832037E+02  0.00000000000E+00 0. -1.
        -12    1    4    4    0    0  0.31697295902E+02  0.24686098107E+02  0.20463789737E+02  0.45087566997E+02  0.00000000000E+00 0.  1.
         -5    1    3    3    0  504  0.50355116289E+02  0.68778776256E+02  0.13244871496E+03  0.15757826593E+03  0.47000000000E+01 0.  1.
<mgrwt>
<rscale>  2 0.21372205E+03</rscale>
<asrwt>0</asrwt>
<pdfrwt beam="1">  1       21 0.48856169E-01 0.21701565E+03</pdfrwt>
<pdfrwt beam="2">  1       21 0.29636588E-01 0.21701565E+03</pdfrwt>
<totfact> 0.43109437E+04</totfact>
</mgrwt>
</event>
<event>
12    1  0.2743855E-001  0.2220717E+03  0.7546771E-02  0.1132925E+00
         21   -1    0    0  502  503  0.00000000000E+00  0.00000000000E+00  0.14073521383E+04  0.14073521383E+04  0.00000000000E+00 0. -1.
         21   -1    0    0  503  504 -0.00000000000E+00 -0.00000000000E+00 -0.17052437108E+03  0.17052437108E+03  0.00000000000E+00 0. -1.
         -6    2    1    2    0  504 -0.65111268142E+02  0.11899198180E+03 -0.85188125724E+02  0.23785046518E+03  0.17583304027E+03 0.  0.
        -24    2    3    3    0    0 -0.10822930383E+03  0.84474180649E+02 -0.87006201447E+02  0.18238841512E+03  0.82740470598E+02 0.  0.
          6    2    1    2  502    0  0.65111268142E+02 -0.11899198180E+03  0.13220158930E+04  0.13400260442E+04  0.17188719831E+03 0.  0.
         24    2    5    5    0    0  0.22416060421E+02 -0.58353309727E+02  0.11224512600E+04  0.11270752000E+04  0.80585897625E+02 0.  0.
          4    1    6    6  501    0  0.36647210514E+02 -0.11546430556E+02  0.80113698877E+03  0.80205786130E+03  0.00000000000E+00 0. -1.
         -3    1    6    6    0  501 -0.14231150093E+02 -0.46806879171E+02  0.32131427124E+03  0.32501733873E+03  0.00000000000E+00 0.  1.
          5    1    5    5  502    0  0.42695207722E+02 -0.60638672069E+02  0.19956463295E+03  0.21295084418E+03  0.47000000000E+01 0. -1.
         11    1    4    4    0    0 -0.28501689053E+02  0.50330231943E+02 -0.75179140825E+02  0.94854529367E+02  0.00000000000E+00 0. -1.
        -12    1    4    4    0    0 -0.79727614780E+02  0.34143948706E+02 -0.11827060622E+02  0.87533885751E+02  0.00000000000E+00 0.  1.
         -5    1    3    3    0  504  0.43118035691E+02  0.34517801148E+02  0.18180757231E+01  0.55462050064E+02  0.47000000000E+01 0.  1.
<mgrwt>
<rscale>  2 0.22128980E+03</rscale>
<asrwt>0</asrwt>
<pdfrwt beam="1">  1       21 0.21651571E+00 0.22207167E+03</pdfrwt>
<pdfrwt beam="2">  1       21 0.26234520E-01 0.22207167E+03</pdfrwt>
<totfact> 0.14150855E+03</totfact>
</mgrwt>
</event>
<event>
12    1  0.2743855E-001  0.1738394E+03  0.7546771E-02  0.1174696E+00
         21   -1    0    0  502  503  0.00000000000E+00  0.00000000000E+00  0.54739567902E+03  0.54739567902E+03  0.00000000000E+00 0.  1.
         21   -1    0    0  503  504 -0.00000000000E+00 -0.00000000000E+00 -0.95810290814E+02  0.95810290814E+02  0.00000000000E+00 0.  1.
         -6    2    1    2    0  504  0.53556531790E+01 -0.15027385242E+02  0.15072838285E+02  0.17449160903E+03  0.17310582266E+03 0.  0.
        -24    2    3    3    0    0 -0.10734874733E+02 -0.74460382815E+02  0.23904189520E+02  0.11211157173E+03  0.79611607788E+02 0.  0.
          6    2    1    2  502    0 -0.53556531790E+01  0.15027385242E+02  0.43651254992E+03  0.46871436081E+03  0.16998658905E+03 0.  0.
         24    2    5    5    0    0 -0.73929434857E+00  0.44848771914E+02  0.42684538508E+03  0.43668047331E+03  0.80504000599E+02 0.  0.
          2    1    6    6  501    0  0.14162800102E+02  0.83068162012E+01  0.12959379023E+02  0.20917304004E+02  0.00000000000E+00 0. -1.
         -1    1    6    6    0  501 -0.14902094450E+02  0.36541955712E+02  0.41388600605E+03  0.41576316931E+03  0.00000000000E+00 0.  1.
          5    1    5    5  502    0 -0.46163588304E+01 -0.29821386671E+02  0.96671648460E+01  0.32033887495E+02  0.47000000000E+01 0. -1.
         13    1    4    4    0    0 -0.42606149840E+02 -0.49033809906E+02  0.28782671909E+02  0.71049565236E+02  0.00000000000E+00 0. -1.
        -14    1    4    4    0    0  0.31871275107E+02 -0.25426572909E+02 -0.48784823888E+01  0.41062006493E+02  0.00000000000E+00 0.  1.
         -5    1    3    3    0  504  0.16090527912E+02  0.59432997572E+02 -0.88313512351E+01  0.62380037300E+02  0.47000000000E+01 0.  1.
<mgrwt>
<rscale>  2 0.17305767E+03</rscale>
<asrwt>0</asrwt>
<pdfrwt beam="1">  1       21 0.84214718E-01 0.17383938E+03</pdfrwt>
<pdfrwt beam="2">  1       21 0.14740045E-01 0.17383938E+03</pdfrwt>
<totfact> 0.50027196E+04</totfact>
</mgrwt>
</event>
<event>
12    1  0.2743855E-001  0.2292195E+03  0.7546771E-02  0.1128279E+00
         21   -1    0    0  502  503  0.00000000000E+00  0.00000000000E+00  0.79212918399E+02  0.79212918399E+02  0.00000000000E+00 0. -1.
         21   -1    0    0  503  504 -0.00000000000E+00 -0.00000000000E+00 -0.73392505520E+03  0.73392505520E+03  0.00000000000E+00 0.  1.
         -6    2    1    2    0  504  0.81175595568E+02  0.11736484649E+03 -0.47205652890E+03  0.52476561907E+03  0.17938116949E+03 0.  0.
        -24    2    3    3    0    0  0.12583392574E+03  0.10463256071E+03 -0.36422532586E+03  0.40726610459E+03  0.80146380546E+02 0.  0.
          6    2    1    2  502    0 -0.81175595568E+02 -0.11736484649E+03 -0.18265560790E+03  0.28837235453E+03  0.17155628596E+03 0.  0.
         24    2    5    5    0    0 -0.19005606146E+02  0.39330070476E+01 -0.97610043814E+02  0.12764552159E+03  0.79931076049E+02 0.  0.
          2    1    6    6  501    0  0.26516538981E+02  0.89500357155E+01 -0.11786460100E+02  0.30366933012E+02  0.00000000000E+00 0. -1.
         -1    1    6    6    0  501 -0.45522145127E+02 -0.50170286679E+01 -0.85823583714E+02  0.97278588575E+02  0.00000000000E+00 0.  1.
          5    1    5    5  502    0 -0.62169989422E+02 -0.12129785354E+03 -0.85045564088E+02  0.16072683295E+03  0.47000000000E+01 0. -1.
         11    1    4    4    0    0  0.64521802887E+01  0.32717255022E+02 -0.28886829700E+02  0.44119137987E+02  0.00000000000E+00 0. -1.
        -12    1    4    4    0    0  0.11938174545E+03  0.71915305693E+02 -0.33533849616E+03  0.36314696660E+03  0.00000000000E+00 0.  1.
         -5    1    3    3    0  504 -0.44658330173E+02  0.12732285778E+02 -0.10783120304E+03  0.11749951448E+03  0.47000000000E+01 0.  1.
<mgrwt>
<rscale>  2 0.22768662E+03</rscale>
<asrwt>0</asrwt>
<pdfrwt beam="1">  1       21 0.12186602E-01 0.22921952E+03</pdfrwt>
<pdfrwt beam="2">  1       21 0.11291155E+00 0.22921952E+03</pdfrwt>
<totfact> 0.34306478E+04</totfact>
</mgrwt>
</event>
<event>
12    1  0.2743855E-001  0.1755110E+03  0.7546771E-02  0.1172553E+00
         21   -1    0    0  502  503  0.00000000000E+00  0.00000000000E+00  0.42584724210E+03  0.42584724210E+03  0.00000000000E+00 0. -1.
         21   -1    0    0  503  504 -0.00000000000E+00 -0.00000000000E+00 -0.28574937404E+03  0.28574937404E+03  0.00000000000E+00 0. -1.
         -6    2    1    2    0  504  0.20228019695E+02 -0.21597541438E+02 -0.23789366661E+03  0.29484522347E+03  0.17165279669E+03 0.  0.
        -24    2    3    3    0    0 -0.32793096458E+02 -0.61156997262E+02 -0.16215644761E+03  0.19417543831E+03  0.81202351259E+02 0.  0.
          6    2    1    2  502    0 -0.20228019695E+02  0.21597541438E+02  0.37799153467E+03  0.41675139267E+03  0.17299854460E+03 0.  0.
         24    2    5    5    0    0 -0.17728054769E+02  0.24524929891E+02  0.75609167526E+02  0.11430800063E+03  0.80211075810E+02 0.  0.
          4    1    6    6  501    0 -0.42923128011E+02  0.27739760572E+02  0.72523738293E+02  0.88721935567E+02  0.00000000000E+00 0. -1.
         -3    1    6    6    0  501  0.25195073242E+02 -0.32148306808E+01  0.30854292335E+01  0.25586065065E+02  0.00000000000E+00 0.  1.
          5    1    5    5  502    0 -0.24999649257E+01 -0.29273884532E+01  0.30238236714E+03  0.30244339204E+03  0.47000000000E+01 0. -1.
         11    1    4    4    0    0 -0.38859236438E+02 -0.15403002205E+02 -0.13339979918E+03  0.13979556200E+03  0.00000000000E+00 0. -1.
        -12    1    4    4    0    0  0.60661399804E+01 -0.45753995057E+02 -0.28756648428E+02  0.54379876304E+02  0.00000000000E+00 0.  1.
         -5    1    3    3    0  504  0.53021116153E+02  0.39559455824E+02 -0.75737218998E+02  0.10066978516E+03  0.47000000000E+01 0.  1.
<mgrwt>
<rscale>  2 0.17517851E+03</rscale>
<asrwt>0</asrwt>
<pdfrwt beam="1">  1       21 0.65514960E-01 0.17551103E+03</pdfrwt>
<pdfrwt beam="2">  1       21 0.43961442E-01 0.17551103E+03</pdfrwt>
<totfact> 0.10776637E+04</totfact>
</mgrwt>
</event>
<event>
12    1  0.2743855E-001  0.2366615E+03  0.7546771E-02  0.1122121E+00
         21   -1    0    0  502  503  0.00000000000E+00  0.00000000000E+00  0.38862951720E+03  0.38862951720E+03  0.00000000000E+00 0.  1.
         21   -1    0    0  503  504 -0.00000000000E+00 -0.00000000000E+00 -0.15695102373E+03  0.15695102373E+03  0.00000000000E+00 0. -1.
         -6    2    1    2    0  504  0.10709253601E+03 -0.11594161801E+03  0.36818776570E+02  0.23902060150E+03  0.17568140361E+03 0.  0.
        -24    2    3    3    0    0  0.86489609471E+02 -0.15087194370E+01  0.34357180202E+02  0.12262679447E+03  0.79838500165E+02 0.  0.
          6    2    1    2  502    0 -0.10709253601E+03  0.11594161801E+03  0.19485971690E+03  0.30655993944E+03  0.17634459770E+03 0.  0.
         24    2    5    5    0    0 -0.11917092944E+02  0.89106883486E+02  0.47952023577E+02  0.12940907633E+03  0.79782571293E+02 0.  0.
          4    1    6    6  501    0  0.89470574154E+01 -0.12826628461E+02  0.23769798416E+01  0.15818415447E+02  0.00000000000E+00 0. -1.
         -3    1    6    6    0  501 -0.20864150360E+02  0.10193351195E+03  0.45575043735E+02  0.11359066088E+03  0.00000000000E+00 0.  1.
          5    1    5    5  502    0 -0.95175443069E+02  0.26834734529E+02  0.14690769333E+03  0.17715086311E+03  0.47000000000E+01 0. -1.
         11    1    4    4    0    0  0.56651803391E+02 -0.39558244676E+02  0.24251760626E+02  0.73228610821E+02  0.00000000000E+00 0. -1.
        -12    1    4    4    0    0  0.29837806080E+02  0.38049525239E+02  0.10105419576E+02  0.49398183645E+02  0.00000000000E+00 0.  1.
         -5    1    3    3    0  504  0.20602926542E+02 -0.11443289858E+03  0.24615963681E+01  0.11639380703E+03  0.47000000000E+01 0.  1.
<mgrwt>
<rscale>  2 0.23653801E+03</rscale>
<asrwt>0</asrwt>
<pdfrwt beam="1">  1       21 0.59789156E-01 0.23666155E+03</pdfrwt>
<pdfrwt beam="2">  1       21 0.24146312E-01 0.23666155E+03</pdfrwt>
<totfact> 0.41367293E+04</totfact>
</mgrwt>
</event>
<event>
12    1  0.2743855E-001  0.1815338E+03  0.7546771E-02  0.1166358E+00
         21   -1    0    0  502  503  0.00000000000E+00  0.00000000000E+00  0.35882879254E+03  0.35882879254E+03  0.00000000000E+00 0.  1.
         21   -1    0    0  503  504 -0.00000000000E+00 -0.00000000000E+00 -0.16238086249E+03  0.16238086249E+03  0.00000000000E+00 0.  1.
         -6    2    1    2    0  504 -0.40475685409E+02 -0.30573777777E+02 -0.73641959268E+02  0.19578211897E+03  0.17416791595E+03 0.  0.
        -24    2    3    3    0    0 -0.74270372170E+02 -0.25442801534E+02 -0.10209970299E+03  0.15105694767E+03  0.78933058710E+02 0.  0.
          6    2    1    2  502    0  0.40475685409E+02  0.30573777777E+02  0.27008988931E+03  0.32542753606E+03  0.17430288558E+03 0.  0.
         24    2    5    5    0    0 -0.75629263303E+01 -0.26474299486E+02  0.22032165450E+03  0.23564358129E+03  0.78918816350E+02 0.  0.
          2    1    6    6  501    0 -0.41741649782E+02 -0.23212301025E+02  0.14938978835E+03  0.15683904204E+03  0.00000000000E+00 0. -1.
         -1    1    6    6    0  501  0.34178723452E+02 -0.32619984614E+01  0.70931866150E+02  0.78804539249E+02  0.00000000000E+00 0.  1.
          5    1    5    5  502    0  0.48038611740E+02  0.57048077263E+02  0.49768234808E+02  0.89783954765E+02  0.47000000000E+01 0. -1.
         13    1    4    4    0    0 -0.70684433626E+02 -0.43688039724E+02 -0.53012573310E+02  0.98566053491E+02  0.00000000000E+00 0. -1.
        -14    1    4    4    0    0 -0.35859385444E+01  0.18245238190E+02 -0.49087129676E+02  0.52490894179E+02  0.00000000000E+00 0.  1.
         -5    1    3    3    0  504  0.33794686761E+02 -0.51309762429E+01  0.28457743718E+02  0.44725171302E+02  0.47000000000E+01 0.  1.
<mgrwt>
<rscale>  2 0.18150143E+03</rscale>
<asrwt>0</asrwt>
<pdfrwt beam="1">  1       21 0.55204429E-01 0.18153383E+03</pdfrwt>
<pdfrwt beam="2">  1       21 0.24981671E-01 0.18153383E+03</pdfrwt>
<totfact> 0.47192407E+04</totfact>
</mgrwt>
</event>
<event>
12    1  0.2743855E-001  0.2118590E+03  0.7546771E-02  0.1140650E+00
         21   -1    0    0  502  503  0.00000000000E+00  0.00000000000E+00  0.98585732046E+02  0.98585732046E+02  0.00000000000E+00 0. -1.
         21   -1    0    0  503  504 -0.00000000000E+00 -0.00000000000E+00 -0.54674515510E+03  0.54674515510E+03  0.00000000000E+00 0.  1.
         -6    2    1    2    0  504  0.24441827009E+02  0.11796188692E+03 -0.35905854158E+03  0.41549793408E+03  0.17088910810E+03 0.  0.
        -24    2    3    3    0    0  0.41519869131E+02  0.14108085765E+03 -0.23827786502E+03  0.29125539643E+03  0.80160196261E+02 0.  0.
          6    2    1    2  502    0 -0.24441827009E+02 -0.11796188692E+03 -0.89100881473E+02  0.22983295306E+03  0.17427509736E+03 0.  0.
         24    2    5    5    0    0 -0.13470371864E+02 -0.11571784305E+03 -0.12715439635E+03  0.18988838453E+03  0.79481368561E+02 0.  0.
          2    1    6    6  501    0 -0.43359976311E+02 -0.71816907215E+02 -0.99044084355E+02  0.12979786729E+03  0.00000000000E+00 0. -1.
         -1    1    6    6    0  501  0.29889604447E+02 -0.43900935832E+02 -0.28110311998E+02  0.60090517235E+02  0.00000000000E+00 0.  1.
          5    1    5    5  502    0 -0.10971455145E+02 -0.22440438763E+01  0.38053514881E+02  0.39944568538E+02  0.47000000000E+01 0. -1.
         13    1    4    4    0    0  0.36080723553E+02  0.19439065473E+02 -0.33159855496E+02  0.52718800205E+02  0.00000000000E+00 0. -1.
        -14    1    4    4    0    0  0.54391455785E+01  0.12164179218E+03 -0.20511800952E+03  0.23853659623E+03  0.00000000000E+00 0.  1.
         -5    1    3    3    0  504 -0.17078042122E+02 -0.23118970730E+02 -0.12078067656E+03  0.12424253765E+03  0.47000000000E+01 0.  1.
<mgrwt>
<rscale>  2 0.21116141E+03</rscale>
<asrwt>0</asrwt>
<pdfrwt beam="1">  1       21 0.15167036E-01 0.21185896E+03</pdfrwt>
<pdfrwt beam="2">  1       21 0.84114640E-01 0.21185896E+03</pdfrwt>
<totfact> 0.46728464E+04</totfact>
</mgrwt>
</event>
<event>
12    1  0.2743855E-001  0.2334565E+03  0.7546771E-02  0.1124322E+00
         21   -1    0    0  502  503  0.00000000000E+00  0.00000000000E+00  0.20333540175E+04  0.20333540175E+04  0.00000000000E+00 0. -1.
         21   -1    0    0  503  504 -0.00000000000E+00 -0.00000000000E+00 -0.62827594502E+02  0.62827594502E+02  0.00000000000E+00 0. -1.
         -6    2    1    2    0  504 -0.13744951484E+03 -0.75090313562E+02  0.19048251443E+03  0.30089381777E+03  0.17240236932E+03 0.  0.
        -24    2    3    3    0    0 -0.13983522187E+03 -0.65501759593E+02  0.82690821940E+02  0.19254820902E+03  0.79954180491E+02 0.  0.
          6    2    1    2  502    0  0.13744951484E+03  0.75090313562E+02  0.17800439086E+04  0.17952877943E+04  0.17312141226E+03 0.  0.
         24    2    5    5    0    0  0.39596035502E+02 -0.21163804056E+02  0.54411119478E+03  0.55174771785E+03  0.79704449273E+02 0.  0.
          2    1    6    6  501    0  0.32270784458E+02 -0.24894590704E+02  0.54162935212E+03  0.54316065695E+03  0.00000000000E+00 0. -1.
         -1    1    6    6    0  501  0.73252510445E+01  0.37307866487E+01  0.24818426572E+01  0.85870608975E+01  0.00000000000E+00 0.  1.
          5    1    5    5  502    0  0.97853479333E+02  0.96254117617E+02  0.12359327138E+04  0.12435400764E+04  0.47000000000E+01 0. -1.
         11    1    4    4    0    0 -0.82301840014E+02 -0.18002138988E+02  0.43422888832E+01  0.84359500654E+02  0.00000000000E+00 0. -1.
        -12    1    4    4    0    0 -0.57533381855E+02 -0.47499620605E+02  0.78348533057E+02  0.10818870836E+03  0.00000000000E+00 0.  1.
         -5    1    3    3    0  504  0.23857070337E+01 -0.95885539682E+01  0.10779169249E+03  0.10834560875E+03  0.47000000000E+01 0.  1.
<mgrwt>
<rscale>  2 0.23332323E+03</rscale>
<asrwt>0</asrwt>
<pdfrwt beam="1">  1       21 0.31282365E+00 0.23345652E+03</pdfrwt>
<pdfrwt beam="2">  1       21 0.96657853E-02 0.23345652E+03</pdfrwt>
<totfact> 0.23647812E+03</totfact>
</mgrwt>
</event>
<event>
12    1  0.2743855E-001  0.2881538E+03  0.7546771E-02  0.1091713E+00
         21   -1    0    0  502  503  0.00000000000E+00  0.00000000000E+00  0.16284812645E+04  0.16284812645E+04  0.00000000000E+00 0. -1.
         21   -1    0    0  503  504 -0.00000000000E+00 -0.00000000000E+00 -0.86215433559E+02  0.86215433559E+02  0.00000000000E+00 0. -1.
         -6    2    1    2    0  504 -0.11722707948E+03  0.19360381523E+03  0.21666053064E+03  0.35813413064E+03  0.17347519869E+03 0.  0.
        -24    2    3    3    0    0 -0.73191694424E+01  0.63199848002E+02  0.13382680218E+03  0.16848060463E+03  0.80176743054E+02 0.  0.
          6    2    1    2  502    0  0.11722707948E+03 -0.19360381523E+03  0.13256053003E+04  0.13565625674E+04  0.17834786707E+03 0.  0.
         24    2    5    5    0    0  0.31450610035E+02 -0.18206828601E+03  0.93025198950E+03  0.95181943714E+03  0.80333525399E+02 0.  0.
          2    1    6    6  501    0  0.22808936913E+02 -0.38343505501E+02  0.39599544252E+03  0.39850076852E+03  0.00000000000E+00 0. -1.
         -1    1    6    6    0  501  0.86416731220E+01 -0.14372478051E+03  0.53425654698E+03  0.55331866862E+03  0.00000000000E+00 0.  1.
          5    1    5    5  502    0  0.85776469443E+02 -0.11535529220E+02  0.39535331076E+03  0.40474313023E+03  0.47000000000E+01 0. -1.
         13    1    4    4    0    0 -0.91958067342E+01  0.40578400896E+02  0.10270054890E+02  0.42856079011E+02  0.00000000000E+00 0. -1.
        -14    1    4    4    0    0  0.18766372918E+01  0.22621447107E+02  0.12355674729E+03  0.12562452562E+03  0.00000000000E+00 0.  1.
         -5    1    3    3    0  504 -0.10990791004E+03  0.13040396723E+03  0.82833728454E+02  0.18965352601E+03  0.47000000000E+01 0.  1.
<mgrwt>
<rscale>  2 0.28740329E+03</rscale>
<asrwt>0</asrwt>
<pdfrwt beam="1">  1       21 0.25053556E+00 0.28815376E+03</pdfrwt>
<pdfrwt beam="2">  1       21 0.13263914E-01 0.28815376E+03</pdfrwt>
<totfact> 0.29692738E+03</totfact>
</mgrwt>
</event>
<event>
12    1  0.2743855E-001  0.2573167E+03  0.7546771E-02  0.1108781E+00
         21   -1    0    0  502  503  0.00000000000E+00  0.00000000000E+00  0.33094036476E+03  0.33094036476E+03  0.00000000000E+00 0. -1.
         21   -1    0    0  503  504 -0.00000000000E+00 -0.00000000000E+00 -0.21724026600E+03  0.21724026600E+03  0.00000000000E+00 0.  1.
         -6    2    1    2    0  504 -0.24796163645E+02  0.18836853839E+03 -0.20359864707E+02  0.25812089151E+03  0.17353476470E+03 0.  0.
        -24    2    3    3    0    0 -0.21936351891E+01  0.24947384825E+02  0.23955342730E+02  0.87231233155E+02  0.80051518084E+02 0.  0.
          6    2    1    2  502    0  0.24796163645E+02 -0.18836853839E+03  0.13405996346E+03  0.29005973925E+03  0.17339268308E+03 0.  0.
         24    2    5    5    0    0  0.47514525504E+02 -0.10730815500E+03  0.13462091988E+02  0.14291067767E+03  0.80433597503E+02 0.  0.
          4    1    6    6  501    0  0.15882654507E+02  0.22133471696E+01  0.23523574279E+02  0.28469565622E+02  0.00000000000E+00 0. -1.
         -3    1    6    6    0  501  0.31631870997E+02 -0.10952150217E+03 -0.10061482291E+02  0.11444111205E+03  0.00000000000E+00 0.  1.
          5    1    5    5  502    0 -0.22718361859E+02 -0.81060383387E+02  0.12059787147E+03  0.14714906158E+03  0.47000000000E+01 0. -1.
         13    1    4    4    0    0 -0.15462268834E+02  0.50305836574E+02  0.25679406745E+02  0.58559293726E+02  0.00000000000E+00 0. -1.
        -14    1    4    4    0    0  0.13268633645E+02 -0.25358451749E+02 -0.17240640150E+01  0.28671939429E+02  0.00000000000E+00 0.  1.
         -5    1    3    3    0  504 -0.22602528456E+02  0.16342115356E+03 -0.44315207437E+02  0.17088965836E+03  0.47000000000E+01 0.  1.
<mgrwt>
<rscale>  2 0.25729272E+03</rscale>
<asrwt>0</asrwt>
<pdfrwt beam="1">  1       21 0.50913903E-01 0.25731667E+03</pdfrwt>
<pdfrwt beam="2">  1       21 0.33421579E-01 0.25731667E+03</pdfrwt>
<totfact> 0.30646530E+04</totfact>
</mgrwt>
</event>
<event>
12    1  0.2743855E-001  0.1946211E+03  0.7546771E-02  0.1154631E+00
         21   -1    0    0  502  503  0.00000000000E+00  0.00000000000E+00  0.57137577385E+02  0.57137577385E+02  0.00000000000E+00 0. -1.
         21   -1    0    0  503  504 -0.00000000000E+00 -0.00000000000E+00 -0.20743732318E+04  0.20743732318E+04  0.00000000000E+00 0. -1.
         -6    2    1    2    0  504  0.86940464636E+02 -0.14117338807E+02 -0.18880253776E+04  0.18979028938E+04  0.17215581306E+03 0.  0.
        -24    2    3    3    0    0  0.72607188755E+02 -0.52246216955E+01 -0.18687032171E+04  0.18718268683E+04  0.79906262965E+02 0.  0.
          6    2    1    2  502    0 -0.86940464636E+02  0.14117338807E+02 -0.12921027676E+03  0.23360791539E+03  0.17354947094E+03 0.  0.
         24    2    5    5    0    0 -0.12068037527E+03  0.27659926471E+02 -0.71255670028E+02  0.16503233889E+03  0.82640655003E+02 0.  0.
          2    1    6    6  501    0 -0.15073297079E+02 -0.49462634724E+01  0.17250867229E+02  0.23436344155E+02  0.00000000000E+00 0. -1.
         -1    1    6    6    0  501 -0.10560707819E+03  0.32606189944E+02 -0.88506537257E+02  0.14159599473E+03  0.00000000000E+00 0.  1.
          5    1    5    5  502    0  0.33739910639E+02 -0.13542587664E+02 -0.57954606733E+02  0.68575576498E+02  0.47000000000E+01 0. -1.
         13    1    4    4    0    0  0.35022419838E+02 -0.36600360541E+02 -0.13111296388E+04  0.13121078789E+04  0.00000000000E+00 0. -1.
        -14    1    4    4    0    0  0.37584768916E+02  0.31375738846E+02 -0.55757357833E+03  0.55971898940E+03  0.00000000000E+00 0.  1.
         -5    1    3    3    0  504  0.14333275881E+02 -0.88927171114E+01 -0.19322160500E+02  0.26076025416E+02  0.47000000000E+01 0.  1.
<mgrwt>
<rscale>  2 0.19430989E+03</rscale>
<asrwt>0</asrwt>
<pdfrwt beam="1">  1       21 0.87903965E-02 0.19462107E+03</pdfrwt>
<pdfrwt beam="2">  1       21 0.31913434E+00 0.19462107E+03</pdfrwt>
<totfact> 0.26885135E+03</totfact>
</mgrwt>
</event>
<event>
12    1  0.2743855E-001  0.2589847E+03  0.7546771E-02  0.1107779E+00
         21   -1    0    0  502  503  0.00000000000E+00  0.00000000000E+00  0.24005798357E+03  0.24005798357E+03  0.00000000000E+00 0.  1.
         21   -1    0    0  503  504 -0.00000000000E+00 -0.00000000000E+00 -0.41075355947E+03  0.41075355947E+03  0.00000000000E+00 0. -1.
         -6    2    1    2    0  504 -0.19054200127E+03  0.25169900455E+02  0.98803617250E+02  0.27704303665E+03  0.17335198654E+03 0.  0.
        -24    2    3    3    0    0 -0.14218748857E+03  0.36604845554E+02  0.69259803876E+00  0.16696679508E+03  0.79499901534E+02 0.  0.
          6    2    1    2  502    0  0.19054200127E+03 -0.25169900455E+02 -0.26949919315E+03  0.37376850638E+03  0.17358946719E+03 0.  0.
         24    2    5    5    0    0  0.43315871826E+02 -0.39149566338E+02 -0.55018230018E+02  0.11320155185E+03  0.79866340910E+02 0.  0.
          4    1    6    6  501    0  0.53228824066E+02 -0.56054612138E+02 -0.33948981540E+02  0.84427250346E+02  0.00000000000E+00 0. -1.
         -3    1    6    6    0  501 -0.99129522401E+01  0.16905045800E+02 -0.21069248479E+02  0.28774301504E+02  0.00000000000E+00 0.  1.
          5    1    5    5  502    0  0.14722612944E+03  0.13979665884E+02 -0.21448096313E+03  0.26056695453E+03  0.47000000000E+01 0. -1.
         13    1    4    4    0    0 -0.12075229778E+03  0.34292726738E+01  0.20906760780E+02  0.12259677800E+03  0.00000000000E+00 0. -1.
        -14    1    4    4    0    0 -0.21435190787E+02  0.33175572881E+02 -0.20214162742E+02  0.44370017076E+02  0.00000000000E+00 0.  1.
         -5    1    3    3    0  504 -0.48354512702E+02 -0.11434945100E+02  0.98111019211E+02  0.11007624157E+03  0.47000000000E+01 0.  1.
<mgrwt>
<rscale>  2 0.25894492E+03</rscale>
<asrwt>0</asrwt>
<pdfrwt beam="1">  1       21 0.36931998E-01 0.25898471E+03</pdfrwt>
<pdfrwt beam="2">  1       21 0.63192855E-01 0.25898471E+03</pdfrwt>
<totfact> 0.15784372E+04</totfact>
</mgrwt>
</event>
<event>
12    1  0.2743855E-001  0.1851718E+03  0.7546771E-02  0.1163115E+00
         21   -1    0    0  502  503  0.00000000000E+00  0.00000000000E+00  0.54839252571E+03  0.54839252571E+03  0.00000000000E+00 0. -1.
         21   -1    0    0  503  504 -0.00000000000E+00 -0.00000000000E+00 -0.64542945333E+02  0.64542945333E+02  0.00000000000E+00 0. -1.
         -6    2    1    2    0  504 -0.43819753038E+02  0.48924520354E+02  0.18292872212E+03  0.25960566763E+03  0.17209998792E+03 0.  0.
        -24    2    3    3    0    0 -0.19252133522E+02  0.10095891931E+03  0.12532706598E+03  0.17805085544E+03  0.73701327128E+02 0.  0.
          6    2    1    2  502    0  0.43819753038E+02 -0.48924520354E+02  0.30092085826E+03  0.35332980341E+03  0.17313234128E+03 0.  0.
         24    2    5    5    0    0 -0.18278465319E+02  0.11388604944E+01  0.64094030910E+02  0.10338667593E+03  0.79027594316E+02 0.  0.
          2    1    6    6  501    0 -0.14411685351E+02 -0.16694150054E+02 -0.12019133512E+02  0.25116745233E+02  0.00000000000E+00 0. -1.
         -1    1    6    6    0  501 -0.38667799683E+01  0.17833010549E+02  0.76113164422E+02  0.78269930694E+02  0.00000000000E+00 0.  1.
          5    1    5    5  502    0  0.62098218357E+02 -0.50063380849E+02  0.23682682735E+03  0.24994312749E+03  0.47000000000E+01 0. -1.
         13    1    4    4    0    0 -0.22851269539E+02  0.67406203227E+02  0.12553153627E+03  0.14430503578E+03  0.00000000000E+00 0. -1.
        -14    1    4    4    0    0  0.35991360170E+01  0.33552716079E+02 -0.20447028198E+00  0.33745819659E+02  0.00000000000E+00 0.  1.
         -5    1    3    3    0  504 -0.24567619516E+02 -0.52034398952E+02  0.57601656136E+02  0.81554812197E+02  0.47000000000E+01 0.  1.
<mgrwt>
<rscale>  2 0.18493009E+03</rscale>
<asrwt>0</asrwt>
<pdfrwt beam="1">  1       21 0.84368078E-01 0.18517178E+03</pdfrwt>
<pdfrwt beam="2">  1       21 0.99296843E-02 0.18517178E+03</pdfrwt>
<totfact> 0.10044187E+05</totfact>
</mgrwt>
</event>
<event>
12    1  0.2743855E-001  0.2044136E+03  0.7546771E-02  0.1146525E+00
         21   -1    0    0  502  503  0.00000000000E+00  0.00000000000E+00  0.12912588943E+04  0.12912588943E+04  0.00000000000E+00 0.  1.
         21   -1    0    0  503  504 -0.00000000000E+00 -0.00000000000E+00 -0.14894564229E+03  0.14894564229E+03  0.00000000000E+00 0.  1.
         -6    2    1    2    0  504 -0.50022373038E+02  0.94365528413E+02 -0.67558540056E+02  0.21318592657E+03  0.17168864900E+03 0.  0.
        -24    2    3    3    0    0 -0.89444787859E+01 -0.22629214072E+00  0.13816342774E+02  0.81736440198E+02  0.80061847466E+02 0.  0.
          6    2    1    2  502    0  0.50022373038E+02 -0.94365528413E+02  0.12098717921E+04  0.12270186100E+04  0.17429235599E+03 0.  0.
         24    2    5    5    0    0  0.22888704050E+02 -0.96839812211E+02  0.48876340153E+03  0.50538036342E+03  0.81349905017E+02 0.  0.
          2    1    6    6  501    0  0.27562281652E+02 -0.98533812382E+02  0.30802388226E+03  0.32457249359E+03  0.00000000000E+00 0. -1.
         -1    1    6    6    0  501 -0.46735776023E+01  0.16940001707E+01  0.18073951927E+03  0.18080786983E+03  0.00000000000E+00 0.  1.
          5    1    5    5  502    0  0.27133668988E+02  0.24742837980E+01  0.72110839055E+03  0.72163824663E+03  0.47000000000E+01 0. -1.
         13    1    4    4    0    0  0.98874893203E+01  0.31908531924E+02 -0.12994827518E+02  0.35843861355E+02  0.00000000000E+00 0. -1.
        -14    1    4    4    0    0 -0.18831968106E+02 -0.32134824065E+02  0.26811170291E+02  0.45892578843E+02  0.00000000000E+00 0.  1.
         -5    1    3    3    0  504 -0.41077894252E+02  0.94591820554E+02 -0.81374882830E+02  0.13144948637E+03  0.47000000000E+01 0.  1.
<mgrwt>
<rscale>  2 0.20385746E+03</rscale>
<asrwt>0</asrwt>
<pdfrwt beam="1">  1       21 0.19865521E+00 0.20441359E+03</pdfrwt>
<pdfrwt beam="2">  1       21 0.22914715E-01 0.20441359E+03</pdfrwt>
<totfact> 0.24195596E+03</totfact>
</mgrwt>
</event>
<event>
12    1  0.2743855E-001  0.2210950E+03  0.7546771E-02  0.1133299E+00
         21   -1    0    0  502  503  0.00000000000E+00  0.00000000000E+00  0.43112817658E+02  0.43112817658E+02  0.00000000000E+00 0.  1.
         21   -1    0    0  503  504 -0.00000000000E+00 -0.00000000000E+00 -0.15075622476E+04  0.15075622476E+04  0.00000000000E+00 0. -1.
         -6    2    1    2    0  504 -0.13541109822E+03  0.27704174097E+01 -0.11199808780E+04  0.11413566471E+04  0.17318772529E+03 0.  0.
        -24    2    3    3    0    0 -0.15442770647E+03 -0.32036833207E+02 -0.98531008916E+03  0.10008878341E+04  0.77885874012E+02 0.  0.
          6    2    1    2  502    0  0.13541109822E+03 -0.27704174097E+01 -0.34446855197E+03  0.40931841812E+03  0.17475452323E+03 0.  0.
         24    2    5    5    0    0  0.69733994154E+02 -0.18684160830E+02 -0.73475544673E+02  0.12998702134E+03  0.79284564986E+02 0.  0.
          2    1    6    6  501    0  0.67670207688E+02  0.60178262416E+01 -0.79402843628E+02  0.10450015702E+03  0.00000000000E+00 0. -1.
         -1    1    6    6    0  501  0.20637864663E+01 -0.24701987071E+02  0.59272989558E+01  0.25486864318E+02  0.00000000000E+00 0.  1.
          5    1    5    5  502    0  0.65677104067E+02  0.15913743420E+02 -0.27099300729E+03  0.27933139678E+03  0.47000000000E+01 0. -1.
         11    1    4    4    0    0 -0.11432779919E+03  0.12210486803E+02 -0.70192532814E+03  0.71127990829E+03  0.00000000000E+00 0. -1.
        -12    1    4    4    0    0 -0.40099907280E+02 -0.44247320010E+02 -0.28338476103E+03  0.28960792578E+03  0.00000000000E+00 0.  1.
         -5    1    3    3    0  504  0.19016608250E+02  0.34807250616E+02 -0.13467078883E+03  0.14046881308E+03  0.47000000000E+01 0.  1.
<mgrwt>
<rscale>  2 0.22078524E+03</rscale>
<asrwt>0</asrwt>
<pdfrwt beam="1">  1       21 0.66327403E-02 0.22109497E+03</pdfrwt>
<pdfrwt beam="2">  1       21 0.23193268E+00 0.22109497E+03</pdfrwt>
<totfact> 0.13801184E+04</totfact>
</mgrwt>
</event>
<event>
12    1  0.2743855E-001  0.1815035E+03  0.7546771E-02  0.1167021E+00
         21   -1    0    0  502  503  0.00000000000E+00  0.00000000000E+00  0.10651023056E+03  0.10651023056E+03  0.00000000000E+00 0.  1.
         21   -1    0    0  503  504 -0.00000000000E+00 -0.00000000000E+00 -0.84491333219E+03  0.84491333219E+03  0.00000000000E+00 0.  1.
         -6    2    1    2    0  504  0.15996003222E+02  0.42000608460E+02 -0.74858954803E+03  0.76963443342E+03  0.17300556770E+03 0.  0.
        -24    2    3    3    0    0  0.79537184785E+02  0.24324034747E+02 -0.40990639744E+03  0.42455718192E+03  0.72854125641E+02 0.  0.
          6    2    1    2  502    0 -0.15996003222E+02 -0.42000608460E+02  0.10186446395E+02  0.18178912934E+03  0.17585107513E+03 0.  0.
         24    2    5    5    0    0  0.55403840574E+02 -0.27014700566E+02  0.30236411084E+02  0.10598275617E+03  0.80738618098E+02 0.  0.
          2    1    6    6  501    0  0.72745748914E+02 -0.50677563341E+01  0.16256150139E+02  0.74712037561E+02  0.00000000000E+00 0. -1.
         -1    1    6    6    0  501 -0.17341908340E+02 -0.21946944232E+02  0.13980260945E+02  0.31270718605E+02  0.00000000000E+00 0.  1.
          5    1    5    5  502    0 -0.71399843795E+02 -0.14985907894E+02 -0.20049964688E+02  0.75806373171E+02  0.47000000000E+01 0. -1.
         13    1    4    4    0    0  0.10612621341E+02 -0.23828723228E+02 -0.82393378113E+02  0.86423981274E+02  0.00000000000E+00 0. -1.
        -14    1    4    4    0    0  0.68924563443E+02  0.48152757975E+02 -0.32751301933E+03  0.33813320064E+03  0.00000000000E+00 0.  1.
         -5    1    3    3    0  504 -0.63541181563E+02  0.17676573713E+02 -0.33868315058E+03  0.34507725150E+03  0.47000000000E+01 0.  1.
<mgrwt>
<rscale>  2 0.18081068E+03</rscale>
<asrwt>0</asrwt>
<pdfrwt beam="1">  1       21 0.16386189E-01 0.18150351E+03</pdfrwt>
<pdfrwt beam="2">  1       21 0.12998667E+00 0.18150351E+03</pdfrwt>
<totfact> 0.14542489E+04</totfact>
</mgrwt>
</event>
<event>
12    1  0.2743855E-001  0.2533876E+03  0.7546771E-02  0.1111312E+00
         21   -1    0    0  502  503  0.00000000000E+00  0.00000000000E+00  0.29132032344E+03  0.29132032344E+03  0.00000000000E+00 0. -1.
         21   -1    0    0  503  504 -0.00000000000E+00 -0.00000000000E+00 -0.23656379300E+03  0.23656379300E+03  0.00000000000E+00 0. -1.
         -6    2    1    2    0  504  0.18341074881E+03 -0.17563844376E+02 -0.43197588152E+02  0.25622207834E+03  0.17273022433E+03 0.  0.
        -24    2    3    3    0    0  0.35424460987E+02  0.28395981235E+02  0.99049958992E+01  0.92349501662E+02  0.79806624580E+02 0.  0.
          6    2    1    2  502    0 -0.18341074881E+03  0.17563844376E+02  0.97954118587E+02  0.27166203810E+03  0.17394614738E+03 0.  0.
         24    2    5    5    0    0 -0.13018409032E+03  0.67641054355E+02  0.10573435010E+03  0.19801812365E+03  0.80673508027E+02 0.  0.
          2    1    6    6  501    0  0.99818545573E+01  0.10596267734E+02  0.23513905239E+01  0.14746096015E+02  0.00000000000E+00 0. -1.
         -1    1    6    6    0  501 -0.14016594488E+03  0.57044786622E+02  0.10338295957E+03  0.18327202764E+03  0.00000000000E+00 0.  1.
          5    1    5    5  502    0 -0.53226658493E+02 -0.50077209979E+02 -0.77802315110E+01  0.73643914453E+02  0.47000000000E+01 0. -1.
         11    1    4    4    0    0  0.31796364872E+02 -0.14886459158E+02 -0.19247866586E+02  0.40038679466E+02  0.00000000000E+00 0. -1.
        -12    1    4    4    0    0  0.36280961157E+01  0.43282440392E+02  0.29152862485E+02  0.52310822196E+02  0.00000000000E+00 0.  1.
         -5    1    3    3    0  504  0.14798628782E+03 -0.45959825611E+02 -0.53102584051E+02  0.16387257668E+03  0.47000000000E+01 0.  1.
<mgrwt>
<rscale>  2 0.25317901E+03</rscale>
<asrwt>0</asrwt>
<pdfrwt beam="1">  1       21 0.44818511E-01 0.25338756E+03</pdfrwt>
<pdfrwt beam="2">  1       21 0.36394430E-01 0.25338756E+03</pdfrwt>
<totfact> 0.33782512E+04</totfact>
</mgrwt>
</event>
<event>
12    1  0.2743855E-001  0.1902638E+03  0.7546771E-02  0.1158276E+00
         21   -1    0    0  502  503  0.00000000000E+00  0.00000000000E+00  0.15020409090E+03  0.15020409090E+03  0.00000000000E+00 0.  1.
         21   -1    0    0  503  504 -0.00000000000E+00 -0.00000000000E+00 -0.24912135018E+03  0.24912135018E+03  0.00000000000E+00 0.  1.
         -6    2    1    2    0  504 -0.33963247417E+02  0.70570229447E+02 -0.86167170952E+02  0.20886622978E+03  0.17339740809E+03 0.  0.
        -24    2    3    3    0    0 -0.73153596644E+02  0.15700583562E+01 -0.37616242915E+02  0.11572016332E+03  0.81377273752E+02 0.  0.
          6    2    1    2  502    0  0.33963247417E+02 -0.70570229447E+02 -0.12750088334E+02  0.19045921130E+03  0.17314296682E+03 0.  0.
         24    2    5    5    0    0  0.25643222325E+02 -0.82954703797E+02  0.48752525012E+02  0.12699851897E+03  0.78821046635E+02 0.  0.
          4    1    6    6  501    0  0.49461218049E+02 -0.76861316314E+02  0.30416753062E+02  0.96328878864E+02  0.00000000000E+00 0. -1.
         -3    1    6    6    0  501 -0.23817995724E+02 -0.60933874834E+01  0.18335771951E+02  0.30669640108E+02  0.00000000000E+00 0.  1.
          5    1    5    5  502    0  0.83200250914E+01  0.12384474350E+02 -0.61502613347E+02  0.63460692329E+02  0.47000000000E+01 0. -1.
         11    1    4    4    0    0 -0.58207353802E+02 -0.12039617367E+02 -0.60754948994E+02  0.84995366052E+02  0.00000000000E+00 0. -1.
        -12    1    4    4    0    0 -0.14946242842E+02  0.13609675723E+02  0.23138706079E+02  0.30724797272E+02  0.00000000000E+00 0.  1.
         -5    1    3    3    0  504  0.39190349227E+02  0.69000171091E+02 -0.48550928036E+02  0.93146066456E+02  0.47000000000E+01 0.  1.
<mgrwt>
<rscale>  2 0.19020583E+03</rscale>
<asrwt>0</asrwt>
<pdfrwt beam="1">  1       21 0.23108322E-01 0.19026382E+03</pdfrwt>
<pdfrwt beam="2">  1       21 0.38326362E-01 0.19026382E+03</pdfrwt>
<totfact> 0.11558783E+05</totfact>
</mgrwt>
</event>
<event>
12    1  0.2743855E-001  0.2268570E+03  0.7546771E-02  0.1128994E+00
         21   -1    0    0  502  503  0.00000000000E+00  0.00000000000E+00  0.71461218450E+02  0.71461218450E+02  0.00000000000E+00 0.  1.
         21   -1    0    0  503  504 -0.00000000000E+00 -0.00000000000E+00 -0.71829451186E+03  0.71829451186E+03  0.00000000000E+00 0.  1.
         -6    2    1    2    0  504 -0.47359470904E+02  0.13899032430E+03 -0.33091138930E+03  0.40082031466E+03  0.17202717036E+03 0.  0.
        -24    2    3    3    0    0 -0.54741387719E+02  0.10428621422E+03 -0.33592280448E+03  0.36468069327E+03  0.79218959027E+02 0.  0.
          6    2    1    2  502    0  0.47359470904E+02 -0.13899032430E+03 -0.31592190410E+03  0.38893541565E+03  0.17292448733E+03 0.  0.
         24    2    5    5    0    0  0.97298276915E+02 -0.11655327066E+03 -0.23982313699E+03  0.29507158833E+03  0.80625589068E+02 0.  0.
          4    1    6    6  501    0  0.43635568167E+02 -0.10731219886E+03 -0.14351697469E+03  0.18443723284E+03  0.00000000000E+00 0. -1.
         -3    1    6    6    0  501  0.53662708748E+02 -0.92410717996E+01 -0.96306162297E+02  0.11063435549E+03  0.00000000000E+00 0.  1.
          5    1    5    5  502    0 -0.49938806011E+02 -0.22437053640E+02 -0.76098767116E+02  0.93863827316E+02  0.47000000000E+01 0. -1.
         11    1    4    4    0    0 -0.44912468870E+01  0.14660849423E+02 -0.21908816199E+01  0.15489085404E+02  0.00000000000E+00 0. -1.
        -12    1    4    4    0    0 -0.50250140832E+02  0.89625364800E+02 -0.33373192286E+03  0.34919160787E+03  0.00000000000E+00 0.  1.
         -5    1    3    3    0  504  0.73819168153E+01  0.34704110075E+02  0.50114151790E+01  0.36139621388E+02  0.47000000000E+01 0.  1.
<mgrwt>
<rscale>  2 0.22668602E+03</rscale>
<asrwt>0</asrwt>
<pdfrwt beam="1">  1       21 0.10994034E-01 0.22685702E+03</pdfrwt>
<pdfrwt beam="2">  1       21 0.11050684E+00 0.22685702E+03</pdfrwt>
<totfact> 0.43531867E+04</totfact>
</mgrwt>
</event>
<event>
12    1  0.2743855E-001  0.1961792E+03  0.7546771E-02  0.1153268E+00
         21   -1    0    0  502  503  0.00000000000E+00  0.00000000000E+00  0.86049469938E+03  0.86049469938E+03  0.00000000000E+00 0.  1.
         21   -1    0    0  503  504 -0.00000000000E+00 -0.00000000000E+00 -0.48364072434E+02  0.48364072434E+02  0.00000000000E+00 0.  1.
         -6    2    1    2    0  504  0.58591369920E+02 -0.72187455789E+02  0.53421332146E+03  0.56867602315E+03  0.17136093218E+03 0.  0.
        -24    2    3    3    0    0  0.55237440003E+02 -0.56409066554E+02  0.16357641378E+03  0.19765848482E+03  0.77964581119E+02 0.  0.
          6    2    1    2  502    0 -0.58591369920E+02  0.72187455789E+02  0.27791730549E+03  0.34018274867E+03  0.17274922981E+03 0.  0.
         24    2    5    5    0    0 -0.44544231798E+02 -0.17358484596E+02  0.87131576764E+02  0.12890785235E+03  0.82096389410E+02 0.  0.
          4    1    6    6  501    0  0.21902165700E+02 -0.18194662030E+02  0.23795638312E+02  0.37107721453E+02  0.00000000000E+00 0. -1.
         -3    1    6    6    0  501 -0.66446397498E+02  0.83617743364E+00  0.63335938452E+02  0.91800130897E+02  0.00000000000E+00 0.  1.
          5    1    5    5  502    0 -0.14047138122E+02  0.89545940385E+02  0.19078572873E+03  0.21127489632E+03  0.47000000000E+01 0. -1.
         11    1    4    4    0    0 -0.75704744911E+00  0.46453362291E+01 -0.67645168073E+01  0.82408104673E+01  0.00000000000E+00 0. -1.
        -12    1    4    4    0    0  0.55994487452E+02 -0.61054402784E+02  0.17034093059E+03  0.18941767435E+03  0.00000000000E+00 0.  1.
         -5    1    3    3    0  504  0.33539299168E+01 -0.15778389234E+02  0.37063690768E+03  0.37101753832E+03  0.47000000000E+01 0.  1.
<mgrwt>
<rscale>  2 0.19587313E+03</rscale>
<asrwt>0</asrwt>
<pdfrwt beam="1">  1       21 0.13238379E+00 0.19617919E+03</pdfrwt>
<pdfrwt beam="2">  1       21 0.74406272E-02 0.19617919E+03</pdfrwt>
<totfact> 0.56085414E+04</totfact>
</mgrwt>
</event>
<event>
12    1  0.2743855E-001  0.1895139E+03  0.7546771E-02  0.1161687E+00
         21   -1    0    0  502  503  0.00000000000E+00  0.00000000000E+00  0.23536394105E+03  0.23536394105E+03  0.00000000000E+00 0.  1.
         21   -1    0    0  503  504 -0.00000000000E+00 -0.00000000000E+00 -0.16471354674E+03  0.16471354674E+03  0.00000000000E+00 0.  1.
         -6    2    1    2    0  504 -0.41688840152E+02 -0.67693889488E+02 -0.35996853758E+02  0.19290230807E+03  0.17203227869E+03 0.  0.
        -24    2    3    3    0    0  0.18645691066E+02 -0.87434801550E+02 -0.44877373625E+02  0.12863012980E+03  0.80865476639E+02 0.  0.
          6    2    1    2  502    0  0.41688840152E+02  0.67693889488E+02  0.10664724806E+03  0.20717517971E+03  0.15883166404E+03 0.  0.
         24    2    5    5    0    0  0.33767279117E+02  0.69714227141E+02  0.13597762867E+03  0.17636618557E+03  0.81331502563E+02 0.  0.
          4    1    6    6  501    0  0.71081196763E+00  0.77987579843E+02  0.89098645528E+02  0.11841087998E+03  0.00000000000E+00 0. -1.
         -3    1    6    6    0  501  0.33056467150E+02 -0.82733527021E+01  0.46878983143E+02  0.57955305589E+02  0.00000000000E+00 0.  1.
          5    1    5    5  502    0  0.79215610351E+01 -0.20203376528E+01 -0.29330380608E+02  0.30808994142E+02  0.47000000000E+01 0. -1.
         13    1    4    4    0    0 -0.28283602739E+00 -0.70434872026E+01 -0.45495285105E+02  0.46038154556E+02  0.00000000000E+00 0. -1.
        -14    1    4    4    0    0  0.18928527093E+02 -0.80391314348E+02  0.61791147968E+00  0.82591975246E+02  0.00000000000E+00 0.  1.
         -5    1    3    3    0  504 -0.60334531218E+02  0.19740912063E+02  0.88805198673E+01  0.64272178269E+02  0.47000000000E+01 0.  1.
<mgrwt>
<rscale>  2 0.18646709E+03</rscale>
<asrwt>0</asrwt>
<pdfrwt beam="1">  1       21 0.36209837E-01 0.18951392E+03</pdfrwt>
<pdfrwt beam="2">  1       21 0.25340546E-01 0.18951392E+03</pdfrwt>
<totfact> 0.10868880E+05</totfact>
</mgrwt>
</event>
<event>
12    1  0.2743855E-001  0.2262643E+03  0.7546771E-02  0.1129369E+00
         21   -1    0    0  502  503  0.00000000000E+00  0.00000000000E+00  0.15051309775E+03  0.15051309775E+03  0.00000000000E+00 0.  1.
         21   -1    0    0  503  504 -0.00000000000E+00 -0.00000000000E+00 -0.34092009797E+03  0.34092009797E+03  0.00000000000E+00 0.  1.
         -6    2    1    2    0  504 -0.92277140029E+02 -0.11456157440E+03 -0.11074775876E+03  0.25155586900E+03  0.17139388629E+03 0.  0.
        -24    2    3    3    0    0 -0.21628006538E+01 -0.43731049636E+02  0.33216117166E+01  0.89779885984E+02  0.78309082576E+02 0.  0.
          6    2    1    2  502    0  0.92277140029E+02  0.11456157440E+03 -0.79659241452E+02  0.23987732672E+03  0.17191891177E+03 0.  0.
         24    2    5    5    0    0  0.11995664418E+03  0.12955484387E+03 -0.60312295918E+02  0.20263021433E+03  0.79040348366E+02 0.  0.
          2    1    6    6  501    0  0.62942627844E+02  0.25048708011E+02  0.29702519362E+01  0.67808808937E+02  0.00000000000E+00 0. -1.
         -1    1    6    6    0  501  0.57014016338E+02  0.10450613586E+03 -0.63282547854E+02  0.13482140540E+03  0.00000000000E+00 0.  1.
          5    1    5    5  502    0 -0.27679504153E+02 -0.14993269470E+02 -0.19346945534E+02  0.37247112385E+02  0.47000000000E+01 0. -1.
         11    1    4    4    0    0  0.11634892769E+02  0.13987361401E+02  0.21069872982E+02  0.27838041529E+02  0.00000000000E+00 0. -1.
        -12    1    4    4    0    0 -0.13797693422E+02 -0.57718411037E+02 -0.17748261265E+02  0.61941844454E+02  0.00000000000E+00 0.  1.
         -5    1    3    3    0  504 -0.90114339375E+02 -0.70830524761E+02 -0.11406937048E+03  0.16177598302E+03  0.47000000000E+01 0.  1.
<mgrwt>
<rscale>  2 0.22616458E+03</rscale>
<asrwt>0</asrwt>
<pdfrwt beam="1">  1       21 0.23155861E-01 0.22626431E+03</pdfrwt>
<pdfrwt beam="2">  1       21 0.52449245E-01 0.22626431E+03</pdfrwt>
<totfact> 0.59506398E+04</totfact>
</mgrwt>
</event>
<event>
12    1  0.2743855E-001  0.2448316E+03  0.7546771E-02  0.1116716E+00
         21   -1    0    0  502  503  0.00000000000E+00  0.00000000000E+00  0.86382364202E+02  0.86382364202E+02  0.00000000000E+00 0. -1.
         21   -1    0    0  503  504 -0.00000000000E+00 -0.00000000000E+00 -0.94507983314E+03  0.94507983314E+03  0.00000000000E+00 0.  1.
         -6    2    1    2    0  504 -0.16049514244E+03  0.67490147125E+02 -0.69574374702E+03  0.73735940965E+03  0.17124814388E+03 0.  0.
        -24    2    3    3    0    0 -0.86357722054E+02  0.20289096448E+02 -0.19338979756E+03  0.22735364809E+03  0.80129669337E+02 0.  0.
          6    2    1    2  502    0  0.16049514244E+03 -0.67490147125E+02 -0.16295372193E+03  0.29410278770E+03  0.17213054213E+03 0.  0.
         24    2    5    5    0    0  0.16652196127E+03 -0.91661081072E+02 -0.10799342443E+03  0.23357774417E+03  0.82247586477E+02 0.  0.
          2    1    6    6  501    0  0.13594715813E+03 -0.70885176899E+02 -0.43715140201E+02  0.15942820199E+03  0.00000000000E+00 0. -1.
         -1    1    6    6    0  501  0.30574803143E+02 -0.20775904173E+02 -0.64278284231E+02  0.74149542177E+02  0.00000000000E+00 0.  1.
          5    1    5    5  502    0 -0.60268188327E+01  0.24170933948E+02 -0.54960297496E+02  0.60525043527E+02  0.47000000000E+01 0. -1.
         11    1    4    4    0    0 -0.88186554131E+02  0.11344970689E+02 -0.10119148550E+03  0.13470446699E+03  0.00000000000E+00 0. -1.
        -12    1    4    4    0    0  0.18288320764E+01  0.89441257594E+01 -0.92198312060E+02  0.92649181103E+02  0.00000000000E+00 0.  1.
         -5    1    3    3    0  504 -0.74137420386E+02  0.47201050677E+02 -0.50235394946E+03  0.51000576156E+03  0.47000000000E+01 0.  1.
<mgrwt>
<rscale>  2 0.24467661E+03</rscale>
<asrwt>0</asrwt>
<pdfrwt beam="1">  1       21 0.13289593E-01 0.24483164E+03</pdfrwt>
<pdfrwt beam="2">  1       21 0.14539691E+00 0.24483164E+03</pdfrwt>
<totfact> 0.15324085E+04</totfact>
</mgrwt>
</event>
<event>
12    1  0.2743855E-001  0.1953177E+03  0.7546771E-02  0.1153772E+00
         21   -1    0    0  502  503  0.00000000000E+00  0.00000000000E+00  0.19236792551E+03  0.19236792551E+03  0.00000000000E+00 0. -1.
         21   -1    0    0  503  504 -0.00000000000E+00 -0.00000000000E+00 -0.20199398520E+03  0.20199398520E+03  0.00000000000E+00 0. -1.
         -6    2    1    2    0  504  0.91124986065E+02 -0.22497360793E+02 -0.31790787867E+02  0.19788794938E+03  0.17128657854E+03 0.  0.
        -24    2    3    3    0    0  0.10540407715E+03 -0.23323026864E+02 -0.74812023947E+02  0.15230844828E+03  0.77117063159E+02 0.  0.
          6    2    1    2  502    0 -0.91124986065E+02  0.22497360793E+02  0.22164728172E+02  0.19647396133E+03  0.17117490464E+03 0.  0.
         24    2    5    5    0    0 -0.12847177654E+03  0.87038528900E+01  0.38726962029E+01  0.15240887251E+03  0.81441464993E+02 0.  0.
          2    1    6    6  501    0 -0.51778120683E+02 -0.29724653068E+02  0.23916128144E+02  0.64315705445E+02  0.00000000000E+00 0. -1.
         -1    1    6    6    0  501 -0.76693655862E+02  0.38428505958E+02 -0.20043431941E+02  0.88093167065E+02  0.00000000000E+00 0.  1.
          5    1    5    5  502    0  0.37346790479E+02  0.13793507903E+02  0.18292031970E+02  0.44065088822E+02  0.47000000000E+01 0. -1.
         11    1    4    4    0    0  0.49497843504E+02 -0.25416151748E+02 -0.78524639602E+02  0.96239993276E+02  0.00000000000E+00 0. -1.
        -12    1    4    4    0    0  0.55906233642E+02  0.20931248832E+01  0.37126156552E+01  0.56068455007E+02  0.00000000000E+00 0.  1.
         -5    1    3    3    0  504 -0.14279091081E+02  0.82566607169E+00  0.43021236080E+02  0.45579501099E+02  0.47000000000E+01 0.  1.
<mgrwt>
<rscale>  2 0.19529317E+03</rscale>
<asrwt>0</asrwt>
<pdfrwt beam="1">  1       21 0.29595065E-01 0.19531765E+03</pdfrwt>
<pdfrwt beam="2">  1       21 0.31075998E-01 0.19531765E+03</pdfrwt>
<totfact> 0.10873712E+05</totfact>
</mgrwt>
</event>
<event>
12    1  0.2743855E-001  0.1990054E+03  0.7546771E-02  0.1150643E+00
         21   -1    0    0  502  503  0.00000000000E+00  0.00000000000E+00  0.10919746124E+04  0.10919746124E+04  0.00000000000E+00 0.  1.
         21   -1    0    0  503  504 -0.00000000000E+00 -0.00000000000E+00 -0.60876686742E+02  0.60876686742E+02  0.00000000000E+00 0.  1.
         -6    2    1    2    0  504 -0.20451574459E+02 -0.96932138662E+02  0.14888509661E+03  0.24853552916E+03  0.17259499083E+03 0.  0.
        -24    2    3    3    0    0 -0.53276663623E+02 -0.61596139871E+02  0.30487211980E+02  0.12060481208E+03  0.83567716659E+02 0.  0.
          6    2    1    2  502    0  0.20451574459E+02  0.96932138662E+02  0.88221282905E+03  0.90431576999E+03  0.17225977387E+03 0.  0.
         24    2    5    5    0    0  0.16025171422E+02  0.13558872427E+03  0.74735310569E+03  0.76387660294E+03  0.79559359398E+02 0.  0.
          2    1    6    6  501    0 -0.66371751848E+01  0.11877369213E+03  0.45969250674E+03  0.47483517433E+03  0.00000000000E+00 0. -1.
         -1    1    6    6    0  501  0.22662346607E+02  0.16815032136E+02  0.28766059896E+03  0.28904142861E+03  0.00000000000E+00 0.  1.
          5    1    5    5  502    0  0.44264030374E+01 -0.38656585606E+02  0.13485972336E+03  0.14043916704E+03  0.47000000000E+01 0. -1.
         13    1    4    4    0    0  0.20268524846E+02 -0.31420005081E+01  0.14955128386E+02  0.25383875426E+02  0.00000000000E+00 0. -1.
        -14    1    4    4    0    0 -0.73545188469E+02 -0.58454139363E+02  0.15532083594E+02  0.95220936649E+02  0.00000000000E+00 0.  1.
         -5    1    3    3    0  504  0.32825089164E+02 -0.35335998791E+02  0.11839788463E+03  0.12793071709E+03  0.47000000000E+01 0.  1.
<mgrwt>
<rscale>  2 0.19893267E+03</rscale>
<asrwt>0</asrwt>
<pdfrwt beam="1">  1       21 0.16799608E+00 0.19900537E+03</pdfrwt>
<pdfrwt beam="2">  1       21 0.93656449E-02 0.19900537E+03</pdfrwt>
<totfact> 0.19988918E+04</totfact>
</mgrwt>
</event>
<event>
12    1  0.2743855E-001  0.1910158E+03  0.7546771E-02  0.1157805E+00
         21   -1    0    0  502  503  0.00000000000E+00  0.00000000000E+00  0.70469520376E+03  0.70469520376E+03  0.00000000000E+00 0.  1.
         21   -1    0    0  503  504 -0.00000000000E+00 -0.00000000000E+00 -0.51614633947E+02  0.51614633947E+02  0.00000000000E+00 0.  1.
         -6    2    1    2    0  504 -0.77901249622E+02 -0.79197649188E+00  0.34576492031E+03  0.39446741161E+03  0.17315290003E+03 0.  0.
        -24    2    3    3    0    0 -0.69407012307E+02 -0.49894479300E+02  0.13993326476E+03  0.18263736588E+03  0.80425719804E+02 0.  0.
          6    2    1    2  502    0  0.77901249622E+02  0.79197649188E+00  0.30731564950E+03  0.36184242609E+03  0.17440699806E+03 0.  0.
         24    2    5    5    0    0  0.11028350376E+03 -0.36082649789E+02  0.21340198712E+03  0.25577539810E+03  0.80101419130E+02 0.  0.
          2    1    6    6  501    0  0.87899971206E+02 -0.60584982510E+02  0.17527993912E+03  0.20523158164E+03  0.00000000000E+00 0. -1.
         -1    1    6    6    0  501  0.22383532555E+02  0.24502332721E+02  0.38122048004E+02  0.50543816461E+02  0.00000000000E+00 0.  1.
          5    1    5    5  502    0 -0.32382254139E+02  0.36874626281E+02  0.93913662370E+02  0.10606702799E+03  0.47000000000E+01 0. -1.
         13    1    4    4    0    0  0.16739078760E+02 -0.18917819964E+02  0.23281452531E+02  0.34352681145E+02  0.00000000000E+00 0. -1.
        -14    1    4    4    0    0 -0.86146091066E+02 -0.30976659335E+02  0.11665181223E+03  0.14828468473E+03  0.00000000000E+00 0.  1.
         -5    1    3    3    0  504 -0.84942373155E+01  0.49102502808E+02  0.20583165555E+03  0.21183004574E+03  0.47000000000E+01 0.  1.
<mgrwt>
<rscale>  2 0.19072906E+03</rscale>
<asrwt>0</asrwt>
<pdfrwt beam="1">  1       21 0.10841464E+00 0.19101579E+03</pdfrwt>
<pdfrwt beam="2">  1       21 0.79407134E-02 0.19101579E+03</pdfrwt>
<totfact> 0.82292800E+04</totfact>
</mgrwt>
</event>
<event>
12    1  0.2743855E-001  0.1920338E+03  0.7546771E-02  0.1156743E+00
         21   -1    0    0  502  503  0.00000000000E+00  0.00000000000E+00  0.41127745746E+03  0.41127745746E+03  0.00000000000E+00 0. -1.
         21   -1    0    0  503  504 -0.00000000000E+00 -0.00000000000E+00 -0.89560511976E+02  0.89560511976E+02  0.00000000000E+00 0. -1.
         -6    2    1    2    0  504 -0.30194594372E+02 -0.79449446528E+02  0.15178457137E+03  0.24441255104E+03  0.17168287893E+03 0.  0.
        -24    2    3    3    0    0  0.33058546426E+02 -0.74910702958E+01  0.35023914648E+02  0.93302959392E+02  0.79559939718E+02 0.  0.
          6    2    1    2  502    0  0.30194594372E+02  0.79449446528E+02  0.16993237412E+03  0.25642541840E+03  0.17220062527E+03 0.  0.
         24    2    5    5    0    0 -0.12129345967E+01 -0.20829183057E+02  0.10460374602E+03  0.13260233462E+03  0.78778863838E+02 0.  0.
          4    1    6    6  501    0  0.15223755097E+02 -0.23668550952E+02  0.11116975010E+03  0.11467639844E+03  0.00000000000E+00 0. -1.
         -3    1    6    6    0  501 -0.16436689694E+02  0.28393678949E+01 -0.65660040783E+01  0.17925936173E+02  0.00000000000E+00 0.  1.
          5    1    5    5  502    0  0.31407528968E+02  0.10027862959E+03  0.65328628097E+02  0.12382308378E+03  0.47000000000E+01 0. -1.
         13    1    4    4    0    0 -0.16285670941E+02 -0.13739528656E+02  0.37903002200E+02  0.43481436286E+02  0.00000000000E+00 0. -1.
        -14    1    4    4    0    0  0.49344217367E+02  0.62484583601E+01 -0.28790875516E+01  0.49821523106E+02  0.00000000000E+00 0.  1.
         -5    1    3    3    0  504 -0.63253140797E+02 -0.71958376233E+02  0.11676065672E+03  0.15110959165E+03  0.47000000000E+01 0.  1.
<mgrwt>
<rscale>  2 0.19191767E+03</rscale>
<asrwt>0</asrwt>
<pdfrwt beam="1">  1       21 0.63273454E-01 0.19203381E+03</pdfrwt>
<pdfrwt beam="2">  1       21 0.13778541E-01 0.19203381E+03</pdfrwt>
<totfact> 0.10578143E+05</totfact>
</mgrwt>
</event>
<event>
12    1  0.2743855E-001  0.2035949E+03  0.7546771E-02  0.1146867E+00
         21   -1    0    0  502  503  0.00000000000E+00  0.00000000000E+00  0.15566111832E+03  0.15566111832E+03  0.00000000000E+00 0.  1.
         21   -1    0    0  503  504 -0.00000000000E+00 -0.00000000000E+00 -0.31815167274E+03  0.31815167274E+03  0.00000000000E+00 0.  1.
         -6    2    1    2    0  504 -0.53861274385E+02  0.90629053109E+02 -0.17752705083E+03  0.26966337507E+03  0.17345840980E+03 0.  0.
        -24    2    3    3    0    0 -0.64849299469E+02  0.77421977845E+02 -0.46185165615E+02  0.13711925281E+03  0.80430253469E+02 0.  0.
          6    2    1    2  502    0  0.53861274385E+02 -0.90629053109E+02  0.15036496413E+02  0.20414941600E+03  0.17417297633E+03 0.  0.
         24    2    5    5    0    0  0.96476124696E+02 -0.61211940132E+02  0.45432052793E+02  0.14392174918E+03  0.74798758111E+02 0.  0.
          4    1    6    6  501    0  0.72692973217E+02 -0.19895784463E+01  0.22874981759E+02  0.76233139566E+02  0.00000000000E+00 0. -1.
         -3    1    6    6    0  501  0.23783151479E+02 -0.59222361685E+02  0.22557071034E+02  0.67688609614E+02  0.00000000000E+00 0.  1.
          5    1    5    5  502    0 -0.42614850311E+02 -0.29417112977E+02 -0.30395556380E+02  0.60227666820E+02  0.47000000000E+01 0. -1.
         13    1    4    4    0    0  0.58380613357E+00  0.60550387734E+02 -0.13425179323E+02  0.62023590062E+02  0.00000000000E+00 0. -1.
        -14    1    4    4    0    0 -0.65433105602E+02  0.16871590111E+02 -0.32759986291E+02  0.75095662747E+02  0.00000000000E+00 0.  1.
         -5    1    3    3    0  504  0.10988025084E+02  0.13207075263E+02 -0.13134188522E+03  0.13254412226E+03  0.47000000000E+01 0.  1.
<mgrwt>
<rscale>  2 0.20344200E+03</rscale>
<asrwt>0</asrwt>
<pdfrwt beam="1">  1       21 0.23947865E-01 0.20359491E+03</pdfrwt>
<pdfrwt beam="2">  1       21 0.48946410E-01 0.20359491E+03</pdfrwt>
<totfact> 0.65155343E+04</totfact>
</mgrwt>
</event>
<event>
12    1  0.2743855E-001  0.2054359E+03  0.7546771E-02  0.1145357E+00
         21   -1    0    0  502  503  0.00000000000E+00  0.00000000000E+00  0.35028104533E+03  0.35028104533E+03  0.00000000000E+00 0.  1.
         21   -1    0    0  503  504 -0.00000000000E+00 -0.00000000000E+00 -0.13103566213E+03  0.13103566213E+03  0.00000000000E+00 0. -1.
         -6    2    1    2    0  504 -0.67423520580E+02  0.87360890013E+02  0.40037475518E+02  0.20870086198E+03  0.17255490173E+03 0.  0.
        -24    2    3    3    0    0  0.26002606669E+02  0.55388642836E+02 -0.34635406502E+01  0.10069579612E+03  0.79897496420E+02 0.  0.
          6    2    1    2  502    0  0.67423520580E+02 -0.87360890013E+02  0.17920790769E+03  0.27261584548E+03  0.17328031855E+03 0.  0.
         24    2    5    5    0    0 -0.26883536369E+02 -0.37317716721E+02  0.86413914190E+02  0.13108508765E+03  0.87181415044E+02 0.  0.
          2    1    6    6  501    0 -0.56637191891E+02 -0.24830020643E+02  0.74178879548E+02  0.96575398531E+02  0.00000000000E+00 0. -1.
         -1    1    6    6    0  501  0.29753655522E+02 -0.12487696078E+02  0.12235034642E+02  0.34509689117E+02  0.00000000000E+00 0.  1.
          5    1    5    5  502    0  0.94307056949E+02 -0.50043173292E+02  0.92793993497E+02  0.14153075783E+03  0.47000000000E+01 0. -1.
         13    1    4    4    0    0 -0.18496636183E+02 -0.21200411439E+01 -0.18715562796E+02  0.26398719956E+02  0.00000000000E+00 0. -1.
        -14    1    4    4    0    0  0.44499242852E+02  0.57508683980E+02  0.15252022146E+02  0.74297076167E+02  0.00000000000E+00 0.  1.
         -5    1    3    3    0  504 -0.93426127249E+02  0.31972247177E+02  0.43501016168E+02  0.10800506585E+03  0.47000000000E+01 0.  1.
<mgrwt>
<rscale>  2 0.20528289E+03</rscale>
<asrwt>0</asrwt>
<pdfrwt beam="1">  1       21 0.53889391E-01 0.20543594E+03</pdfrwt>
<pdfrwt beam="2">  1       21 0.20159333E-01 0.20543594E+03</pdfrwt>
<totfact> 0.73646727E+04</totfact>
</mgrwt>
</event>
<event>
12    1  0.2743855E-001  0.1820533E+03  0.7546771E-02  0.1166070E+00
         21   -1    0    0  502  503  0.00000000000E+00  0.00000000000E+00  0.31952421939E+03  0.31952421939E+03  0.00000000000E+00 0. -1.
         21   -1    0    0  503  504 -0.00000000000E+00 -0.00000000000E+00 -0.18233511826E+03  0.18233511826E+03  0.00000000000E+00 0. -1.
         -6    2    1    2    0  504 -0.43579148793E+02  0.35965866206E+02 -0.96653346198E+02  0.20611956135E+03  0.17306275884E+03 0.  0.
        -24    2    3    3    0    0 -0.91389972571E+02  0.28299388920E+02 -0.97715560445E+02  0.15745881697E+03  0.78051046044E+02 0.  0.
          6    2    1    2  502    0  0.43579148793E+02 -0.35965866206E+02  0.23384244733E+03  0.29573977630E+03  0.17200883516E+03 0.  0.
         24    2    5    5    0    0  0.23552963427E+02  0.51605133214E+02  0.14262669772E+03  0.16762993665E+03  0.67376471398E+02 0.  0.
          2    1    6    6  501    0  0.37665111770E+02  0.80872230615E+01  0.89999132793E+02  0.97897434721E+02  0.00000000000E+00 0. -1.
         -1    1    6    6    0  501 -0.14112148343E+02  0.43517910152E+02  0.52627564925E+02  0.69732501925E+02  0.00000000000E+00 0.  1.
          5    1    5    5  502    0  0.20026185366E+02 -0.87570999420E+02  0.91215749614E+02  0.12810983966E+03  0.47000000000E+01 0. -1.
         13    1    4    4    0    0 -0.62494093267E+02  0.50933874836E+02 -0.42448943775E+02  0.91113578168E+02  0.00000000000E+00 0. -1.
        -14    1    4    4    0    0 -0.28895879304E+02 -0.22634485916E+02 -0.55266616670E+02  0.66345238801E+02  0.00000000000E+00 0.  1.
         -5    1    3    3    0  504  0.47810823778E+02  0.76664772867E+01  0.10622142460E+01  0.48660744378E+02  0.47000000000E+01 0.  1.
<mgrwt>
<rscale>  2 0.18180239E+03</rscale>
<asrwt>0</asrwt>
<pdfrwt beam="1">  1       21 0.49157572E-01 0.18205330E+03</pdfrwt>
<pdfrwt beam="2">  1       21 0.28051557E-01 0.18205330E+03</pdfrwt>
<totfact> 0.48167381E+04</totfact>
</mgrwt>
</event>
<event>
12    1  0.2743855E-001  0.2421285E+03  0.7546771E-02  0.1118618E+00
         21   -1    0    0  502  503  0.00000000000E+00  0.00000000000E+00  0.14433660096E+03  0.14433660096E+03  0.00000000000E+00 0. -1.
         21   -1    0    0  503  504 -0.00000000000E+00 -0.00000000000E+00 -0.44736759083E+03  0.44736759083E+03  0.00000000000E+00 0. -1.
         -6    2    1    2    0  504  0.66651764331E+02  0.15472428328E+03 -0.24344725596E+03  0.34235221093E+03  0.17191977305E+03 0.  0.
        -24    2    3    3    0    0  0.67161367483E+02  0.60697980331E+02 -0.57514994420E+02  0.13394371488E+03  0.80237460543E+02 0.  0.
          6    2    1    2  502    0 -0.66651764331E+02 -0.15472428328E+03 -0.59583733910E+02  0.24935198086E+03  0.17390838820E+03 0.  0.
         24    2    5    5    0    0 -0.62537970090E+02 -0.18360193209E+02 -0.47910895697E+02  0.11234674915E+03  0.77963092039E+02 0.  0.
          4    1    6    6  501    0 -0.61311621853E+02  0.59009014585E+01 -0.34610422238E+01  0.61692093704E+02  0.00000000000E+00 0. -1.
         -3    1    6    6    0  501 -0.12263482365E+01 -0.24261094668E+02 -0.44449853473E+02  0.50654655445E+02  0.00000000000E+00 0.  1.
          5    1    5    5  502    0 -0.41137942410E+01 -0.13636409008E+03 -0.11672838213E+02  0.13700523171E+03  0.47000000000E+01 0. -1.
         11    1    4    4    0    0  0.32922107840E+02  0.54021139696E+02  0.38250661615E+01  0.63378070733E+02  0.00000000000E+00 0. -1.
        -12    1    4    4    0    0  0.34239259642E+02  0.66768406348E+01 -0.61340060582E+02  0.70565644147E+02  0.00000000000E+00 0.  1.
         -5    1    3    3    0  504 -0.50960315187E+00  0.94026302954E+02 -0.18593226154E+03  0.20840849605E+03  0.47000000000E+01 0.  1.
<mgrwt>
<rscale>  2 0.24177158E+03</rscale>
<asrwt>0</asrwt>
<pdfrwt beam="1">  1       21 0.22205631E-01 0.24212846E+03</pdfrwt>
<pdfrwt beam="2">  1       21 0.68825783E-01 0.24212846E+03</pdfrwt>
<totfact> 0.35596073E+04</totfact>
</mgrwt>
</event>
<event>
12    1  0.2743855E-001  0.1743665E+03  0.7546771E-02  0.1173691E+00
         21   -1    0    0  502  503  0.00000000000E+00  0.00000000000E+00  0.62425030947E+02  0.62425030947E+02  0.00000000000E+00 0. -1.
         21   -1    0    0  503  504 -0.00000000000E+00 -0.00000000000E+00 -0.10115439539E+04  0.10115439539E+04  0.00000000000E+00 0. -1.
         -6    2    1    2    0  504  0.10422744713E+02  0.10951912702E+02 -0.86170370796E+03  0.87891744984E+03  0.17243556858E+03 0.  0.
        -24    2    3    3    0    0 -0.81602361497E+01 -0.52125085751E+02 -0.65233691255E+03  0.65941669828E+03  0.80643167593E+02 0.  0.
          6    2    1    2  502    0 -0.10422744713E+02 -0.10951912702E+02 -0.87415215030E+02  0.19505153505E+03  0.17370982559E+03 0.  0.
         24    2    5    5    0    0  0.21635020707E+02  0.10392761285E+01 -0.12112381039E+03  0.14678303254E+03  0.80032037229E+02 0.  0.
          2    1    6    6  501    0 -0.14929010992E+02 -0.26886498498E+02 -0.22981042484E+02  0.38391242287E+02  0.00000000000E+00 0. -1.
         -1    1    6    6    0  501  0.36564031698E+02  0.27925774626E+02 -0.98142767906E+02  0.10839179026E+03  0.00000000000E+00 0.  1.
          5    1    5    5  502    0 -0.32057765419E+02 -0.11991188830E+02  0.33708595360E+02  0.48268502508E+02  0.47000000000E+01 0. -1.
         13    1    4    4    0    0  0.33683924407E+02 -0.40872918579E+02 -0.37159693726E+03  0.37535248237E+03  0.00000000000E+00 0. -1.
        -14    1    4    4    0    0 -0.41844160557E+02 -0.11252167172E+02 -0.28073997529E+03  0.28406421592E+03  0.00000000000E+00 0.  1.
         -5    1    3    3    0  504  0.18582980862E+02  0.63076998453E+02 -0.20936679541E+03  0.21950075155E+03  0.47000000000E+01 0.  1.
<mgrwt>
<rscale>  2 0.17404829E+03</rscale>
<asrwt>0</asrwt>
<pdfrwt beam="1">  1       21 0.96038512E-02 0.17436651E+03</pdfrwt>
<pdfrwt beam="2">  1       21 0.15562214E+00 0.17436651E+03</pdfrwt>
<totfact> 0.23922058E+04</totfact>
</mgrwt>
</event>
<event>
12    1  0.2743855E-001  0.2072997E+03  0.7546771E-02  0.1143854E+00
         21   -1    0    0  502  503  0.00000000000E+00  0.00000000000E+00  0.10919713795E+03  0.10919713795E+03  0.00000000000E+00 0.  1.
         21   -1    0    0  503  504 -0.00000000000E+00 -0.00000000000E+00 -0.41734027556E+03  0.41734027556E+03  0.00000000000E+00 0.  1.
         -6    2    1    2    0  504 -0.10752330134E+03  0.39144942459E+02 -0.21833384150E+03  0.30061959900E+03  0.17207233976E+03 0.  0.
        -24    2    3    3    0    0 -0.12864338815E+03  0.26712581155E+02 -0.10925852373E+03  0.18872618266E+03  0.80109073810E+02 0.  0.
          6    2    1    2  502    0  0.10752330134E+03 -0.39144942459E+02 -0.89809296107E+02  0.22591781451E+03  0.17285705770E+03 0.  0.
         24    2    5    5    0    0  0.53702779203E+02 -0.91032100689E+02 -0.50912423657E+02  0.14151412693E+03  0.79141274865E+02 0.  0.
          4    1    6    6  501    0  0.44523375851E+02 -0.98502380745E+02 -0.62571441950E+02  0.12490090215E+03  0.00000000000E+00 0. -1.
         -3    1    6    6    0  501  0.91794033520E+01  0.74702800560E+01  0.11659018293E+02  0.16613224779E+02  0.00000000000E+00 0.  1.
          5    1    5    5  502    0  0.53820522132E+02  0.51887158230E+02 -0.38896872450E+02  0.84403687586E+02  0.47000000000E+01 0. -1.
         13    1    4    4    0    0 -0.26013148695E+02  0.96926236476E+00  0.11249756393E+02  0.28358074572E+02  0.00000000000E+00 0. -1.
        -14    1    4    4    0    0 -0.10263023945E+03  0.25743318790E+02 -0.12050828013E+03  0.16036810809E+03  0.00000000000E+00 0.  1.
         -5    1    3    3    0  504  0.21120086812E+02  0.12432361304E+02 -0.10907531777E+03  0.11189341634E+03  0.47000000000E+01 0.  1.
<mgrwt>
<rscale>  2 0.20713600E+03</rscale>
<asrwt>0</asrwt>
<pdfrwt beam="1">  1       21 0.16799559E-01 0.20729966E+03</pdfrwt>
<pdfrwt beam="2">  1       21 0.64206198E-01 0.20729966E+03</pdfrwt>
<totfact> 0.70906585E+04</totfact>
</mgrwt>
</event>
<event>
12    1  0.2743855E-001  0.1797835E+03  0.7546771E-02  0.1168509E+00
         21   -1    0    0  502  503  0.00000000000E+00  0.00000000000E+00  0.89720975914E+03  0.89720975914E+03  0.00000000000E+00 0.  1.
         21   -1    0    0  503  504 -0.00000000000E+00 -0.00000000000E+00 -0.49350196496E+02  0.49350196496E+02  0.00000000000E+00 0.  1.
         -6    2    1    2    0  504 -0.34934745232E+02  0.91811920993E+01  0.17602198894E+03  0.25160650777E+03  0.17611747060E+03 0.  0.
        -24    2    3    3    0    0  0.23584552771E+02  0.64162516616E+01  0.18403379059E+02  0.83386802286E+02  0.77571096550E+02 0.  0.
          6    2    1    2  502    0  0.34934745232E+02 -0.91811920993E+01  0.67183757371E+03  0.69495344786E+03  0.17403976138E+03 0.  0.
         24    2    5    5    0    0  0.52503408920E+02 -0.65905470073E+02  0.53383588825E+03  0.54464424374E+03  0.67501538659E+02 0.  0.
          4    1    6    6  501    0  0.55757121536E+02 -0.47248505795E+02  0.50423142283E+03  0.50950034904E+03  0.00000000000E+00 0. -1.
         -3    1    6    6    0  501 -0.32537126159E+01 -0.18656964278E+02  0.29604465415E+02  0.35143894695E+02  0.00000000000E+00 0.  1.
          5    1    5    5  502    0 -0.17568663687E+02  0.56724277974E+02  0.13800168546E+03  0.15030920413E+03  0.47000000000E+01 0. -1.
         11    1    4    4    0    0  0.26194953097E+02  0.47670183337E+01  0.47325115893E+02  0.54300705574E+02  0.00000000000E+00 0. -1.
        -12    1    4    4    0    0 -0.26104003259E+01  0.16492333279E+01 -0.28921736834E+02  0.29086096712E+02  0.00000000000E+00 0.  1.
         -5    1    3    3    0  504 -0.58519298003E+02  0.27649404378E+01  0.15761860988E+03  0.16821970549E+03  0.47000000000E+01 0.  1.
<mgrwt>
<rscale>  2 0.17927258E+03</rscale>
<asrwt>0</asrwt>
<pdfrwt beam="1">  1       21 0.13803226E+00 0.17978346E+03</pdfrwt>
<pdfrwt beam="2">  1       21 0.75923386E-02 0.17978346E+03</pdfrwt>
<totfact> 0.49119533E+04</totfact>
</mgrwt>
</event>
<event>
12    1  0.2743855E-001  0.2570517E+03  0.7546771E-02  0.1109470E+00
         21   -1    0    0  502  503  0.00000000000E+00  0.00000000000E+00  0.10206807780E+04  0.10206807780E+04  0.00000000000E+00 0. -1.
         21   -1    0    0  503  504 -0.00000000000E+00 -0.00000000000E+00 -0.64543346268E+02  0.64543346268E+02  0.00000000000E+00 0. -1.
         -6    2    1    2    0  504  0.14846376147E+03  0.10798018820E+03  0.53752931940E+03  0.59582994238E+03  0.17992871228E+03 0.  0.
        -24    2    3    3    0    0  0.65762031549E+01  0.10819285013E+02  0.21540440367E+03  0.23064660261E+03  0.81476958682E+02 0.  0.
          6    2    1    2  502    0 -0.14846376147E+03 -0.10798018820E+03  0.41860811236E+03  0.48939418192E+03  0.17485051916E+03 0.  0.
         24    2    5    5    0    0 -0.82730236685E+01 -0.64606388927E+02  0.14098482531E+03  0.17533764411E+03  0.81388820261E+02 0.  0.
          2    1    6    6  501    0 -0.43084594230E+02 -0.30217488964E+02  0.53167942943E+02  0.74807814138E+02  0.00000000000E+00 0. -1.
         -1    1    6    6    0  501  0.34811570561E+02 -0.34388899963E+02  0.87816882363E+02  0.10052982997E+03  0.00000000000E+00 0.  1.
          5    1    5    5  502    0 -0.14019073780E+03 -0.43373799277E+02  0.27762328705E+03  0.31405653781E+03  0.47000000000E+01 0. -1.
         13    1    4    4    0    0  0.30744725930E+02 -0.10858447795E+02  0.17867312588E+03  0.18162386950E+03  0.00000000000E+00 0. -1.
        -14    1    4    4    0    0 -0.24168522775E+02  0.21677732808E+02  0.36731277794E+02  0.49022733106E+02  0.00000000000E+00 0.  1.
         -5    1    3    3    0  504  0.14188755831E+03  0.97160903191E+02  0.32212491573E+03  0.36518333977E+03  0.47000000000E+01 0.  1.
<mgrwt>
<rscale>  2 0.25616491E+03</rscale>
<asrwt>0</asrwt>
<pdfrwt beam="1">  1       21 0.15702780E+00 0.25705165E+03</pdfrwt>
<pdfrwt beam="2">  1       21 0.99297463E-02 0.25705165E+03</pdfrwt>
<totfact> 0.20916249E+04</totfact>
</mgrwt>
</event>
<event>
12    1  0.2743855E-001  0.1834409E+03  0.7546771E-02  0.1164598E+00
         21   -1    0    0  502  503  0.00000000000E+00  0.00000000000E+00  0.16033863378E+04  0.16033863378E+04  0.00000000000E+00 0.  1.
         21   -1    0    0  503  504 -0.00000000000E+00 -0.00000000000E+00 -0.21704860118E+02  0.21704860118E+02  0.00000000000E+00 0.  1.
         -6    2    1    2    0  504 -0.55900790990E+02 -0.19208786340E+02  0.94349498285E+03  0.96116249772E+03  0.17365681229E+03 0.  0.
        -24    2    3    3    0    0  0.26743214298E+02  0.26829543436E+02  0.47405475511E+03  0.48226190591E+03  0.80085024413E+02 0.  0.
          6    2    1    2  502    0  0.55900790990E+02  0.19208786340E+02  0.63818649481E+03  0.66392870018E+03  0.17327850661E+03 0.  0.
         24    2    5    5    0    0  0.98122973236E+02  0.34107402931E+02  0.54055305073E+03  0.55641562723E+03  0.81297704565E+02 0.  0.
          4    1    6    6  501    0  0.78293408894E+02  0.53844193490E+02  0.48493802311E+03  0.49415983376E+03  0.00000000000E+00 0. -1.
         -3    1    6    6    0  501  0.19829564342E+02 -0.19736790558E+02  0.55615027621E+02  0.62255793472E+02  0.00000000000E+00 0.  1.
          5    1    5    5  502    0 -0.42222182246E+02 -0.14898616592E+02  0.97633444086E+02  0.10751307295E+03  0.47000000000E+01 0. -1.
         13    1    4    4    0    0  0.37051438150E+02 -0.18329993537E+02  0.18897154138E+03  0.19344001961E+03  0.00000000000E+00 0. -1.
        -14    1    4    4    0    0 -0.10308223851E+02  0.45159536973E+02  0.28508321372E+03  0.28882188630E+03  0.00000000000E+00 0.  1.
         -5    1    3    3    0  504 -0.82644005289E+02 -0.46038329776E+02  0.46944022774E+03  0.47890059181E+03  0.47000000000E+01 0.  1.
<mgrwt>
<rscale>  2 0.18335131E+03</rscale>
<asrwt>0</asrwt>
<pdfrwt beam="1">  1       21 0.24667473E+00 0.18344090E+03</pdfrwt>
<pdfrwt beam="2">  1       21 0.33392105E-02 0.18344090E+03</pdfrwt>
<totfact> 0.37123281E+04</totfact>
</mgrwt>
</event>
<event>
12    1  0.2743855E-001  0.2152569E+03  0.7546771E-02  0.1139864E+00
         21   -1    0    0  502  503  0.00000000000E+00  0.00000000000E+00  0.11349180205E+04  0.11349180205E+04  0.00000000000E+00 0.  1.
         21   -1    0    0  503  504 -0.00000000000E+00 -0.00000000000E+00 -0.95102290056E+02  0.95102290056E+02  0.00000000000E+00 0. -1.
         -6    2    1    2    0  504 -0.81410857686E+02  0.68816448284E+02  0.39685393843E+02  0.20698746504E+03  0.17293191983E+03 0.  0.
        -24    2    3    3    0    0 -0.95955550892E+02  0.62924605347E+02 -0.23660108768E+02  0.14155807857E+03  0.79447562301E+02 0.  0.
          6    2    1    2  502    0  0.81410857686E+02 -0.68816448284E+02  0.10001303366E+04  0.10230328455E+04  0.18700823914E+03 0.  0.
         24    2    5    5    0    0  0.10349048967E+03  0.36869418431E+01  0.76529773192E+03  0.77622787403E+03  0.78263777991E+02 0.  0.
          2    1    6    6  501    0  0.27013552988E+02  0.15352328122E+02  0.46797845928E+03  0.46900881055E+03  0.00000000000E+00 0. -1.
         -1    1    6    6    0  501  0.76476936684E+02 -0.11665386278E+02  0.29731927264E+03  0.30721906348E+03  0.00000000000E+00 0.  1.
          5    1    5    5  502    0 -0.22079631986E+02 -0.72503390127E+02  0.23483260468E+03  0.24680497149E+03  0.47000000000E+01 0. -1.
         13    1    4    4    0    0 -0.43169356312E+01  0.45119068677E+02 -0.29507153629E+00  0.45326078131E+02  0.00000000000E+00 0. -1.
        -14    1    4    4    0    0 -0.91638615260E+02  0.17805536670E+02 -0.23365037231E+02  0.96232000435E+02  0.00000000000E+00 0.  1.
         -5    1    3    3    0  504  0.14544693206E+02  0.58918429368E+01  0.63345502611E+02  0.65429386476E+02  0.47000000000E+01 0.  1.
<mgrwt>
<rscale>  2 0.21216345E+03</rscale>
<asrwt>0</asrwt>
<pdfrwt beam="1">  1       21 0.17460276E+00 0.21525685E+03</pdfrwt>
<pdfrwt beam="2">  1       21 0.14631122E-01 0.21525685E+03</pdfrwt>
<totfact> 0.79886891E+03</totfact>
</mgrwt>
</event>
<event>
12    1  0.2743855E-001  0.2078569E+03  0.7546771E-02  0.1143302E+00
         21   -1    0    0  502  503  0.00000000000E+00  0.00000000000E+00  0.39128757731E+03  0.39128757731E+03  0.00000000000E+00 0. -1.
         21   -1    0    0  503  504 -0.00000000000E+00 -0.00000000000E+00 -0.13266742095E+03  0.13266742095E+03  0.00000000000E+00 0.  1.
         -6    2    1    2    0  504 -0.11316973546E+03 -0.17899781274E+02  0.21881774439E+02  0.20900555904E+03  0.17342641225E+03 0.  0.
        -24    2    3    3    0    0 -0.78098880411E+02 -0.64774927080E+02 -0.26873471249E+02  0.13267464689E+03  0.81148950522E+02 0.  0.
          6    2    1    2  502    0  0.11316973546E+03  0.17899781274E+02  0.23673838192E+03  0.31494943921E+03  0.17326366206E+03 0.  0.
         24    2    5    5    0    0  0.11598010697E+03 -0.36880203119E+02  0.13360247022E+03  0.19803985380E+03  0.80985363170E+02 0.  0.
          4    1    6    6  501    0  0.50953881924E+02  0.17101846196E+02  0.22064807138E+02  0.58100145787E+02  0.00000000000E+00 0. -1.
         -3    1    6    6    0  501  0.65026225048E+02 -0.53982049315E+02  0.11153766308E+03  0.13993970801E+03  0.00000000000E+00 0.  1.
          5    1    5    5  502    0 -0.28103715139E+01  0.54779984393E+02  0.10313591171E+03  0.11690958541E+03  0.47000000000E+01 0. -1.
         13    1    4    4    0    0 -0.41375664784E+02 -0.62692676807E+02  0.15359576096E+02  0.76669641576E+02  0.00000000000E+00 0. -1.
        -14    1    4    4    0    0 -0.36723215627E+02 -0.20822502737E+01 -0.42233047346E+02  0.56005005315E+02  0.00000000000E+00 0.  1.
         -5    1    3    3    0  504 -0.35070855047E+02  0.46875145806E+02  0.48755245689E+02  0.76330912154E+02  0.47000000000E+01 0.  1.
<mgrwt>
<rscale>  2 0.20782300E+03</rscale>
<asrwt>0</asrwt>
<pdfrwt beam="1">  1       21 0.60198088E-01 0.20785695E+03</pdfrwt>
<pdfrwt beam="2">  1       21 0.20410373E-01 0.20785695E+03</pdfrwt>
<totfact> 0.56767913E+04</totfact>
</mgrwt>
</event>
<event>
12    1  0.2743855E-001  0.1943993E+03  0.7546771E-02  0.1154974E+00
         21   -1    0    0  502  503  0.00000000000E+00  0.00000000000E+00  0.10289906424E+04  0.10289906424E+04  0.00000000000E+00 0. -1.
         21   -1    0    0  503  504 -0.00000000000E+00 -0.00000000000E+00 -0.45799318049E+02  0.45799318049E+02  0.00000000000E+00 0. -1.
         -6    2    1    2    0  504  0.55391407154E+02  0.64102198579E+02  0.24962682441E+03  0.31639319013E+03  0.17496799549E+03 0.  0.
        -24    2    3    3    0    0  0.93968713093E+02  0.16896763228E+02  0.13970813299E+03  0.19061254621E+03  0.87744861402E+02 0.  0.
          6    2    1    2  502    0 -0.55391407154E+02 -0.64102198579E+02  0.73356449991E+03  0.75839677029E+03  0.17283369408E+03 0.  0.
         24    2    5    5    0    0 -0.85419942312E+02 -0.93417523783E+02  0.53816279301E+03  0.55848424373E+03  0.79133168913E+02 0.  0.
          2    1    6    6  501    0 -0.63794514313E+02 -0.10404038125E+03  0.39886082587E+03  0.41711401247E+03  0.00000000000E+00 0. -1.
         -1    1    6    6    0  501 -0.21625427999E+02  0.10622857471E+02  0.13930196714E+03  0.14137023126E+03  0.00000000000E+00 0.  1.
          5    1    5    5  502    0  0.30028535158E+02  0.29315325204E+02  0.19540170690E+03  0.19991252656E+03  0.47000000000E+01 0. -1.
         11    1    4    4    0    0  0.14904575711E+02  0.40038170525E+02  0.25369719659E+02  0.49687263476E+02  0.00000000000E+00 0. -1.
        -12    1    4    4    0    0  0.79064137381E+02 -0.23141407298E+02  0.11433841333E+03  0.14092528273E+03  0.00000000000E+00 0.  1.
         -5    1    3    3    0  504 -0.38577305939E+02  0.47205435351E+02  0.10991869143E+03  0.12578064392E+03  0.47000000000E+01 0.  1.
<mgrwt>
<rscale>  2 0.19391786E+03</rscale>
<asrwt>0</asrwt>
<pdfrwt beam="1">  1       21 0.15830624E+00 0.19439933E+03</pdfrwt>
<pdfrwt beam="2">  1       21 0.70460497E-02 0.19439933E+03</pdfrwt>
<totfact> 0.38698289E+04</totfact>
</mgrwt>
</event>
<event>
12    1  0.2743855E-001  0.3142022E+03  0.7546771E-02  0.1078436E+00
         21   -1    0    0  502  503  0.00000000000E+00  0.00000000000E+00  0.34690091361E+03  0.34690091361E+03  0.00000000000E+00 0. -1.
         21   -1    0    0  503  504 -0.00000000000E+00 -0.00000000000E+00 -0.28845973287E+03  0.28845973287E+03  0.00000000000E+00 0. -1.
         -6    2    1    2    0  504 -0.23714380124E+03 -0.11246432447E+03 -0.10602340727E+02  0.31438106441E+03  0.17273574410E+03 0.  0.
        -24    2    3    3    0    0 -0.20047964271E+03 -0.45316944782E+02 -0.52968270851E+02  0.22680256731E+03  0.79925303861E+02 0.  0.
          6    2    1    2  502    0  0.23714380124E+03  0.11246432447E+03  0.69043521463E+02  0.32097958207E+03  0.17139275803E+03 0.  0.
         24    2    5    5    0    0  0.69919114830E+02  0.47165440203E+02  0.77158903660E+02  0.14121309615E+03  0.82911885415E+02 0.  0.
          4    1    6    6  501    0  0.76974447511E+02  0.62971042868E+02  0.73123444819E+02  0.12344009070E+03  0.00000000000E+00 0. -1.
         -3    1    6    6    0  501 -0.70553326812E+01 -0.15805602665E+02  0.40354588416E+01  0.17773005455E+02  0.00000000000E+00 0.  1.
          5    1    5    5  502    0  0.16722468641E+03  0.65298884266E+02 -0.81153821972E+01  0.17976648592E+03  0.47000000000E+01 0. -1.
         11    1    4    4    0    0 -0.38529152068E+02 -0.16125044012E+02 -0.45945053420E+02  0.62092354902E+02  0.00000000000E+00 0. -1.
        -12    1    4    4    0    0 -0.16195049064E+03 -0.29191900771E+02 -0.70232174315E+01  0.16471021241E+03  0.00000000000E+00 0.  1.
         -5    1    3    3    0  504 -0.36664158534E+02 -0.67147379686E+02  0.42365930124E+02  0.87578497104E+02  0.47000000000E+01 0.  1.
<mgrwt>
<rscale>  2 0.31401799E+03</rscale>
<asrwt>0</asrwt>
<pdfrwt beam="1">  1       21 0.53369371E-01 0.31420223E+03</pdfrwt>
<pdfrwt beam="2">  1       21 0.44378420E-01 0.31420223E+03</pdfrwt>
<totfact> 0.15239060E+04</totfact>
</mgrwt>
</event>
<event>
12    1  0.2743855E-001  0.2023518E+03  0.7546771E-02  0.1148016E+00
         21   -1    0    0  502  503  0.00000000000E+00  0.00000000000E+00  0.37881649829E+03  0.37881649829E+03  0.00000000000E+00 0.  1.
         21   -1    0    0  503  504 -0.00000000000E+00 -0.00000000000E+00 -0.12563967104E+03  0.12563967104E+03  0.00000000000E+00 0.  1.
         -6    2    1    2    0  504  0.94340381328E+02 -0.47700007674E+02  0.30325693399E+02  0.20344306035E+03  0.17115499654E+03 0.  0.
        -24    2    3    3    0    0  0.43664552025E+02 -0.87800393432E+02 -0.89029774053E+01  0.12769968290E+03  0.81316934377E+02 0.  0.
          6    2    1    2  502    0 -0.94340381328E+02  0.47700007674E+02  0.22285113385E+03  0.30101310898E+03  0.17254235897E+03 0.  0.
         24    2    5    5    0    0 -0.79989131022E+02  0.52074683654E+02  0.24419829830E+03  0.27450108143E+03  0.81289612223E+02 0.  0.
          2    1    6    6  501    0  0.42090404729E+01  0.13163826403E+02  0.11291082924E+03  0.11375349536E+03  0.00000000000E+00 0. -1.
         -1    1    6    6    0  501 -0.84198171495E+02  0.38910857251E+02  0.13128746905E+03  0.16074758606E+03  0.00000000000E+00 0.  1.
          5    1    5    5  502    0 -0.14351250306E+02 -0.43746759797E+01 -0.21347164444E+02  0.26512027555E+02  0.47000000000E+01 0. -1.
         13    1    4    4    0    0 -0.17184376083E+01  0.91633749483E+01 -0.17983444985E+02  0.20256474565E+02  0.00000000000E+00 0. -1.
        -14    1    4    4    0    0  0.45382989634E+02 -0.96963768380E+02  0.90804675797E+01  0.10744320834E+03  0.00000000000E+00 0.  1.
         -5    1    3    3    0  504  0.50675829302E+02  0.40100385758E+02  0.39228670804E+02  0.75743377443E+02  0.47000000000E+01 0.  1.
<mgrwt>
<rscale>  2 0.20205576E+03</rscale>
<asrwt>0</asrwt>
<pdfrwt beam="1">  1       21 0.58279461E-01 0.20235183E+03</pdfrwt>
<pdfrwt beam="2">  1       21 0.19329180E-01 0.20235183E+03</pdfrwt>
<totfact> 0.67542577E+04</totfact>
</mgrwt>
</event>
<event>
12    1  0.2743855E-001  0.2479493E+03  0.7546771E-02  0.1114756E+00
         21   -1    0    0  502  503  0.00000000000E+00  0.00000000000E+00  0.57920454524E+03  0.57920454524E+03  0.00000000000E+00 0.  1.
         21   -1    0    0  503  504 -0.00000000000E+00 -0.00000000000E+00 -0.12567212972E+03  0.12567212972E+03  0.00000000000E+00 0.  1.
         -6    2    1    2    0  504 -0.14764425123E+03 -0.96965870154E+02  0.86787247776E+02  0.26269923334E+03  0.17400475834E+03 0.  0.
        -24    2    3    3    0    0 -0.10162284366E+03 -0.73929803414E+02  0.12757718628E+03  0.19686201432E+03  0.81767328664E+02 0.  0.
          6    2    1    2  502    0  0.14764425123E+03  0.96965870154E+02  0.36674516774E+03  0.44217744163E+03  0.17267792831E+03 0.  0.
         24    2    5    5    0    0  0.16400095347E+03  0.45049724814E+02  0.24967646250E+03  0.31298766029E+03  0.81836111362E+02 0.  0.
          4    1    6    6  501    0  0.12101158178E+03  0.32961475754E+01  0.12160292452E+03  0.17158653433E+03  0.00000000000E+00 0. -1.
         -3    1    6    6    0  501  0.42989371688E+02  0.41753577239E+02  0.12807353798E+03  0.14140112596E+03  0.00000000000E+00 0.  1.
          5    1    5    5  502    0 -0.16356702239E+02  0.51916145340E+02  0.11706870524E+03  0.12918978134E+03  0.47000000000E+01 0. -1.
         13    1    4    4    0    0 -0.26819340673E+01  0.13702570709E+02  0.12296195975E+01  0.14016603681E+02  0.00000000000E+00 0. -1.
        -14    1    4    4    0    0 -0.98940909594E+02 -0.87632374123E+02  0.12634756668E+03  0.18284541064E+03  0.00000000000E+00 0.  1.
         -5    1    3    3    0  504 -0.46021407565E+02 -0.23036066740E+02 -0.40789938502E+02  0.65837219019E+02  0.47000000000E+01 0.  1.
<mgrwt>
<rscale>  2 0.24771665E+03</rscale>
<asrwt>0</asrwt>
<pdfrwt beam="1">  1       21 0.89108390E-01 0.24794931E+03</pdfrwt>
<pdfrwt beam="2">  1       21 0.19334174E-01 0.24794931E+03</pdfrwt>
<totfact> 0.25665343E+04</totfact>
</mgrwt>
</event>
<event>
12    1  0.2743855E-001  0.2536832E+03  0.7546771E-02  0.1111044E+00
         21   -1    0    0  502  503  0.00000000000E+00  0.00000000000E+00  0.16359797806E+03  0.16359797806E+03  0.00000000000E+00 0. -1.
         21   -1    0    0  503  504 -0.00000000000E+00 -0.00000000000E+00 -0.98933556020E+03  0.98933556020E+03  0.00000000000E+00 0.  1.
         -6    2    1    2    0  504  0.35707867205E+01 -0.18459444886E+03 -0.86035922515E+03  0.89689872450E+03  0.17355536478E+03 0.  0.
        -24    2    3    3    0    0  0.35423870430E+02 -0.13233992930E+03 -0.35672458348E+03  0.38953781150E+03  0.75621231428E+02 0.  0.
          6    2    1    2  502    0 -0.35707867205E+01  0.18459444886E+03  0.34621642999E+02  0.25603481376E+03  0.17397501724E+03 0.  0.
         24    2    5    5    0    0 -0.18308008551E+02  0.20629266845E+03  0.16464990971E+02  0.22378962104E+03  0.83179626873E+02 0.  0.
          4    1    6    6  501    0  0.22804269283E+02  0.13846247090E+03  0.29537503981E+02  0.14340277085E+03  0.00000000000E+00 0. -1.
         -3    1    6    6    0  501 -0.41112277834E+02  0.67830197550E+02 -0.13072513010E+02  0.80386850198E+02  0.00000000000E+00 0.  1.
          5    1    5    5  502    0  0.14737221830E+02 -0.21698219584E+02  0.18156652028E+02  0.32245192716E+02  0.47000000000E+01 0. -1.
         13    1    4    4    0    0  0.36717531316E+02 -0.17748601668E+02 -0.74461613886E+02  0.84898303337E+02  0.00000000000E+00 0. -1.
        -14    1    4    4    0    0 -0.12936608855E+01 -0.11459132763E+03 -0.28226296960E+03  0.30463950816E+03  0.00000000000E+00 0.  1.
         -5    1    3    3    0  504 -0.31853083710E+02 -0.52254519563E+02 -0.50363464166E+03  0.50736091300E+03  0.47000000000E+01 0.  1.
<mgrwt>
<rscale>  2 0.25361127E+03</rscale>
<asrwt>0</asrwt>
<pdfrwt beam="1">  1       21 0.25168920E-01 0.25368320E+03</pdfrwt>
<pdfrwt beam="2">  1       21 0.15220547E+00 0.25368320E+03</pdfrwt>
<totfact> 0.41022270E+03</totfact>
</mgrwt>
</event>
<event>
12    1  0.2743855E-001  0.1820302E+03  0.7546771E-02  0.1165873E+00
         21   -1    0    0  502  503  0.00000000000E+00  0.00000000000E+00  0.39400587922E+03  0.39400587922E+03  0.00000000000E+00 0. -1.
         21   -1    0    0  503  504 -0.00000000000E+00 -0.00000000000E+00 -0.85323762453E+02  0.85323762453E+02  0.00000000000E+00 0. -1.
         -6    2    1    2    0  504  0.51438918680E+02 -0.25018957021E+02  0.12511796937E+03  0.22081313990E+03  0.17271950072E+03 0.  0.
        -24    2    3    3    0    0  0.22639353473E+02 -0.75432724957E+02  0.43794609317E+02  0.12078043603E+03  0.80419584697E+02 0.  0.
          6    2    1    2  502    0 -0.51438918680E+02  0.25018957021E+02  0.18356414740E+03  0.25851650177E+03  0.17280936002E+03 0.  0.
         24    2    5    5    0    0  0.80651307438E+01 -0.38599662138E+02  0.12611832021E+03  0.15406472503E+03  0.79215709029E+02 0.  0.
          4    1    6    6  501    0 -0.12031601038E+02  0.21745294684E+02  0.37333382345E+02  0.44848619843E+02  0.00000000000E+00 0. -1.
         -3    1    6    6    0  501  0.20096731782E+02 -0.60344956822E+02  0.88784937860E+02  0.10921610519E+03  0.00000000000E+00 0.  1.
          5    1    5    5  502    0 -0.59504049424E+02  0.63618619159E+02  0.57445827195E+02  0.10445177674E+03  0.47000000000E+01 0. -1.
         11    1    4    4    0    0  0.43552633174E+02 -0.23025058081E+02  0.41321919401E+02  0.64299970288E+02  0.00000000000E+00 0. -1.
        -12    1    4    4    0    0 -0.20913279701E+02 -0.52407666877E+02  0.24726899154E+01  0.56480465745E+02  0.00000000000E+00 0.  1.
         -5    1    3    3    0  504  0.28799565207E+02  0.50413767937E+02  0.81323360049E+02  0.10003270387E+03  0.47000000000E+01 0.  1.
<mgrwt>
<rscale>  2 0.18200885E+03</rscale>
<asrwt>0</asrwt>
<pdfrwt beam="1">  1       21 0.60616288E-01 0.18203018E+03</pdfrwt>
<pdfrwt beam="2">  1       21 0.13126733E-01 0.18203018E+03</pdfrwt>
<totfact> 0.12709281E+05</totfact>
</mgrwt>
</event>
<event>
12    1  0.2743855E-001  0.2247133E+03  0.7546771E-02  0.1131306E+00
         21   -1    0    0  502  503  0.00000000000E+00  0.00000000000E+00  0.13750936115E+04  0.13750936115E+04  0.00000000000E+00 0.  1.
         21   -1    0    0  503  504 -0.00000000000E+00 -0.00000000000E+00 -0.85775190105E+02  0.85775190105E+02  0.00000000000E+00 0.  1.
         -6    2    1    2    0  504 -0.29877914419E+01 -0.13600491044E+03  0.84940832326E+02  0.23570699022E+03  0.17273267694E+03 0.  0.
        -24    2    3    3    0    0  0.33067318035E+02 -0.95473339216E+01  0.34332792731E+02  0.94729143558E+02  0.81303572342E+02 0.  0.
          6    2    1    2  502    0  0.29877914419E+01  0.13600491044E+03  0.12043775891E+04  0.12251618114E+04  0.17885699444E+03 0.  0.
         24    2    5    5    0    0 -0.54674944167E+02  0.10780341622E+03  0.60496673504E+03  0.62230546259E+03  0.81660346531E+02 0.  0.
          4    1    6    6  501    0 -0.36122922279E+02  0.52482174306E+02  0.14152433271E+03  0.15520431979E+03  0.00000000000E+00 0. -1.
         -3    1    6    6    0  501 -0.18552021888E+02  0.55321241912E+02  0.46344240233E+03  0.46710114279E+03  0.00000000000E+00 0.  1.
          5    1    5    5  502    0  0.57662735609E+02  0.28201494221E+02  0.59941085406E+03  0.60285634883E+03  0.47000000000E+01 0. -1.
         11    1    4    4    0    0 -0.24416048900E+02  0.88788004692E+01  0.15242338346E+01  0.26024984735E+02  0.00000000000E+00 0. -1.
        -12    1    4    4    0    0  0.57483366935E+02 -0.18426134391E+02  0.32808558896E+02  0.68704158823E+02  0.00000000000E+00 0.  1.
         -5    1    3    3    0  504 -0.36055109477E+02 -0.12645757652E+03  0.50608039595E+02  0.14097784666E+03  0.47000000000E+01 0.  1.
<mgrwt>
<rscale>  2 0.22349261E+03</rscale>
<asrwt>0</asrwt>
<pdfrwt beam="1">  1       21 0.21155285E+00 0.22471334E+03</pdfrwt>
<pdfrwt beam="2">  1       21 0.13196184E-01 0.22471334E+03</pdfrwt>
<totfact> 0.54563581E+03</totfact>
</mgrwt>
</event>
<event>
12    1  0.2743855E-001  0.2314808E+03  0.7546771E-02  0.1125659E+00
         21   -1    0    0  502  503  0.00000000000E+00  0.00000000000E+00  0.55698927231E+03  0.55698927231E+03  0.00000000000E+00 0.  1.
         21   -1    0    0  503  504 -0.00000000000E+00 -0.00000000000E+00 -0.37555295750E+03  0.37555295750E+03  0.00000000000E+00 0.  1.
         -6    2    1    2    0  504 -0.13820091263E+02 -0.15315529052E+03 -0.31150425935E+03  0.38809571013E+03  0.17301976388E+03 0.  0.
        -24    2    3    3    0    0 -0.52287469779E+01 -0.10447929020E+03 -0.86352515850E+02  0.15753430442E+03  0.80106417962E+02 0.  0.
          6    2    1    2  502    0  0.13820091263E+02  0.15315529052E+03  0.49294057416E+03  0.54444651969E+03  0.17258060496E+03 0.  0.
         24    2    5    5    0    0  0.14019863255E+02  0.18182336778E+03  0.45429822313E+03  0.49610171794E+03  0.80459588404E+02 0.  0.
          4    1    6    6  501    0 -0.23427744850E+02  0.74346291351E+02  0.25439048388E+03  0.26606530881E+03  0.00000000000E+00 0. -1.
         -3    1    6    6    0  501  0.37447608105E+02  0.10747707643E+03  0.19990773925E+03  0.23003640912E+03  0.00000000000E+00 0.  1.
          5    1    5    5  502    0 -0.19977199191E+00 -0.28668077262E+02  0.38642351032E+02  0.48344801748E+02  0.47000000000E+01 0. -1.
         11    1    4    4    0    0 -0.38371703557E+02 -0.85111864913E+02 -0.62065252061E+02  0.11210937827E+03  0.00000000000E+00 0. -1.
        -12    1    4    4    0    0  0.33142956579E+02 -0.19367425288E+02 -0.24287263789E+02  0.45424926146E+02  0.00000000000E+00 0.  1.
         -5    1    3    3    0  504 -0.85913442849E+01 -0.48676000315E+02 -0.22515174350E+03  0.23056140571E+03  0.47000000000E+01 0.  1.
<mgrwt>
<rscale>  2 0.23139877E+03</rscale>
<asrwt>0</asrwt>
<pdfrwt beam="1">  1       21 0.85690657E-01 0.23148083E+03</pdfrwt>
<pdfrwt beam="2">  1       21 0.57777378E-01 0.23148083E+03</pdfrwt>
<totfact> 0.32044545E+03</totfact>
</mgrwt>
</event>
<event>
12    1  0.2743855E-001  0.1904910E+03  0.7546771E-02  0.1158054E+00
         21   -1    0    0  502  503  0.00000000000E+00  0.00000000000E+00  0.49583260284E+03  0.49583260284E+03  0.00000000000E+00 0. -1.
         21   -1    0    0  503  504 -0.00000000000E+00 -0.00000000000E+00 -0.11409528704E+03  0.11409528704E+03  0.00000000000E+00 0.  1.
         -6    2    1    2    0  504  0.47926215482E+02  0.59322219616E+02  0.81690013452E+01  0.19066606715E+03  0.17455878296E+03 0.  0.
        -24    2    3    3    0    0  0.91595513513E+02  0.73001819387E+02  0.18634179564E+02  0.14348822282E+03  0.80762823818E+02 0.  0.
          6    2    1    2  502    0 -0.47926215482E+02 -0.59322219616E+02  0.37356831446E+03  0.41926182273E+03  0.17438790830E+03 0.  0.
         24    2    5    5    0    0 -0.66457270492E+02  0.47525999819E+01  0.31039062899E+03  0.32727001631E+03  0.79524618874E+02 0.  0.
          2    1    6    6  501    0 -0.28091781641E+02 -0.29160467144E+02  0.21716335321E+03  0.22090586914E+03  0.00000000000E+00 0. -1.
         -1    1    6    6    0  501 -0.38365488851E+02  0.33913067126E+02  0.93227275773E+02  0.10636414718E+03  0.00000000000E+00 0.  1.
          5    1    5    5  502    0  0.18531055010E+02 -0.64074819598E+02  0.63177685475E+02  0.91991806419E+02  0.47000000000E+01 0. -1.
         11    1    4    4    0    0  0.13858850143E+00  0.15460196718E+02  0.31087779366E+02  0.34720122627E+02  0.00000000000E+00 0. -1.
        -12    1    4    4    0    0  0.91456925011E+02  0.57541622669E+02 -0.12453599802E+02  0.10876810019E+03  0.00000000000E+00 0.  1.
         -5    1    3    3    0  504 -0.43669298031E+02 -0.13679599771E+02 -0.10465178219E+02  0.47177844329E+02  0.47000000000E+01 0.  1.
<mgrwt>
<rscale>  2 0.19045183E+03</rscale>
<asrwt>0</asrwt>
<pdfrwt beam="1">  1       21 0.76281938E-01 0.19049099E+03</pdfrwt>
<pdfrwt beam="2">  1       21 0.17553121E-01 0.19049099E+03</pdfrwt>
<totfact> 0.45069852E+04</totfact>
</mgrwt>
</event>
<event>
12    1  0.2743855E-001  0.2136250E+03  0.7546771E-02  0.1138869E+00
         21   -1    0    0  502  503  0.00000000000E+00  0.00000000000E+00  0.50847477063E+03  0.50847477063E+03  0.00000000000E+00 0. -1.
         21   -1    0    0  503  504 -0.00000000000E+00 -0.00000000000E+00 -0.12051224073E+03  0.12051224073E+03  0.00000000000E+00 0. -1.
         -6    2    1    2    0  504  0.69446416437E+02  0.10401614909E+03  0.34047966881E+02  0.21559717493E+03  0.17228091525E+03 0.  0.
        -24    2    3    3    0    0  0.57051760258E+02  0.11204581356E+03 -0.28275334758E+02  0.15137578487E+03  0.79410112746E+02 0.  0.
          6    2    1    2  502    0 -0.69446416437E+02 -0.10401614909E+03  0.35391456303E+03  0.41338983643E+03  0.17318624344E+03 0.  0.
         24    2    5    5    0    0 -0.97603145175E+02 -0.11530324183E+03  0.23795143770E+03  0.29343260959E+03  0.81612487680E+02 0.  0.
          4    1    6    6  501    0 -0.71699727361E+02 -0.81592854923E+02  0.22355843953E+03  0.24854903090E+03  0.00000000000E+00 0. -1.
         -3    1    6    6    0  501 -0.25903417814E+02 -0.33710386905E+02  0.14392998171E+02  0.44883578691E+02  0.00000000000E+00 0.  1.
          5    1    5    5  502    0  0.28156728738E+02  0.11287092738E+02  0.11596312533E+03  0.11995722684E+03  0.47000000000E+01 0. -1.
         11    1    4    4    0    0  0.59432729914E+02  0.41910645199E+02 -0.35320751327E+02  0.80847430635E+02  0.00000000000E+00 0. -1.
        -12    1    4    4    0    0 -0.23809696554E+01  0.70135168356E+02  0.70454165691E+01  0.70528354237E+02  0.00000000000E+00 0.  1.
         -5    1    3    3    0  504  0.12394656178E+02 -0.80296644642E+01  0.62323301639E+02  0.64221390054E+02  0.47000000000E+01 0.  1.
<mgrwt>
<rscale>  2 0.21344144E+03</rscale>
<asrwt>0</asrwt>
<pdfrwt beam="1">  1       21 0.78226887E-01 0.21362500E+03</pdfrwt>
<pdfrwt beam="2">  1       21 0.18540345E-01 0.21362500E+03</pdfrwt>
<totfact> 0.38033089E+04</totfact>
</mgrwt>
</event>
<event>
12    1  0.2743855E-001  0.4244393E+03  0.7546771E-02  0.1035720E+00
         21   -1    0    0  502  503  0.00000000000E+00  0.00000000000E+00  0.11890952305E+04  0.11890952305E+04  0.00000000000E+00 0.  1.
         21   -1    0    0  503  504 -0.00000000000E+00 -0.00000000000E+00 -0.15490148301E+03  0.15490148301E+03  0.00000000000E+00 0. -1.
         -6    2    1    2    0  504 -0.35997648662E+03  0.14206348237E+03  0.41123023196E+03  0.59018488481E+03  0.17158901667E+03 0.  0.
        -24    2    3    3    0    0 -0.24064575586E+03  0.79974258763E+02  0.35724560813E+03  0.44516307748E+03  0.78990373740E+02 0.  0.
          6    2    1    2  502    0  0.35997648662E+03 -0.14206348237E+03  0.62296351552E+03  0.75381182869E+03  0.17430899995E+03 0.  0.
         24    2    5    5    0    0  0.22577975429E+03 -0.12946786599E+03  0.31462001193E+03  0.41726284455E+03  0.85930808005E+02 0.  0.
          2    1    6    6  501    0  0.17316088554E+03 -0.13657448212E+03  0.24379742530E+03  0.32874681144E+03  0.00000000000E+00 0. -1.
         -1    1    6    6    0  501  0.52618868746E+02  0.71066161276E+01  0.70822586632E+02  0.88516033113E+02  0.00000000000E+00 0.  1.
          5    1    5    5  502    0  0.13419673233E+03 -0.12595616381E+02  0.30834350359E+03  0.33654898414E+03  0.47000000000E+01 0. -1.
         11    1    4    4    0    0 -0.60702830155E+02  0.43104708647E+02  0.15501834884E+03  0.17196958444E+03  0.00000000000E+00 0. -1.
        -12    1    4    4    0    0 -0.17994292570E+03  0.36869550116E+02  0.20222725929E+03  0.27319349304E+03  0.00000000000E+00 0.  1.
         -5    1    3    3    0  504 -0.11933073076E+03  0.62089223609E+02  0.53984623824E+02  0.14502180733E+03  0.47000000000E+01 0.  1.
<mgrwt>
<rscale>  2 0.42416160E+03</rscale>
<asrwt>0</asrwt>
<pdfrwt beam="1">  1       21 0.18293772E+00 0.42443931E+03</pdfrwt>
<pdfrwt beam="2">  1       21 0.23830998E-01 0.42443931E+03</pdfrwt>
<totfact> 0.24861288E+03</totfact>
</mgrwt>
</event>
<event>
12    1  0.2743855E-001  0.2073984E+03  0.7546771E-02  0.1144044E+00
         21   -1    0    0  502  503  0.00000000000E+00  0.00000000000E+00  0.29889489507E+03  0.29889489507E+03  0.00000000000E+00 0. -1.
         21   -1    0    0  503  504 -0.00000000000E+00 -0.00000000000E+00 -0.10504761432E+04  0.10504761432E+04  0.00000000000E+00 0.  1.
         -6    2    1    2    0  504 -0.27813778956E+02 -0.10774007543E+03 -0.10027887089E+04  0.10236115159E+04  0.17266676171E+03 0.  0.
        -24    2    3    3    0    0  0.11516118187E+02 -0.31810539777E+02 -0.23143155887E+03  0.24751482210E+03  0.80984500376E+02 0.  0.
          6    2    1    2  502    0  0.27813778956E+02  0.10774007543E+03  0.25120746082E+03  0.32575952233E+03  0.17502156398E+03 0.  0.
         24    2    5    5    0    0  0.80431739318E+02  0.66977200746E+02  0.11844124104E+03  0.17716873923E+03  0.80032646290E+02 0.  0.
          4    1    6    6  501    0  0.83667377793E+02  0.79891860280E+02  0.11562438296E+03  0.16356019498E+03  0.00000000000E+00 0. -1.
         -3    1    6    6    0  501 -0.32356384750E+01 -0.12914659534E+02  0.28168580741E+01  0.13608544251E+02  0.00000000000E+00 0.  1.
          5    1    5    5  502    0 -0.52617960361E+02  0.40762874684E+02  0.13276621979E+03  0.14859078310E+03  0.47000000000E+01 0. -1.
         11    1    4    4    0    0 -0.14424426486E+02 -0.49214687339E+02 -0.18159002926E+03  0.18869310601E+03  0.00000000000E+00 0. -1.
        -12    1    4    4    0    0  0.25940544673E+02  0.17404147562E+02 -0.49841529614E+02  0.58821716097E+02  0.00000000000E+00 0.  1.
         -5    1    3    3    0  504 -0.39329897143E+02 -0.75929535652E+02 -0.77135715007E+03  0.77609669382E+03  0.47000000000E+01 0.  1.
<mgrwt>
<rscale>  2 0.20690074E+03</rscale>
<asrwt>0</asrwt>
<pdfrwt beam="1">  1       21 0.45983830E-01 0.20739836E+03</pdfrwt>
<pdfrwt beam="2">  1       21 0.16161172E+00 0.20739836E+03</pdfrwt>
<totfact> 0.10935758E+03</totfact>
</mgrwt>
</event>
<event>
12    1  0.2743855E-001  0.2100362E+03  0.7546771E-02  0.1141846E+00
         21   -1    0    0  502  503  0.00000000000E+00  0.00000000000E+00  0.33734143145E+02  0.33734143145E+02  0.00000000000E+00 0. -1.
         21   -1    0    0  503  504 -0.00000000000E+00 -0.00000000000E+00 -0.13003212380E+04  0.13003212380E+04  0.00000000000E+00 0. -1.
         -6    2    1    2    0  504 -0.18470893905E+02 -0.11447969413E+03 -0.60314593424E+03  0.63816072563E+03  0.17325507051E+03 0.  0.
        -24    2    3    3    0    0 -0.30215035750E+02 -0.48484054739E+02 -0.14661607190E+03  0.17671196954E+03  0.80418876461E+02 0.  0.
          6    2    1    2  502    0  0.18470893905E+02  0.11447969413E+03 -0.66344116057E+03  0.69589465547E+03  0.17512402372E+03 0.  0.
         24    2    5    5    0    0  0.60239256489E+02  0.10746345682E+03 -0.34098044785E+03  0.37063041682E+03  0.76955035434E+02 0.  0.
          4    1    6    6  501    0  0.20709618575E+02  0.10323890154E+03 -0.23851532987E+03  0.26072345824E+03  0.00000000000E+00 0. -1.
         -3    1    6    6    0  501  0.39529637913E+02  0.42245552791E+01 -0.10246511798E+03  0.10990695858E+03  0.00000000000E+00 0.  1.
          5    1    5    5  502    0 -0.41768362584E+02  0.70162373039E+01 -0.32246071272E+03  0.32526423865E+03  0.47000000000E+01 0. -1.
         13    1    4    4    0    0  0.23419717415E+02 -0.50422867101E+00 -0.58028067845E+02  0.62577903993E+02  0.00000000000E+00 0. -1.
        -14    1    4    4    0    0 -0.53634753165E+02 -0.47979826068E+02 -0.88588004051E+02  0.11413406555E+03  0.00000000000E+00 0.  1.
         -5    1    3    3    0  504  0.11744141845E+02 -0.65995639386E+02 -0.45652986235E+03  0.46144875609E+03  0.47000000000E+01 0.  1.
<mgrwt>
<rscale>  2 0.20964616E+03</rscale>
<asrwt>0</asrwt>
<pdfrwt beam="1">  1       21 0.51898676E-02 0.21003618E+03</pdfrwt>
<pdfrwt beam="2">  1       21 0.20004944E+00 0.21003618E+03</pdfrwt>
<totfact> 0.33474529E+04</totfact>
</mgrwt>
</event>
<event>
12    1  0.2743855E-001  0.2818246E+03  0.7546771E-02  0.1094824E+00
         21   -1    0    0  502  503  0.00000000000E+00  0.00000000000E+00  0.84400797437E+03  0.84400797437E+03  0.00000000000E+00 0.  1.
         21   -1    0    0  503  504 -0.00000000000E+00 -0.00000000000E+00 -0.13368198007E+03  0.13368198007E+03  0.00000000000E+00 0. -1.
         -6    2    1    2    0  504 -0.15762413612E+01 -0.22367152902E+03  0.88540671226E+02  0.29540575269E+03  0.17144582477E+03 0.  0.
        -24    2    3    3    0    0  0.32374066585E+02 -0.22379205129E+03  0.99207478494E+02  0.25950994914E+03  0.79826859533E+02 0.  0.
          6    2    1    2  502    0  0.15762413612E+01  0.22367152902E+03  0.62178532308E+03  0.68228420175E+03  0.16989204376E+03 0.  0.
         24    2    5    5    0    0 -0.59292014944E+02  0.13682534513E+03  0.42708233236E+03  0.46052183146E+03  0.86280475963E+02 0.  0.
          2    1    6    6  501    0 -0.68242871936E+02  0.52177816700E+02  0.24227945434E+03  0.25705825822E+03  0.00000000000E+00 0. -1.
         -1    1    6    6    0  501  0.89508569923E+01  0.84647528431E+02  0.18480287802E+03  0.20346357324E+03  0.00000000000E+00 0.  1.
          5    1    5    5  502    0  0.60868256305E+02  0.86846183884E+02  0.19470299072E+03  0.22176237029E+03  0.47000000000E+01 0. -1.
         13    1    4    4    0    0  0.34304834047E+02 -0.15448885873E+03  0.29088478386E+02  0.16090297911E+03  0.00000000000E+00 0. -1.
        -14    1    4    4    0    0 -0.19307674622E+01 -0.69303192563E+02  0.70119000108E+02  0.98606970030E+02  0.00000000000E+00 0.  1.
         -5    1    3    3    0  504 -0.33950307946E+02  0.12052227900E+00 -0.10666807268E+02  0.35895803550E+02  0.47000000000E+01 0.  1.
<mgrwt>
<rscale>  2 0.28158868E+03</rscale>
<asrwt>0</asrwt>
<pdfrwt beam="1">  1       21 0.12984738E+00 0.28182461E+03</pdfrwt>
<pdfrwt beam="2">  1       21 0.20566459E-01 0.28182461E+03</pdfrwt>
<totfact> 0.89787879E+03</totfact>
</mgrwt>
</event>
<event>
12    1  0.2743855E-001  0.1859003E+03  0.7546771E-02  0.1163936E+00
         21   -1    0    0  502  503  0.00000000000E+00  0.00000000000E+00  0.91997749522E+02  0.91997749522E+02  0.00000000000E+00 0.  1.
         21   -1    0    0  503  504 -0.00000000000E+00 -0.00000000000E+00 -0.61179258647E+03  0.61179258647E+03  0.00000000000E+00 0.  1.
         -6    2    1    2    0  504 -0.55249804312E+02  0.13280488799E+02 -0.48819352933E+03  0.52239050388E+03  0.17700283672E+03 0.  0.
        -24    2    3    3    0    0  0.33975571074E+02 -0.27242394699E+02 -0.23806680265E+03  0.25371087850E+03  0.76137506148E+02 0.  0.
          6    2    1    2  502    0  0.55249804312E+02 -0.13280488799E+02 -0.31601307625E+02  0.18139983212E+03  0.16934681630E+03 0.  0.
         24    2    5    5    0    0  0.68008998950E+02 -0.12648894822E+02  0.36588102051E+02  0.11186508145E+03  0.79936779753E+02 0.  0.
          2    1    6    6  501    0  0.12550232376E+02 -0.21397139643E+02  0.48495615478E+02  0.54471741648E+02  0.00000000000E+00 0. -1.
         -1    1    6    6    0  501  0.55458766574E+02  0.87482448208E+01 -0.11907513427E+02  0.57393339800E+02  0.00000000000E+00 0.  1.
          5    1    5    5  502    0 -0.12759194638E+02 -0.63159397726E+00 -0.68189409676E+02  0.69534750670E+02  0.47000000000E+01 0. -1.
         13    1    4    4    0    0 -0.41035451201E+01  0.65158539720E+01  0.22839888478E+01  0.80319387818E+01  0.00000000000E+00 0. -1.
        -14    1    4    4    0    0  0.38079116194E+02 -0.33758248671E+02 -0.24035079150E+03  0.24567893971E+03  0.00000000000E+00 0.  1.
         -5    1    3    3    0  504 -0.89225375386E+02  0.40522883498E+02 -0.25012672667E+03  0.26867962538E+03  0.47000000000E+01 0.  1.
<mgrwt>
<rscale>  2 0.18405441E+03</rscale>
<asrwt>0</asrwt>
<pdfrwt beam="1">  1       21 0.14153500E-01 0.18590029E+03</pdfrwt>
<pdfrwt beam="2">  1       21 0.94121935E-01 0.18590029E+03</pdfrwt>
<totfact> 0.41413901E+04</totfact>
</mgrwt>
</event>
<event>
12    1  0.2743855E-001  0.2240895E+03  0.7546771E-02  0.1131013E+00
         21   -1    0    0  502  503  0.00000000000E+00  0.00000000000E+00  0.14557292334E+04  0.14557292334E+04  0.00000000000E+00 0.  1.
         21   -1    0    0  503  504 -0.00000000000E+00 -0.00000000000E+00 -0.49960933790E+02  0.49960933790E+02  0.00000000000E+00 0. -1.
         -6    2    1    2    0  504 -0.13898404657E+03 -0.28664073849E+02  0.28324168440E+03  0.36116747126E+03  0.17342980188E+03 0.  0.
        -24    2    3    3    0    0 -0.29416406514E+02 -0.53471787277E+02  0.81070338295E+02  0.12983257640E+03  0.80990994167E+02 0.  0.
          6    2    1    2  502    0  0.13898404657E+03  0.28664073849E+02  0.11225266152E+04  0.11445226959E+04  0.17241811194E+03 0.  0.
         24    2    5    5    0    0  0.15178861360E+03 -0.19395330090E+02  0.87122960278E+03  0.88830805603E+03  0.81450718862E+02 0.  0.
          2    1    6    6  501    0  0.16139969901E+03 -0.22739930926E+02  0.82877984141E+03  0.84465554686E+03  0.00000000000E+00 0. -1.
         -1    1    6    6    0  501 -0.96110854067E+01  0.33446008360E+01  0.42449761365E+02  0.43652509176E+02  0.00000000000E+00 0.  1.
          5    1    5    5  502    0 -0.12804567035E+02  0.48059403939E+02  0.25129701238E+03  0.25621463986E+03  0.47000000000E+01 0. -1.
         11    1    4    4    0    0 -0.28184501936E+02 -0.70922248083E+01 -0.73507650664E+01  0.29978317985E+02  0.00000000000E+00 0. -1.
        -12    1    4    4    0    0 -0.12319045775E+01 -0.46379562468E+02  0.88421103362E+02  0.99854258414E+02  0.00000000000E+00 0.  1.
         -5    1    3    3    0  504 -0.10956764005E+03  0.24807713427E+02  0.20217134611E+03  0.23133489486E+03  0.47000000000E+01 0.  1.
<mgrwt>
<rscale>  2 0.22389370E+03</rscale>
<asrwt>0</asrwt>
<pdfrwt beam="1">  1       21 0.22395831E+00 0.22408947E+03</pdfrwt>
<pdfrwt beam="2">  1       21 0.76862986E-02 0.22408947E+03</pdfrwt>
<totfact> 0.11924771E+04</totfact>
</mgrwt>
</event>
<event>
12    1  0.2743855E-001  0.2197871E+03  0.7546771E-02  0.1135448E+00
         21   -1    0    0  502  503  0.00000000000E+00  0.00000000000E+00  0.35573729247E+02  0.35573729247E+02  0.00000000000E+00 0.  1.
         21   -1    0    0  503  504 -0.00000000000E+00 -0.00000000000E+00 -0.19966207761E+04  0.19966207761E+04  0.00000000000E+00 0.  1.
         -6    2    1    2    0  504 -0.12016543954E+03 -0.53021551759E+02 -0.15862244062E+04  0.16013788492E+04  0.17622523638E+03 0.  0.
        -24    2    3    3    0    0 -0.11939765206E+03 -0.29531251330E+02 -0.15554341431E+04  0.15623594436E+04  0.80397532777E+02 0.  0.
          6    2    1    2  502    0  0.12016543954E+03  0.53021551759E+02 -0.37482264068E+03  0.43081565620E+03  0.16691045459E+03 0.  0.
         24    2    5    5    0    0  0.78036708694E+02  0.35988538552E+02 -0.10204857669E+03  0.15424245886E+03  0.77407501573E+02 0.  0.
          2    1    6    6  501    0  0.81893619144E+02  0.24404102264E+02 -0.11028335811E+03  0.13951539033E+03  0.00000000000E+00 0. -1.
         -1    1    6    6    0  501 -0.38569104502E+01  0.11584436289E+02  0.82347814207E+01  0.14727068527E+02  0.00000000000E+00 0.  1.
          5    1    5    5  502    0  0.42128730849E+02  0.17033013206E+02 -0.27277406399E+03  0.27657319735E+03  0.47000000000E+01 0. -1.
         11    1    4    4    0    0 -0.57621820369E+02  0.58915908522E+01 -0.10871339106E+04  0.10886758583E+04  0.00000000000E+00 0. -1.
        -12    1    4    4    0    0 -0.61775831692E+02 -0.35422842182E+02 -0.46830023255E+03  0.47368358525E+03  0.00000000000E+00 0.  1.
         -5    1    3    3    0  504 -0.76778748151E+00 -0.23490300429E+02 -0.30790263122E+02  0.39019405621E+02  0.47000000000E+01 0.  1.
<mgrwt>
<rscale>  2 0.21791435E+03</rscale>
<asrwt>0</asrwt>
<pdfrwt beam="1">  1       21 0.54728812E-02 0.21978706E+03</pdfrwt>
<pdfrwt beam="2">  1       21 0.30717244E+00 0.21978706E+03</pdfrwt>
<totfact> 0.69544982E+03</totfact>
</mgrwt>
</event>
<event>
12    1  0.2743855E-001  0.1879866E+03  0.7546771E-02  0.1160389E+00
         21   -1    0    0  502  503  0.00000000000E+00  0.00000000000E+00  0.71357912192E+03  0.71357912192E+03  0.00000000000E+00 0.  1.
         21   -1    0    0  503  504 -0.00000000000E+00 -0.00000000000E+00 -0.13329008906E+03  0.13329008906E+03  0.00000000000E+00 0.  1.
         -6    2    1    2    0  504  0.70084921459E+02  0.72447540284E+01 -0.45637243014E+02  0.19344698929E+03  0.17428309452E+03 0.  0.
        -24    2    3    3    0    0  0.10931311936E+03  0.32788256256E+02 -0.23623111757E+02  0.14150438643E+03  0.80255916656E+02 0.  0.
          6    2    1    2  502    0 -0.70084921459E+02 -0.72447540284E+01  0.62592627587E+03  0.65342222170E+03  0.17381747412E+03 0.  0.
         24    2    5    5    0    0  0.71466520927E+01 -0.48357521210E+02  0.40572740941E+03  0.41643149114E+03  0.80068293204E+02 0.  0.
          2    1    6    6  501    0  0.26836232211E+02 -0.63361983788E+02  0.28461061287E+03  0.29281073291E+03  0.00000000000E+00 0. -1.
         -1    1    6    6    0  501 -0.19689580118E+02  0.15004462578E+02  0.12111679653E+03  0.12362075823E+03  0.00000000000E+00 0.  1.
          5    1    5    5  502    0 -0.77231573552E+02  0.41112767181E+02  0.22019886647E+03  0.23699073056E+03  0.47000000000E+01 0. -1.
         13    1    4    4    0    0  0.69118700529E+02  0.59454793283E+02 -0.18129963036E+02  0.92956779025E+02  0.00000000000E+00 0. -1.
        -14    1    4    4    0    0  0.40194418828E+02 -0.26666537027E+02 -0.54931487216E+01  0.48547607406E+02  0.00000000000E+00 0.  1.
         -5    1    3    3    0  504 -0.39228197898E+02 -0.25543502227E+02 -0.22014131257E+02  0.51942602855E+02  0.47000000000E+01 0.  1.
<mgrwt>
<rscale>  2 0.18787866E+03</rscale>
<asrwt>0</asrwt>
<pdfrwt beam="1">  1       21 0.10978140E+00 0.18798665E+03</pdfrwt>
<pdfrwt beam="2">  1       21 0.20506168E-01 0.18798665E+03</pdfrwt>
<totfact> 0.14501584E+04</totfact>
</mgrwt>
</event>
<event>
12    1  0.2743855E-001  0.1882624E+03  0.7546771E-02  0.1160916E+00
         21   -1    0    0  502  503  0.00000000000E+00  0.00000000000E+00  0.72641361545E+03  0.72641361545E+03  0.00000000000E+00 0.  1.
         21   -1    0    0  503  504 -0.00000000000E+00 -0.00000000000E+00 -0.53770877164E+02  0.53770877164E+02  0.00000000000E+00 0.  1.
         -6    2    1    2    0  504  0.31155113861E+02  0.55730849346E+02  0.20339799252E+03  0.27458249890E+03  0.17305558834E+03 0.  0.
        -24    2    3    3    0    0  0.41543704462E+01 -0.21972924904E+02  0.16247990833E+03  0.18258632349E+03  0.80237003258E+02 0.  0.
          6    2    1    2  502    0 -0.31155113861E+02 -0.55730849346E+02  0.46924474577E+03  0.50560199371E+03  0.17710498560E+03 0.  0.
         24    2    5    5    0    0 -0.85811079560E+01 -0.22420394379E+02  0.45472582459E+03  0.46256641279E+03  0.81337575542E+02 0.  0.
          4    1    6    6  501    0  0.28838936236E+02 -0.21009976863E+02  0.10617834213E+03  0.11201314079E+03  0.00000000000E+00 0. -1.
         -3    1    6    6    0  501 -0.37420044192E+02 -0.14104175161E+01  0.34854748246E+03  0.35055327201E+03  0.00000000000E+00 0.  1.
          5    1    5    5  502    0 -0.22574005905E+02 -0.33310454967E+02  0.14518921177E+02  0.43035580917E+02  0.47000000000E+01 0. -1.
         13    1    4    4    0    0 -0.37809976992E+02 -0.69767225333E+01  0.82798946422E+02  0.91290385836E+02  0.00000000000E+00 0. -1.
        -14    1    4    4    0    0  0.41964347438E+02 -0.14996202371E+02  0.79680961904E+02  0.91295937650E+02  0.00000000000E+00 0.  1.
         -5    1    3    3    0  504  0.27000743415E+02  0.77703774250E+02  0.40918084190E+02  0.91996175417E+02  0.47000000000E+01 0.  1.
<mgrwt>
<rscale>  2 0.18730407E+03</rscale>
<asrwt>0</asrwt>
<pdfrwt beam="1">  1       21 0.11175593E+00 0.18826244E+03</pdfrwt>
<pdfrwt beam="2">  1       21 0.82724432E-02 0.18826244E+03</pdfrwt>
<totfact> 0.71293193E+04</totfact>
</mgrwt>
</event>
<event>
12    1  0.2743855E-001  0.2217265E+03  0.7546771E-02  0.1133020E+00
         21   -1    0    0  502  503  0.00000000000E+00  0.00000000000E+00  0.16134433997E+03  0.16134433997E+03  0.00000000000E+00 0. -1.
         21   -1    0    0  503  504 -0.00000000000E+00 -0.00000000000E+00 -0.92935678869E+03  0.92935678869E+03  0.00000000000E+00 0.  1.
         -6    2    1    2    0  504  0.11179971730E+03 -0.69595266425E+02 -0.83156925536E+03  0.86004534079E+03  0.17557871127E+03 0.  0.
        -24    2    3    3    0    0  0.83660184701E+01 -0.14773103398E+02 -0.50116150534E+03  0.50948098024E+03  0.90109821558E+02 0.  0.
          6    2    1    2  502    0 -0.11179971730E+03  0.69595266425E+02  0.63556806643E+02  0.23065578787E+03  0.17838146459E+03 0.  0.
         24    2    5    5    0    0 -0.71793551536E+02  0.16664140646E+02  0.10531649718E+03  0.15211815912E+03  0.81341023651E+02 0.  0.
          2    1    6    6  501    0 -0.67177689453E+02 -0.22032101914E+02  0.70912900837E+02  0.10013438460E+03  0.00000000000E+00 0. -1.
         -1    1    6    6    0  501 -0.46158620831E+01  0.38696242560E+02  0.34403596348E+02  0.51983774514E+02  0.00000000000E+00 0.  1.
          5    1    5    5  502    0 -0.40006165766E+02  0.52931125779E+02 -0.41759690542E+02  0.78537628750E+02  0.47000000000E+01 0. -1.
         13    1    4    4    0    0 -0.24237534803E+02  0.12253867588E+02 -0.55264512469E+02  0.61577444756E+02  0.00000000000E+00 0. -1.
        -14    1    4    4    0    0  0.32603553273E+02 -0.27026970986E+02 -0.44589699287E+03  0.44790353548E+03  0.00000000000E+00 0.  1.
         -5    1    3    3    0  504  0.10343369883E+03 -0.54822163027E+02 -0.33040775002E+03  0.35056436055E+03  0.47000000000E+01 0.  1.
<mgrwt>
<rscale>  2 0.22116218E+03</rscale>
<asrwt>0</asrwt>
<pdfrwt beam="1">  1       21 0.24822206E-01 0.22172646E+03</pdfrwt>
<pdfrwt beam="2">  1       21 0.14297797E+00 0.22172646E+03</pdfrwt>
<totfact> 0.50834059E+03</totfact>
</mgrwt>
</event>
<event>
12    1  0.2743855E-001  0.2261125E+03  0.7546771E-02  0.1129572E+00
         21   -1    0    0  502  503  0.00000000000E+00  0.00000000000E+00  0.37112009007E+03  0.37112009007E+03  0.00000000000E+00 0.  1.
         21   -1    0    0  503  504 -0.00000000000E+00 -0.00000000000E+00 -0.15617535881E+03  0.15617535881E+03  0.00000000000E+00 0.  1.
         -6    2    1    2    0  504  0.57933706705E+02  0.13144655095E+03  0.15387327477E+02  0.22571626983E+03  0.17342593373E+03 0.  0.
        -24    2    3    3    0    0  0.68799090484E+02  0.50704475645E+02  0.59798871096E+02  0.13280871096E+03  0.82206994955E+02 0.  0.
          6    2    1    2  502    0 -0.57933706705E+02 -0.13144655095E+03  0.19955740378E+03  0.30157917906E+03  0.17462054206E+03 0.  0.
         24    2    5    5    0    0 -0.22428652481E+02 -0.86102046793E+02  0.29834713821E+02  0.12228998691E+03  0.78409972813E+02 0.  0.
          4    1    6    6  501    0  0.13678914427E+02  0.69494341126E+01  0.14863554988E+02  0.21361942825E+02  0.00000000000E+00 0. -1.
         -3    1    6    6    0  501 -0.36107566908E+02 -0.93051480905E+02  0.14971158833E+02  0.10092804409E+03  0.00000000000E+00 0.  1.
          5    1    5    5  502    0 -0.35505054224E+02 -0.45344504156E+02  0.16972268996E+03  0.17928919215E+03  0.47000000000E+01 0. -1.
         11    1    4    4    0    0 -0.95896957915E+01 -0.13455517100E+02  0.34029012966E+01  0.16869882721E+02  0.00000000000E+00 0. -1.
        -12    1    4    4    0    0  0.78388786276E+02  0.64159992745E+02  0.56395969799E+02  0.11593882823E+03  0.00000000000E+00 0.  1.
         -5    1    3    3    0  504 -0.10865383780E+02  0.80742075304E+02 -0.44411543619E+02  0.92907558873E+02  0.47000000000E+01 0.  1.
<mgrwt>
<rscale>  2 0.22588178E+03</rscale>
<asrwt>0</asrwt>
<pdfrwt beam="1">  1       21 0.57095398E-01 0.22611246E+03</pdfrwt>
<pdfrwt beam="2">  1       21 0.24026978E-01 0.22611246E+03</pdfrwt>
<totfact> 0.46322810E+04</totfact>
</mgrwt>
</event>
<event>
12    1  0.2743855E-001  0.2889021E+03  0.7546771E-02  0.1090967E+00
         21   -1    0    0  502  503  0.00000000000E+00  0.00000000000E+00  0.23781893877E+03  0.23781893877E+03  0.00000000000E+00 0. -1.
         21   -1    0    0  503  504 -0.00000000000E+00 -0.00000000000E+00 -0.45852083463E+03  0.45852083463E+03  0.00000000000E+00 0.  1.
         -6    2    1    2    0  504 -0.94583574289E+01  0.23117324059E+03 -0.27934933336E+03  0.40187117982E+03  0.17301406714E+03 0.  0.
        -24    2    3    3    0    0 -0.65565291855E+00  0.56398582051E+02 -0.41464939533E+02  0.10651589596E+03  0.80281161825E+02 0.  0.
          6    2    1    2  502    0  0.94583574289E+01 -0.23117324059E+03  0.58647437504E+02  0.29446859357E+03  0.17245782958E+03 0.  0.
         24    2    5    5    0    0  0.27172372056E+02 -0.15671791906E+03 -0.31396479969E+02  0.17620034638E+03  0.69007094949E+02 0.  0.
          2    1    6    6  501    0  0.45928295361E+02 -0.10257426104E+03 -0.34300983360E+01  0.11243955228E+03  0.00000000000E+00 0. -1.
         -1    1    6    6    0  501 -0.18755923305E+02 -0.54143658024E+02 -0.27966381633E+02  0.63760794105E+02  0.00000000000E+00 0.  1.
          5    1    5    5  502    0 -0.17714014627E+02 -0.74455321529E+02  0.90043917474E+02  0.11826824718E+03  0.47000000000E+01 0. -1.
         13    1    4    4    0    0  0.33994210940E+02  0.17094415099E+02 -0.38354525481E+02  0.54026799182E+02  0.00000000000E+00 0. -1.
        -14    1    4    4    0    0 -0.34649863858E+02  0.39304166952E+02 -0.31104140518E+01  0.52489096780E+02  0.00000000000E+00 0.  1.
         -5    1    3    3    0  504 -0.88027045103E+01  0.17477465854E+03 -0.23788439383E+03  0.29535528386E+03  0.47000000000E+01 0.  1.
<mgrwt>
<rscale>  2 0.28881882E+03</rscale>
<asrwt>0</asrwt>
<pdfrwt beam="1">  1       21 0.36587530E-01 0.28890205E+03</pdfrwt>
<pdfrwt beam="2">  1       21 0.70541665E-01 0.28890205E+03</pdfrwt>
<totfact> 0.12441880E+04</totfact>
</mgrwt>
</event>
<event>
12    1  0.2743855E-001  0.2916027E+03  0.7546771E-02  0.1089867E+00
         21   -1    0    0  502  503  0.00000000000E+00  0.00000000000E+00  0.27400951185E+03  0.27400951185E+03  0.00000000000E+00 0.  1.
         21   -1    0    0  503  504 -0.00000000000E+00 -0.00000000000E+00 -0.55332944584E+03  0.55332944584E+03  0.00000000000E+00 0. -1.
         -6    2    1    2    0  504  0.12598703245E+03  0.19597343354E+03 -0.41504857601E+03  0.50569565609E+03  0.17083459001E+03 0.  0.
        -24    2    3    3    0    0  0.13720783031E+03  0.18426737299E+03 -0.42206082681E+03  0.48741452320E+03  0.81591191034E+02 0.  0.
          6    2    1    2  502    0 -0.12598703245E+03 -0.19597343354E+03  0.13572864201E+03  0.32164330160E+03  0.17536770001E+03 0.  0.
         24    2    5    5    0    0 -0.44942784531E+02 -0.18621297689E+03  0.11542360253E+03  0.23739473329E+03  0.79614852445E+02 0.  0.
          4    1    6    6  501    0 -0.50318968483E+02 -0.99300598706E+02  0.98592151095E+02  0.14870447118E+03  0.00000000000E+00 0. -1.
         -3    1    6    6    0  501  0.53761839528E+01 -0.86912378181E+02  0.16831451438E+02  0.88690262106E+02  0.00000000000E+00 0.  1.
          5    1    5    5  502    0 -0.81044247918E+02 -0.97604566512E+01  0.20305039477E+02  0.84248568313E+02  0.47000000000E+01 0. -1.
         13    1    4    4    0    0  0.14446809333E+03  0.18358791536E+03 -0.39069469833E+03  0.45521192863E+03  0.00000000000E+00 0. -1.
        -14    1    4    4    0    0 -0.72602630192E+01  0.67945762283E+00 -0.31366128476E+02  0.32202594575E+02  0.00000000000E+00 0.  1.
         -5    1    3    3    0  504 -0.11220797861E+02  0.11706060553E+02  0.70122508035E+01  0.18281132887E+02  0.47000000000E+01 0.  1.
<mgrwt>
<rscale>  2 0.29092449E+03</rscale>
<asrwt>0</asrwt>
<pdfrwt beam="1">  1       21 0.42155310E-01 0.29160272E+03</pdfrwt>
<pdfrwt beam="2">  1       21 0.85127606E-01 0.29160272E+03</pdfrwt>
<totfact> 0.60773694E+03</totfact>
</mgrwt>
</event>
<event>
12    1  0.2743855E-001  0.1752848E+03  0.7546771E-02  0.1172722E+00
         21   -1    0    0  502  503  0.00000000000E+00  0.00000000000E+00  0.64136094544E+03  0.64136094544E+03  0.00000000000E+00 0.  1.
         21   -1    0    0  503  504 -0.00000000000E+00 -0.00000000000E+00 -0.64793564115E+02  0.64793564115E+02  0.00000000000E+00 0.  1.
         -6    2    1    2    0  504 -0.23224491135E+02  0.10444733428E+02  0.10710068112E+03  0.20541495778E+03  0.17342514102E+03 0.  0.
        -24    2    3    3    0    0  0.39418903646E+02 -0.72634408088E+01  0.11559603532E+02  0.89708597316E+02  0.79419144176E+02 0.  0.
          6    2    1    2  502    0  0.23224491135E+02 -0.10444733428E+02  0.46946670020E+03  0.50073955178E+03  0.17231554390E+03 0.  0.
         24    2    5    5    0    0 -0.45590733231E+02  0.22838744611E+01  0.17157766615E+03  0.19470439175E+03  0.79919794833E+02 0.  0.
          4    1    6    6  501    0 -0.46152917820E+02 -0.19252208878E+01  0.34734084548E+02  0.57794938603E+02  0.00000000000E+00 0. -1.
         -3    1    6    6    0  501  0.56218458916E+00  0.42090953490E+01  0.13684358161E+03  0.13690945315E+03  0.00000000000E+00 0.  1.
          5    1    5    5  502    0  0.68815224366E+02 -0.12728607889E+02  0.29788903405E+03  0.30603516002E+03  0.47000000000E+01 0. -1.
         13    1    4    4    0    0  0.13936152710E+02 -0.18166830468E+02 -0.31231221573E+02  0.38725176340E+02  0.00000000000E+00 0. -1.
        -14    1    4    4    0    0  0.25482750937E+02  0.10903389659E+02  0.42790825105E+02  0.50983420977E+02  0.00000000000E+00 0.  1.
         -5    1    3    3    0  504 -0.62643394781E+02  0.17708174236E+02  0.95541077591E+02  0.11570636046E+03  0.47000000000E+01 0.  1.
<mgrwt>
<rscale>  2 0.17500968E+03</rscale>
<asrwt>0</asrwt>
<pdfrwt beam="1">  1       21 0.98670911E-01 0.17528477E+03</pdfrwt>
<pdfrwt beam="2">  1       21 0.99682410E-02 0.17528477E+03</pdfrwt>
<totfact> 0.69700854E+04</totfact>
</mgrwt>
</event>
<event>
12    1  0.2743855E-001  0.1980904E+03  0.7546771E-02  0.1152305E+00
         21   -1    0    0  502  503  0.00000000000E+00  0.00000000000E+00  0.25077322412E+03  0.25077322412E+03  0.00000000000E+00 0. -1.
         21   -1    0    0  503  504 -0.00000000000E+00 -0.00000000000E+00 -0.16687791097E+03  0.16687791097E+03  0.00000000000E+00 0. -1.
         -6    2    1    2    0  504  0.27489511979E+02  0.90940671506E+02 -0.17752705899E+02  0.19888428413E+03  0.17382152026E+03 0.  0.
        -24    2    3    3    0    0  0.33105193617E+02  0.10657843617E+03  0.36501446109E+02  0.14194854339E+03  0.79762876712E+02 0.  0.
          6    2    1    2  502    0 -0.27489511979E+02 -0.90940671506E+02  0.10164801904E+03  0.21876685096E+03  0.16882161088E+03 0.  0.
         24    2    5    5    0    0  0.31076081415E+02 -0.80081538179E+01  0.51337215319E+02  0.10536050990E+03  0.86229194628E+02 0.  0.
          4    1    6    6  501    0  0.35801757768E+02 -0.35025751853E+02  0.58501055508E+02  0.77012613562E+02  0.00000000000E+00 0. -1.
         -3    1    6    6    0  501 -0.47256763523E+01  0.27017598035E+02 -0.71638401898E+01  0.28347896339E+02  0.00000000000E+00 0.  1.
          5    1    5    5  502    0 -0.58565593395E+02 -0.82932517689E+02  0.50310803725E+02  0.11340634105E+03  0.47000000000E+01 0. -1.
         11    1    4    4    0    0 -0.78643338074E+01  0.42695498350E+02  0.48524466591E+02  0.65110499794E+02  0.00000000000E+00 0. -1.
        -12    1    4    4    0    0  0.40969527425E+02  0.63882937820E+02 -0.12023020482E+02  0.76838043594E+02  0.00000000000E+00 0.  1.
         -5    1    3    3    0  504 -0.56156816380E+01 -0.15637764663E+02 -0.54254152008E+02  0.56935740743E+02  0.47000000000E+01 0.  1.
<mgrwt>
<rscale>  2 0.19698809E+03</rscale>
<asrwt>0</asrwt>
<pdfrwt beam="1">  1       21 0.38580496E-01 0.19809038E+03</pdfrwt>
<pdfrwt beam="2">  1       21 0.25673525E-01 0.19809038E+03</pdfrwt>
<totfact> 0.93057111E+04</totfact>
</mgrwt>
</event>
<event>
12    1  0.2743855E-001  0.1854688E+03  0.7546771E-02  0.1162848E+00
         21   -1    0    0  502  503  0.00000000000E+00  0.00000000000E+00  0.68640258321E+03  0.68640258321E+03  0.00000000000E+00 0. -1.
         21   -1    0    0  503  504 -0.00000000000E+00 -0.00000000000E+00 -0.75405633989E+02  0.75405633989E+02  0.00000000000E+00 0. -1.
         -6    2    1    2    0  504  0.25576036060E+02  0.60415599923E+02  0.83170354060E+02  0.20234454777E+03  0.17240020267E+03 0.  0.
        -24    2    3    3    0    0  0.19146535608E+02  0.81026533220E+02  0.11511615995E+03  0.16350161326E+03  0.80926870354E+02 0.  0.
          6    2    1    2  502    0 -0.25576036060E+02 -0.60415599923E+02  0.52782659516E+03  0.55946366943E+03  0.17347767730E+03 0.  0.
         24    2    5    5    0    0  0.31942800448E+02  0.71951540935E+01  0.35214068273E+03  0.36256963591E+03  0.79884715078E+02 0.  0.
          4    1    6    6  501    0  0.33449986453E+02 -0.16557567794E+02  0.69149013763E+02  0.78578882337E+02  0.00000000000E+00 0. -1.
         -3    1    6    6    0  501 -0.15071860045E+01  0.23752721887E+02  0.28299166897E+03  0.28399075357E+03  0.00000000000E+00 0.  1.
          5    1    5    5  502    0 -0.57518836508E+02 -0.67610754017E+02  0.17568591242E+03  0.19689403352E+03  0.47000000000E+01 0. -1.
         11    1    4    4    0    0  0.46709022134E+02  0.39938330797E+02  0.39224662759E+02  0.72906633334E+02  0.00000000000E+00 0. -1.
        -12    1    4    4    0    0 -0.27562486526E+02  0.41088202424E+02  0.75891497188E+02  0.90594979924E+02  0.00000000000E+00 0.  1.
         -5    1    3    3    0  504  0.64295004519E+01 -0.20610933297E+02 -0.31945805888E+02  0.38842934509E+02  0.47000000000E+01 0.  1.
<mgrwt>
<rscale>  2 0.18521645E+03</rscale>
<asrwt>0</asrwt>
<pdfrwt beam="1">  1       21 0.10560039E+00 0.18546882E+03</pdfrwt>
<pdfrwt beam="2">  1       21 0.11600867E-01 0.18546882E+03</pdfrwt>
<totfact> 0.45091966E+04</totfact>
</mgrwt>
</event>
<event>
12    1  0.2743855E-001  0.1903734E+03  0.7546771E-02  0.1158204E+00
         21   -1    0    0  502  503  0.00000000000E+00  0.00000000000E+00  0.74531709820E+02  0.74531709820E+02  0.00000000000E+00 0.  1.
         21   -1    0    0  503  504 -0.00000000000E+00 -0.00000000000E+00 -0.72673546779E+03  0.72673546779E+03  0.00000000000E+00 0.  1.
         -6    2    1    2    0  504  0.80259018812E+02  0.72899747992E+01 -0.55678726717E+03  0.58832037058E+03  0.17208760480E+03 0.  0.
        -24    2    3    3    0    0  0.10791623706E+03 -0.34385743624E+02 -0.42892211399E+03  0.45093996942E+03  0.80897358190E+02 0.  0.
          6    2    1    2  502    0 -0.80259018812E+02 -0.72899747992E+01 -0.95416490800E+02  0.21294680703E+03  0.17247429395E+03 0.  0.
         24    2    5    5    0    0 -0.53468056485E+02 -0.59066986012E+02 -0.16533894179E+02  0.11474717056E+03  0.80906128286E+02 0.  0.
          2    1    6    6  501    0 -0.40442990992E+02 -0.10359435579E+02 -0.41167618609E+02  0.58632126414E+02  0.00000000000E+00 0. -1.
         -1    1    6    6    0  501 -0.13025065493E+02 -0.48707550433E+02  0.24633724430E+02  0.56115044147E+02  0.00000000000E+00 0.  1.
          5    1    5    5  502    0 -0.26790962327E+02  0.51777011213E+02 -0.78882596621E+02  0.98199636467E+02  0.47000000000E+01 0. -1.
         13    1    4    4    0    0  0.20923394268E+02 -0.58463770918E+00 -0.12921216259E+02  0.24598537732E+02  0.00000000000E+00 0. -1.
        -14    1    4    4    0    0  0.86992842788E+02 -0.33801105914E+02 -0.41600089773E+03  0.42634143168E+03  0.00000000000E+00 0.  1.
         -5    1    3    3    0  504 -0.27657218244E+02  0.41675718423E+02 -0.12786515318E+03  0.13738040116E+03  0.47000000000E+01 0.  1.
<mgrwt>
<rscale>  2 0.19028579E+03</rscale>
<asrwt>0</asrwt>
<pdfrwt beam="1">  1       21 0.11466417E-01 0.19037341E+03</pdfrwt>
<pdfrwt beam="2">  1       21 0.11180546E+00 0.19037341E+03</pdfrwt>
<totfact> 0.40010731E+04</totfact>
</mgrwt>
</event>
<event>
12    1  0.2743855E-001  0.2044538E+03  0.7546771E-02  0.1146307E+00
         21   -1    0    0  502  503  0.00000000000E+00  0.00000000000E+00  0.18394251421E+02  0.18394251421E+02  0.00000000000E+00 0.  1.
         21   -1    0    0  503  504 -0.00000000000E+00 -0.00000000000E+00 -0.25023704404E+04  0.25023704404E+04  0.00000000000E+00 0.  1.
         -6    2    1    2    0  504  0.83179806522E+02  0.65176532238E+02 -0.16396426726E+04  0.16523405914E+04  0.17502707145E+03 0.  0.
        -24    2    3    3    0    0  0.35568471659E+02  0.10756836876E+03 -0.97884601595E+03  0.98845941348E+03  0.77951388823E+02 0.  0.
          6    2    1    2  502    0 -0.83179806522E+02 -0.65176532238E+02 -0.84433351641E+03  0.86842410042E+03  0.17347757975E+03 0.  0.
         24    2    5    5    0    0 -0.12397447903E+03 -0.33519561238E+02 -0.61632494295E+03  0.63459431469E+03  0.79751341697E+02 0.  0.
          4    1    6    6  501    0 -0.39979019675E+02  0.24686734828E+02 -0.24494289675E+03  0.24940886023E+03  0.00000000000E+00 0. -1.
         -3    1    6    6    0  501 -0.83995459354E+02 -0.58206296066E+02 -0.37138204620E+03  0.38518545446E+03  0.00000000000E+00 0.  1.
          5    1    5    5  502    0  0.40794672507E+02 -0.31656971000E+02 -0.22800857347E+03  0.23382978572E+03  0.47000000000E+01 0. -1.
         11    1    4    4    0    0  0.47455301022E+02  0.38946565709E+02 -0.31169466396E+03  0.31768286721E+03  0.00000000000E+00 0. -1.
        -12    1    4    4    0    0 -0.11886829363E+02  0.68621803049E+02 -0.66715135199E+03  0.67077654627E+03  0.00000000000E+00 0.  1.
         -5    1    3    3    0  504  0.47611334864E+02 -0.42391836520E+02 -0.66079665661E+03  0.66388117792E+03  0.47000000000E+01 0.  1.
<mgrwt>
<rscale>  2 0.20412172E+03</rscale>
<asrwt>0</asrwt>
<pdfrwt beam="1">  1       21 0.28298862E-02 0.20445375E+03</pdfrwt>
<pdfrwt beam="2">  1       21 0.38497989E+00 0.20445375E+03</pdfrwt>
<totfact> 0.74039133E+03</totfact>
</mgrwt>
</event>
<event>
12    1  0.2743855E-001  0.2144179E+03  0.7546771E-02  0.1139398E+00
         21   -1    0    0  502  503  0.00000000000E+00  0.00000000000E+00  0.50535023566E+03  0.50535023566E+03  0.00000000000E+00 0. -1.
         21   -1    0    0  503  504 -0.00000000000E+00 -0.00000000000E+00 -0.68742462201E+03  0.68742462201E+03  0.00000000000E+00 0. -1.
         -6    2    1    2    0  504 -0.81214015693E+02  0.79560626804E+02 -0.64801569615E+03  0.68256823599E+03  0.18179506224E+03 0.  0.
        -24    2    3    3    0    0 -0.10933849764E+03  0.10331449667E+03 -0.58080156566E+03  0.60578892787E+03  0.83791253559E+02 0.  0.
          6    2    1    2  502    0  0.81214015693E+02 -0.79560626804E+02  0.46594130980E+03  0.51020662168E+03  0.17402265067E+03 0.  0.
         24    2    5    5    0    0  0.40723487996E+01  0.47377261037E+01  0.11761665460E+03  0.14358801264E+03  0.82126791376E+02 0.  0.
          4    1    6    6  501    0  0.38846641694E+02 -0.98626179176E+01  0.83975005623E+02  0.93049096569E+02  0.00000000000E+00 0. -1.
         -3    1    6    6    0  501 -0.34774292894E+02  0.14600344021E+02  0.33641648975E+02  0.50538916071E+02  0.00000000000E+00 0.  1.
          5    1    5    5  502    0  0.77141666894E+02 -0.84298352908E+02  0.34832465520E+03  0.36661860904E+03  0.47000000000E+01 0. -1.
         13    1    4    4    0    0 -0.44441405371E+02  0.57042829992E+02 -0.42153132102E+03  0.42768864559E+03  0.00000000000E+00 0. -1.
        -14    1    4    4    0    0 -0.64897092274E+02  0.46271666673E+02 -0.15927024464E+03  0.17810028229E+03  0.00000000000E+00 0.  1.
         -5    1    3    3    0  504  0.28124481951E+02 -0.23753869861E+02 -0.67214130485E+02  0.76779308119E+02  0.47000000000E+01 0.  1.
<mgrwt>
<rscale>  2 0.21276160E+03</rscale>
<asrwt>0</asrwt>
<pdfrwt beam="1">  1       21 0.77746190E-01 0.21441794E+03</pdfrwt>
<pdfrwt beam="2">  1       21 0.10575763E+00 0.21441794E+03</pdfrwt>
<totfact> 0.10312735E+03</totfact>
</mgrwt>
</event>
<event>
12    1  0.2743855E-001  0.2069199E+03  0.7546771E-02  0.1144186E+00
         21   -1    0    0  502  503  0.00000000000E+00  0.00000000000E+00  0.48771076402E+03  0.48771076402E+03  0.00000000000E+00 0. -1.
         21   -1    0    0  503  504 -0.00000000000E+00 -0.00000000000E+00 -0.87473995196E+02  0.87473995196E+02  0.00000000000E+00 0. -1.
         -6    2    1    2    0  504 -0.21310473533E+02 -0.11241347811E+03  0.20414686632E+03  0.29067471356E+03  0.17240916371E+03 0.  0.
        -24    2    3    3    0    0 -0.56236015472E+02 -0.12392624863E+03  0.19787828606E+03  0.25307521272E+03  0.79818811452E+02 0.  0.
          6    2    1    2  502    0  0.21310473533E+02  0.11241347811E+03  0.19608990250E+03  0.28451004566E+03  0.17147533313E+03 0.  0.
         24    2    5    5    0    0  0.41615947604E+01  0.58690720976E+01  0.14293678547E+03  0.16412259471E+03  0.80333906764E+02 0.  0.
          2    1    6    6  501    0 -0.17535922838E+02 -0.11060889980E+02  0.23479561628E+01  0.20865396596E+02  0.00000000000E+00 0. -1.
         -1    1    6    6    0  501  0.21697517599E+02  0.16929962078E+02  0.14058882931E+03  0.14325719811E+03  0.00000000000E+00 0.  1.
          5    1    5    5  502    0  0.17148878772E+02  0.10654440601E+03  0.53153117036E+02  0.12038745095E+03  0.47000000000E+01 0. -1.
         11    1    4    4    0    0 -0.96295068499E+01 -0.49351157047E+02  0.13749146146E+03  0.14639728850E+03  0.00000000000E+00 0. -1.
        -12    1    4    4    0    0 -0.46606508622E+02 -0.74575091586E+02  0.60386824595E+02  0.10667792422E+03  0.00000000000E+00 0.  1.
         -5    1    3    3    0  504  0.34925541940E+02  0.11512770528E+02  0.62685802590E+01  0.37599500841E+02  0.47000000000E+01 0.  1.
<mgrwt>
<rscale>  2 0.20672527E+03</rscale>
<asrwt>0</asrwt>
<pdfrwt beam="1">  1       21 0.75032423E-01 0.20691990E+03</pdfrwt>
<pdfrwt beam="2">  1       21 0.13457538E-01 0.20691990E+03</pdfrwt>
<totfact> 0.75375579E+04</totfact>
</mgrwt>
</event>
<event>
12    1  0.2743855E-001  0.2592635E+03  0.7546771E-02  0.1107722E+00
         21   -1    0    0  502  503  0.00000000000E+00  0.00000000000E+00  0.10343828396E+03  0.10343828396E+03  0.00000000000E+00 0. -1.
         21   -1    0    0  503  504 -0.00000000000E+00 -0.00000000000E+00 -0.76549288927E+03  0.76549288927E+03  0.00000000000E+00 0.  1.
         -6    2    1    2    0  504  0.10232851264E+03  0.16234367669E+03 -0.16003719581E+03  0.30391874171E+03  0.17299740941E+03 0.  0.
        -24    2    3    3    0    0  0.10218065217E+03  0.89885682877E+02 -0.16924586820E+03  0.23072671771E+03  0.77912339840E+02 0.  0.
          6    2    1    2  502    0 -0.10232851264E+03 -0.16234367669E+03 -0.50201740950E+03  0.56501243153E+03  0.17433007336E+03 0.  0.
         24    2    5    5    0    0 -0.29645515086E+02 -0.11113309724E+02 -0.22431634566E+03  0.24052296654E+03  0.80815297364E+02 0.  0.
          2    1    6    6  501    0  0.15725121705E+02 -0.16222581328E+02 -0.17096214017E+02  0.28332527796E+02  0.00000000000E+00 0. -1.
         -1    1    6    6    0  501 -0.45370636790E+02  0.51092716042E+01 -0.20722013164E+03  0.21219043875E+03  0.00000000000E+00 0.  1.
          5    1    5    5  502    0 -0.72682997550E+02 -0.15123036696E+03 -0.27770106385E+03  0.32448946499E+03  0.47000000000E+01 0. -1.
         11    1    4    4    0    0  0.59499359310E+02  0.95012521679E+02 -0.13681090695E+03  0.17687503299E+03  0.00000000000E+00 0. -1.
        -12    1    4    4    0    0  0.42681292860E+02 -0.51268388027E+01 -0.32434961251E+02  0.53851684725E+02  0.00000000000E+00 0.  1.
         -5    1    3    3    0  504  0.14786046557E+00  0.72457993809E+02  0.92086723937E+01  0.73192023997E+02  0.47000000000E+01 0.  1.
<mgrwt>
<rscale>  2 0.25903967E+03</rscale>
<asrwt>0</asrwt>
<pdfrwt beam="1">  1       21 0.15913583E-01 0.25926351E+03</pdfrwt>
<pdfrwt beam="2">  1       21 0.11776813E+00 0.25926351E+03</pdfrwt>
<totfact> 0.18750872E+04</totfact>
</mgrwt>
</event>
<event>
12    1  0.2743855E-001  0.1897855E+03  0.7546771E-02  0.1158794E+00
         21   -1    0    0  502  503  0.00000000000E+00  0.00000000000E+00  0.46340330915E+03  0.46340330915E+03  0.00000000000E+00 0.  1.
         21   -1    0    0  503  504 -0.00000000000E+00 -0.00000000000E+00 -0.19710204273E+03  0.19710204273E+03  0.00000000000E+00 0.  1.
         -6    2    1    2    0  504  0.74409974706E+02 -0.80211286135E+01  0.39052222664E+03  0.43419599459E+03  0.17440576073E+03 0.  0.
        -24    2    3    3    0    0  0.62219694513E+02 -0.69624572027E+02  0.21764487247E+03  0.25020616672E+03  0.80715326549E+02 0.  0.
          6    2    1    2  502    0 -0.74409974706E+02  0.80211286135E+01 -0.12422096022E+03  0.22630935729E+03  0.17373513001E+03 0.  0.
         24    2    5    5    0    0  0.13240528500E+02  0.32203741257E+02 -0.15962602190E+02  0.84854871504E+02  0.75717580543E+02 0.  0.
          4    1    6    6  501    0 -0.56562073100E+01 -0.22813901624E+02  0.29414801151E+01  0.23687952501E+02  0.00000000000E+00 0. -1.
         -3    1    6    6    0  501  0.18896735810E+02  0.55017642881E+02 -0.18904082305E+02  0.61166919002E+02  0.00000000000E+00 0.  1.
          5    1    5    5  502    0 -0.87650503206E+02 -0.24182612643E+02 -0.10825835803E+03  0.14145448579E+03  0.47000000000E+01 0. -1.
         13    1    4    4    0    0  0.48534328909E+01 -0.65474311028E+02  0.10795804476E+03  0.12635418728E+03  0.00000000000E+00 0. -1.
        -14    1    4    4    0    0  0.57366261622E+02 -0.41502609987E+01  0.10968682771E+03  0.12385197944E+03  0.00000000000E+00 0.  1.
         -5    1    3    3    0  504  0.12190280193E+02  0.61603443414E+02  0.17287735417E+03  0.18398982787E+03  0.47000000000E+01 0.  1.
<mgrwt>
<rscale>  2 0.18963133E+03</rscale>
<asrwt>0</asrwt>
<pdfrwt beam="1">  1       21 0.71292817E-01 0.18978554E+03</pdfrwt>
<pdfrwt beam="2">  1       21 0.30323391E-01 0.18978554E+03</pdfrwt>
<totfact> 0.18603168E+04</totfact>
</mgrwt>
</event>
<event>
12    1  0.2743855E-001  0.2377693E+03  0.7546771E-02  0.1121326E+00
         21   -1    0    0  502  503  0.00000000000E+00  0.00000000000E+00  0.84042474487E+03  0.84042474487E+03  0.00000000000E+00 0.  1.
         21   -1    0    0  503  504 -0.00000000000E+00 -0.00000000000E+00 -0.12148882880E+03  0.12148882880E+03  0.00000000000E+00 0. -1.
         -6    2    1    2    0  504  0.10477829939E+03  0.12528059190E+03  0.37876040756E+02  0.24054211330E+03  0.17248824620E+03 0.  0.
        -24    2    3    3    0    0  0.77167597618E+02  0.10629884082E+03 -0.36340206674E+02  0.15897742052E+03  0.81846978752E+02 0.  0.
          6    2    1    2  502    0 -0.10477829939E+03 -0.12528059190E+03  0.68105987531E+03  0.72137146037E+03  0.17280194253E+03 0.  0.
         24    2    5    5    0    0 -0.46515003603E+02 -0.73525472280E+02  0.58590639578E+03  0.59828824173E+03  0.84219207681E+02 0.  0.
          2    1    6    6  501    0 -0.40961609146E+02 -0.81493032162E+02  0.33501367731E+03  0.34720762045E+03  0.00000000000E+00 0. -1.
         -1    1    6    6    0  501 -0.55533944578E+01  0.79675598822E+01  0.25089271847E+03  0.25108062128E+03  0.00000000000E+00 0.  1.
          5    1    5    5  502    0 -0.58263295789E+02 -0.51755119623E+02  0.95153479540E+02  0.12308321864E+03  0.47000000000E+01 0. -1.
         11    1    4    4    0    0  0.46097206608E+02  0.89245735646E+02  0.96550525923E+01  0.10091072207E+03  0.00000000000E+00 0. -1.
        -12    1    4    4    0    0  0.31070391011E+02  0.17053105178E+02 -0.45995259267E+02  0.58066698449E+02  0.00000000000E+00 0.  1.
         -5    1    3    3    0  504  0.27610701774E+02  0.18981751079E+02  0.74216247430E+02  0.81564692785E+02  0.47000000000E+01 0.  1.
<mgrwt>
<rscale>  2 0.23771229E+03</rscale>
<asrwt>0</asrwt>
<pdfrwt beam="1">  1       21 0.12929611E+00 0.23776928E+03</pdfrwt>
<pdfrwt beam="2">  1       21 0.18690590E-01 0.23776928E+03</pdfrwt>
<totfact> 0.11133683E+04</totfact>
</mgrwt>
</event>
<event>
12    1  0.2743855E-001  0.2031169E+03  0.7546771E-02  0.1147667E+00
         21   -1    0    0  502  503  0.00000000000E+00  0.00000000000E+00  0.10710659518E+03  0.10710659518E+03  0.00000000000E+00 0. -1.
         21   -1    0    0  503  504 -0.00000000000E+00 -0.00000000000E+00 -0.65536115157E+03  0.65536115157E+03  0.00000000000E+00 0. -1.
         -6    2    1    2    0  504  0.81693260773E+02 -0.63580198833E+02 -0.52007213020E+03  0.55740503011E+03  0.17178217731E+03 0.  0.
        -24    2    3    3    0    0  0.74664416635E+02  0.96725089660E+01 -0.40620328559E+03  0.42174528065E+03  0.84850692332E+02 0.  0.
          6    2    1    2  502    0 -0.81693260773E+02  0.63580198833E+02 -0.28182426189E+02  0.20506271663E+03  0.17475765524E+03 0.  0.
         24    2    5    5    0    0 -0.46715835782E+02  0.10691664605E+03 -0.40777092050E+02  0.14777237255E+03  0.80996076075E+02 0.  0.
          4    1    6    6  501    0 -0.68074827834E+02  0.88797849451E+02 -0.21945007497E+02  0.11402115420E+03  0.00000000000E+00 0. -1.
         -3    1    6    6    0  501  0.21358992052E+02  0.18118796597E+02 -0.18832084553E+02  0.33751218352E+02  0.00000000000E+00 0.  1.
          5    1    5    5  502    0 -0.34977424991E+02 -0.43336447214E+02  0.12594665862E+02  0.57290344075E+02  0.47000000000E+01 0. -1.
         11    1    4    4    0    0  0.80872197862E+02 -0.19777831399E+02 -0.29103450195E+03  0.30270869879E+03  0.00000000000E+00 0. -1.
        -12    1    4    4    0    0 -0.62077812265E+01  0.29450340365E+02 -0.11516878364E+03  0.11903658186E+03  0.00000000000E+00 0.  1.
         -5    1    3    3    0  504  0.70288441381E+01 -0.73252707799E+02 -0.11386884461E+03  0.13565974946E+03  0.47000000000E+01 0.  1.
<mgrwt>
<rscale>  2 0.20247527E+03</rscale>
<asrwt>0</asrwt>
<pdfrwt beam="1">  1       21 0.16477938E-01 0.20311688E+03</pdfrwt>
<pdfrwt beam="2">  1       21 0.10082479E+00 0.20311688E+03</pdfrwt>
<totfact> 0.26433964E+04</totfact>
</mgrwt>
</event>
<event>
12    1  0.2743855E-001  0.1936330E+03  0.7546771E-02  0.1155286E+00
         21   -1    0    0  502  503  0.00000000000E+00  0.00000000000E+00  0.73752713219E+03  0.73752713219E+03  0.00000000000E+00 0. -1.
         21   -1    0    0  503  504 -0.00000000000E+00 -0.00000000000E+00 -0.65882161119E+02  0.65882161119E+02  0.00000000000E+00 0. -1.
         -6    2    1    2    0  504  0.88240257842E+00 -0.88125324023E+02  0.14358167039E+03  0.24105897628E+03  0.17241485611E+03 0.  0.
        -24    2    3    3    0    0  0.26359282969E+02 -0.24643606364E+02  0.93415713027E+01  0.90322470706E+02  0.82272502251E+02 0.  0.
          6    2    1    2  502    0 -0.88240257842E+00  0.88125324023E+02  0.52806330068E+03  0.56235031702E+03  0.17210513694E+03 0.  0.
         24    2    5    5    0    0  0.17444408645E+02  0.79087393646E+02  0.17958056361E+03  0.21323734930E+03  0.81620249227E+02 0.  0.
          4    1    6    6  501    0 -0.23126301125E+02  0.50108450323E+02  0.50280798715E+02  0.74658163097E+02  0.00000000000E+00 0. -1.
         -3    1    6    6    0  501  0.40570709770E+02  0.28978943323E+02  0.12929976489E+03  0.13857918620E+03  0.00000000000E+00 0.  1.
          5    1    5    5  502    0 -0.18326811223E+02  0.90379303767E+01  0.34848273707E+03  0.34911296773E+03  0.47000000000E+01 0. -1.
         13    1    4    4    0    0  0.20404125853E+01 -0.13745257073E+02  0.44263732380E+02  0.46393678230E+02  0.00000000000E+00 0. -1.
        -14    1    4    4    0    0  0.24318870384E+02 -0.10898349291E+02 -0.34922161077E+02  0.43928792475E+02  0.00000000000E+00 0.  1.
         -5    1    3    3    0  504 -0.25476880391E+02 -0.63481717659E+02  0.13424009908E+03  0.15073650558E+03  0.47000000000E+01 0.  1.
<mgrwt>
<rscale>  2 0.19356402E+03</rscale>
<asrwt>0</asrwt>
<pdfrwt beam="1">  1       21 0.11346571E+00 0.19363299E+03</pdfrwt>
<pdfrwt beam="2">  1       21 0.10135718E-01 0.19363299E+03</pdfrwt>
<totfact> 0.47974400E+04</totfact>
</mgrwt>
</event>
<event>
12    1  0.2743855E-001  0.1739460E+03  0.7546771E-02  0.1174294E+00
         21   -1    0    0  502  503  0.00000000000E+00  0.00000000000E+00  0.13220945700E+03  0.13220945700E+03  0.00000000000E+00 0.  1.
         21   -1    0    0  503  504 -0.00000000000E+00 -0.00000000000E+00 -0.76380824310E+03  0.76380824310E+03  0.00000000000E+00 0.  1.
         -6    2    1    2    0  504  0.87733090412E+01  0.11892099176E+02 -0.69109899066E+03  0.71217676466E+03  0.17134624669E+03 0.  0.
        -24    2    3    3    0    0 -0.55578922810E+02 -0.12536659423E+02 -0.30198523304E+03  0.31699379392E+03  0.77741880100E+02 0.  0.
          6    2    1    2  502    0 -0.87733090412E+01 -0.11892099176E+02  0.59500204567E+02  0.18384093544E+03  0.17331711463E+03 0.  0.
         24    2    5    5    0    0  0.43281846727E+01 -0.67242402429E+02  0.47914250226E+01  0.10478117471E+03  0.80099082092E+02 0.  0.
          2    1    6    6  501    0  0.31531150352E+02 -0.21841759865E+02  0.27491785682E+02  0.47191886977E+02  0.00000000000E+00 0. -1.
         -1    1    6    6    0  501 -0.27202965679E+02 -0.45400642564E+02 -0.22700360659E+02  0.57589287728E+02  0.00000000000E+00 0.  1.
          5    1    5    5  502    0 -0.13101493714E+02  0.55350303253E+02  0.54708779544E+02  0.79059760732E+02  0.47000000000E+01 0. -1.
         11    1    4    4    0    0 -0.11446624632E+01 -0.17486850376E+02 -0.10502324456E+02  0.20430345254E+02  0.00000000000E+00 0. -1.
        -12    1    4    4    0    0 -0.54434260347E+02  0.49501909528E+01 -0.29148290858E+03  0.29656344867E+03  0.00000000000E+00 0.  1.
         -5    1    3    3    0  504  0.64352231851E+02  0.24428758599E+02 -0.38911375762E+03  0.39518297074E+03  0.47000000000E+01 0.  1.
<mgrwt>
<rscale>  2 0.17345301E+03</rscale>
<asrwt>0</asrwt>
<pdfrwt beam="1">  1       21 0.20339917E-01 0.17394601E+03</pdfrwt>
<pdfrwt beam="2">  1       21 0.11750896E+00 0.17394601E+03</pdfrwt>
<totfact> 0.12604905E+04</totfact>
</mgrwt>
</event>
<event>
12    1  0.2743855E-001  0.2238309E+03  0.7546771E-02  0.1131077E+00
         21   -1    0    0  502  503  0.00000000000E+00  0.00000000000E+00  0.17199362077E+03  0.17199362077E+03  0.00000000000E+00 0.  1.
         21   -1    0    0  503  504 -0.00000000000E+00 -0.00000000000E+00 -0.33605059711E+03  0.33605059711E+03  0.00000000000E+00 0.  1.
         -6    2    1    2    0  504  0.97987362466E+02  0.10123327347E+03 -0.17488860076E+03  0.28405335429E+03  0.17392695751E+03 0.  0.
        -24    2    3    3    0    0  0.14249772910E+02  0.10994443180E+03 -0.13241565688E+03  0.18963985343E+03  0.78348795197E+02 0.  0.
          6    2    1    2  502    0 -0.97987362466E+02 -0.10123327347E+03  0.10831624416E+02  0.22399086359E+03  0.17379552360E+03 0.  0.
         24    2    5    5    0    0  0.16345748070E+01 -0.87137200768E-01  0.74767546214E+01  0.81904916292E+02  0.81546514490E+02 0.  0.
          2    1    6    6  501    0 -0.71265744998E+01  0.35271655468E+02 -0.15126083082E+02  0.39034294319E+02  0.00000000000E+00 0. -1.
         -1    1    6    6    0  501  0.87611493068E+01 -0.35358792669E+02  0.22602837703E+02  0.42870621974E+02  0.00000000000E+00 0.  1.
          5    1    5    5  502    0 -0.99621937273E+02 -0.10114613627E+03  0.33548697946E+01  0.14208594730E+03  0.47000000000E+01 0. -1.
         13    1    4    4    0    0 -0.79366469502E+01 -0.98230682760E+01 -0.56377823581E+01  0.13829953908E+02  0.00000000000E+00 0. -1.
        -14    1    4    4    0    0  0.22186419860E+02  0.11976750007E+03 -0.12677787453E+03  0.17580989952E+03  0.00000000000E+00 0.  1.
         -5    1    3    3    0  504  0.83737589556E+02 -0.87111583214E+01 -0.42472943872E+02  0.94413500863E+02  0.47000000000E+01 0.  1.
<mgrwt>
<rscale>  2 0.22380540E+03</rscale>
<asrwt>0</asrwt>
<pdfrwt beam="1">  1       21 0.26460558E-01 0.22383093E+03</pdfrwt>
<pdfrwt beam="2">  1       21 0.51700091E-01 0.22383093E+03</pdfrwt>
<totfact> 0.47562616E+04</totfact>
</mgrwt>
</event>
<event>
12    1  0.2743855E-001  0.4994610E+03  0.7546771E-02  0.1013943E+00
         21   -1    0    0  502  503  0.00000000000E+00  0.00000000000E+00  0.24977884069E+03  0.24977884069E+03  0.00000000000E+00 0. -1.
         21   -1    0    0  503  504 -0.00000000000E+00 -0.00000000000E+00 -0.13131935570E+04  0.13131935570E+04  0.00000000000E+00 0.  1.
         -6    2    1    2    0  504  0.38100082277E+03 -0.27132609188E+03 -0.91470993921E+03  0.10421878501E+04  0.17516211633E+03 0.  0.
        -24    2    3    3    0    0  0.12931337254E+03 -0.90304520229E+02 -0.22210653714E+03  0.28334864150E+03  0.77963351058E+02 0.  0.
          6    2    1    2  502    0 -0.38100082277E+03  0.27132609188E+03 -0.14870477706E+03  0.52078454751E+03  0.17413775901E+03 0.  0.
         24    2    5    5    0    0 -0.12998505150E+03  0.48987920827E+02 -0.51137684393E+02  0.17152159885E+03  0.86652559719E+02 0.  0.
          4    1    6    6  501    0 -0.14274411658E+01  0.98911567854E+01  0.17863819653E+02  0.20469211598E+02  0.00000000000E+00 0. -1.
         -3    1    6    6    0  501 -0.12855761034E+03  0.39096764042E+02 -0.69001504046E+02  0.15105238725E+03  0.00000000000E+00 0.  1.
          5    1    5    5  502    0 -0.25101577127E+03  0.22233817105E+03 -0.97567092669E+02  0.34926294866E+03  0.47000000000E+01 0. -1.
         11    1    4    4    0    0  0.96232051232E+02 -0.25504290587E+02 -0.99322045829E+02  0.14062697220E+03  0.00000000000E+00 0. -1.
        -12    1    4    4    0    0  0.33081321310E+02 -0.64800229642E+02 -0.12278449132E+03  0.14272166930E+03  0.00000000000E+00 0.  1.
         -5    1    3    3    0  504  0.25168745023E+03 -0.18102157165E+03 -0.69260340207E+03  0.75883920864E+03  0.47000000000E+01 0.  1.
<mgrwt>
<rscale>  2 0.49937135E+03</rscale>
<asrwt>0</asrwt>
<pdfrwt beam="1">  1       21 0.38427513E-01 0.49946095E+03</pdfrwt>
<pdfrwt beam="2">  1       21 0.20202978E+00 0.49946095E+03</pdfrwt>
<totfact> 0.68928990E+02</totfact>
</mgrwt>
</event>
<event>
12    1  0.2743855E-001  0.1847602E+03  0.7546771E-02  0.1164733E+00
         21   -1    0    0  502  503  0.00000000000E+00  0.00000000000E+00  0.16436417079E+04  0.16436417079E+04  0.00000000000E+00 0.  1.
         21   -1    0    0  503  504 -0.00000000000E+00 -0.00000000000E+00 -0.41059594488E+02  0.41059594488E+02  0.00000000000E+00 0.  1.
         -6    2    1    2    0  504 -0.10265048752E+02  0.40242567869E+02  0.20590200929E+03  0.27664412905E+03  0.18003194498E+03 0.  0.
        -24    2    3    3    0    0  0.14469539073E+02  0.55495858644E+02  0.22224707865E+03  0.24297345922E+03  0.79706838033E+02 0.  0.
          6    2    1    2  502    0  0.10265048752E+02 -0.40242567869E+02  0.13966801041E+04  0.14080571734E+04  0.17373789065E+03 0.  0.
         24    2    5    5    0    0 -0.29511047900E+02 -0.76435394402E+02  0.71145432237E+03  0.72070826592E+03  0.80869526257E+02 0.  0.
          2    1    6    6  501    0 -0.13029338828E+02 -0.49759929266E+02  0.15380931052E+03  0.16218236104E+03  0.00000000000E+00 0. -1.
         -1    1    6    6    0  501 -0.16481709071E+02 -0.26675465136E+02  0.55764501186E+03  0.55852590488E+03  0.00000000000E+00 0.  1.
          5    1    5    5  502    0  0.39776096651E+02  0.36192826533E+02  0.68522578177E+03  0.68734890744E+03  0.47000000000E+01 0. -1.
         11    1    4    4    0    0 -0.31685840844E+02  0.31210176772E+02  0.12411039251E+03  0.13183875444E+03  0.00000000000E+00 0. -1.
        -12    1    4    4    0    0  0.46155379917E+02  0.24285681872E+02  0.98136686145E+02  0.11113470478E+03  0.00000000000E+00 0.  1.
         -5    1    3    3    0  504 -0.24734587825E+02 -0.15253290775E+02 -0.16345069361E+02  0.33670669829E+02  0.47000000000E+01 0.  1.
<mgrwt>
<rscale>  2 0.18320894E+03</rscale>
<asrwt>0</asrwt>
<pdfrwt beam="1">  1       21 0.25286790E+00 0.18476021E+03</pdfrwt>
<pdfrwt beam="2">  1       21 0.63168620E-02 0.18476021E+03</pdfrwt>
<totfact> 0.11634958E+04</totfact>
</mgrwt>
</event>
<event>
12    1  0.2743855E-001  0.1766466E+03  0.7546771E-02  0.1171218E+00
         21   -1    0    0  502  503  0.00000000000E+00  0.00000000000E+00  0.21604166389E+03  0.21604166389E+03  0.00000000000E+00 0. -1.
         21   -1    0    0  503  504 -0.00000000000E+00 -0.00000000000E+00 -0.14961973669E+03  0.14961973669E+03  0.00000000000E+00 0. -1.
         -6    2    1    2    0  504  0.62294655818E+01  0.34880731200E+02  0.68566500084E+02  0.18900177796E+03  0.17252488368E+03 0.  0.
        -24    2    3    3    0    0 -0.34400178718E+02  0.57284533142E+02  0.89833080493E+02  0.13774696570E+03  0.80245586651E+02 0.  0.
          6    2    1    2  502    0 -0.62294655818E+01 -0.34880731200E+02 -0.21445728868E+01  0.17665962262E+03  0.17305649777E+03 0.  0.
         24    2    5    5    0    0 -0.12948178137E+02 -0.39281281594E+02 -0.67973672058E+02  0.11017604390E+03  0.76208045214E+02 0.  0.
          4    1    6    6  501    0  0.37989904393E+01 -0.47304619072E+02 -0.76276380434E+02  0.89834545282E+02  0.00000000000E+00 0. -1.
         -3    1    6    6    0  501 -0.16747168576E+02  0.80233374781E+01  0.83027083753E+01  0.20341498617E+02  0.00000000000E+00 0.  1.
          5    1    5    5  502    0  0.67187125552E+01  0.44005503943E+01  0.65829099171E+02  0.66483578724E+02  0.47000000000E+01 0. -1.
         13    1    4    4    0    0 -0.56137885858E+02  0.49406444006E+02  0.44933326975E+02  0.87243697829E+02  0.00000000000E+00 0. -1.
        -14    1    4    4    0    0  0.21737707140E+02  0.78780891359E+01  0.44899753518E+02  0.50503267876E+02  0.00000000000E+00 0.  1.
         -5    1    3    3    0  504  0.40629644300E+02 -0.22403801942E+02 -0.21266580408E+02  0.51254812259E+02  0.47000000000E+01 0.  1.
<mgrwt>
<rscale>  2 0.17651627E+03</rscale>
<asrwt>0</asrwt>
<pdfrwt beam="1">  1       21 0.33237179E-01 0.17664661E+03</pdfrwt>
<pdfrwt beam="2">  1       21 0.23018421E-01 0.17664661E+03</pdfrwt>
<totfact> 0.15526142E+05</totfact>
</mgrwt>
</event>
<event>
12    1  0.2743855E-001  0.2177545E+03  0.7546771E-02  0.1135938E+00
         21   -1    0    0  502  503  0.00000000000E+00  0.00000000000E+00  0.36985786274E+02  0.36985786274E+02  0.00000000000E+00 0.  1.
         21   -1    0    0  503  504 -0.00000000000E+00 -0.00000000000E+00 -0.13029390322E+04  0.13029390322E+04  0.00000000000E+00 0. -1.
         -6    2    1    2    0  504 -0.54326711401E+02  0.11809282714E+03 -0.74128672331E+03  0.77260794484E+03  0.17469894929E+03 0.  0.
        -24    2    3    3    0    0 -0.40024882562E+02  0.89819464789E+02 -0.26734022412E+03  0.29758026205E+03  0.86102784209E+02 0.  0.
          6    2    1    2  502    0  0.54326711401E+02 -0.11809282714E+03 -0.52466652267E+03  0.56731687368E+03  0.17226772120E+03 0.  0.
         24    2    5    5    0    0  0.24221808118E+01 -0.12629393242E+03 -0.28490868526E+03  0.32182298573E+03  0.80256157911E+02 0.  0.
          2    1    6    6  501    0 -0.84603736984E+01 -0.12917539347E+03 -0.28185065886E+03  0.31015746663E+03  0.00000000000E+00 0. -1.
         -1    1    6    6    0  501  0.10882554510E+02  0.28814610536E+01 -0.30580263903E+01  0.11665519100E+02  0.00000000000E+00 0.  1.
          5    1    5    5  502    0  0.51904530589E+02  0.82011052850E+01 -0.23975783741E+03  0.24549388795E+03  0.47000000000E+01 0. -1.
         11    1    4    4    0    0 -0.33440170119E+02  0.63311472899E+01 -0.14751017544E+03  0.15138553519E+03  0.00000000000E+00 0. -1.
        -12    1    4    4    0    0 -0.65847124423E+01  0.83488317499E+02 -0.11983004868E+03  0.14619472686E+03  0.00000000000E+00 0.  1.
         -5    1    3    3    0  504 -0.14301828839E+02  0.28273362347E+02 -0.47394649919E+03  0.47502768279E+03  0.47000000000E+01 0.  1.
<mgrwt>
<rscale>  2 0.21726647E+03</rscale>
<asrwt>0</asrwt>
<pdfrwt beam="1">  1       21 0.56901224E-02 0.21775452E+03</pdfrwt>
<pdfrwt beam="2">  1       21 0.20045211E+00 0.21775452E+03</pdfrwt>
<totfact> 0.28292467E+04</totfact>
</mgrwt>
</event>
<event>
12    1  0.2743855E-001  0.2582956E+03  0.7546771E-02  0.1108430E+00
         21   -1    0    0  502  503  0.00000000000E+00  0.00000000000E+00  0.50538885867E+03  0.50538885867E+03  0.00000000000E+00 0. -1.
         21   -1    0    0  503  504 -0.00000000000E+00 -0.00000000000E+00 -0.14866451887E+03  0.14866451887E+03  0.00000000000E+00 0.  1.
         -6    2    1    2    0  504 -0.63176877869E+02  0.17736760495E+03  0.66610043109E+02  0.26674612871E+03  0.17682198437E+03 0.  0.
        -24    2    3    3    0    0 -0.84022589641E+02  0.76851029353E+02  0.83162723367E+02  0.16265863238E+03  0.81092020866E+02 0.  0.
          6    2    1    2  502    0  0.63176877869E+02 -0.17736760495E+03  0.29011429669E+03  0.38730724883E+03  0.17432732049E+03 0.  0.
         24    2    5    5    0    0 -0.29167213967E+02 -0.57268304837E+02  0.94378142202E+02  0.13974714429E+03  0.80570748436E+02 0.  0.
          4    1    6    6  501    0 -0.57194423060E+02 -0.38518999142E+02  0.68946711979E+02  0.97511868082E+02  0.00000000000E+00 0. -1.
         -3    1    6    6    0  501  0.28027209093E+02 -0.18749305695E+02  0.25431430223E+02  0.42235276213E+02  0.00000000000E+00 0.  1.
          5    1    5    5  502    0  0.92344091836E+02 -0.12009930011E+03  0.19573615449E+03  0.24756010453E+03  0.47000000000E+01 0. -1.
         13    1    4    4    0    0 -0.46160455377E+02  0.75981872494E+02  0.23444340699E+02  0.91943839919E+02  0.00000000000E+00 0. -1.
        -14    1    4    4    0    0 -0.37862134264E+02  0.86915685932E+00  0.59718382667E+02  0.70714792463E+02  0.00000000000E+00 0.  1.
         -5    1    3    3    0  504  0.20845711771E+02  0.10051657559E+03 -0.16552680258E+02  0.10408749633E+03  0.47000000000E+01 0.  1.
<mgrwt>
<rscale>  2 0.25786918E+03</rscale>
<asrwt>0</asrwt>
<pdfrwt beam="1">  1       21 0.77752131E-01 0.25829557E+03</pdfrwt>
<pdfrwt beam="2">  1       21 0.22871465E-01 0.25829557E+03</pdfrwt>
<totfact> 0.25430176E+04</totfact>
</mgrwt>
</event>
<event>
12    1  0.2743855E-001  0.2356328E+03  0.7546771E-02  0.1123555E+00
         21   -1    0    0  502  503  0.00000000000E+00  0.00000000000E+00  0.23258131223E+03  0.23258131223E+03  0.00000000000E+00 0.  1.
         21   -1    0    0  503  504 -0.00000000000E+00 -0.00000000000E+00 -0.33062157081E+03  0.33062157081E+03  0.00000000000E+00 0.  1.
         -6    2    1    2    0  504  0.15070714143E+03  0.51277620526E+02 -0.20164853987E+03  0.31013696423E+03  0.17372612385E+03 0.  0.
        -24    2    3    3    0    0  0.15612959275E+03  0.88856824615E+02 -0.15899802439E+03  0.25284162386E+03  0.79853177659E+02 0.  0.
          6    2    1    2  502    0 -0.15070714143E+03 -0.51277620526E+02  0.10360828128E+03  0.25306591881E+03  0.16722932299E+03 0.  0.
         24    2    5    5    0    0 -0.12400457774E+03  0.24162373922E+02  0.80143983877E+02  0.16953818136E+03  0.79744474257E+02 0.  0.
          2    1    6    6  501    0 -0.13022241265E+03  0.33594844729E+02  0.61826402865E+02  0.14801687214E+03  0.00000000000E+00 0. -1.
         -1    1    6    6    0  501  0.62178349068E+01 -0.94324708068E+01  0.18317581011E+02  0.21521309220E+02  0.00000000000E+00 0.  1.
          5    1    5    5  502    0 -0.26702563685E+02 -0.75439994448E+02  0.23464297405E+02  0.83527737443E+02  0.47000000000E+01 0. -1.
         11    1    4    4    0    0  0.77478161597E+02  0.25816019955E+02 -0.25481776730E+02  0.85549128319E+02  0.00000000000E+00 0. -1.
        -12    1    4    4    0    0  0.78651431151E+02  0.63040804660E+02 -0.13351624766E+03  0.16729249554E+03  0.00000000000E+00 0.  1.
         -5    1    3    3    0  504 -0.54224513218E+01 -0.37579204089E+02 -0.42650515480E+02  0.57295340378E+02  0.47000000000E+01 0.  1.
<mgrwt>
<rscale>  2 0.23443664E+03</rscale>
<asrwt>0</asrwt>
<pdfrwt beam="1">  1       21 0.35781741E-01 0.23563277E+03</pdfrwt>
<pdfrwt beam="2">  1       21 0.50864857E-01 0.23563277E+03</pdfrwt>
<totfact> 0.27066552E+04</totfact>
</mgrwt>
</event>
<event>
12    1  0.2743855E-001  0.2230189E+03  0.7546771E-02  0.1132228E+00
         21   -1    0    0  502  503  0.00000000000E+00  0.00000000000E+00  0.10106209713E+04  0.10106209713E+04  0.00000000000E+00 0. -1.
         21   -1    0    0  503  504 -0.00000000000E+00 -0.00000000000E+00 -0.15817948852E+03  0.15817948852E+03  0.00000000000E+00 0.  1.
         -6    2    1    2    0  504  0.13968004865E+03 -0.18877618493E+02 -0.61263060924E+02  0.22827219878E+03  0.16878434060E+03 0.  0.
        -24    2    3    3    0    0  0.16263608213E+03 -0.38144773490E+02 -0.67397944364E+02  0.19732176212E+03  0.80547352212E+02 0.  0.
          6    2    1    2  502    0 -0.13968004865E+03  0.18877618493E+02  0.91370454369E+03  0.94052826103E+03  0.17283094678E+03 0.  0.
         24    2    5    5    0    0 -0.90803943156E+02  0.25143354128E+02  0.85467882420E+03  0.86349412125E+03  0.79174873128E+02 0.  0.
          2    1    6    6  501    0 -0.22572398152E+02  0.16563288464E+02  0.56772959083E+03  0.56841951408E+03  0.00000000000E+00 0. -1.
         -1    1    6    6    0  501 -0.68231545004E+02  0.85800656640E+01  0.28694923338E+03  0.29507460717E+03  0.00000000000E+00 0.  1.
          5    1    5    5  502    0 -0.48876105496E+02 -0.62657356354E+01  0.59025719491E+02  0.77034139788E+02  0.47000000000E+01 0. -1.
         11    1    4    4    0    0  0.15135735177E+03 -0.34442749466E+02 -0.30018535958E+02  0.15810269899E+03  0.00000000000E+00 0. -1.
        -12    1    4    4    0    0  0.11278730354E+02 -0.37020240245E+01 -0.37379408406E+02  0.39219063133E+02  0.00000000000E+00 0.  1.
         -5    1    3    3    0  504 -0.22956033477E+02  0.19267154998E+02  0.61348834391E+01  0.30950436661E+02  0.47000000000E+01 0.  1.
<mgrwt>
<rscale>  2 0.22223447E+03</rscale>
<asrwt>0</asrwt>
<pdfrwt beam="1">  1       21 0.15548015E+00 0.22301887E+03</pdfrwt>
<pdfrwt beam="2">  1       21 0.24335307E-01 0.22301887E+03</pdfrwt>
<totfact> 0.42261862E+03</totfact>
</mgrwt>
</event>
<event>
12    1  0.2743855E-001  0.1975252E+03  0.7546771E-02  0.1151917E+00
         21   -1    0    0  502  503  0.00000000000E+00  0.00000000000E+00  0.12986112819E+03  0.12986112819E+03  0.00000000000E+00 0. -1.
         21   -1    0    0  503  504 -0.00000000000E+00 -0.00000000000E+00 -0.66191961436E+03  0.66191961436E+03  0.00000000000E+00 0. -1.
         -6    2    1    2    0  504  0.81042872080E+02  0.45562189375E+02 -0.55890076535E+03  0.59277841649E+03  0.17427657711E+03 0.  0.
        -24    2    3    3    0    0  0.11031624180E+03  0.43960968071E+01 -0.31116958722E+03  0.33990610885E+03  0.80750553868E+02 0.  0.
          6    2    1    2  502    0 -0.81042872080E+02 -0.45562189375E+02  0.26842279188E+02  0.19900232606E+03  0.17388949827E+03 0.  0.
         24    2    5    5    0    0 -0.10881975524E+01  0.11603506189E+02  0.51841360555E+02  0.97475429145E+02  0.81719686080E+02 0.  0.
          2    1    6    6  501    0 -0.26203972043E+02  0.37559775547E+02  0.34910222522E+02  0.57585662508E+02  0.00000000000E+00 0. -1.
         -1    1    6    6    0  501  0.25115774491E+02 -0.25956269358E+02  0.16931138033E+02  0.39889766637E+02  0.00000000000E+00 0.  1.
          5    1    5    5  502    0 -0.79954674528E+02 -0.57165695564E+02 -0.24999081366E+02  0.10152689692E+03  0.47000000000E+01 0. -1.
         13    1    4    4    0    0  0.59613345128E+02  0.37240778684E+02 -0.21630554936E+03  0.22743948029E+03  0.00000000000E+00 0. -1.
        -14    1    4    4    0    0  0.50702896675E+02 -0.32844681877E+02 -0.94864037868E+02  0.11246662856E+03  0.00000000000E+00 0.  1.
         -5    1    3    3    0  504 -0.29273369722E+02  0.41166092568E+02 -0.24773117813E+03  0.25287230764E+03  0.47000000000E+01 0.  1.
<mgrwt>
<rscale>  2 0.19743974E+03</rscale>
<asrwt>0</asrwt>
<pdfrwt beam="1">  1       21 0.19978635E-01 0.19752515E+03</pdfrwt>
<pdfrwt beam="2">  1       21 0.10183379E+00 0.19752515E+03</pdfrwt>
<totfact> 0.18127667E+04</totfact>
</mgrwt>
</event>
<event>
12    1  0.2743855E-001  0.1841446E+03  0.7546771E-02  0.1164289E+00
         21   -1    0    0  502  503  0.00000000000E+00  0.00000000000E+00  0.72332383085E+03  0.72332383085E+03  0.00000000000E+00 0.  1.
         21   -1    0    0  503  504 -0.00000000000E+00 -0.00000000000E+00 -0.80478774890E+02  0.80478774890E+02  0.00000000000E+00 0.  1.
         -6    2    1    2    0  504  0.16631563401E+02  0.53611499711E+02  0.58990545039E+02  0.19159732501E+03  0.17343254811E+03 0.  0.
        -24    2    3    3    0    0 -0.34720424855E+01 -0.79337547819E+01 -0.26412827628E+02  0.84322913415E+02  0.79609777789E+02 0.  0.
          6    2    1    2  502    0 -0.16631563401E+02 -0.53611499711E+02  0.58385451093E+03  0.61220528073E+03  0.17538076870E+03 0.  0.
         24    2    5    5    0    0 -0.22248941373E+02 -0.10001804947E+03  0.33773477663E+03  0.36164164329E+03  0.78875048083E+02 0.  0.
          2    1    6    6  501    0 -0.43575946611E+02 -0.82961158063E+02  0.30467895829E+03  0.31876430869E+03  0.00000000000E+00 0. -1.
         -1    1    6    6    0  501  0.21327005237E+02 -0.17056891404E+02  0.33055818332E+02  0.42877334600E+02  0.00000000000E+00 0.  1.
          5    1    5    5  502    0  0.56173779726E+01  0.46406549757E+02  0.24611973430E+03  0.25056363744E+03  0.47000000000E+01 0. -1.
         13    1    4    4    0    0 -0.17778188432E+02 -0.28032376037E+02  0.14757310022E+02  0.36327073779E+02  0.00000000000E+00 0. -1.
        -14    1    4    4    0    0  0.14306145947E+02  0.20098621255E+02 -0.41170137651E+02  0.47995839637E+02  0.00000000000E+00 0.  1.
         -5    1    3    3    0  504  0.20103605886E+02  0.61545254492E+02  0.85403372668E+02  0.10727441160E+03  0.47000000000E+01 0.  1.
<mgrwt>
<rscale>  2 0.18367916E+03</rscale>
<asrwt>0</asrwt>
<pdfrwt beam="1">  1       21 0.11128059E+00 0.18414455E+03</pdfrwt>
<pdfrwt beam="2">  1       21 0.12381350E-01 0.18414455E+03</pdfrwt>
<totfact> 0.35400810E+04</totfact>
</mgrwt>
</event>
<event>
12    1  0.2743855E-001  0.1821557E+03  0.7546771E-02  0.1165989E+00
         21   -1    0    0  502  503  0.00000000000E+00  0.00000000000E+00  0.38210333108E+02  0.38210333108E+02  0.00000000000E+00 0.  1.
         21   -1    0    0  503  504 -0.00000000000E+00 -0.00000000000E+00 -0.10946998517E+04  0.10946998517E+04  0.00000000000E+00 0.  1.
         -6    2    1    2    0  504  0.16690348579E+02 -0.52669989623E+02 -0.78993165349E+03  0.81066190993E+03  0.17357424776E+03 0.  0.
        -24    2    3    3    0    0 -0.29709425316E+02 -0.24662232124E+02 -0.21598406297E+03  0.23414191881E+03  0.81746235644E+02 0.  0.
          6    2    1    2  502    0 -0.16690348579E+02  0.52669989623E+02 -0.26655786509E+03  0.32224827487E+03  0.17244755628E+03 0.  0.
         24    2    5    5    0    0 -0.65547856220E+02  0.53588267235E+02 -0.23909444429E+03  0.26599679694E+03  0.80124396106E+02 0.  0.
          2    1    6    6  501    0 -0.21116621464E+02  0.43824519552E+01 -0.16567892847E+03  0.16707670372E+03  0.00000000000E+00 0. -1.
         -1    1    6    6    0  501 -0.44431234756E+02  0.49205815280E+02 -0.73415515821E+02  0.98920093219E+02  0.00000000000E+00 0.  1.
          5    1    5    5  502    0  0.48857507642E+02 -0.91827761155E+00 -0.27463420803E+02  0.56251477927E+02  0.47000000000E+01 0. -1.
         11    1    4    4    0    0  0.17847176328E+02 -0.21540504003E+02 -0.25722689943E+02  0.38002260373E+02  0.00000000000E+00 0. -1.
        -12    1    4    4    0    0 -0.47556601644E+02 -0.31217281208E+01 -0.19026137303E+03  0.19613965844E+03  0.00000000000E+00 0.  1.
         -5    1    3    3    0  504  0.46399773894E+02 -0.28007757500E+02 -0.57394759051E+03  0.57651999111E+03  0.47000000000E+01 0.  1.
<mgrwt>
<rscale>  2 0.18188683E+03</rscale>
<asrwt>0</asrwt>
<pdfrwt beam="1">  1       21 0.58785131E-02 0.18215574E+03</pdfrwt>
<pdfrwt beam="2">  1       21 0.16841535E+00 0.18215574E+03</pdfrwt>
<totfact> 0.44992850E+04</totfact>
</mgrwt>
</event>
<event>
12    1  0.2743855E-001  0.2402890E+03  0.7546771E-02  0.1120603E+00
         21   -1    0    0  502  503  0.00000000000E+00  0.00000000000E+00  0.99342816677E+02  0.99342816677E+02  0.00000000000E+00 0. -1.
         21   -1    0    0  503  504 -0.00000000000E+00 -0.00000000000E+00 -0.74093788446E+03  0.74093788446E+03  0.00000000000E+00 0. -1.
         -6    2    1    2    0  504  0.75410991885E+02  0.13909338418E+03 -0.52748151287E+03  0.57963396717E+03  0.18084524395E+03 0.  0.
        -24    2    3    3    0    0 -0.26114884926E+02  0.33085100317E+02 -0.23952223988E+03  0.25638809665E+03  0.81162439756E+02 0.  0.
          6    2    1    2  502    0 -0.75410991885E+02 -0.13909338418E+03 -0.11411355491E+03  0.26064673397E+03  0.17286130074E+03 0.  0.
         24    2    5    5    0    0 -0.11199369370E+03 -0.12290182511E+03 -0.60095647564E+02  0.19326361314E+03  0.78050568639E+02 0.  0.
          2    1    6    6  501    0 -0.75398810191E+02 -0.37259904559E+02 -0.32763217656E+01  0.84166592840E+02  0.00000000000E+00 0. -1.
         -1    1    6    6    0  501 -0.36594883510E+02 -0.85641920553E+02 -0.56819325798E+02  0.10909702030E+03  0.00000000000E+00 0.  1.
          5    1    5    5  502    0  0.36582701817E+02 -0.16191559070E+02 -0.54017907349E+02  0.67383120822E+02  0.47000000000E+01 0. -1.
         13    1    4    4    0    0 -0.18654714201E+02  0.54833639855E+02 -0.21544990988E+03  0.22309950715E+03  0.00000000000E+00 0. -1.
        -14    1    4    4    0    0 -0.74601707248E+01 -0.21748539538E+02 -0.24072330002E+02  0.33288589502E+02  0.00000000000E+00 0.  1.
         -5    1    3    3    0  504  0.10152587681E+03  0.10600828387E+03 -0.28795927299E+03  0.32324587052E+03  0.47000000000E+01 0.  1.
<mgrwt>
<rscale>  2 0.23878749E+03</rscale>
<asrwt>0</asrwt>
<pdfrwt beam="1">  1       21 0.15283511E-01 0.24028897E+03</pdfrwt>
<pdfrwt beam="2">  1       21 0.11399044E+00 0.24028897E+03</pdfrwt>
<totfact> 0.22094316E+04</totfact>
</mgrwt>
</event>
<event>
12    1  0.2743855E-001  0.1839991E+03  0.7546771E-02  0.1164263E+00
         21   -1    0    0  502  503  0.00000000000E+00  0.00000000000E+00  0.30835849643E+03  0.30835849643E+03  0.00000000000E+00 0. -1.
         21   -1    0    0  503  504 -0.00000000000E+00 -0.00000000000E+00 -0.11469223044E+03  0.11469223044E+03  0.00000000000E+00 0. -1.
         -6    2    1    2    0  504 -0.56887267479E+02 -0.21938576675E+02  0.49822169895E+02  0.18949821563E+03  0.17236549180E+03 0.  0.
        -24    2    3    3    0    0 -0.72241990171E+02 -0.26446494537E+02 -0.23723267079E+02  0.11408528482E+03  0.80835243522E+02 0.  0.
          6    2    1    2  502    0  0.56887267479E+02  0.21938576675E+02  0.14384409609E+03  0.23355251125E+03  0.17360354024E+03 0.  0.
         24    2    5    5    0    0  0.85367550332E+02 -0.13210706287E+01  0.15536879596E+03  0.19473181559E+03  0.80570797248E+02 0.  0.
          4    1    6    6  501    0  0.37783197086E+02 -0.52392291283E+00  0.13955805903E+03  0.14458318131E+03  0.00000000000E+00 0. -1.
         -3    1    6    6    0  501  0.47584353246E+02 -0.79714771584E+00  0.15810736930E+02  0.50148634285E+02  0.00000000000E+00 0.  1.
          5    1    5    5  502    0 -0.28480282853E+02  0.23259647304E+02 -0.11524699869E+02  0.38820695655E+02  0.47000000000E+01 0. -1.
         13    1    4    4    0    0 -0.48795602250E+02 -0.52460568147E+02 -0.31413454006E+02  0.78229962942E+02  0.00000000000E+00 0. -1.
        -14    1    4    4    0    0 -0.23446387921E+02  0.26014073610E+02  0.76901869275E+01  0.35855321883E+02  0.00000000000E+00 0.  1.
         -5    1    3    3    0  504  0.15354722692E+02  0.45079178621E+01  0.73545436974E+02  0.75412930802E+02  0.47000000000E+01 0.  1.
<mgrwt>
<rscale>  2 0.18370645E+03</rscale>
<asrwt>0</asrwt>
<pdfrwt beam="1">  1       21 0.47439768E-01 0.18399905E+03</pdfrwt>
<pdfrwt beam="2">  1       21 0.17644959E-01 0.18399905E+03</pdfrwt>
<totfact> 0.12416782E+05</totfact>
</mgrwt>
</event>
<event>
12    1  0.2743855E-001  0.1763533E+03  0.7546771E-02  0.1171927E+00
         21   -1    0    0  502  503  0.00000000000E+00  0.00000000000E+00  0.51338183381E+03  0.51338183381E+03  0.00000000000E+00 0.  1.
         21   -1    0    0  503  504 -0.00000000000E+00 -0.00000000000E+00 -0.17916441644E+03  0.17916441644E+03  0.00000000000E+00 0.  1.
         -6    2    1    2    0  504 -0.72544564842E+01 -0.28861091528E+02 -0.11583944278E+03  0.20917097052E+03  0.17160457064E+03 0.  0.
        -24    2    3    3    0    0 -0.17843762127E+02 -0.81087595903E+02 -0.55751665044E+02  0.12871991592E+03  0.81036846827E+02 0.  0.
          6    2    1    2  502    0  0.72544564842E+01  0.28861091528E+02  0.45005686015E+03  0.48337527972E+03  0.17382431917E+03 0.  0.
         24    2    5    5    0    0  0.24686414714E+02  0.75992113490E+02  0.38388507916E+03  0.40015268064E+03  0.79813491563E+02 0.  0.
          4    1    6    6  501    0 -0.27846833902E+02  0.41594758131E+02  0.16250572363E+03  0.17004023134E+03  0.00000000000E+00 0. -1.
         -3    1    6    6    0  501  0.52533248616E+02  0.34397355359E+02  0.22137935554E+03  0.23011244930E+03  0.00000000000E+00 0.  1.
          5    1    5    5  502    0 -0.17431958230E+02 -0.47131021962E+02  0.66171780989E+02  0.83222599083E+02  0.47000000000E+01 0. -1.
         13    1    4    4    0    0 -0.98494112399E+01 -0.62907502350E+02  0.59016413764E+01  0.63946806993E+02  0.00000000000E+00 0. -1.
        -14    1    4    4    0    0 -0.79943508868E+01 -0.18180093553E+02 -0.61653306421E+02  0.64773108929E+02  0.00000000000E+00 0.  1.
         -5    1    3    3    0  504  0.10589305643E+02  0.52226504374E+02 -0.60087777737E+02  0.80451054602E+02  0.47000000000E+01 0.  1.
<mgrwt>
<rscale>  2 0.17580385E+03</rscale>
<asrwt>0</asrwt>
<pdfrwt beam="1">  1       21 0.78981820E-01 0.17635329E+03</pdfrwt>
<pdfrwt beam="2">  1       21 0.27563757E-01 0.17635329E+03</pdfrwt>
<totfact> 0.17961467E+04</totfact>
</mgrwt>
</event>
<event>
12    1  0.2743855E-001  0.1899692E+03  0.7546771E-02  0.1158574E+00
         21   -1    0    0  502  503  0.00000000000E+00  0.00000000000E+00  0.40632404034E+03  0.40632404034E+03  0.00000000000E+00 0. -1.
         21   -1    0    0  503  504 -0.00000000000E+00 -0.00000000000E+00 -0.10851469908E+03  0.10851469908E+03  0.00000000000E+00 0. -1.
         -6    2    1    2    0  504  0.67941010905E+02 -0.39856052336E+02  0.38863000683E+02  0.19390368257E+03  0.17286937098E+03 0.  0.
        -24    2    3    3    0    0  0.93321800811E+02 -0.70548753761E+02  0.64764711307E+01  0.14235561070E+03  0.80852273043E+02 0.  0.
          6    2    1    2  502    0 -0.67941010905E+02  0.39856052336E+02  0.25894634057E+03  0.32093505685E+03  0.17245758188E+03 0.  0.
         24    2    5    5    0    0 -0.62516821084E+02 -0.39424244007E+02  0.15718485814E+03  0.19173646347E+03  0.81198324265E+02 0.  0.
          4    1    6    6  501    0 -0.40475087406E+02 -0.42183732241E+02  0.36270675560E+02  0.68798705452E+02  0.00000000000E+00 0. -1.
         -3    1    6    6    0  501 -0.22041733678E+02  0.27594882339E+01  0.12091418258E+03  0.12293775802E+03  0.00000000000E+00 0.  1.
          5    1    5    5  502    0 -0.54241898205E+01  0.79280296343E+02  0.10176148243E+03  0.12919859338E+03  0.47000000000E+01 0. -1.
         11    1    4    4    0    0  0.54966048340E+01  0.84089918148E+01  0.21084656963E+02  0.23355653861E+02  0.00000000000E+00 0. -1.
        -12    1    4    4    0    0  0.87825195977E+02 -0.78957745576E+02 -0.14608185832E+02  0.11899995684E+03  0.00000000000E+00 0.  1.
         -5    1    3    3    0  504 -0.25380789906E+02  0.30692701425E+02  0.32386529552E+02  0.51548071869E+02  0.47000000000E+01 0.  1.
<mgrwt>
<rscale>  2 0.18987549E+03</rscale>
<asrwt>0</asrwt>
<pdfrwt beam="1">  1       21 0.62511390E-01 0.18996922E+03</pdfrwt>
<pdfrwt beam="2">  1       21 0.16694569E-01 0.18996922E+03</pdfrwt>
<totfact> 0.76597904E+04</totfact>
</mgrwt>
</event>
<event>
12    1  0.2743855E-001  0.3683526E+03  0.7546771E-02  0.1055618E+00
         21   -1    0    0  502  503  0.00000000000E+00  0.00000000000E+00  0.51691846830E+02  0.51691846830E+02  0.00000000000E+00 0.  1.
         21   -1    0    0  503  504 -0.00000000000E+00 -0.00000000000E+00 -0.27093890717E+04  0.27093890717E+04  0.00000000000E+00 0.  1.
         -6    2    1    2    0  504  0.21111135257E+02 -0.32441992506E+03 -0.16074092159E+04  0.16490748902E+04  0.17317516676E+03 0.  0.
        -24    2    3    3    0    0  0.71032387311E+02 -0.23336891089E+03 -0.99303642594E+03  0.10259710196E+04  0.83597494670E+02 0.  0.
          6    2    1    2  502    0 -0.21111135257E+02  0.32441992506E+03 -0.10502880090E+04  0.11120060283E+04  0.16660893554E+03 0.  0.
         24    2    5    5    0    0 -0.65164224242E+02  0.24487445567E+03 -0.67696642067E+03  0.72774146497E+03  0.84345894733E+02 0.  0.
          4    1    6    6  501    0 -0.83693226746E+01  0.17634150089E+03 -0.48538982808E+03  0.51649748858E+03  0.00000000000E+00 0. -1.
         -3    1    6    6    0  501 -0.56794901568E+02  0.68532954775E+02 -0.19157659259E+03  0.21124397639E+03  0.00000000000E+00 0.  1.
          5    1    5    5  502    0  0.44053088985E+02  0.79545469393E+02 -0.37332158829E+03  0.38426456333E+03  0.47000000000E+01 0. -1.
         11    1    4    4    0    0 -0.11690527035E+02 -0.44887416916E+02 -0.28012285248E+03  0.28393724853E+03  0.00000000000E+00 0. -1.
        -12    1    4    4    0    0  0.82722914346E+02 -0.18848149397E+03 -0.71291357346E+03  0.74203377103E+03  0.00000000000E+00 0.  1.
         -5    1    3    3    0  504 -0.49921252053E+02 -0.91051014172E+02 -0.61437278996E+03  0.62310387066E+03  0.47000000000E+01 0.  1.
<mgrwt>
<rscale>  2 0.36758993E+03</rscale>
<asrwt>0</asrwt>
<pdfrwt beam="1">  1       21 0.79525896E-02 0.36835256E+03</pdfrwt>
<pdfrwt beam="2">  1       21 0.41682921E+00 0.36835256E+03</pdfrwt>
<totfact> 0.68150390E+02</totfact>
</mgrwt>
</event>
<event>
12    1  0.2743855E-001  0.1748341E+03  0.7546771E-02  0.1173223E+00
         21   -1    0    0  502  503  0.00000000000E+00  0.00000000000E+00  0.78609438899E+02  0.78609438899E+02  0.00000000000E+00 0. -1.
         21   -1    0    0  503  504 -0.00000000000E+00 -0.00000000000E+00 -0.43883400926E+03  0.43883400926E+03  0.00000000000E+00 0. -1.
         -6    2    1    2    0  504  0.13953489853E+02  0.25903646643E+02 -0.26930507133E+03  0.32038173795E+03  0.17103665624E+03 0.  0.
        -24    2    3    3    0    0  0.26709487350E+02 -0.22303683795E+02 -0.85894604299E+02  0.13025506545E+03  0.91529492522E+02 0.  0.
          6    2    1    2  502    0 -0.13953489853E+02 -0.25903646643E+02 -0.90919499030E+02  0.19706171021E+03  0.17234054525E+03 0.  0.
         24    2    5    5    0    0  0.39173560145E+02 -0.47898730321E+02 -0.16683631722E+02  0.10304404622E+03  0.80689997601E+02 0.  0.
          2    1    6    6  501    0  0.64080334872E+02 -0.28700619508E+02 -0.10499816977E+02  0.70994795823E+02  0.00000000000E+00 0. -1.
         -1    1    6    6    0  501 -0.24906774727E+02 -0.19198110814E+02 -0.61838147450E+01  0.32049250395E+02  0.00000000000E+00 0.  1.
          5    1    5    5  502    0 -0.53127049998E+02  0.21995083678E+02 -0.74235867308E+02  0.94017663992E+02  0.47000000000E+01 0. -1.
         13    1    4    4    0    0  0.11212799554E+02 -0.25725187168E+02 -0.10309841286E+03  0.10684940273E+03  0.00000000000E+00 0. -1.
        -14    1    4    4    0    0  0.15496687796E+02  0.34215033729E+01  0.17203808566E+02  0.23405662715E+02  0.00000000000E+00 0.  1.
         -5    1    3    3    0  504 -0.12755997498E+02  0.48207330439E+02 -0.18341046703E+03  0.19012667250E+03  0.47000000000E+01 0.  1.
<mgrwt>
<rscale>  2 0.17451192E+03</rscale>
<asrwt>0</asrwt>
<pdfrwt beam="1">  1       21 0.12093759E-01 0.17483410E+03</pdfrwt>
<pdfrwt beam="2">  1       21 0.67512927E-01 0.17483410E+03</pdfrwt>
<totfact> 0.11687019E+05</totfact>
</mgrwt>
</event>
<event>
12    1  0.2743855E-001  0.1981328E+03  0.7546771E-02  0.1151710E+00
         21   -1    0    0  502  503  0.00000000000E+00  0.00000000000E+00  0.56812176324E+03  0.56812176324E+03  0.00000000000E+00 0. -1.
         21   -1    0    0  503  504 -0.00000000000E+00 -0.00000000000E+00 -0.16916631371E+03  0.16916631371E+03  0.00000000000E+00 0. -1.
         -6    2    1    2    0  504 -0.92322719448E+02  0.83198436871E+01 -0.84566802816E+02  0.21542551700E+03  0.17511112161E+03 0.  0.
        -24    2    3    3    0    0 -0.12105101452E+03  0.21083823370E+02 -0.36827892593E+02  0.15807285652E+03  0.92373473297E+02 0.  0.
          6    2    1    2  502    0  0.92322719448E+02 -0.83198436871E+01  0.48352225235E+03  0.52186255995E+03  0.17307240864E+03 0.  0.
         24    2    5    5    0    0  0.53770540775E+02  0.65081378727E+02  0.23787057800E+03  0.26255416240E+03  0.72287062462E+02 0.  0.
          4    1    6    6  501    0  0.32291463990E+02  0.17193853220E+02  0.18301305159E+03  0.18663371691E+03  0.00000000000E+00 0. -1.
         -3    1    6    6    0  501  0.21479076785E+02  0.47887525508E+02  0.54857526418E+02  0.75920445490E+02  0.00000000000E+00 0.  1.
          5    1    5    5  502    0  0.38552178673E+02 -0.73401222414E+02  0.24565167435E+03  0.25930839755E+03  0.47000000000E+01 0. -1.
         13    1    4    4    0    0  0.11955993976E+02  0.12277911679E+01 -0.18906080293E+02  0.22402971570E+02  0.00000000000E+00 0. -1.
        -14    1    4    4    0    0 -0.13300700850E+03  0.19856032202E+02 -0.17921812300E+02  0.13566988495E+03  0.00000000000E+00 0.  1.
         -5    1    3    3    0  504  0.28728295077E+02 -0.12763979683E+02 -0.47738910223E+02  0.57352660484E+02  0.47000000000E+01 0.  1.
<mgrwt>
<rscale>  2 0.19768139E+03</rscale>
<asrwt>0</asrwt>
<pdfrwt beam="1">  1       21 0.87403348E-01 0.19813281E+03</pdfrwt>
<pdfrwt beam="2">  1       21 0.26025587E-01 0.19813281E+03</pdfrwt>
<totfact> 0.15709222E+04</totfact>
</mgrwt>
</event>
<event>
12    1  0.2743855E-001  0.2059975E+03  0.7546771E-02  0.1145085E+00
         21   -1    0    0  502  503  0.00000000000E+00  0.00000000000E+00  0.27839669011E+03  0.27839669011E+03  0.00000000000E+00 0. -1.
         21   -1    0    0  503  504 -0.00000000000E+00 -0.00000000000E+00 -0.29913958785E+03  0.29913958785E+03  0.00000000000E+00 0. -1.
         -6    2    1    2    0  504  0.11043157250E+03 -0.64067024166E+01 -0.21339354364E+03  0.29660037568E+03  0.17377802032E+03 0.  0.
        -24    2    3    3    0    0  0.10970112771E+03 -0.44322201283E+02 -0.21553047538E+03  0.25832799555E+03  0.79253848606E+02 0.  0.
          6    2    1    2  502    0 -0.11043157250E+03  0.64067024166E+01  0.19265064589E+03  0.28093590228E+03  0.17197247392E+03 0.  0.
         24    2    5    5    0    0 -0.10898097749E+03 -0.24614912676E+02  0.20561748066E+03  0.24695541328E+03  0.78902981037E+02 0.  0.
          4    1    6    6  501    0 -0.71051955526E+02  0.21440331182E+02  0.13866043500E+03  0.15727296151E+03  0.00000000000E+00 0. -1.
         -3    1    6    6    0  501 -0.37929021961E+02 -0.46055243857E+02  0.66957045651E+02  0.89682451773E+02  0.00000000000E+00 0.  1.
          5    1    5    5  502    0 -0.14505950110E+01  0.31021615093E+02 -0.12966834763E+02  0.33980488999E+02  0.47000000000E+01 0. -1.
         13    1    4    4    0    0 -0.65054790105E+01 -0.13880620889E+02 -0.59319748903E+02  0.61268470711E+02  0.00000000000E+00 0. -1.
        -14    1    4    4    0    0  0.11620660672E+03 -0.30441580394E+02 -0.15621072648E+03  0.19705952484E+03  0.00000000000E+00 0.  1.
         -5    1    3    3    0  504  0.73044478878E+00  0.37915498866E+02  0.21369317403E+01  0.38272380134E+02  0.47000000000E+01 0.  1.
<mgrwt>
<rscale>  2 0.20561625E+03</rscale>
<asrwt>0</asrwt>
<pdfrwt beam="1">  1       21 0.42830260E-01 0.20599752E+03</pdfrwt>
<pdfrwt beam="2">  1       21 0.46021475E-01 0.20599752E+03</pdfrwt>
<totfact> 0.23541266E+04</totfact>
</mgrwt>
</event>
<event>
12    1  0.2743855E-001  0.1789671E+03  0.7546771E-02  0.1168905E+00
         21   -1    0    0  502  503  0.00000000000E+00  0.00000000000E+00  0.40532002055E+03  0.40532002055E+03  0.00000000000E+00 0. -1.
         21   -1    0    0  503  504 -0.00000000000E+00 -0.00000000000E+00 -0.10585860302E+03  0.10585860302E+03  0.00000000000E+00 0. -1.
         -6    2    1    2    0  504 -0.42053810281E+02 -0.18274096844E+02  0.20739390674E+02  0.18016480102E+03  0.17299354793E+03 0.  0.
        -24    2    3    3    0    0 -0.59916808861E+02  0.44742404084E+02  0.30521362121E+02  0.11377245904E+03  0.80129346582E+02 0.  0.
          6    2    1    2  502    0  0.42053810281E+02  0.18274096844E+02  0.27872202686E+03  0.33101382255E+03  0.17257380128E+03 0.  0.
         24    2    5    5    0    0  0.27397311663E+02  0.48199656267E+01  0.28762188704E+03  0.30871754238E+03  0.10865692021E+03 0.  0.
          2    1    6    6  501    0 -0.31271683014E+02 -0.19676389591E+02  0.17971594715E+03  0.18347452174E+03  0.00000000000E+00 0. -1.
         -1    1    6    6    0  501  0.58668994677E+02  0.24496355218E+02  0.10790593989E+03  0.12524302064E+03  0.00000000000E+00 0.  1.
          5    1    5    5  502    0  0.14656498618E+02  0.13454131217E+02 -0.88998601798E+01  0.22296280178E+02  0.47000000000E+01 0. -1.
         11    1    4    4    0    0 -0.71613291020E+02  0.12148041029E+02  0.94819299617E+01  0.73252613246E+02  0.00000000000E+00 0. -1.
        -12    1    4    4    0    0  0.11696482159E+02  0.32594363055E+02  0.21039432159E+02  0.40519845797E+02  0.00000000000E+00 0.  1.
         -5    1    3    3    0  504  0.17862998579E+02 -0.63016500928E+02 -0.97819714465E+01  0.66392341974E+02  0.47000000000E+01 0.  1.
<mgrwt>
<rscale>  2 0.17886562E+03</rscale>
<asrwt>0</asrwt>
<pdfrwt beam="1">  1       21 0.62356926E-01 0.17896713E+03</pdfrwt>
<pdfrwt beam="2">  1       21 0.16285939E-01 0.17896713E+03</pdfrwt>
<totfact> 0.80954820E+04</totfact>
</mgrwt>
</event>
<event>
12    1  0.2743855E-001  0.2297808E+03  0.7546771E-02  0.1126940E+00
         21   -1    0    0  502  503  0.00000000000E+00  0.00000000000E+00  0.27710237590E+03  0.27710237590E+03  0.00000000000E+00 0. -1.
         21   -1    0    0  503  504 -0.00000000000E+00 -0.00000000000E+00 -0.19257106349E+03  0.19257106349E+03  0.00000000000E+00 0.  1.
         -6    2    1    2    0  504 -0.19973776345E+02  0.14826340525E+03  0.14306465115E+02  0.22940116642E+03  0.17331829428E+03 0.  0.
        -24    2    3    3    0    0 -0.20757495611E+02  0.86326916642E+01 -0.18783830755E+02  0.85823981351E+02  0.80669241274E+02 0.  0.
          6    2    1    2  502    0  0.19973776345E+02 -0.14826340525E+03  0.70224847298E+02  0.24027227298E+03  0.17440827649E+03 0.  0.
         24    2    5    5    0    0 -0.20227351226E+02 -0.48692009838E+02 -0.25681272837E+02  0.96221353784E+02  0.76282131524E+02 0.  0.
          2    1    6    6  501    0  0.22104423234E+02 -0.41403904924E+01  0.10592738257E+02  0.24858689904E+02  0.00000000000E+00 0. -1.
         -1    1    6    6    0  501 -0.42331774460E+02 -0.44551619345E+02 -0.36274011095E+02  0.71362663881E+02  0.00000000000E+00 0.  1.
          5    1    5    5  502    0  0.40201127571E+02 -0.99571395408E+02  0.95906120135E+02  0.14405091919E+03  0.47000000000E+01 0. -1.
         11    1    4    4    0    0 -0.30419064186E+02 -0.94701734498E+01  0.22986295595E+02  0.39285791786E+02  0.00000000000E+00 0. -1.
        -12    1    4    4    0    0  0.96615685750E+01  0.18102865114E+02 -0.41770126350E+02  0.46538189565E+02  0.00000000000E+00 0.  1.
         -5    1    3    3    0  504  0.78371926604E+00  0.13963071358E+03  0.33090295870E+02  0.14357718507E+03  0.47000000000E+01 0.  1.
<mgrwt>
<rscale>  2 0.22957401E+03</rscale>
<asrwt>0</asrwt>
<pdfrwt beam="1">  1       21 0.42631135E-01 0.22978084E+03</pdfrwt>
<pdfrwt beam="2">  1       21 0.29626317E-01 0.22978084E+03</pdfrwt>
<totfact> 0.56841873E+04</totfact>
</mgrwt>
</event>
<event>
12    1  0.2743855E-001  0.1961968E+03  0.7546771E-02  0.1153183E+00
         21   -1    0    0  502  503  0.00000000000E+00  0.00000000000E+00  0.19280415494E+03  0.19280415494E+03  0.00000000000E+00 0. -1.
         21   -1    0    0  503  504 -0.00000000000E+00 -0.00000000000E+00 -0.35017295279E+03  0.35017295279E+03  0.00000000000E+00 0. -1.
         -6    2    1    2    0  504  0.55696183695E+02 -0.70978146900E+02 -0.25732395942E+03  0.32358739410E+03  0.17422175327E+03 0.  0.
        -24    2    3    3    0    0  0.82350115989E+02 -0.78951402373E+02 -0.12319652930E+03  0.18652440705E+03  0.81234869686E+02 0.  0.
          6    2    1    2  502    0 -0.55696183695E+02  0.70978146900E+02  0.99955161571E+02  0.21938971363E+03  0.17320753421E+03 0.  0.
         24    2    5    5    0    0 -0.73354121210E+02  0.10631814696E+03  0.59692631403E+02  0.16278688952E+03  0.79069499087E+02 0.  0.
          2    1    6    6  501    0 -0.70393413686E+02  0.89207392445E+02  0.77785557129E+02  0.13770905727E+03  0.00000000000E+00 0. -1.
         -1    1    6    6    0  501 -0.29607075249E+01  0.17110754514E+02 -0.18092925726E+02  0.25077832251E+02  0.00000000000E+00 0.  1.
          5    1    5    5  502    0  0.17657937516E+02 -0.35340000059E+02  0.40262530168E+02  0.56602824108E+02  0.47000000000E+01 0. -1.
         11    1    4    4    0    0  0.79335176801E+02 -0.40006317348E+02 -0.11709494428E+03  0.14698912097E+03  0.00000000000E+00 0. -1.
        -12    1    4    4    0    0  0.30149391874E+01 -0.38945085025E+02 -0.61015850198E+01  0.39535286083E+02  0.00000000000E+00 0.  1.
         -5    1    3    3    0  504 -0.26653932294E+02  0.79732554729E+01 -0.13412743011E+03  0.13706298705E+03  0.47000000000E+01 0.  1.
<mgrwt>
<rscale>  2 0.19597139E+03</rscale>
<asrwt>0</asrwt>
<pdfrwt beam="1">  1       21 0.29662178E-01 0.19619679E+03</pdfrwt>
<pdfrwt beam="2">  1       21 0.53872762E-01 0.19619679E+03</pdfrwt>
<totfact> 0.35433281E+04</totfact>
</mgrwt>
</event>
<event>
12    1  0.2743855E-001  0.1806239E+03  0.7546771E-02  0.1167833E+00
         21   -1    0    0  502  503  0.00000000000E+00  0.00000000000E+00  0.25347629703E+03  0.25347629703E+03  0.00000000000E+00 0.  1.
         21   -1    0    0  503  504 -0.00000000000E+00 -0.00000000000E+00 -0.32799370297E+03  0.32799370297E+03  0.00000000000E+00 0. -1.
         -6    2    1    2    0  504  0.46713915292E+02 -0.16584467845E+02 -0.26482216178E+03  0.31909452920E+03  0.17097750361E+03 0.  0.
        -24    2    3    3    0    0  0.78472845204E+02 -0.56812551798E+02 -0.20122424146E+03  0.23727940935E+03  0.80154034658E+02 0.  0.
          6    2    1    2  502    0 -0.46713915292E+02  0.16584467845E+02  0.19030475584E+03  0.26237547080E+03  0.17368866723E+03 0.  0.
         24    2    5    5    0    0  0.59846081205E+01 -0.17247754411E+02  0.16579136492E+02  0.77647469533E+02  0.73627176990E+02 0.  0.
          4    1    6    6  501    0 -0.18449399376E+02 -0.64011043037E+01 -0.22819839915E+02  0.30034972405E+02  0.00000000000E+00 0. -1.
         -3    1    6    6    0  501  0.24434007496E+02 -0.10846650108E+02  0.39398976406E+02  0.47612497128E+02  0.00000000000E+00 0.  1.
          5    1    5    5  502    0 -0.52698523412E+02  0.33832222256E+02  0.17372561935E+03  0.18472800127E+03  0.47000000000E+01 0. -1.
         11    1    4    4    0    0  0.56744203301E+02 -0.77032847564E+02 -0.14540123055E+03  0.17405597392E+03  0.00000000000E+00 0. -1.
        -12    1    4    4    0    0  0.21728641903E+02  0.20220295766E+02 -0.55823010908E+02  0.63223435422E+02  0.00000000000E+00 0.  1.
         -5    1    3    3    0  504 -0.31758929912E+02  0.40228083953E+02 -0.63597920320E+02  0.81815119854E+02  0.47000000000E+01 0.  1.
<mgrwt>
<rscale>  2 0.17996895E+03</rscale>
<asrwt>0</asrwt>
<pdfrwt beam="1">  1       21 0.38996353E-01 0.18062388E+03</pdfrwt>
<pdfrwt beam="2">  1       21 0.50460570E-01 0.18062388E+03</pdfrwt>
<totfact> 0.23864533E+04</totfact>
</mgrwt>
</event>
<event>
12    1  0.2743855E-001  0.3280996E+03  0.7546771E-02  0.1072027E+00
         21   -1    0    0  502  503  0.00000000000E+00  0.00000000000E+00  0.34095219348E+03  0.34095219348E+03  0.00000000000E+00 0. -1.
         21   -1    0    0  503  504 -0.00000000000E+00 -0.00000000000E+00 -0.43219135309E+03  0.43219135309E+03  0.00000000000E+00 0.  1.
         -6    2    1    2    0  504 -0.27001541637E+03  0.65931065176E+02 -0.24661289724E+03  0.41011411294E+03  0.17355239587E+03 0.  0.
        -24    2    3    3    0    0 -0.57372087749E+02  0.23570894790E+02 -0.34064058621E+02  0.10645201777E+03  0.79526904026E+02 0.  0.
          6    2    1    2  502    0  0.27001541637E+03 -0.65931065176E+02  0.15537373763E+03  0.36302943363E+03  0.17433915482E+03 0.  0.
         24    2    5    5    0    0  0.12811133274E+03 -0.72359788893E+02  0.14227277524E+03  0.22029953958E+03  0.81497803276E+02 0.  0.
          2    1    6    6  501    0  0.96241857633E+02 -0.82392774001E+02  0.13677950957E+03  0.18643953070E+03  0.00000000000E+00 0. -1.
         -1    1    6    6    0  501  0.31869475106E+02  0.10032985107E+02  0.54932656707E+01  0.33860008881E+02  0.00000000000E+00 0.  1.
          5    1    5    5  502    0  0.14190408363E+03  0.64287237177E+01  0.13100962388E+02  0.14272989405E+03  0.47000000000E+01 0. -1.
         13    1    4    4    0    0 -0.64673488699E+02  0.49997215301E+01  0.23715986043E+01  0.64909797687E+02  0.00000000000E+00 0. -1.
        -14    1    4    4    0    0  0.73014009497E+01  0.18571173260E+02 -0.36435657226E+02  0.41542220084E+02  0.00000000000E+00 0.  1.
         -5    1    3    3    0  504 -0.21264332862E+03  0.42360170386E+02 -0.21254883862E+03  0.30366209517E+03  0.47000000000E+01 0.  1.
<mgrwt>
<rscale>  2 0.32799524E+03</rscale>
<asrwt>0</asrwt>
<pdfrwt beam="1">  1       21 0.52454184E-01 0.32809964E+03</pdfrwt>
<pdfrwt beam="2">  1       21 0.66490977E-01 0.32809964E+03</pdfrwt>
<totfact> 0.66152837E+03</totfact>
</mgrwt>
</event>
<event>
12    1  0.2743855E-001  0.1951332E+03  0.7546771E-02  0.1154001E+00
         21   -1    0    0  502  503  0.00000000000E+00  0.00000000000E+00  0.22798655162E+04  0.22798655162E+04  0.00000000000E+00 0.  1.
         21   -1    0    0  503  504 -0.00000000000E+00 -0.00000000000E+00 -0.26174228039E+02  0.26174228039E+02  0.00000000000E+00 0.  1.
         -6    2    1    2    0  504 -0.85350180366E+02  0.27311276596E+02  0.43115823342E+03  0.47309028609E+03  0.17287694303E+03 0.  0.
        -24    2    3    3    0    0 -0.56432989686E+02  0.74346647221E+02  0.19058238744E+03  0.22621509966E+03  0.78355080459E+02 0.  0.
          6    2    1    2  502    0  0.85350180366E+02 -0.27311276596E+02  0.18225330547E+04  0.18329494581E+04  0.17333903595E+03 0.  0.
         24    2    5    5    0    0  0.80032665874E+02 -0.40746875090E+02  0.70024389837E+03  0.71055744473E+03  0.80528439859E+02 0.  0.
          2    1    6    6  501    0  0.46082661788E+02  0.19336593705E+02  0.35323559562E+03  0.35675327831E+03  0.00000000000E+00 0. -1.
         -1    1    6    6    0  501  0.33950004086E+02 -0.60083468795E+02  0.34700830275E+03  0.35380416642E+03  0.00000000000E+00 0.  1.
          5    1    5    5  502    0  0.53175144927E+01  0.13435598494E+02  0.11222891564E+04  0.11223920134E+04  0.47000000000E+01 0. -1.
         11    1    4    4    0    0  0.17438980688E+02  0.15176332644E+01  0.20117832802E+02  0.26667366852E+02  0.00000000000E+00 0. -1.
        -12    1    4    4    0    0 -0.73871970374E+02  0.72829013957E+02  0.17046455463E+03  0.19954773280E+03  0.00000000000E+00 0.  1.
         -5    1    3    3    0  504 -0.28917190680E+02 -0.47035370625E+02  0.24057584598E+03  0.24687518644E+03  0.47000000000E+01 0.  1.
<mgrwt>
<rscale>  2 0.19503057E+03</rscale>
<asrwt>0</asrwt>
<pdfrwt beam="1">  1       21 0.35074838E+00 0.19513324E+03</pdfrwt>
<pdfrwt beam="2">  1       21 0.40268061E-02 0.19513324E+03</pdfrwt>
<totfact> 0.66865684E+03</totfact>
</mgrwt>
</event>
<event>
12    1  0.2743855E-001  0.1908418E+03  0.7546771E-02  0.1157705E+00
         21   -1    0    0  502  503  0.00000000000E+00  0.00000000000E+00  0.22331038568E+03  0.22331038568E+03  0.00000000000E+00 0.  1.
         21   -1    0    0  503  504 -0.00000000000E+00 -0.00000000000E+00 -0.28118103073E+03  0.28118103073E+03  0.00000000000E+00 0.  1.
         -6    2    1    2    0  504  0.25105230019E+02  0.77124855419E+02 -0.19240379143E+03  0.27099672655E+03  0.17274689851E+03 0.  0.
        -24    2    3    3    0    0  0.61772267322E+02  0.10377115569E+03 -0.13850647005E+03  0.20041692635E+03  0.79991476803E+02 0.  0.
          6    2    1    2  502    0 -0.25105230019E+02 -0.77124855419E+02  0.13453314639E+03  0.23349468986E+03  0.17274862320E+03 0.  0.
         24    2    5    5    0    0 -0.22367229464E+01 -0.44523046306E+02  0.16761466411E+03  0.18151081364E+03  0.53518176925E+02 0.  0.
          4    1    6    6  501    0  0.19727523935E+02 -0.43318792655E+02  0.11797648646E+03  0.12721691851E+03  0.00000000000E+00 0. -1.
         -3    1    6    6    0  501 -0.21964246881E+02 -0.12042536517E+01  0.49638177645E+02  0.54293895125E+02  0.00000000000E+00 0.  1.
          5    1    5    5  502    0 -0.22868507072E+02 -0.32601809112E+02 -0.33081517714E+02  0.51983876225E+02  0.47000000000E+01 0. -1.
         13    1    4    4    0    0  0.35221578619E+01 -0.13403309892E+02 -0.15987076840E+02  0.21157526745E+02  0.00000000000E+00 0. -1.
        -14    1    4    4    0    0  0.58250109460E+02  0.11717446558E+03 -0.12251939321E+03  0.17925939961E+03  0.00000000000E+00 0.  1.
         -5    1    3    3    0  504 -0.36667037303E+02 -0.26646300271E+02 -0.53897321388E+02  0.70579800195E+02  0.47000000000E+01 0.  1.
<mgrwt>
<rscale>  2 0.19084144E+03</rscale>
<asrwt>0</asrwt>
<pdfrwt beam="1">  1       21 0.34355444E-01 0.19084183E+03</pdfrwt>
<pdfrwt beam="2">  1       21 0.43258620E-01 0.19084183E+03</pdfrwt>
<totfact> 0.41985933E+04</totfact>
</mgrwt>
</event>
<event>
12    1  0.2743855E-001  0.2747482E+03  0.7546771E-02  0.1099540E+00
         21   -1    0    0  502  503  0.00000000000E+00  0.00000000000E+00  0.18975934510E+03  0.18975934510E+03  0.00000000000E+00 0. -1.
         21   -1    0    0  503  504 -0.00000000000E+00 -0.00000000000E+00 -0.38869028051E+03  0.38869028051E+03  0.00000000000E+00 0.  1.
         -6    2    1    2    0  504  0.18926427728E+03  0.76853032338E+02 -0.90230964766E+02  0.28918537274E+03  0.18373676161E+03 0.  0.
        -24    2    3    3    0    0  0.18809378021E+02  0.49488966714E+02 -0.14077787311E+01  0.94981064990E+02  0.78844596122E+02 0.  0.
          6    2    1    2  502    0 -0.18926427728E+03 -0.76853032338E+02 -0.10869997065E+03  0.28926425287E+03  0.17358216825E+03 0.  0.
         24    2    5    5    0    0 -0.18763568416E+03 -0.10786219953E+03 -0.12091953337E+03  0.25556516566E+03  0.62053334241E+02 0.  0.
          2    1    6    6  501    0 -0.66496022881E+02 -0.73075102564E+02 -0.59832690221E+02  0.11550602795E+03  0.00000000000E+00 0. -1.
         -1    1    6    6    0  501 -0.12113966128E+03 -0.34787096970E+02 -0.61086843148E+02  0.14005913771E+03  0.00000000000E+00 0.  1.
          5    1    5    5  502    0 -0.16285931253E+01  0.31009167196E+02  0.12219562719E+02  0.33699087210E+02  0.47000000000E+01 0. -1.
         11    1    4    4    0    0  0.49653294102E+02  0.26272102974E+02 -0.37841197689E+01  0.56302687078E+02  0.00000000000E+00 0. -1.
        -12    1    4    4    0    0 -0.30843916081E+02  0.23216863741E+02  0.23763410378E+01  0.38678377912E+02  0.00000000000E+00 0.  1.
         -5    1    3    3    0  504  0.17045489926E+03  0.27364065623E+02 -0.88823186034E+02  0.19420430775E+03  0.47000000000E+01 0.  1.
<mgrwt>
<rscale>  2 0.27306157E+03</rscale>
<asrwt>0</asrwt>
<pdfrwt beam="1">  1       21 0.29193745E-01 0.27474816E+03</pdfrwt>
<pdfrwt beam="2">  1       21 0.59798505E-01 0.27474816E+03</pdfrwt>
<totfact> 0.28184807E+04</totfact>
</mgrwt>
</event>
<event>
12    1  0.2743855E-001  0.1833877E+03  0.7546771E-02  0.1164847E+00
         21   -1    0    0  502  503  0.00000000000E+00  0.00000000000E+00  0.39912351133E+02  0.39912351133E+02  0.00000000000E+00 0. -1.
         21   -1    0    0  503  504 -0.00000000000E+00 -0.00000000000E+00 -0.12872722920E+04  0.12872722920E+04  0.00000000000E+00 0. -1.
         -6    2    1    2    0  504  0.37372234994E+02  0.46582104200E+02 -0.10174120919E+04  0.10338077282E+04  0.17339111195E+03 0.  0.
        -24    2    3    3    0    0  0.43979155478E+02  0.93176562391E+02 -0.61991140847E+03  0.63350337114E+03  0.80126955501E+02 0.  0.
          6    2    1    2  502    0 -0.37372234994E+02 -0.46582104200E+02 -0.22994784897E+03  0.29337691497E+03  0.17212618804E+03 0.  0.
         24    2    5    5    0    0 -0.44318351196E+02 -0.93462432972E+02 -0.18992094645E+03  0.23116552790E+03  0.81659002903E+02 0.  0.
          2    1    6    6  501    0 -0.25754460468E+02 -0.10578539027E+03 -0.16556114698E+03  0.19815230106E+03  0.00000000000E+00 0. -1.
         -1    1    6    6    0  501 -0.18563890728E+02  0.12322957293E+02 -0.24359799477E+02  0.33013226833E+02  0.00000000000E+00 0.  1.
          5    1    5    5  502    0  0.69461162014E+01  0.46880328772E+02 -0.40026902518E+02  0.62211387071E+02  0.47000000000E+01 0. -1.
         13    1    4    4    0    0  0.51695390531E+02  0.63396130989E+02 -0.56205444989E+03  0.56797595677E+03  0.00000000000E+00 0. -1.
        -14    1    4    4    0    0 -0.77162350532E+01  0.29780431402E+02 -0.57856958579E+02  0.65527414369E+02  0.00000000000E+00 0.  1.
         -5    1    3    3    0  504 -0.66069204838E+01 -0.46594458191E+02 -0.39750068343E+03  0.40030435704E+03  0.47000000000E+01 0.  1.
<mgrwt>
<rscale>  2 0.18308811E+03</rscale>
<asrwt>0</asrwt>
<pdfrwt beam="1">  1       21 0.61403626E-02 0.18338772E+03</pdfrwt>
<pdfrwt beam="2">  1       21 0.19804186E+00 0.18338772E+03</pdfrwt>
<totfact> 0.26373747E+04</totfact>
</mgrwt>
</event>
<event>
12    1  0.2743855E-001  0.2205435E+03  0.7546771E-02  0.1133785E+00
         21   -1    0    0  502  503  0.00000000000E+00  0.00000000000E+00  0.43141721091E+03  0.43141721091E+03  0.00000000000E+00 0.  1.
         21   -1    0    0  503  504 -0.00000000000E+00 -0.00000000000E+00 -0.22966527264E+03  0.22966527264E+03  0.00000000000E+00 0. -1.
         -6    2    1    2    0  504 -0.48451484966E+02 -0.12479492806E+03 -0.13562793047E+03  0.25891000484E+03  0.17526589691E+03 0.  0.
        -24    2    3    3    0    0  0.34424532463E+01 -0.14281402632E+03 -0.89042848050E+02  0.18673016951E+03  0.80819742735E+02 0.  0.
          6    2    1    2  502    0  0.48451484966E+02  0.12479492806E+03  0.33737986874E+03  0.40217247871E+03  0.17319412904E+03 0.  0.
         24    2    5    5    0    0  0.74937840316E+02  0.82118512060E+02  0.14731283794E+03  0.20552464703E+03  0.90444338593E+02 0.  0.
          2    1    6    6  501    0  0.48395774100E+02  0.93384135507E+02  0.79526243814E+02  0.13186042306E+03  0.00000000000E+00 0. -1.
         -1    1    6    6    0  501  0.26542066216E+02 -0.11265623447E+02  0.67786594121E+02  0.73664223971E+02  0.00000000000E+00 0.  1.
          5    1    5    5  502    0 -0.26486355350E+02  0.42676415996E+02  0.19006703081E+03  0.19664783168E+03  0.47000000000E+01 0. -1.
         13    1    4    4    0    0 -0.23222951455E+01 -0.27381899363E+02 -0.62313124011E+02  0.68103501316E+02  0.00000000000E+00 0. -1.
        -14    1    4    4    0    0  0.57647483918E+01 -0.11543212696E+03 -0.26729724039E+02  0.11862666819E+03  0.00000000000E+00 0.  1.
         -5    1    3    3    0  504 -0.51893938212E+02  0.18019098267E+02 -0.46585082417E+02  0.72179835337E+02  0.47000000000E+01 0.  1.
<mgrwt>
<rscale>  2 0.22013169E+03</rscale>
<asrwt>0</asrwt>
<pdfrwt beam="1">  1       21 0.66371879E-01 0.22054354E+03</pdfrwt>
<pdfrwt beam="2">  1       21 0.35333119E-01 0.22054354E+03</pdfrwt>
<totfact> 0.15809984E+04</totfact>
</mgrwt>
</event>
<event>
12    1  0.2743855E-001  0.2478799E+03  0.7546771E-02  0.1114829E+00
         21   -1    0    0  502  503  0.00000000000E+00  0.00000000000E+00  0.49150539437E+03  0.49150539437E+03  0.00000000000E+00 0.  1.
         21   -1    0    0  503  504 -0.00000000000E+00 -0.00000000000E+00 -0.12449287461E+03  0.12449287461E+03  0.00000000000E+00 0.  1.
         -6    2    1    2    0  504  0.33087335149E+02  0.17289171603E+03  0.18840378352E+03  0.31047329295E+03  0.17294901784E+03 0.  0.
        -24    2    3    3    0    0 -0.28368794538E+02  0.51408133911E+02  0.34012187740E+02  0.10457532927E+03  0.79571262662E+02 0.  0.
          6    2    1    2  502    0 -0.33087335149E+02 -0.17289171603E+03  0.17860873625E+03  0.30552497603E+03  0.17452252890E+03 0.  0.
         24    2    5    5    0    0 -0.77429384876E+02 -0.16771024941E+03  0.12981370300E+03  0.23922180688E+03  0.79078682326E+02 0.  0.
          4    1    6    6  501    0 -0.42923746368E+02 -0.67301906700E+02  0.12160940459E+02  0.80745793207E+02  0.00000000000E+00 0. -1.
         -3    1    6    6    0  501 -0.34505638508E+02 -0.10040834271E+03  0.11765276254E+03  0.15847601367E+03  0.00000000000E+00 0.  1.
          5    1    5    5  502    0  0.44342049727E+02 -0.51814666202E+01  0.48795033248E+02  0.66303169155E+02  0.47000000000E+01 0. -1.
         13    1    4    4    0    0 -0.29402076951E+02 -0.13060839387E+02  0.11176879615E+01  0.32191876008E+02  0.00000000000E+00 0. -1.
        -14    1    4    4    0    0  0.10332824132E+01  0.64468973298E+02  0.32894499779E+02  0.72383453264E+02  0.00000000000E+00 0.  1.
         -5    1    3    3    0  504  0.61456129687E+02  0.12148358212E+03  0.15439159578E+03  0.20589796368E+03  0.47000000000E+01 0.  1.
<mgrwt>
<rscale>  2 0.24760308E+03</rscale>
<asrwt>0</asrwt>
<pdfrwt beam="1">  1       21 0.75616213E-01 0.24787987E+03</pdfrwt>
<pdfrwt beam="2">  1       21 0.19152750E-01 0.24787987E+03</pdfrwt>
<totfact> 0.38032778E+04</totfact>
</mgrwt>
</event>
<event>
12    1  0.2743855E-001  0.2096495E+03  0.7546771E-02  0.1142838E+00
         21   -1    0    0  502  503  0.00000000000E+00  0.00000000000E+00  0.15760173140E+03  0.15760173140E+03  0.00000000000E+00 0. -1.
         21   -1    0    0  503  504 -0.00000000000E+00 -0.00000000000E+00 -0.37460107479E+03  0.37460107479E+03  0.00000000000E+00 0. -1.
         -6    2    1    2    0  504  0.36412997190E+02 -0.99272051258E+02 -0.24658050098E+03  0.32047670102E+03  0.17527842396E+03 0.  0.
        -24    2    3    3    0    0  0.53800487060E+02 -0.12373501862E+03 -0.21752560389E+03  0.27844054252E+03  0.10957600163E+03 0.  0.
          6    2    1    2  502    0 -0.36412997190E+02  0.99272051258E+02  0.29581157595E+02  0.21172610517E+03  0.18103052837E+03 0.  0.
         24    2    5    5    0    0  0.16542099688E+02  0.11363402461E+03  0.55602022265E+02  0.15081893021E+03  0.80426564123E+02 0.  0.
          2    1    6    6  501    0  0.30544682117E+02  0.98571196761E+02  0.70885400265E+02  0.12519584022E+03  0.00000000000E+00 0. -1.
         -1    1    6    6    0  501 -0.14002582429E+02  0.15062827852E+02 -0.15283378000E+02  0.25623089991E+02  0.00000000000E+00 0.  1.
          5    1    5    5  502    0 -0.52955096878E+02 -0.14361973355E+02 -0.26020864670E+02  0.60907174965E+02  0.47000000000E+01 0. -1.
         11    1    4    4    0    0  0.18041638491E+02 -0.40619081736E+02 -0.17103159251E+03  0.17671224111E+03  0.00000000000E+00 0. -1.
        -12    1    4    4    0    0  0.35758848569E+02 -0.83115936882E+02 -0.46494011378E+02  0.10172830141E+03  0.00000000000E+00 0.  1.
         -5    1    3    3    0  504 -0.17387489870E+02  0.24462967359E+02 -0.29054897092E+02  0.42036158495E+02  0.47000000000E+01 0.  1.
<mgrwt>
<rscale>  2 0.20840179E+03</rscale>
<asrwt>0</asrwt>
<pdfrwt beam="1">  1       21 0.24246421E-01 0.20964947E+03</pdfrwt>
<pdfrwt beam="2">  1       21 0.57630934E-01 0.20964947E+03</pdfrwt>
<totfact> 0.44969743E+04</totfact>
</mgrwt>
</event>
<event>
12    1  0.2743855E-001  0.1733314E+03  0.7546771E-02  0.1174447E+00
         21   -1    0    0  502  503  0.00000000000E+00  0.00000000000E+00  0.15211859879E+03  0.15211859879E+03  0.00000000000E+00 0. -1.
         21   -1    0    0  503  504 -0.00000000000E+00 -0.00000000000E+00 -0.22314605548E+03  0.22314605548E+03  0.00000000000E+00 0. -1.
         -6    2    1    2    0  504  0.10824983947E+02  0.80716695866E+01  0.28246223456E+02  0.17561781750E+03  0.17280461960E+03 0.  0.
        -24    2    3    3    0    0 -0.38255013432E+02 -0.37511848579E+02 -0.10827668768E+02  0.97928935894E+02  0.81254250583E+02 0.  0.
          6    2    1    2  502    0 -0.10824983947E+02 -0.80716695866E+01 -0.99273680140E+02  0.19964683678E+03  0.17268834280E+03 0.  0.
         24    2    5    5    0    0  0.57090709463E+02  0.17419722023E+02 -0.64310406368E+02  0.11898164620E+03  0.80361731833E+02 0.  0.
          2    1    6    6  501    0  0.27361240737E+02  0.25664955984E+02  0.97427578889E+01  0.38758854364E+02  0.00000000000E+00 0. -1.
         -1    1    6    6    0  501  0.29729468726E+02 -0.82452339609E+01 -0.74053164257E+02  0.80222791838E+02  0.00000000000E+00 0.  1.
          5    1    5    5  502    0 -0.67915693410E+02 -0.25491391609E+02 -0.34963273773E+02  0.80665190575E+02  0.47000000000E+01 0. -1.
         13    1    4    4    0    0  0.13407137546E+02  0.53178200888E+01  0.19526777020E+02  0.24276028680E+02  0.00000000000E+00 0. -1.
        -14    1    4    4    0    0 -0.51662150978E+02 -0.42829668668E+02 -0.30354445788E+02  0.73652907214E+02  0.00000000000E+00 0.  1.
         -5    1    3    3    0  504  0.49079997379E+02  0.45583518166E+02  0.39073892224E+02  0.77688881602E+02  0.47000000000E+01 0.  1.
<mgrwt>
<rscale>  2 0.17330240E+03</rscale>
<asrwt>0</asrwt>
<pdfrwt beam="1">  1       21 0.23402861E-01 0.17333138E+03</pdfrwt>
<pdfrwt beam="2">  1       21 0.34330162E-01 0.17333138E+03</pdfrwt>
<totfact> 0.14133469E+05</totfact>
</mgrwt>
</event>
<event>
12    1  0.2743855E-001  0.1760570E+03  0.7546771E-02  0.1171879E+00
         21   -1    0    0  502  503  0.00000000000E+00  0.00000000000E+00  0.37447827998E+03  0.37447827998E+03  0.00000000000E+00 0.  1.
         21   -1    0    0  503  504 -0.00000000000E+00 -0.00000000000E+00 -0.22170208143E+03  0.22170208143E+03  0.00000000000E+00 0. -1.
         -6    2    1    2    0  504  0.25640371236E+02  0.12234794062E+02 -0.15984465209E+03  0.23779480679E+03  0.17374964320E+03 0.  0.
        -24    2    3    3    0    0 -0.42473119855E+02  0.59106285063E+01 -0.39485107544E+02  0.99274220950E+02  0.80357922995E+02 0.  0.
          6    2    1    2  502    0 -0.25640371236E+02 -0.12234794062E+02  0.31262085063E+03  0.35838555462E+03  0.17291989674E+03 0.  0.
         24    2    5    5    0    0  0.35183686321E+02 -0.20911138001E+02  0.26438413866E+03  0.28013138346E+03  0.83062938487E+02 0.  0.
          4    1    6    6  501    0  0.44690088534E+02  0.13637920096E+02  0.83058733162E+02  0.95299265644E+02  0.00000000000E+00 0. -1.
         -3    1    6    6    0  501 -0.95064022127E+01 -0.34549058097E+02  0.18132540550E+03  0.18483211782E+03  0.00000000000E+00 0.  1.
          5    1    5    5  502    0 -0.60824057558E+02  0.86763439395E+01  0.48236711972E+02  0.78254171159E+02  0.47000000000E+01 0. -1.
         11    1    4    4    0    0 -0.37114834635E+02  0.40976489021E+02 -0.19934330984E+02  0.58770410534E+02  0.00000000000E+00 0. -1.
        -12    1    4    4    0    0 -0.53582852191E+01 -0.35065860515E+02 -0.19550776560E+02  0.40503810416E+02  0.00000000000E+00 0.  1.
         -5    1    3    3    0  504  0.68113491091E+02  0.63241655555E+01 -0.12035954454E+03  0.13852058584E+03  0.47000000000E+01 0.  1.
<mgrwt>
<rscale>  2 0.17585191E+03</rscale>
<asrwt>0</asrwt>
<pdfrwt beam="1">  1       21 0.57612043E-01 0.17605697E+03</pdfrwt>
<pdfrwt beam="2">  1       21 0.34108012E-01 0.17605697E+03</pdfrwt>
<totfact> 0.23636537E+04</totfact>
</mgrwt>
</event>
<event>
12    1  0.2743855E-001  0.2027987E+03  0.7546771E-02  0.1147498E+00
         21   -1    0    0  502  503  0.00000000000E+00  0.00000000000E+00  0.26942019528E+02  0.26942019528E+02  0.00000000000E+00 0. -1.
         21   -1    0    0  503  504 -0.00000000000E+00 -0.00000000000E+00 -0.21863992805E+04  0.21863992805E+04  0.00000000000E+00 0.  1.
         -6    2    1    2    0  504  0.83184198921E+01 -0.10482270910E+03 -0.16902372333E+04  0.17023598936E+04  0.17340791823E+03 0.  0.
        -24    2    3    3    0    0 -0.28763260707E+02 -0.95145841169E+01 -0.46383544434E+03  0.47169254307E+03  0.80204010427E+02 0.  0.
          6    2    1    2  502    0 -0.83184198921E+01  0.10482270910E+03 -0.46922002768E+03  0.51098140642E+03  0.17285128544E+03 0.  0.
         24    2    5    5    0    0 -0.29111981826E+01  0.10828945901E+03 -0.19854330549E+03  0.24018769464E+03  0.80843073271E+02 0.  0.
          4    1    6    6  501    0  0.67305073065E+01  0.11330630314E+03 -0.13803056709E+03  0.17870661854E+03  0.00000000000E+00 0. -1.
         -3    1    6    6    0  501 -0.96417054891E+01 -0.50168441307E+01 -0.60512738399E+02  0.61481076100E+02  0.00000000000E+00 0.  1.
          5    1    5    5  502    0 -0.54072217095E+01 -0.34667499113E+01 -0.27067672220E+03  0.27079371178E+03  0.47000000000E+01 0. -1.
         13    1    4    4    0    0 -0.13133673680E+02 -0.41627141407E+02 -0.16295371400E+03  0.16869862238E+03  0.00000000000E+00 0. -1.
        -14    1    4    4    0    0 -0.15629587027E+02  0.32112557290E+02 -0.30088173034E+03  0.30299392069E+03  0.00000000000E+00 0.  1.
         -5    1    3    3    0  504  0.37081680600E+02 -0.95308124983E+02 -0.12264017890E+04  0.12306673506E+04  0.47000000000E+01 0.  1.
<mgrwt>
<rscale>  2 0.20267963E+03</rscale>
<asrwt>0</asrwt>
<pdfrwt beam="1">  1       21 0.41449265E-02 0.20279867E+03</pdfrwt>
<pdfrwt beam="2">  1       21 0.33636909E+00 0.20279867E+03</pdfrwt>
<totfact> 0.76698025E+03</totfact>
</mgrwt>
</event>
<event>
12    1  0.2743855E-001  0.2232514E+03  0.7546771E-02  0.1131708E+00
         21   -1    0    0  502  503  0.00000000000E+00  0.00000000000E+00  0.15491980155E+04  0.15491980155E+04  0.00000000000E+00 0.  1.
         21   -1    0    0  503  504 -0.00000000000E+00 -0.00000000000E+00 -0.32695013392E+02  0.32695013392E+02  0.00000000000E+00 0.  1.
         -6    2    1    2    0  504  0.84877009816E+02  0.11587298928E+03  0.64043034786E+03  0.67782197662E+03  0.16929543732E+03 0.  0.
        -24    2    3    3    0    0 -0.11603574736E+02  0.42617464885E+02  0.38202133007E+03  0.39238864724E+03  0.77959365021E+02 0.  0.
          6    2    1    2  502    0 -0.84877009816E+02 -0.11587298928E+03  0.87607265428E+03  0.90407105229E+03  0.17091084104E+03 0.  0.
         24    2    5    5    0    0 -0.93704615440E+02 -0.13909039299E+03  0.63850050037E+03  0.66515769400E+03  0.81395187480E+02 0.  0.
          2    1    6    6  501    0 -0.71347266753E+02 -0.69732359855E+02  0.23771673120E+03  0.25780279048E+03  0.00000000000E+00 0. -1.
         -1    1    6    6    0  501 -0.22357348687E+02 -0.69358033139E+02  0.40078376917E+03  0.40735490353E+03  0.00000000000E+00 0.  1.
          5    1    5    5  502    0  0.88276056249E+01  0.23217403718E+02  0.23757215391E+03  0.23891335829E+03  0.47000000000E+01 0. -1.
         13    1    4    4    0    0  0.84841071672E+01 -0.59025516688E+01  0.45681317622E+01  0.11299912319E+02  0.00000000000E+00 0. -1.
        -14    1    4    4    0    0 -0.20087681903E+02  0.48520016554E+02  0.37745319831E+03  0.38108873493E+03  0.00000000000E+00 0.  1.
         -5    1    3    3    0  504  0.96480584552E+02  0.73255524391E+02  0.25840901778E+03  0.28543332938E+03  0.47000000000E+01 0.  1.
<mgrwt>
<rscale>  2 0.22294216E+03</rscale>
<asrwt>0</asrwt>
<pdfrwt beam="1">  1       21 0.23833810E+00 0.22325137E+03</pdfrwt>
<pdfrwt beam="2">  1       21 0.50300033E-02 0.22325137E+03</pdfrwt>
<totfact> 0.20249317E+04</totfact>
</mgrwt>
</event>
<event>
12    1  0.2743855E-001  0.1815985E+03  0.7546771E-02  0.1166726E+00
         21   -1    0    0  502  503  0.00000000000E+00  0.00000000000E+00  0.45211853345E+03  0.45211853345E+03  0.00000000000E+00 0.  1.
         21   -1    0    0  503  504 -0.00000000000E+00 -0.00000000000E+00 -0.84849143111E+02  0.84849143111E+02  0.00000000000E+00 0.  1.
         -6    2    1    2    0  504 -0.42258958718E+02 -0.26747499888E+02  0.79033215798E+02  0.19629466837E+03  0.17258070369E+03 0.  0.
        -24    2    3    3    0    0 -0.94127188202E+02 -0.18983288614E+02  0.66937720906E+02  0.14226701616E+03  0.80863790419E+02 0.  0.
          6    2    1    2  502    0  0.42258958718E+02  0.26747499888E+02  0.28823617454E+03  0.34067300819E+03  0.17457593722E+03 0.  0.
         24    2    5    5    0    0  0.27537677822E+02  0.64909739194E+02  0.27901886750E+03  0.29848152364E+03  0.79171292704E+02 0.  0.
          4    1    6    6  501    0 -0.20685580138E+02  0.49749350837E+02  0.11809622414E+03  0.12980604489E+03  0.00000000000E+00 0. -1.
         -3    1    6    6    0  501  0.48223257959E+02  0.15160388358E+02  0.16092264336E+03  0.16867547874E+03  0.00000000000E+00 0.  1.
          5    1    5    5  502    0  0.14721280896E+02 -0.38162239306E+02  0.92173070369E+01  0.42191484557E+02  0.47000000000E+01 0. -1.
         13    1    4    4    0    0 -0.91773775266E+02 -0.21603651842E+02  0.83129448614E+02  0.12569665400E+03  0.00000000000E+00 0. -1.
        -14    1    4    4    0    0 -0.23534129358E+01  0.26203632274E+01 -0.16191727709E+02  0.16570362159E+02  0.00000000000E+00 0.  1.
         -5    1    3    3    0  504  0.51868229484E+02 -0.77642112740E+01  0.12095494893E+02  0.54027652209E+02  0.47000000000E+01 0.  1.
<mgrwt>
<rscale>  2 0.18111726E+03</rscale>
<asrwt>0</asrwt>
<pdfrwt beam="1">  1       21 0.69556696E-01 0.18159848E+03</pdfrwt>
<pdfrwt beam="2">  1       21 0.13053715E-01 0.18159848E+03</pdfrwt>
<totfact> 0.95219234E+04</totfact>
</mgrwt>
</event>
<event>
12    1  0.2743855E-001  0.2233187E+03  0.7546771E-02  0.1131480E+00
         21   -1    0    0  502  503  0.00000000000E+00  0.00000000000E+00  0.74991197147E+02  0.74991197147E+02  0.00000000000E+00 0.  1.
         21   -1    0    0  503  504 -0.00000000000E+00 -0.00000000000E+00 -0.17973730183E+04  0.17973730183E+04  0.00000000000E+00 0.  1.
         -6    2    1    2    0  504 -0.76972978424E+02 -0.11792735186E+03 -0.16047010928E+04  0.16201656838E+04  0.17331920308E+03 0.  0.
        -24    2    3    3    0    0  0.13000482673E+01 -0.11072893285E+03 -0.83195748120E+03  0.84342038247E+03  0.83319291537E+02 0.  0.
          6    2    1    2  502    0  0.76972978424E+02  0.11792735186E+03 -0.11768072836E+03  0.25219853160E+03  0.17298452472E+03 0.  0.
         24    2    5    5    0    0  0.36784992160E+02 -0.11283342207E+02 -0.55288895000E+02  0.10311698154E+03  0.78075607662E+02 0.  0.
          2    1    6    6  501    0  0.31461122033E+02 -0.43260993610E+02 -0.42293954033E+02  0.68191600036E+02  0.00000000000E+00 0. -1.
         -1    1    6    6    0  501  0.53238701269E+01  0.31977651403E+02 -0.12994940968E+02  0.34925381503E+02  0.00000000000E+00 0.  1.
          5    1    5    5  502    0  0.40187986263E+02  0.12921069406E+03 -0.62391833355E+02  0.14908155006E+03  0.47000000000E+01 0. -1.
         13    1    4    4    0    0 -0.13526151905E+02 -0.11206500164E+03 -0.80265680750E+03  0.81055503947E+03  0.00000000000E+00 0. -1.
        -14    1    4    4    0    0  0.14826200172E+02  0.13360687895E+01 -0.29300673699E+02  0.32865343001E+02  0.00000000000E+00 0.  1.
         -5    1    3    3    0  504 -0.78273026691E+02 -0.71984190014E+01 -0.77274361157E+03  0.77674530134E+03  0.47000000000E+01 0.  1.
<mgrwt>
<rscale>  2 0.22325377E+03</rscale>
<asrwt>0</asrwt>
<pdfrwt beam="1">  1       21 0.11537108E-01 0.22331871E+03</pdfrwt>
<pdfrwt beam="2">  1       21 0.27651891E+00 0.22331871E+03</pdfrwt>
<totfact> 0.28367687E+03</totfact>
</mgrwt>
</event>
<event>
12    1  0.2743855E-001  0.1951965E+03  0.7546771E-02  0.1155501E+00
         21   -1    0    0  502  503  0.00000000000E+00  0.00000000000E+00  0.14451454473E+02  0.14451454473E+02  0.00000000000E+00 0.  1.
         21   -1    0    0  503  504 -0.00000000000E+00 -0.00000000000E+00 -0.25444086026E+04  0.25444086026E+04  0.00000000000E+00 0.  1.
         -6    2    1    2    0  504  0.59664548962E+02 -0.38547123882E+02 -0.12227562662E+04  0.12382384873E+04  0.18181288649E+03 0.  0.
        -24    2    3    3    0    0 -0.33995997505E+02 -0.43978342528E+02 -0.46833532314E+03  0.47799191845E+03  0.77771953429E+02 0.  0.
          6    2    1    2  502    0 -0.59664548962E+02  0.38547123882E+02 -0.13072008819E+04  0.13206215698E+04  0.17384316417E+03 0.  0.
         24    2    5    5    0    0  0.84494316292E+01 -0.15379427497E+02 -0.92412006338E+03  0.92778497420E+03  0.80493149586E+02 0.  0.
          4    1    6    6  501    0  0.34781735691E+02  0.17205360175E+01 -0.75322689812E+03  0.75403149101E+03  0.00000000000E+00 0. -1.
         -3    1    6    6    0  501 -0.26332304062E+02 -0.17099963515E+02 -0.17089316526E+03  0.17375348320E+03  0.00000000000E+00 0.  1.
          5    1    5    5  502    0 -0.68113980591E+02  0.53926551379E+02 -0.38308081854E+03  0.39283659558E+03  0.47000000000E+01 0. -1.
         13    1    4    4    0    0 -0.16312368322E+02 -0.77367937949E+01 -0.38489339369E+03  0.38531659171E+03  0.00000000000E+00 0. -1.
        -14    1    4    4    0    0 -0.17683629183E+02 -0.36241548733E+02 -0.83441929451E+02  0.92675326739E+02  0.00000000000E+00 0.  1.
         -5    1    3    3    0  504  0.93660546467E+02  0.54312186467E+01 -0.75442094310E+03  0.76024656887E+03  0.47000000000E+01 0.  1.
<mgrwt>
<rscale>  2 0.19331935E+03</rscale>
<asrwt>0</asrwt>
<pdfrwt beam="1">  1       21 0.22233027E-02 0.19519648E+03</pdfrwt>
<pdfrwt beam="2">  1       21 0.39144712E+00 0.19519648E+03</pdfrwt>
<totfact> 0.10159479E+04</totfact>
</mgrwt>
</event>
<event>
12    1  0.2743855E-001  0.2550386E+03  0.7546771E-02  0.1110453E+00
         21   -1    0    0  502  503  0.00000000000E+00  0.00000000000E+00  0.47750692123E+03  0.47750692123E+03  0.00000000000E+00 0.  1.
         21   -1    0    0  503  504 -0.00000000000E+00 -0.00000000000E+00 -0.12914548864E+04  0.12914548864E+04  0.00000000000E+00 0.  1.
         -6    2    1    2    0  504 -0.13064693456E+03 -0.13156144564E+03 -0.12440321269E+04  0.12699057508E+04  0.17512180804E+03 0.  0.
        -24    2    3    3    0    0 -0.82212058338E+02 -0.10782005723E+03 -0.50436309372E+03  0.52825761360E+03  0.79309449269E+02 0.  0.
          6    2    1    2  502    0  0.13064693456E+03  0.13156144564E+03  0.43008416172E+03  0.49905605684E+03  0.17235871378E+03 0.  0.
         24    2    5    5    0    0  0.74704730082E+02  0.13178620035E+03  0.20938624847E+03  0.27132981841E+03  0.82636977258E+02 0.  0.
          4    1    6    6  501    0  0.65390793678E+02  0.13703633051E+03  0.15912796016E+03  0.21994685604E+03  0.00000000000E+00 0. -1.
         -3    1    6    6    0  501  0.93139364042E+01 -0.52501301596E+01  0.50258288309E+02  0.51382962368E+02  0.00000000000E+00 0.  1.
          5    1    5    5  502    0  0.55942204476E+02 -0.22475470601E+00  0.22069791325E+03  0.22772623843E+03  0.47000000000E+01 0. -1.
         13    1    4    4    0    0 -0.36790253409E+02 -0.14027629912E+02 -0.59476518898E+02  0.71328489729E+02  0.00000000000E+00 0. -1.
        -14    1    4    4    0    0 -0.45421804929E+02 -0.93792427316E+02 -0.44488657483E+03  0.45692912387E+03  0.00000000000E+00 0.  1.
         -5    1    3    3    0  504 -0.48434876221E+02 -0.23741388412E+02 -0.73966903316E+03  0.74164813717E+03  0.47000000000E+01 0.  1.
<mgrwt>
<rscale>  2 0.25456495E+03</rscale>
<asrwt>0</asrwt>
<pdfrwt beam="1">  1       21 0.73462605E-01 0.25503859E+03</pdfrwt>
<pdfrwt beam="2">  1       21 0.19868536E+00 0.25503859E+03</pdfrwt>
<totfact> 0.21203552E+02</totfact>
</mgrwt>
</event>
<event>
12    1  0.2743855E-001  0.1748470E+03  0.7546771E-02  0.1173065E+00
         21   -1    0    0  502  503  0.00000000000E+00  0.00000000000E+00  0.16256631099E+04  0.16256631099E+04  0.00000000000E+00 0.  1.
         21   -1    0    0  503  504 -0.00000000000E+00 -0.00000000000E+00 -0.21174384934E+02  0.21174384934E+02  0.00000000000E+00 0.  1.
         -6    2    1    2    0  504 -0.17407789563E+02  0.24083920375E+01  0.10835214358E+04  0.10975382416E+04  0.17396165787E+03 0.  0.
        -24    2    3    3    0    0  0.23784842682E+02 -0.48975708581E+02  0.44951938439E+03  0.46010757873E+03  0.81651505151E+02 0.  0.
          6    2    1    2  502    0  0.17407789563E+02 -0.24083920375E+01  0.52096728920E+03  0.54929925328E+03  0.17324526474E+03 0.  0.
         24    2    5    5    0    0 -0.20477638307E+02  0.58654370164E+02  0.27849906381E+03  0.29636270611E+03  0.80059079567E+02 0.  0.
          2    1    6    6  501    0  0.15727830229E+02  0.36583307908E+02  0.49786075414E+02  0.63752304793E+02  0.00000000000E+00 0. -1.
         -1    1    6    6    0  501 -0.36205468536E+02  0.22071062255E+02  0.22871298840E+03  0.23261040132E+03  0.00000000000E+00 0.  1.
          5    1    5    5  502    0  0.37885427871E+02 -0.61062762201E+02  0.24246822539E+03  0.25293654717E+03  0.47000000000E+01 0. -1.
         11    1    4    4    0    0  0.54791048240E+01  0.13077724371E+02  0.24912728015E+03  0.24953045742E+03  0.00000000000E+00 0. -1.
        -12    1    4    4    0    0  0.18305737858E+02 -0.62053432953E+02  0.20039210423E+03  0.21057712131E+03  0.00000000000E+00 0.  1.
         -5    1    3    3    0  504 -0.41192632245E+02  0.51384100619E+02  0.63400205141E+03  0.63743066285E+03  0.47000000000E+01 0.  1.
<mgrwt>
<rscale>  2 0.17466859E+03</rscale>
<asrwt>0</asrwt>
<pdfrwt beam="1">  1       21 0.25010192E+00 0.17484705E+03</pdfrwt>
<pdfrwt beam="2">  1       21 0.32575990E-02 0.17484705E+03</pdfrwt>
<totfact> 0.37196187E+04</totfact>
</mgrwt>
</event>
<event>
12    1  0.2743855E-001  0.1941319E+03  0.7546771E-02  0.1154942E+00
         21   -1    0    0  502  503  0.00000000000E+00  0.00000000000E+00  0.10931160730E+04  0.10931160730E+04  0.00000000000E+00 0. -1.
         21   -1    0    0  503  504 -0.00000000000E+00 -0.00000000000E+00 -0.34554214414E+02  0.34554214414E+02  0.00000000000E+00 0.  1.
         -6    2    1    2    0  504 -0.75346701764E+02 -0.42233448399E+02  0.57149698280E+03  0.60334271154E+03  0.17306887816E+03 0.  0.
        -24    2    3    3    0    0 -0.32244159278E+02 -0.68631639275E+02  0.51730135337E+03  0.52908673602E+03  0.81130119696E+02 0.  0.
          6    2    1    2  502    0  0.75346701764E+02  0.42233448399E+02  0.48706487574E+03  0.52432757583E+03  0.17385748177E+03 0.  0.
         24    2    5    5    0    0  0.94773733109E+02  0.82182016470E+02  0.30303828731E+03  0.33495711117E+03  0.68030275812E+02 0.  0.
          4    1    6    6  501    0  0.11608077221E+02  0.49534083840E+02  0.14133531506E+03  0.15021332897E+03  0.00000000000E+00 0. -1.
         -3    1    6    6    0  501  0.83165655887E+02  0.32647932630E+02  0.16170297226E+03  0.18474378220E+03  0.00000000000E+00 0.  1.
          5    1    5    5  502    0 -0.19427031345E+02 -0.39948568071E+02  0.18402658842E+03  0.18937046466E+03  0.47000000000E+01 0. -1.
         13    1    4    4    0    0  0.10926430523E+02 -0.55346979504E+02  0.17628531745E+03  0.18509237740E+03  0.00000000000E+00 0. -1.
        -14    1    4    4    0    0 -0.43170589801E+02 -0.13284659771E+02  0.34101603592E+03  0.34399435862E+03  0.00000000000E+00 0.  1.
         -5    1    3    3    0  504 -0.43102542486E+02  0.26398190876E+02  0.54195629434E+02  0.74255975517E+02  0.47000000000E+01 0.  1.
<mgrwt>
<rscale>  2 0.19395523E+03</rscale>
<asrwt>0</asrwt>
<pdfrwt beam="1">  1       21 0.16817168E+00 0.19413195E+03</pdfrwt>
<pdfrwt beam="2">  1       21 0.53160338E-02 0.19413195E+03</pdfrwt>
<totfact> 0.53238221E+04</totfact>
</mgrwt>
</event>
<event>
12    1  0.2743855E-001  0.1906744E+03  0.7546771E-02  0.1157910E+00
         21   -1    0    0  502  503  0.00000000000E+00  0.00000000000E+00  0.17018862148E+02  0.17018862148E+02  0.00000000000E+00 0. -1.
         21   -1    0    0  503  504 -0.00000000000E+00 -0.00000000000E+00 -0.25513634123E+04  0.25513634123E+04  0.00000000000E+00 0. -1.
         -6    2    1    2    0  504  0.38852802903E+02 -0.77753619667E+02 -0.17862033354E+04  0.17963252797E+04  0.16943137032E+03 0.  0.
        -24    2    3    3    0    0 -0.15871756498E+02  0.10165541185E+02 -0.61253268917E+03  0.61808530746E+03  0.80485409312E+02 0.  0.
          6    2    1    2  502    0 -0.38852802903E+02  0.77753619667E+02 -0.74814121475E+03  0.77205699479E+03  0.16971022462E+03 0.  0.
         24    2    5    5    0    0  0.78662437505E+01  0.10599050046E+03 -0.47085892605E+03  0.48941314048E+03  0.80754132118E+02 0.  0.
          2    1    6    6  501    0  0.32379856573E+01  0.11931281682E+03 -0.42368617452E+03  0.44017724530E+03  0.00000000000E+00 0. -1.
         -1    1    6    6    0  501  0.46282580932E+01 -0.13322316362E+02 -0.47172751537E+02  0.49235895176E+02  0.00000000000E+00 0.  1.
          5    1    5    5  502    0 -0.46719046653E+02 -0.28236880789E+02 -0.27728228869E+03  0.28264385431E+03  0.47000000000E+01 0. -1.
         13    1    4    4    0    0 -0.40781662569E+01 -0.10564090991E+02 -0.56295993953E+03  0.56307381841E+03  0.00000000000E+00 0. -1.
        -14    1    4    4    0    0 -0.11793590241E+02  0.20729632176E+02 -0.49572749641E+02  0.55011489053E+02  0.00000000000E+00 0.  1.
         -5    1    3    3    0  504  0.54724559400E+02 -0.87919160852E+02 -0.11736706463E+04  0.11782399722E+04  0.47000000000E+01 0.  1.
<mgrwt>
<rscale>  2 0.19061233E+03</rscale>
<asrwt>0</asrwt>
<pdfrwt beam="1">  1       21 0.26182865E-02 0.19067440E+03</pdfrwt>
<pdfrwt beam="2">  1       21 0.39251745E+00 0.19067440E+03</pdfrwt>
<totfact> 0.76972908E+03</totfact>
</mgrwt>
</event>
<event>
12    1  0.2743855E-001  0.2303294E+03  0.7546771E-02  0.1126790E+00
         21   -1    0    0  502  503  0.00000000000E+00  0.00000000000E+00  0.15512492474E+03  0.15512492474E+03  0.00000000000E+00 0.  1.
         21   -1    0    0  503  504 -0.00000000000E+00 -0.00000000000E+00 -0.46012116266E+03  0.46012116266E+03  0.00000000000E+00 0. -1.
         -6    2    1    2    0  504 -0.14651454744E+03  0.27771176877E+02  0.60020810402E+01  0.22824272985E+03  0.17268748616E+03 0.  0.
        -24    2    3    3    0    0 -0.87943659035E+02  0.39736154352E+02  0.67121214494E+02  0.14261943788E+03  0.80758884946E+02 0.  0.
          6    2    1    2  502    0  0.14651454744E+03 -0.27771176877E+02 -0.31099831896E+03  0.38700335754E+03  0.17553886600E+03 0.  0.
         24    2    5    5    0    0  0.42812673318E+02 -0.67087603351E+02 -0.11358210951E+03  0.16051912003E+03  0.80819680617E+02 0.  0.
          4    1    6    6  501    0  0.62098813244E+02 -0.66813440032E+02 -0.10587271938E+03  0.13974738311E+03  0.00000000000E+00 0. -1.
         -3    1    6    6    0  501 -0.19286139926E+02 -0.27416331895E+00 -0.77093901252E+01  0.20771736925E+02  0.00000000000E+00 0.  1.
          5    1    5    5  502    0  0.10370187412E+03  0.39316426474E+02 -0.19741620945E+03  0.22648423751E+03  0.47000000000E+01 0. -1.
         13    1    4    4    0    0 -0.33556809935E+02  0.16184422381E+02 -0.15988630700E+02  0.40541723354E+02  0.00000000000E+00 0. -1.
        -14    1    4    4    0    0 -0.54386849101E+02  0.23551731971E+02  0.83109845195E+02  0.10207771452E+03  0.00000000000E+00 0.  1.
         -5    1    3    3    0  504 -0.58570888406E+02 -0.11964977475E+02 -0.61119133454E+02  0.85623291976E+02  0.47000000000E+01 0.  1.
<mgrwt>
<rscale>  2 0.22978610E+03</rscale>
<asrwt>0</asrwt>
<pdfrwt beam="1">  1       21 0.23865373E-01 0.23032943E+03</pdfrwt>
<pdfrwt beam="2">  1       21 0.70787872E-01 0.23032943E+03</pdfrwt>
<totfact> 0.29321046E+04</totfact>
</mgrwt>
</event>
<event>
12    1  0.2743855E-001  0.1984394E+03  0.7546771E-02  0.1151333E+00
         21   -1    0    0  502  503  0.00000000000E+00  0.00000000000E+00  0.27720764134E+03  0.27720764134E+03  0.00000000000E+00 0. -1.
         21   -1    0    0  503  504 -0.00000000000E+00 -0.00000000000E+00 -0.18784874302E+03  0.18784874302E+03  0.00000000000E+00 0. -1.
         -6    2    1    2    0  504 -0.77429603859E+02 -0.53553639273E+02 -0.71151952196E+02  0.21080985366E+03  0.17468502588E+03 0.  0.
        -24    2    3    3    0    0 -0.25581721135E+02 -0.88138669562E+02 -0.96942964405E+01  0.12315450178E+03  0.81548773110E+02 0.  0.
          6    2    1    2  502    0  0.77429603859E+02  0.53553639273E+02  0.16051085052E+03  0.25424653069E+03  0.17324615263E+03 0.  0.
         24    2    5    5    0    0  0.98280869374E+02  0.47920765014E+00  0.14111478509E+03  0.19383156633E+03  0.89431172457E+02 0.  0.
          4    1    6    6  501    0  0.69518857275E+02  0.93260150037E+01  0.14726650712E+03  0.16311735098E+03  0.00000000000E+00 0. -1.
         -3    1    6    6    0  501  0.28762012099E+02 -0.88468073536E+01 -0.61517220230E+01  0.30714215343E+02  0.00000000000E+00 0.  1.
          5    1    5    5  502    0 -0.20851265514E+02  0.53074431623E+02  0.19396065425E+02  0.60414964369E+02  0.47000000000E+01 0. -1.
         13    1    4    4    0    0 -0.38118181354E+02 -0.96845995719E+01 -0.18037565736E+02  0.43268244664E+02  0.00000000000E+00 0. -1.
        -14    1    4    4    0    0  0.12536460218E+02 -0.78454069990E+02  0.83432692959E+01  0.79886257112E+02  0.00000000000E+00 0.  1.
         -5    1    3    3    0  504 -0.51847882724E+02  0.34585030288E+02 -0.61457655756E+02  0.87655351884E+02  0.47000000000E+01 0.  1.
<mgrwt>
<rscale>  2 0.19812227E+03</rscale>
<asrwt>0</asrwt>
<pdfrwt beam="1">  1       21 0.42647329E-01 0.19843940E+03</pdfrwt>
<pdfrwt beam="2">  1       21 0.28899807E-01 0.19843940E+03</pdfrwt>
<totfact> 0.60445473E+04</totfact>
</mgrwt>
</event>
<event>
12    1  0.2743855E-001  0.2059679E+03  0.7546771E-02  0.1144824E+00
         21   -1    0    0  502  503  0.00000000000E+00  0.00000000000E+00  0.58365688869E+03  0.58365688869E+03  0.00000000000E+00 0.  1.
         21   -1    0    0  503  504 -0.00000000000E+00 -0.00000000000E+00 -0.12030119479E+03  0.12030119479E+03  0.00000000000E+00 0.  1.
         -6    2    1    2    0  504 -0.35872558581E+02 -0.10603918330E+03  0.10093746390E+02  0.20609346635E+03  0.17274687928E+03 0.  0.
        -24    2    3    3    0    0 -0.34815800910E+01 -0.13269194027E+03  0.33130449841E+02  0.15800682945E+03  0.79052255087E+02 0.  0.
          6    2    1    2  502    0  0.35872558581E+02  0.10603918330E+03  0.45326194751E+03  0.49786461713E+03  0.17289197518E+03 0.  0.
         24    2    5    5    0    0 -0.17217118174E+02  0.11837624954E+03  0.38050164522E+03  0.40683237795E+03  0.80135610814E+02 0.  0.
          4    1    6    6  501    0  0.31826970115E+01  0.12142491384E+03  0.29829827198E+03  0.32208073262E+03  0.00000000000E+00 0. -1.
         -3    1    6    6    0  501 -0.20399815186E+02 -0.30486642983E+01  0.82203373247E+02  0.84751645334E+02  0.00000000000E+00 0.  1.
          5    1    5    5  502    0  0.53089676755E+02 -0.12337066246E+02  0.72760302284E+02  0.91032239179E+02  0.47000000000E+01 0. -1.
         11    1    4    4    0    0 -0.18731560538E+02 -0.12418718285E+03  0.59900917736E+01  0.12573467678E+03  0.00000000000E+00 0. -1.
        -12    1    4    4    0    0  0.15249980447E+02 -0.85047574212E+01  0.27140358067E+02  0.32272152678E+02  0.00000000000E+00 0.  1.
         -5    1    3    3    0  504 -0.32390978490E+02  0.26652756976E+02 -0.23036703451E+02  0.48086636895E+02  0.47000000000E+01 0.  1.
<mgrwt>
<rscale>  2 0.20593747E+03</rscale>
<asrwt>0</asrwt>
<pdfrwt beam="1">  1       21 0.89793365E-01 0.20596792E+03</pdfrwt>
<pdfrwt beam="2">  1       21 0.18507877E-01 0.20596792E+03</pdfrwt>
<totfact> 0.27950661E+04</totfact>
</mgrwt>
</event>
<event>
12    1  0.2743855E-001  0.4642851E+03  0.7546771E-02  0.1023570E+00
         21   -1    0    0  502  503  0.00000000000E+00  0.00000000000E+00  0.12306571072E+04  0.12306571072E+04  0.00000000000E+00 0.  1.
         21   -1    0    0  503  504 -0.00000000000E+00 -0.00000000000E+00 -0.17695895857E+03  0.17695895857E+03  0.00000000000E+00 0. -1.
         -6    2    1    2    0  504 -0.42928011373E+03 -0.35948950325E+02  0.60051702415E+03  0.75906612191E+03  0.17316737012E+03 0.  0.
        -24    2    3    3    0    0 -0.14013664440E+03  0.32376254783E+02  0.17383219624E+03  0.23911005466E+03  0.79180078381E+02 0.  0.
          6    2    1    2  502    0  0.42928011373E+03  0.35948950325E+02  0.45318112447E+03  0.64854994385E+03  0.17225026856E+03 0.  0.
         24    2    5    5    0    0  0.39268357308E+03  0.77224291991E+02  0.39020170270E+03  0.56469615334E+03  0.80376594622E+02 0.  0.
          4    1    6    6  501    0  0.28310429454E+03  0.21928915817E+02  0.24962421921E+03  0.37807561380E+03  0.00000000000E+00 0. -1.
         -3    1    6    6    0  501  0.10957927854E+03  0.55295376174E+02  0.14057748349E+03  0.18662053954E+03  0.00000000000E+00 0.  1.
          5    1    5    5  502    0  0.36596540649E+02 -0.41275341666E+02  0.62979421767E+02  0.83853790512E+02  0.47000000000E+01 0. -1.
         11    1    4    4    0    0 -0.14047929951E+03  0.14453420109E+02  0.13078163729E+03  0.19247641828E+03  0.00000000000E+00 0. -1.
        -12    1    4    4    0    0  0.34265511290E+00  0.17922834674E+02  0.43050558956E+02  0.46633636377E+02  0.00000000000E+00 0.  1.
         -5    1    3    3    0  504 -0.28914346933E+03 -0.68325205108E+02  0.42668482790E+03  0.51995606725E+03  0.47000000000E+01 0.  1.
<mgrwt>
<rscale>  2 0.46419979E+03</rscale>
<asrwt>0</asrwt>
<pdfrwt beam="1">  1       21 0.18933186E+00 0.46428513E+03</pdfrwt>
<pdfrwt beam="2">  1       21 0.27224456E-01 0.46428513E+03</pdfrwt>
<totfact> 0.17034876E+03</totfact>
</mgrwt>
</event>
<event>
12    1  0.2743855E-001  0.2121810E+03  0.7546771E-02  0.1140008E+00
         21   -1    0    0  502  503  0.00000000000E+00  0.00000000000E+00  0.62663995913E+03  0.62663995913E+03  0.00000000000E+00 0. -1.
         21   -1    0    0  503  504 -0.00000000000E+00 -0.00000000000E+00 -0.79352517572E+02  0.79352517572E+02  0.00000000000E+00 0. -1.
         -6    2    1    2    0  504 -0.70539162237E+02 -0.10083396507E+03  0.38463655925E+03  0.43927904470E+03  0.17285119171E+03 0.  0.
        -24    2    3    3    0    0 -0.10782433242E+03 -0.44118520965E+02  0.22172665321E+03  0.26273286660E+03  0.79330447450E+02 0.  0.
          6    2    1    2  502    0  0.70539162237E+02  0.10083396507E+03  0.16265088230E+03  0.26671343200E+03  0.17186472406E+03 0.  0.
         24    2    5    5    0    0  0.74918498538E+02  0.64214781319E+01  0.12143008911E+03  0.16349453805E+03  0.79568716394E+02 0.  0.
          4    1    6    6  501    0 -0.48227535167E+01 -0.23624723250E+02  0.23315077884E+02  0.33540711931E+02  0.00000000000E+00 0. -1.
         -3    1    6    6    0  501  0.79741252054E+02  0.30046201382E+02  0.98115011222E+02  0.12995382612E+03  0.00000000000E+00 0.  1.
          5    1    5    5  502    0 -0.43793363004E+01  0.94412486939E+02  0.41220793198E+02  0.10321889395E+03  0.47000000000E+01 0. -1.
         11    1    4    4    0    0 -0.30315090986E+02 -0.43286054681E+02  0.14209744706E+03  0.15160597526E+03  0.00000000000E+00 0. -1.
        -12    1    4    4    0    0 -0.77509241432E+02 -0.83246628408E+00  0.79629206150E+02  0.11112689134E+03  0.00000000000E+00 0.  1.
         -5    1    3    3    0  504  0.37285170181E+02 -0.56715444106E+02  0.16290990604E+03  0.17654617810E+03  0.47000000000E+01 0.  1.
<mgrwt>
<rscale>  2 0.21198005E+03</rscale>
<asrwt>0</asrwt>
<pdfrwt beam="1">  1       21 0.96406144E-01 0.21218105E+03</pdfrwt>
<pdfrwt beam="2">  1       21 0.12208080E-01 0.21218105E+03</pdfrwt>
<totfact> 0.50430008E+04</totfact>
</mgrwt>
</event>
<event>
12    1  0.2743855E-001  0.1776336E+03  0.7546771E-02  0.1170301E+00
         21   -1    0    0  502  503  0.00000000000E+00  0.00000000000E+00  0.27760310623E+03  0.27760310623E+03  0.00000000000E+00 0.  1.
         21   -1    0    0  503  504 -0.00000000000E+00 -0.00000000000E+00 -0.13571766950E+03  0.13571766950E+03  0.00000000000E+00 0.  1.
         -6    2    1    2    0  504 -0.15186927986E+02  0.38522868431E+02 -0.13149141482E+02  0.17811963173E+03  0.17273983070E+03 0.  0.
        -24    2    3    3    0    0 -0.34556712722E+02 -0.41211611204E+02 -0.75406343227E+01  0.95740501144E+02  0.78846807806E+02 0.  0.
          6    2    1    2  502    0  0.15186927986E+02 -0.38522868431E+02  0.15503457822E+03  0.23520114400E+03  0.17195698160E+03 0.  0.
         24    2    5    5    0    0  0.74573461441E+02 -0.39241520585E+02  0.92527783047E+02  0.14885031158E+03  0.80584902642E+02 0.  0.
          4    1    6    6  501    0  0.72029754640E+02 -0.15143989916E+02  0.26024191575E+02  0.78069741457E+02  0.00000000000E+00 0. -1.
         -3    1    6    6    0  501  0.25437068005E+01 -0.24097530669E+02  0.66503591472E+02  0.70780570126E+02  0.00000000000E+00 0.  1.
          5    1    5    5  502    0 -0.59386533454E+02  0.71865215413E+00  0.62506795172E+02  0.86350832419E+02  0.47000000000E+01 0. -1.
         13    1    4    4    0    0  0.87952144744E+00 -0.50846031374E+02  0.14539101826E+02  0.52891189686E+02  0.00000000000E+00 0. -1.
        -14    1    4    4    0    0 -0.35436234169E+02  0.96344201697E+01 -0.22079736148E+02  0.42849311458E+02  0.00000000000E+00 0.  1.
         -5    1    3    3    0  504  0.19369784735E+02  0.79734479635E+02 -0.56085071589E+01  0.82379130585E+02  0.47000000000E+01 0.  1.
<mgrwt>
<rscale>  2 0.17744302E+03</rscale>
<asrwt>0</asrwt>
<pdfrwt beam="1">  1       21 0.42708170E-01 0.17763362E+03</pdfrwt>
<pdfrwt beam="2">  1       21 0.20879642E-01 0.17763362E+03</pdfrwt>
<totfact> 0.11292079E+05</totfact>
</mgrwt>
</event>
<event>
12    1  0.2743855E-001  0.2321306E+03  0.7546771E-02  0.1127641E+00
         21   -1    0    0  502  503  0.00000000000E+00  0.00000000000E+00  0.36976125476E+03  0.36976125476E+03  0.00000000000E+00 0.  1.
         21   -1    0    0  503  504 -0.00000000000E+00 -0.00000000000E+00 -0.14865826000E+03  0.14865826000E+03  0.00000000000E+00 0. -1.
         -6    2    1    2    0  504  0.10836428315E+03  0.10766637847E+03  0.35325685692E+02  0.22110177426E+03  0.15589491203E+03 0.  0.
        -24    2    3    3    0    0  0.59121329505E+02  0.84141573473E+02  0.78652708298E+02  0.15126191586E+03  0.78222648121E+02 0.  0.
          6    2    1    2  502    0 -0.10836428315E+03 -0.10766637847E+03  0.18577730906E+03  0.29731774049E+03  0.17478490591E+03 0.  0.
         24    2    5    5    0    0 -0.47937260491E+02  0.70311314766E+01  0.11581495319E+03  0.14992789995E+03  0.81962516114E+02 0.  0.
          2    1    6    6  501    0  0.20086399472E+02 -0.87947650896E+01  0.12555537785E+02  0.25267624855E+02  0.00000000000E+00 0. -1.
         -1    1    6    6    0  501 -0.68023659963E+02  0.15825896566E+02  0.10325941541E+03  0.12466027510E+03  0.00000000000E+00 0.  1.
          5    1    5    5  502    0 -0.60427022655E+02 -0.11469750995E+03  0.69962355872E+02  0.14738984054E+03  0.47000000000E+01 0. -1.
         13    1    4    4    0    0  0.32152093338E+02  0.82365090310E+02  0.26138801000E+02  0.92200879201E+02  0.00000000000E+00 0. -1.
        -14    1    4    4    0    0  0.26969236167E+02  0.17764831629E+01  0.52513907298E+02  0.59061036662E+02  0.00000000000E+00 0.  1.
         -5    1    3    3    0  504  0.49242953641E+02  0.23524805000E+02 -0.43327022606E+02  0.69839858401E+02  0.47000000000E+01 0.  1.
<mgrwt>
<rscale>  2 0.22858284E+03</rscale>
<asrwt>0</asrwt>
<pdfrwt beam="1">  1       21 0.56886346E-01 0.23213063E+03</pdfrwt>
<pdfrwt beam="2">  1       21 0.22870502E-01 0.23213063E+03</pdfrwt>
<totfact> 0.51151846E+04</totfact>
</mgrwt>
</event>
<event>
12    1  0.2743855E-001  0.2305708E+03  0.7546771E-02  0.1126429E+00
         21   -1    0    0  502  503  0.00000000000E+00  0.00000000000E+00  0.80155215428E+02  0.80155215428E+02  0.00000000000E+00 0. -1.
         21   -1    0    0  503  504 -0.00000000000E+00 -0.00000000000E+00 -0.72549305986E+03  0.72549305986E+03  0.00000000000E+00 0.  1.
         -6    2    1    2    0  504 -0.15112554899E+03  0.27815615031E+01 -0.20107069648E+03  0.30511235714E+03  0.17267732003E+03 0.  0.
        -24    2    3    3    0    0 -0.62618199821E+02  0.67976412507E+02 -0.10541077537E+03  0.15931513507E+03  0.75683876044E+02 0.  0.
          6    2    1    2  502    0  0.15112554899E+03 -0.27815615031E+01 -0.44426714795E+03  0.50053591815E+03  0.17411558795E+03 0.  0.
         24    2    5    5    0    0  0.17810334555E+01 -0.12663623481E+02 -0.17358540230E+03  0.19119446135E+03  0.79119471164E+02 0.  0.
          4    1    6    6  501    0  0.17622772972E+02 -0.16420003308E+02 -0.88573810918E+01  0.25663823481E+02  0.00000000000E+00 0. -1.
         -3    1    6    6    0  501 -0.15841739516E+02  0.37563798269E+01 -0.16472802121E+03  0.16553063787E+03  0.00000000000E+00 0.  1.
          5    1    5    5  502    0  0.14934451554E+03  0.98820619782E+01 -0.27068174564E+03  0.30934145680E+03  0.47000000000E+01 0. -1.
         11    1    4    4    0    0 -0.15664001748E+02  0.69166647605E+02 -0.75740639679E+02  0.10375948434E+03  0.00000000000E+00 0. -1.
        -12    1    4    4    0    0 -0.46954198074E+02 -0.11902350976E+01 -0.29670135688E+02  0.55555650730E+02  0.00000000000E+00 0.  1.
         -5    1    3    3    0  504 -0.88507349171E+02 -0.65194851004E+02 -0.95659921116E+02  0.14579722207E+03  0.47000000000E+01 0.  1.
<mgrwt>
<rscale>  2 0.23029931E+03</rscale>
<asrwt>0</asrwt>
<pdfrwt beam="1">  1       21 0.12331572E-01 0.23057083E+03</pdfrwt>
<pdfrwt beam="2">  1       21 0.11161432E+00 0.23057083E+03</pdfrwt>
<totfact> 0.34521940E+04</totfact>
</mgrwt>
</event>
<event>
12    1  0.2743855E-001  0.2222033E+03  0.7546771E-02  0.1132694E+00
         21   -1    0    0  502  503  0.00000000000E+00  0.00000000000E+00  0.12900878636E+03  0.12900878636E+03  0.00000000000E+00 0. -1.
         21   -1    0    0  503  504 -0.00000000000E+00 -0.00000000000E+00 -0.42523673909E+03  0.42523673909E+03  0.00000000000E+00 0.  1.
         -6    2    1    2    0  504  0.84584147268E+02  0.10711838180E+03 -0.24059555302E+03  0.32750654488E+03  0.17534392239E+03 0.  0.
        -24    2    3    3    0    0  0.80776648058E+00  0.10807513150E+03 -0.17519318437E+03  0.22111595708E+03  0.80738640633E+02 0.  0.
          6    2    1    2  502    0 -0.84584147268E+02 -0.10711838180E+03 -0.55632399708E+02  0.22673898057E+03  0.17229850761E+03 0.  0.
         24    2    5    5    0    0 -0.10581772068E+03 -0.12893919020E+03 -0.37025420410E+02  0.19074839850E+03  0.84801916230E+02 0.  0.
          4    1    6    6  501    0 -0.11562164040E+03 -0.13317779132E+03 -0.33649039937E+02  0.17954650016E+03  0.00000000000E+00 0. -1.
         -3    1    6    6    0  501  0.98039197257E+01  0.42386011198E+01 -0.33763804731E+01  0.11201898345E+02  0.00000000000E+00 0.  1.
          5    1    5    5  502    0  0.21233573411E+02  0.21820808399E+02 -0.18606979298E+02  0.35990582068E+02  0.47000000000E+01 0. -1.
         11    1    4    4    0    0 -0.29761648562E+02  0.25259837251E+02 -0.23378961252E+02  0.45501548680E+02  0.00000000000E+00 0. -1.
        -12    1    4    4    0    0  0.30569415042E+02  0.82815294245E+02 -0.15181422312E+03  0.17561440840E+03  0.00000000000E+00 0.  1.
         -5    1    3    3    0  504  0.83776380788E+02 -0.95674969593E+00 -0.65402368649E+02  0.10639058780E+03  0.47000000000E+01 0.  1.
<mgrwt>
<rscale>  2 0.22160208E+03</rscale>
<asrwt>0</asrwt>
<pdfrwt beam="1">  1       21 0.19847505E-01 0.22220332E+03</pdfrwt>
<pdfrwt beam="2">  1       21 0.65421038E-01 0.22220332E+03</pdfrwt>
<totfact> 0.49615934E+04</totfact>
</mgrwt>
</event>
<event>
12    1  0.2743855E-001  0.1766325E+03  0.7546771E-02  0.1171140E+00
         21   -1    0    0  502  503  0.00000000000E+00  0.00000000000E+00  0.15976217092E+03  0.15976217092E+03  0.00000000000E+00 0.  1.
         21   -1    0    0  503  504 -0.00000000000E+00 -0.00000000000E+00 -0.37595678754E+03  0.37595678754E+03  0.00000000000E+00 0.  1.
         -6    2    1    2    0  504 -0.27388775523E+02 -0.17042664616E+02 -0.29384792770E+03  0.34277059831E+03  0.17350642931E+03 0.  0.
        -24    2    3    3    0    0 -0.56583551418E+02  0.44221079469E+02 -0.14115518833E+03  0.17560976577E+03  0.75873582243E+02 0.  0.
          6    2    1    2  502    0  0.27388775523E+02  0.17042664616E+02  0.77653311080E+02  0.19294836015E+03  0.17366184245E+03 0.  0.
         24    2    5    5    0    0 -0.10331641459E+02  0.11327972970E+02 -0.20586870496E+02  0.87455655032E+02  0.83603866976E+02 0.  0.
          4    1    6    6  501    0 -0.29950995012E+02  0.64722265715E+01 -0.45822527024E+02  0.55124003863E+02  0.00000000000E+00 0. -1.
         -3    1    6    6    0  501  0.19619353553E+02  0.48557463985E+01  0.25235656527E+02  0.32331651169E+02  0.00000000000E+00 0.  1.
          5    1    5    5  502    0  0.37720416983E+02  0.57146916460E+01  0.98240181576E+02  0.10549270512E+03  0.47000000000E+01 0. -1.
         13    1    4    4    0    0 -0.60875710844E+02  0.16500109617E+01 -0.72139142432E+02  0.94406729515E+02  0.00000000000E+00 0. -1.
        -14    1    4    4    0    0  0.42921594256E+01  0.42571068507E+02 -0.69016045893E+02  0.81203036256E+02  0.00000000000E+00 0.  1.
         -5    1    3    3    0  504  0.29194775895E+02 -0.61263744085E+02 -0.15269273938E+03  0.16716083254E+03  0.47000000000E+01 0.  1.
<mgrwt>
<rscale>  2 0.17659427E+03</rscale>
<asrwt>0</asrwt>
<pdfrwt beam="1">  1       21 0.24578796E-01 0.17663248E+03</pdfrwt>
<pdfrwt beam="2">  1       21 0.57839504E-01 0.17663248E+03</pdfrwt>
<totfact> 0.44200299E+04</totfact>
</mgrwt>
</event>
<event>
12    1  0.2743855E-001  0.1807028E+03  0.7546771E-02  0.1167846E+00
         21   -1    0    0  502  503  0.00000000000E+00  0.00000000000E+00  0.39862423431E+02  0.39862423431E+02  0.00000000000E+00 0.  1.
         21   -1    0    0  503  504 -0.00000000000E+00 -0.00000000000E+00 -0.90560919014E+03  0.90560919014E+03  0.00000000000E+00 0. -1.
         -6    2    1    2    0  504  0.31574650344E+02 -0.42747879383E+02 -0.59304329140E+03  0.61996278148E+03  0.17271121912E+03 0.  0.
        -24    2    3    3    0    0  0.85397392109E+02 -0.12209867193E+02 -0.40784690232E+03  0.42464445093E+03  0.80882745623E+02 0.  0.
          6    2    1    2  502    0 -0.31574650344E+02  0.42747879383E+02 -0.27270347531E+03  0.32550883210E+03  0.16960092744E+03 0.  0.
         24    2    5    5    0    0 -0.74927887707E+02  0.62046020070E+02 -0.23037669183E+03  0.26174702516E+03  0.77292872101E+02 0.  0.
          4    1    6    6  501    0 -0.85411044214E+02  0.68962079586E+02 -0.21817963086E+03  0.24423997669E+03  0.00000000000E+00 0. -1.
         -3    1    6    6    0  501  0.10483156507E+02 -0.69160595163E+01 -0.12197060978E+02  0.17507048469E+02  0.00000000000E+00 0.  1.
          5    1    5    5  502    0  0.43353237363E+02 -0.19298140687E+02 -0.42326783480E+02  0.63761806935E+02  0.47000000000E+01 0. -1.
         13    1    4    4    0    0  0.48892453102E+01  0.13280098427E+02 -0.85900648381E+01  0.16554605035E+02  0.00000000000E+00 0. -1.
        -14    1    4    4    0    0  0.80508146799E+02 -0.25489965620E+02 -0.39925683748E+03  0.40808984590E+03  0.00000000000E+00 0.  1.
         -5    1    3    3    0  504 -0.53822741765E+02 -0.30538012190E+02 -0.18519638908E+03  0.19531833055E+03  0.47000000000E+01 0.  1.
<mgrwt>
<rscale>  2 0.17995559E+03</rscale>
<asrwt>0</asrwt>
<pdfrwt beam="1">  1       21 0.61326807E-02 0.18070281E+03</pdfrwt>
<pdfrwt beam="2">  1       21 0.13932449E+00 0.18070281E+03</pdfrwt>
<totfact> 0.69232705E+04</totfact>
</mgrwt>
</event>
<event>
12    1  0.2743855E-001  0.1874854E+03  0.7546771E-02  0.1160949E+00
         21   -1    0    0  502  503  0.00000000000E+00  0.00000000000E+00  0.58006594095E+03  0.58006594095E+03  0.00000000000E+00 0. -1.
         21   -1    0    0  503  504 -0.00000000000E+00 -0.00000000000E+00 -0.99745791495E+02  0.99745791495E+02  0.00000000000E+00 0. -1.
         -6    2    1    2    0  504 -0.72467956197E+02 -0.94052689141E+01  0.26792462925E+02  0.18939008169E+03  0.17265776326E+03 0.  0.
        -24    2    3    3    0    0  0.28380867672E+02  0.76167424938E+01  0.99672219678E+01  0.85633574028E+02  0.79814002976E+02 0.  0.
          6    2    1    2  502    0  0.72467956197E+02  0.94052689141E+01  0.45352768653E+03  0.49042165076E+03  0.17171479065E+03 0.  0.
         24    2    5    5    0    0  0.79001874241E+02 -0.34312420011E+02  0.19216332471E+03  0.22530403904E+03  0.80103235559E+02 0.  0.
          2    1    6    6  501    0  0.77947425371E+02 -0.98640837844E+01  0.18303541442E+03  0.19918600403E+03  0.00000000000E+00 0. -1.
         -1    1    6    6    0  501  0.10544488695E+01 -0.24448336227E+02  0.91279102872E+01  0.26118035012E+02  0.00000000000E+00 0.  1.
          5    1    5    5  502    0 -0.65339180442E+01  0.43717688926E+02  0.26136436183E+03  0.26511761172E+03  0.47000000000E+01 0. -1.
         13    1    4    4    0    0  0.25928000373E+02 -0.21687108314E+02  0.33785110848E+02  0.47791480259E+02  0.00000000000E+00 0. -1.
        -14    1    4    4    0    0  0.24528672988E+01  0.29303850808E+02 -0.23817888880E+02  0.37842093769E+02  0.00000000000E+00 0.  1.
         -5    1    3    3    0  504 -0.10084882387E+03 -0.17022011408E+02  0.16825240958E+02  0.10375650766E+03  0.47000000000E+01 0.  1.
<mgrwt>
<rscale>  2 0.18726799E+03</rscale>
<asrwt>0</asrwt>
<pdfrwt beam="1">  1       21 0.89240912E-01 0.18748538E+03</pdfrwt>
<pdfrwt beam="2">  1       21 0.15345507E-01 0.18748538E+03</pdfrwt>
<totfact> 0.40426670E+04</totfact>
</mgrwt>
</event>
<event>
12    1  0.2743855E-001  0.1858627E+03  0.7546771E-02  0.1162438E+00
         21   -1    0    0  502  503  0.00000000000E+00  0.00000000000E+00  0.26558891154E+03  0.26558891154E+03  0.00000000000E+00 0. -1.
         21   -1    0    0  503  504 -0.00000000000E+00 -0.00000000000E+00 -0.16441917732E+03  0.16441917732E+03  0.00000000000E+00 0.  1.
         -6    2    1    2    0  504  0.62289127439E+02 -0.20319658977E+02  0.14958713016E+03  0.23794251160E+03  0.17305347548E+03 0.  0.
        -24    2    3    3    0    0 -0.25259505264E+02  0.22300921342E+02  0.80949472655E+02  0.11871795463E+03  0.80036003963E+02 0.  0.
          6    2    1    2  502    0 -0.62289127439E+02  0.20319658977E+02 -0.48417395937E+02  0.19206557726E+03  0.17393135946E+03 0.  0.
         24    2    5    5    0    0 -0.19298420332E+01  0.26560839375E+02  0.32059745816E+02  0.91165349256E+02  0.81080769141E+02 0.  0.
          4    1    6    6  501    0 -0.15904753694E+02  0.14493381187E+02  0.56543686452E+02  0.60499650957E+02  0.00000000000E+00 0. -1.
         -3    1    6    6    0  501  0.13974911661E+02  0.12067458189E+02 -0.24483940636E+02  0.30665698299E+02  0.00000000000E+00 0.  1.
          5    1    5    5  502    0 -0.60359285406E+02 -0.62411803981E+01 -0.80477141753E+02  0.10090022801E+03  0.47000000000E+01 0. -1.
         13    1    4    4    0    0  0.26968223194E+02 -0.56536794500E+01  0.27528954938E+02  0.38949871804E+02  0.00000000000E+00 0. -1.
        -14    1    4    4    0    0 -0.52227728457E+02  0.27954600792E+02  0.53420517717E+02  0.79768082830E+02  0.00000000000E+00 0.  1.
         -5    1    3    3    0  504  0.87548632703E+02 -0.42620580319E+02  0.68637657508E+02  0.11922455696E+03  0.47000000000E+01 0.  1.
<mgrwt>
<rscale>  2 0.18565704E+03</rscale>
<asrwt>0</asrwt>
<pdfrwt beam="1">  1       21 0.40859832E-01 0.18586270E+03</pdfrwt>
<pdfrwt beam="2">  1       21 0.25295258E-01 0.18586270E+03</pdfrwt>
<totfact> 0.85684852E+04</totfact>
</mgrwt>
</event>
<event>
12    1  0.2743855E-001  0.2119725E+03  0.7546771E-02  0.1140312E+00
         21   -1    0    0  502  503  0.00000000000E+00  0.00000000000E+00  0.88521191951E+03  0.88521191951E+03  0.00000000000E+00 0.  1.
         21   -1    0    0  503  504 -0.00000000000E+00 -0.00000000000E+00 -0.82192798773E+02  0.82192798773E+02  0.00000000000E+00 0.  1.
         -6    2    1    2    0  504  0.11825778038E+03  0.17676338314E+02  0.10154072298E+03  0.23503799878E+03  0.17502853165E+03 0.  0.
        -24    2    3    3    0    0  0.31224577265E+02 -0.54392493059E+02  0.41514909680E+02  0.10699939850E+03  0.76104310179E+02 0.  0.
          6    2    1    2  502    0 -0.11825778038E+03 -0.17676338314E+02  0.70147839776E+03  0.73236671950E+03  0.17318115876E+03 0.  0.
         24    2    5    5    0    0 -0.19153724416E+02  0.22625888355E+02  0.17391195493E+03  0.19404123712E+03  0.80795034819E+02 0.  0.
          4    1    6    6  501    0  0.10327883355E+02  0.11708726459E+02 -0.16380005794E+01  0.15698487054E+02  0.00000000000E+00 0. -1.
         -3    1    6    6    0  501 -0.29481607770E+02  0.10917161896E+02  0.17554995551E+03  0.17834275006E+03  0.00000000000E+00 0.  1.
          5    1    5    5  502    0 -0.99104055964E+02 -0.40302226669E+02  0.52756644283E+03  0.53832548238E+03  0.47000000000E+01 0. -1.
         13    1    4    4    0    0 -0.16119230153E+02  0.31444123058E+01  0.26213477926E+02  0.30933207633E+02  0.00000000000E+00 0. -1.
        -14    1    4    4    0    0  0.47343807419E+02 -0.57536905365E+02  0.15301431754E+02  0.76066190871E+02  0.00000000000E+00 0.  1.
         -5    1    3    3    0  504  0.87033203114E+02  0.72068831373E+02  0.60025813297E+02  0.12803860028E+03  0.47000000000E+01 0.  1.
<mgrwt>
<rscale>  2 0.21159077E+03</rscale>
<asrwt>0</asrwt>
<pdfrwt beam="1">  1       21 0.13618644E+00 0.21197250E+03</pdfrwt>
<pdfrwt beam="2">  1       21 0.12645047E-01 0.21197250E+03</pdfrwt>
<totfact> 0.20270941E+04</totfact>
</mgrwt>
</event>
<event>
12    1  0.2743855E-001  0.2889848E+03  0.7546771E-02  0.1090909E+00
         21   -1    0    0  502  503  0.00000000000E+00  0.00000000000E+00  0.14131087825E+04  0.14131087825E+04  0.00000000000E+00 0.  1.
         21   -1    0    0  503  504 -0.00000000000E+00 -0.00000000000E+00 -0.64294515312E+02  0.64294515312E+02  0.00000000000E+00 0. -1.
         -6    2    1    2    0  504 -0.12943913661E+03  0.19213737266E+03  0.46327509679E+03  0.54590351234E+03  0.17238204494E+03 0.  0.
        -24    2    3    3    0    0 -0.79686207798E+01  0.10188915196E+03  0.15572403074E+03  0.20310681489E+03  0.80978431074E+02 0.  0.
          6    2    1    2  502    0  0.12943913661E+03 -0.19213737266E+03  0.88553917036E+03  0.93149978543E+03  0.17274538478E+03 0.  0.
         24    2    5    5    0    0  0.16037949230E+03 -0.15635912454E+03  0.78728991777E+03  0.82235586997E+03  0.79208616191E+02 0.  0.
          4    1    6    6  501    0  0.10993722883E+03 -0.14927862176E+03  0.58052547959E+03  0.60940965996E+03  0.00000000000E+00 0. -1.
         -3    1    6    6    0  501  0.50442263462E+02 -0.70805027792E+01  0.20676443818E+03  0.21294621001E+03  0.00000000000E+00 0.  1.
          5    1    5    5  502    0 -0.30940355682E+02 -0.35778248115E+02  0.98249252586E+02  0.10914391546E+03  0.47000000000E+01 0. -1.
         11    1    4    4    0    0 -0.86554799193E+01  0.28794320745E+02 -0.10959565498E+01  0.30087063010E+02  0.00000000000E+00 0. -1.
        -12    1    4    4    0    0  0.68685913955E+00  0.73094831212E+02  0.15681998729E+03  0.17301975188E+03  0.00000000000E+00 0.  1.
         -5    1    3    3    0  504 -0.12147051583E+03  0.90248220701E+02  0.30755106605E+03  0.34279669745E+03  0.47000000000E+01 0.  1.
<mgrwt>
<rscale>  2 0.28893055E+03</rscale>
<asrwt>0</asrwt>
<pdfrwt beam="1">  1       21 0.21740133E+00 0.28898482E+03</pdfrwt>
<pdfrwt beam="2">  1       21 0.98914649E-02 0.28898482E+03</pdfrwt>
<totfact> 0.80343357E+03</totfact>
</mgrwt>
</event>
<event>
12    1  0.2743855E-001  0.3483426E+03  0.7546771E-02  0.1063318E+00
         21   -1    0    0  502  503  0.00000000000E+00  0.00000000000E+00  0.76442770886E+02  0.76442770886E+02  0.00000000000E+00 0. -1.
         21   -1    0    0  503  504 -0.00000000000E+00 -0.00000000000E+00 -0.20665391539E+04  0.20665391539E+04  0.00000000000E+00 0.  1.
         -6    2    1    2    0  504  0.17787930039E+03  0.24427088005E+03 -0.47881684291E+03  0.59212174119E+03  0.17330112229E+03 0.  0.
        -24    2    3    3    0    0  0.53710101249E+02  0.73300464769E+02 -0.26535055484E+03  0.29172397312E+03  0.80213629947E+02 0.  0.
          6    2    1    2  502    0 -0.17787930039E+03 -0.24427088005E+03 -0.15112795401E+04  0.15508601836E+04  0.17289347119E+03 0.  0.
         24    2    5    5    0    0 -0.20065066282E+03 -0.22525828617E+03 -0.14400898521E+04  0.14735939209E+04  0.81352797117E+02 0.  0.
          2    1    6    6  501    0 -0.87647469552E+02 -0.75496027235E+02 -0.73137955917E+03  0.74047132869E+03  0.00000000000E+00 0. -1.
         -1    1    6    6    0  501 -0.11300319327E+03 -0.14976225894E+03 -0.70871029298E+03  0.73312259225E+03  0.00000000000E+00 0.  1.
          5    1    5    5  502    0  0.22771362434E+02 -0.19012593879E+02 -0.71189687935E+02  0.77266262633E+02  0.47000000000E+01 0. -1.
         11    1    4    4    0    0  0.23460582753E+02  0.23999860870E+02 -0.18777487958E+02  0.38457591174E+02  0.00000000000E+00 0. -1.
        -12    1    4    4    0    0  0.30249518496E+02  0.49300603898E+02 -0.24657306688E+03  0.25326638194E+03  0.00000000000E+00 0.  1.
         -5    1    3    3    0  504  0.12416919914E+03  0.17097041528E+03 -0.21346628808E+03  0.30039776807E+03  0.47000000000E+01 0.  1.
<mgrwt>
<rscale>  2 0.34829196E+03</rscale>
<asrwt>0</asrwt>
<pdfrwt beam="1">  1       21 0.11760424E-01 0.34834263E+03</pdfrwt>
<pdfrwt beam="2">  1       21 0.31792916E+00 0.34834263E+03</pdfrwt>
<totfact> 0.14063476E+03</totfact>
</mgrwt>
</event>
<event>
12    1  0.2743855E-001  0.1780276E+03  0.7546771E-02  0.1170441E+00
         21   -1    0    0  502  503  0.00000000000E+00  0.00000000000E+00  0.12791189940E+04  0.12791189940E+04  0.00000000000E+00 0.  1.
         21   -1    0    0  503  504 -0.00000000000E+00 -0.00000000000E+00 -0.27668569773E+02  0.27668569773E+02  0.00000000000E+00 0.  1.
         -6    2    1    2    0  504 -0.28504303347E+01 -0.19539388719E+02  0.40488726659E+03  0.44229799731E+03  0.17692910194E+03 0.  0.
        -24    2    3    3    0    0  0.30095276902E+02 -0.59461573056E+02  0.35678859366E+03  0.37148293701E+03  0.79120588741E+02 0.  0.
          6    2    1    2  502    0  0.28504303347E+01  0.19539388719E+02  0.84656315759E+03  0.86448956642E+03  0.17402045279E+03 0.  0.
         24    2    5    5    0    0 -0.43254235831E+02 -0.20788176934E+02  0.69158515445E+03  0.69777956597E+03  0.79392818334E+02 0.  0.
          4    1    6    6  501    0 -0.27346211099E+02  0.18575316645E+02  0.11566239074E+03  0.12029399935E+03  0.00000000000E+00 0. -1.
         -3    1    6    6    0  501 -0.15908024732E+02 -0.39363493579E+02  0.57592276372E+03  0.57748556661E+03  0.00000000000E+00 0.  1.
          5    1    5    5  502    0  0.46104666166E+02  0.40327565652E+02  0.15497800314E+03  0.16671000045E+03  0.47000000000E+01 0. -1.
         13    1    4    4    0    0  0.42717572322E+02 -0.50211505854E+01  0.10310510757E+03  0.11171690178E+03  0.00000000000E+00 0. -1.
        -14    1    4    4    0    0 -0.12622295420E+02 -0.54440422471E+02  0.25368348609E+03  0.25976603522E+03  0.00000000000E+00 0.  1.
         -5    1    3    3    0  504 -0.32945707237E+02  0.39922184338E+02  0.48098672933E+02  0.70815060302E+02  0.47000000000E+01 0.  1.
<mgrwt>
<rscale>  2 0.17730054E+03</rscale>
<asrwt>0</asrwt>
<pdfrwt beam="1">  1       21 0.19678749E+00 0.17802758E+03</pdfrwt>
<pdfrwt beam="2">  1       21 0.42567040E-02 0.17802758E+03</pdfrwt>
<totfact> 0.50189611E+04</totfact>
</mgrwt>
</event>
<event>
12    1  0.2743855E-001  0.1970481E+03  0.7546771E-02  0.1152708E+00
         21   -1    0    0  502  503  0.00000000000E+00  0.00000000000E+00  0.21964412689E+03  0.21964412689E+03  0.00000000000E+00 0. -1.
         21   -1    0    0  503  504 -0.00000000000E+00 -0.00000000000E+00 -0.30911587922E+03  0.30911587922E+03  0.00000000000E+00 0. -1.
         -6    2    1    2    0  504 -0.58489092058E+02  0.65350449501E+02  0.12933816771E+03  0.23570390503E+03  0.17645484997E+03 0.  0.
        -24    2    3    3    0    0 -0.34797916471E+02 -0.34771346964E+02  0.64355476946E+02  0.11392342208E+03  0.80106036759E+02 0.  0.
          6    2    1    2  502    0  0.58489092058E+02 -0.65350449501E+02 -0.21880992004E+03  0.29305610108E+03  0.17410468728E+03 0.  0.
         24    2    5    5    0    0  0.18163933882E+02  0.47599668951E+01 -0.29448537870E+02  0.87091512069E+02  0.79781760527E+02 0.  0.
          2    1    6    6  501    0  0.10653572066E+02 -0.25554957831E+02  0.15976678097E+02  0.31965742765E+02  0.00000000000E+00 0. -1.
         -1    1    6    6    0  501  0.75103618159E+01  0.30314924726E+02 -0.45425215967E+02  0.55125769304E+02  0.00000000000E+00 0.  1.
          5    1    5    5  502    0  0.40325158176E+02 -0.70110416396E+02 -0.18936138217E+03  0.20596458901E+03  0.47000000000E+01 0. -1.
         11    1    4    4    0    0 -0.53389071565E+02 -0.43651621183E+02  0.62782360229E+02  0.93260290320E+02  0.00000000000E+00 0. -1.
        -12    1    4    4    0    0  0.18591155095E+02  0.88802742191E+01  0.15731167167E+01  0.20663131761E+02  0.00000000000E+00 0.  1.
         -5    1    3    3    0  504 -0.23691175587E+02  0.10012179646E+03  0.64982690763E+02  0.12178048295E+03  0.47000000000E+01 0.  1.
<mgrwt>
<rscale>  2 0.19652059E+03</rscale>
<asrwt>0</asrwt>
<pdfrwt beam="1">  1       21 0.33791404E-01 0.19704814E+03</pdfrwt>
<pdfrwt beam="2">  1       21 0.47556289E-01 0.19704814E+03</pdfrwt>
<totfact> 0.35591594E+04</totfact>
</mgrwt>
</event>
<event>
12    1  0.2743855E-001  0.2580453E+03  0.7546771E-02  0.1108475E+00
         21   -1    0    0  502  503  0.00000000000E+00  0.00000000000E+00  0.47463940177E+03  0.47463940177E+03  0.00000000000E+00 0. -1.
         21   -1    0    0  503  504 -0.00000000000E+00 -0.00000000000E+00 -0.18612648055E+03  0.18612648055E+03  0.00000000000E+00 0. -1.
         -6    2    1    2    0  504  0.88977308466E+02  0.16920929976E+03 -0.20869430913E+02  0.25789514277E+03  0.17183021554E+03 0.  0.
        -24    2    3    3    0    0 -0.23746154176E+01  0.11855287738E+03  0.21320763240E+02  0.14514165232E+03  0.80938870519E+02 0.  0.
          6    2    1    2  502    0 -0.88977308466E+02 -0.16920929976E+03  0.30938235213E+03  0.40287073955E+03  0.17331660170E+03 0.  0.
         24    2    5    5    0    0 -0.42968076577E+01 -0.23975314174E+02  0.58182546602E+02  0.10056769609E+03  0.78328631557E+02 0.  0.
          4    1    6    6  501    0  0.29798250547E+02  0.26396454827E+01  0.24427617952E+01  0.30014505645E+02  0.00000000000E+00 0. -1.
         -3    1    6    6    0  501 -0.34095058204E+02 -0.26614959657E+02  0.55739784807E+02  0.70553190444E+02  0.00000000000E+00 0.  1.
          5    1    5    5  502    0 -0.84680500808E+02 -0.14523398559E+03  0.25119980553E+03  0.30230304346E+03  0.47000000000E+01 0. -1.
         13    1    4    4    0    0  0.29740190192E+02  0.10341607301E+03  0.20997244147E+02  0.10963688855E+03  0.00000000000E+00 0. -1.
        -14    1    4    4    0    0 -0.32114805610E+02  0.15136804367E+02  0.32351909279E+00  0.35504763770E+02  0.00000000000E+00 0.  1.
         -5    1    3    3    0  504  0.91351923883E+02  0.50656422382E+02 -0.42190194154E+02  0.11275349045E+03  0.47000000000E+01 0.  1.
<mgrwt>
<rscale>  2 0.25779598E+03</rscale>
<asrwt>0</asrwt>
<pdfrwt beam="1">  1       21 0.73021446E-01 0.25804533E+03</pdfrwt>
<pdfrwt beam="2">  1       21 0.28634843E-01 0.25804533E+03</pdfrwt>
<totfact> 0.18995498E+04</totfact>
</mgrwt>
</event>
<event>
12    1  0.2743855E-001  0.2711553E+03  0.7546771E-02  0.1100635E+00
         21   -1    0    0  502  503  0.00000000000E+00  0.00000000000E+00  0.95519034692E+02  0.95519034692E+02  0.00000000000E+00 0.  1.
         21   -1    0    0  503  504 -0.00000000000E+00 -0.00000000000E+00 -0.78070939343E+03  0.78070939343E+03  0.00000000000E+00 0.  1.
         -6    2    1    2    0  504  0.66912296497E+02 -0.19750550812E+03 -0.39515797483E+03  0.47918438270E+03  0.17315359191E+03 0.  0.
        -24    2    3    3    0    0  0.69298861447E+02 -0.11926064011E+03 -0.13936891334E+03  0.21164356518E+03  0.79648428727E+02 0.  0.
          6    2    1    2  502    0 -0.66912296497E+02  0.19750550812E+03 -0.29003238391E+03  0.39704404542E+03  0.17331909627E+03 0.  0.
         24    2    5    5    0    0 -0.83391296612E+02  0.11939846801E+03 -0.11205736443E+03  0.20193006664E+03  0.83718554551E+02 0.  0.
          4    1    6    6  501    0 -0.51647011396E+02  0.10649209005E+02 -0.21710187486E+02  0.57027639607E+02  0.00000000000E+00 0. -1.
         -3    1    6    6    0  501 -0.31744285216E+02  0.10874925900E+03 -0.90347176948E+02  0.14490242703E+03  0.00000000000E+00 0.  1.
          5    1    5    5  502    0  0.16479000115E+02  0.78107040113E+02 -0.17797501947E+03  0.19511397878E+03  0.47000000000E+01 0. -1.
         13    1    4    4    0    0 -0.17965198758E+02 -0.23691370129E+02 -0.22789196659E+02  0.37461672005E+02  0.00000000000E+00 0. -1.
        -14    1    4    4    0    0  0.87264060206E+02 -0.95569269981E+02 -0.11657971668E+03  0.17418189317E+03  0.00000000000E+00 0.  1.
         -5    1    3    3    0  504 -0.23865649507E+01 -0.78244868008E+02 -0.25578906149E+03  0.26754081752E+03  0.47000000000E+01 0.  1.
<mgrwt>
<rscale>  2 0.27112884E+03</rscale>
<asrwt>0</asrwt>
<pdfrwt beam="1">  1       21 0.14695236E-01 0.27115529E+03</pdfrwt>
<pdfrwt beam="2">  1       21 0.12010914E+00 0.27115529E+03</pdfrwt>
<totfact> 0.20546735E+04</totfact>
</mgrwt>
</event>
<event>
12    1  0.2743855E-001  0.2037480E+03  0.7546771E-02  0.1146656E+00
         21   -1    0    0  502  503  0.00000000000E+00  0.00000000000E+00  0.10450345136E+03  0.10450345136E+03  0.00000000000E+00 0.  1.
         21   -1    0    0  503  504 -0.00000000000E+00 -0.00000000000E+00 -0.43056587203E+03  0.43056587203E+03  0.00000000000E+00 0.  1.
         -6    2    1    2    0  504 -0.10466997405E+03 -0.19093837065E+02 -0.23781974121E+03  0.31303325571E+03  0.17352582457E+03 0.  0.
        -24    2    3    3    0    0 -0.45804858298E+02 -0.75521359619E+02 -0.16066052338E+03  0.20067311131E+03  0.81586353200E+02 0.  0.
          6    2    1    2  502    0  0.10466997405E+03  0.19093837065E+02 -0.88242679458E+02  0.22203606768E+03  0.17376094726E+03 0.  0.
         24    2    5    5    0    0  0.34433416410E+02  0.34169117375E+02  0.16688254127E+02  0.94784234969E+02  0.79701722848E+02 0.  0.
          4    1    6    6  501    0  0.32706569745E+02  0.59243099771E+02  0.77739067132E+01  0.68116798226E+02  0.00000000000E+00 0. -1.
         -3    1    6    6    0  501  0.17268466647E+01 -0.25073982396E+02  0.89143474143E+01  0.26667436743E+02  0.00000000000E+00 0.  1.
          5    1    5    5  502    0  0.70236557636E+02 -0.15075280310E+02 -0.10493093359E+03  0.12725183271E+03  0.47000000000E+01 0. -1.
         11    1    4    4    0    0 -0.16149491352E+02  0.16288130727E+02 -0.22258551933E+02  0.31961733490E+02  0.00000000000E+00 0. -1.
        -12    1    4    4    0    0 -0.29655366946E+02 -0.91809490346E+02 -0.13840197145E+03  0.16871137782E+03  0.00000000000E+00 0.  1.
         -5    1    3    3    0  504 -0.58865115747E+02  0.56427522554E+02 -0.77159217828E+02  0.11236014440E+03  0.47000000000E+01 0.  1.
<mgrwt>
<rscale>  2 0.20369785E+03</rscale>
<asrwt>0</asrwt>
<pdfrwt beam="1">  1       21 0.16077454E-01 0.20374799E+03</pdfrwt>
<pdfrwt beam="2">  1       21 0.66240904E-01 0.20374799E+03</pdfrwt>
<totfact> 0.71923682E+04</totfact>
</mgrwt>
</event>
<event>
12    1  0.2743855E-001  0.2067375E+03  0.7546771E-02  0.1145308E+00
         21   -1    0    0  502  503  0.00000000000E+00  0.00000000000E+00  0.45491245762E+02  0.45491245762E+02  0.00000000000E+00 0.  1.
         21   -1    0    0  503  504 -0.00000000000E+00 -0.00000000000E+00 -0.10525304637E+04  0.10525304637E+04  0.00000000000E+00 0.  1.
         -6    2    1    2    0  504  0.59909563833E+02 -0.81233403152E+02 -0.69632490529E+03  0.72481427623E+03  0.17406705511E+03 0.  0.
        -24    2    3    3    0    0 -0.12085383373E+02 -0.82902329850E+02 -0.29965557212E+03  0.32163353808E+03  0.81460531110E+02 0.  0.
          6    2    1    2  502    0 -0.59909563833E+02  0.81233403152E+02 -0.31071431260E+03  0.37320743319E+03  0.18042278820E+03 0.  0.
         24    2    5    5    0    0 -0.79250220192E+01  0.10058357721E+03 -0.12547347072E+03  0.17978281912E+03  0.79990050752E+02 0.  0.
          2    1    6    6  501    0  0.14609052906E+00 -0.13371942572E+02 -0.65974580789E+01  0.14911627802E+02  0.00000000000E+00 0. -1.
         -1    1    6    6    0  501 -0.80711125482E+01  0.11395551978E+03 -0.11887601264E+03  0.16487119132E+03  0.00000000000E+00 0.  1.
          5    1    5    5  502    0 -0.51984541814E+02 -0.19350174058E+02 -0.18524084189E+03  0.19342461406E+03  0.47000000000E+01 0. -1.
         11    1    4    4    0    0  0.23680603884E+02 -0.15035364393E+01 -0.33742168401E+02  0.41250036976E+02  0.00000000000E+00 0. -1.
        -12    1    4    4    0    0 -0.35765987257E+02 -0.81398793410E+02 -0.26591340372E+03  0.28038350111E+03  0.00000000000E+00 0.  1.
         -5    1    3    3    0  504  0.71994947206E+02  0.16689266980E+01 -0.39666933316E+03  0.40318073815E+03  0.47000000000E+01 0.  1.
<mgrwt>
<rscale>  2 0.20534277E+03</rscale>
<asrwt>0</asrwt>
<pdfrwt beam="1">  1       21 0.69986537E-02 0.20673752E+03</pdfrwt>
<pdfrwt beam="2">  1       21 0.16192775E+00 0.20673752E+03</pdfrwt>
<totfact> 0.36552832E+04</totfact>
</mgrwt>
</event>
<event>
12    1  0.2743855E-001  0.1736745E+03  0.7546771E-02  0.1174292E+00
         21   -1    0    0  502  503  0.00000000000E+00  0.00000000000E+00  0.28294631656E+03  0.28294631656E+03  0.00000000000E+00 0.  1.
         21   -1    0    0  503  504 -0.00000000000E+00 -0.00000000000E+00 -0.15492356835E+03  0.15492356835E+03  0.00000000000E+00 0.  1.
         -6    2    1    2    0  504  0.14722125652E+01  0.16851053778E+02 -0.59046819506E+02  0.18260951430E+03  0.17196971360E+03 0.  0.
        -24    2    3    3    0    0  0.64962180559E+02  0.17997795864E+02 -0.55411643942E+02  0.11883181008E+03  0.80663146754E+02 0.  0.
          6    2    1    2  502    0 -0.14722125652E+01 -0.16851053778E+02  0.18706956772E+03  0.25526037061E+03  0.17284880160E+03 0.  0.
         24    2    5    5    0    0  0.19063534989E+02  0.26591947117E+02  0.18762953687E+03  0.20697564404E+03  0.81015579390E+02 0.  0.
          4    1    6    6  501    0  0.45254312616E+02  0.37714952680E+02  0.12786449807E+03  0.14078245747E+03  0.00000000000E+00 0. -1.
         -3    1    6    6    0  501 -0.26190777627E+02 -0.11123005563E+02  0.59765038801E+02  0.66193186570E+02  0.00000000000E+00 0.  1.
          5    1    5    5  502    0 -0.20535747554E+02 -0.43443000895E+02 -0.55996914508E+00  0.48284726568E+02  0.47000000000E+01 0. -1.
         13    1    4    4    0    0 -0.15788362333E+00  0.14368922873E+02 -0.51529132355E+02  0.53495255425E+02  0.00000000000E+00 0. -1.
        -14    1    4    4    0    0  0.65120064183E+02  0.36288729912E+01 -0.38825115872E+01  0.65336554658E+02  0.00000000000E+00 0.  1.
         -5    1    3    3    0  504 -0.63489967994E+02 -0.11467420863E+01 -0.36351755644E+01  0.63777704213E+02  0.47000000000E+01 0.  1.
<mgrwt>
<rscale>  2 0.17345537E+03</rscale>
<asrwt>0</asrwt>
<pdfrwt beam="1">  1       21 0.43530202E-01 0.17367450E+03</pdfrwt>
<pdfrwt beam="2">  1       21 0.23834395E-01 0.17367450E+03</pdfrwt>
<totfact> 0.84790279E+04</totfact>
</mgrwt>
</event>
<event>
12    1  0.2743855E-001  0.1756023E+03  0.7546771E-02  0.1172366E+00
         21   -1    0    0  502  503  0.00000000000E+00  0.00000000000E+00  0.75573637239E+03  0.75573637239E+03  0.00000000000E+00 0. -1.
         21   -1    0    0  503  504 -0.00000000000E+00 -0.00000000000E+00 -0.11108711557E+03  0.11108711557E+03  0.00000000000E+00 0. -1.
         -6    2    1    2    0  504  0.57912987914E+01 -0.20100900605E+02  0.66792800955E+03  0.69062579896E+03  0.17435189386E+03 0.  0.
        -24    2    3    3    0    0  0.33887261304E+02  0.26567671256E+02  0.20329142395E+03  0.22278331971E+03  0.80316977371E+02 0.  0.
          6    2    1    2  502    0 -0.57912987914E+01  0.20100900605E+02 -0.23278752731E+02  0.17619768901E+03  0.17339590519E+03 0.  0.
         24    2    5    5    0    0  0.38248965154E+02  0.31864496417E+00  0.39827422862E+02  0.96602702453E+02  0.79263949179E+02 0.  0.
          2    1    6    6  501    0 -0.14603674095E+02 -0.18251299239E+02  0.32606302730E+02  0.40119174950E+02  0.00000000000E+00 0. -1.
         -1    1    6    6    0  501  0.52852639249E+02  0.18569944203E+02  0.72211201328E+01  0.56483527503E+02  0.00000000000E+00 0.  1.
          5    1    5    5  502    0 -0.44040263945E+02  0.19782255640E+02 -0.63106175593E+02  0.79594986554E+02  0.47000000000E+01 0. -1.
         13    1    4    4    0    0  0.18564147666E+02 -0.18695026872E+02  0.14516179971E+03  0.14753331727E+03  0.00000000000E+00 0. -1.
        -14    1    4    4    0    0  0.15323113638E+02  0.45262698128E+02  0.58129624241E+02  0.75250002444E+02  0.00000000000E+00 0.  1.
         -5    1    3    3    0  504 -0.28095962513E+02 -0.46668571861E+02  0.46463658560E+03  0.46784247925E+03  0.47000000000E+01 0.  1.
<mgrwt>
<rscale>  2 0.17536453E+03</rscale>
<asrwt>0</asrwt>
<pdfrwt beam="1">  1       21 0.11626713E+00 0.17560230E+03</pdfrwt>
<pdfrwt beam="2">  1       21 0.17090326E-01 0.17560230E+03</pdfrwt>
<totfact> 0.17832331E+04</totfact>
</mgrwt>
</event>
<event>
12    1  0.2743855E-001  0.1988196E+03  0.7546771E-02  0.1151079E+00
         21   -1    0    0  502  503  0.00000000000E+00  0.00000000000E+00  0.42792993378E+02  0.42792993378E+02  0.00000000000E+00 0.  1.
         21   -1    0    0  503  504 -0.00000000000E+00 -0.00000000000E+00 -0.13874246234E+04  0.13874246234E+04  0.00000000000E+00 0. -1.
         -6    2    1    2    0  504  0.85356832298E+02  0.40818800554E+02 -0.10872194208E+04  0.11049634640E+04  0.17304977422E+03 0.  0.
        -24    2    3    3    0    0  0.71736013560E+02 -0.38852769703E+02 -0.69493575261E+03  0.70441177920E+03  0.81269065870E+02 0.  0.
          6    2    1    2  502    0 -0.85356832298E+02 -0.40818800554E+02 -0.25741220917E+03  0.32525415280E+03  0.17486353303E+03 0.  0.
         24    2    5    5    0    0 -0.79333468539E+02 -0.34361598092E+02 -0.27822838525E+03  0.30215914119E+03  0.80091157982E+02 0.  0.
          4    1    6    6  501    0 -0.32520853749E+02  0.64277865116E+01 -0.19776826083E+03  0.20052732322E+03  0.00000000000E+00 0. -1.
         -3    1    6    6    0  501 -0.46812614790E+02 -0.40789384604E+02 -0.80460124428E+02  0.10163181796E+03  0.00000000000E+00 0.  1.
          5    1    5    5  502    0 -0.60233637596E+01 -0.64572024620E+01  0.20816176083E+02  0.23095011611E+02  0.47000000000E+01 0. -1.
         13    1    4    4    0    0  0.21509267661E+02  0.15745364715E+02 -0.37675400520E+03  0.37769583733E+03  0.00000000000E+00 0. -1.
        -14    1    4    4    0    0  0.50226745900E+02 -0.54598134418E+02 -0.31818174741E+03  0.32671594187E+03  0.00000000000E+00 0.  1.
         -5    1    3    3    0  504  0.13620818738E+02  0.79671570257E+02 -0.39228366821E+03  0.40055168475E+03  0.47000000000E+01 0.  1.
<mgrwt>
<rscale>  2 0.19842003E+03</rscale>
<asrwt>0</asrwt>
<pdfrwt beam="1">  1       21 0.65835388E-02 0.19881956E+03</pdfrwt>
<pdfrwt beam="2">  1       21 0.21344990E+00 0.19881956E+03</pdfrwt>
<totfact> 0.18475592E+04</totfact>
</mgrwt>
</event>
<event>
12    1  0.2743855E-001  0.3288360E+03  0.7546771E-02  0.1071861E+00
         21   -1    0    0  502  503  0.00000000000E+00  0.00000000000E+00  0.10310388981E+03  0.10310388981E+03  0.00000000000E+00 0.  1.
         21   -1    0    0  503  504 -0.00000000000E+00 -0.00000000000E+00 -0.11220877150E+04  0.11220877150E+04  0.00000000000E+00 0.  1.
         -6    2    1    2    0  504  0.18057398895E+03  0.21045134676E+03 -0.67094641283E+03  0.74637727781E+03  0.17324323105E+03 0.  0.
        -24    2    3    3    0    0  0.20572870324E+02  0.40114570347E+02 -0.15476506566E+03  0.17973784349E+03  0.79505000388E+02 0.  0.
          6    2    1    2  502    0 -0.18057398895E+03 -0.21045134676E+03 -0.34803741242E+03  0.47881432705E+03  0.17673818067E+03 0.  0.
         24    2    5    5    0    0 -0.13501541828E+03 -0.76987753924E+02 -0.25577729149E+03  0.31022567415E+03  0.81619045752E+02 0.  0.
          2    1    6    6  501    0 -0.58139791220E+01  0.13786421020E+02 -0.96574189916E+01  0.17808242456E+02  0.00000000000E+00 0. -1.
         -1    1    6    6    0  501 -0.12920143916E+03 -0.90774174944E+02 -0.24611987250E+03  0.29241743169E+03  0.00000000000E+00 0.  1.
          5    1    5    5  502    0 -0.45558570666E+02 -0.13346359284E+03 -0.92260120927E+02  0.16858865290E+03  0.47000000000E+01 0. -1.
         11    1    4    4    0    0  0.34234605006E+02 -0.39031899698E+01 -0.11083111914E+03  0.11606368959E+03  0.00000000000E+00 0. -1.
        -12    1    4    4    0    0 -0.13661734682E+02  0.44017760317E+02 -0.43933946515E+02  0.63674153895E+02  0.00000000000E+00 0.  1.
         -5    1    3    3    0  504  0.16000111862E+03  0.17033677641E+03 -0.51618134717E+03  0.56663943432E+03  0.47000000000E+01 0.  1.
<mgrwt>
<rscale>  2 0.32836873E+03</rscale>
<asrwt>0</asrwt>
<pdfrwt beam="1">  1       21 0.15862137E-01 0.32883601E+03</pdfrwt>
<pdfrwt beam="2">  1       21 0.17262888E+00 0.32883601E+03</pdfrwt>
<totfact> 0.66341167E+03</totfact>
</mgrwt>
</event>
<event>
12    1  0.2743855E-001  0.2298715E+03  0.7546771E-02  0.1127266E+00
         21   -1    0    0  502  503  0.00000000000E+00  0.00000000000E+00  0.47641007955E+03  0.47641007955E+03  0.00000000000E+00 0. -1.
         21   -1    0    0  503  504 -0.00000000000E+00 -0.00000000000E+00 -0.11503963588E+03  0.11503963588E+03  0.00000000000E+00 0.  1.
         -6    2    1    2    0  504  0.10624770671E+03 -0.10938852628E+03  0.11670448209E+03  0.25779999994E+03  0.17200720615E+03 0.  0.
        -24    2    3    3    0    0  0.12413373692E+03 -0.45467640561E+02  0.11303184075E+03  0.19115641059E+03  0.79297448304E+02 0.  0.
          6    2    1    2  502    0 -0.10624770671E+03  0.10938852628E+03  0.24466596157E+03  0.33364971549E+03  0.16794723884E+03 0.  0.
         24    2    5    5    0    0 -0.19169928244E+02  0.11833825199E+03  0.14802808953E+03  0.20317517619E+03  0.70685280624E+02 0.  0.
          2    1    6    6  501    0 -0.18840646928E+02  0.12542526031E+03  0.14937105914E+03  0.19595453353E+03  0.00000000000E+00 0. -1.
         -1    1    6    6    0  501 -0.32928131594E+00 -0.70870083179E+01 -0.13429696136E+01  0.72206426629E+01  0.00000000000E+00 0.  1.
          5    1    5    5  502    0 -0.87077778467E+02 -0.89497257148E+01  0.96637872041E+02  0.13047453930E+03  0.47000000000E+01 0. -1.
         11    1    4    4    0    0  0.76407387213E+02 -0.55841375594E+02  0.10551878838E+03  0.14174118227E+03  0.00000000000E+00 0. -1.
        -12    1    4    4    0    0  0.47726349702E+02  0.10373735032E+02  0.75130523706E+01  0.49415228324E+02  0.00000000000E+00 0.  1.
         -5    1    3    3    0  504 -0.17886030204E+02 -0.63920885717E+02  0.36726413437E+01  0.66643589352E+02  0.47000000000E+01 0.  1.
<mgrwt>
<rscale>  2 0.22911224E+03</rscale>
<asrwt>0</asrwt>
<pdfrwt beam="1">  1       21 0.73293857E-01 0.22987149E+03</pdfrwt>
<pdfrwt beam="2">  1       21 0.17698406E-01 0.22987149E+03</pdfrwt>
<totfact> 0.47621918E+04</totfact>
</mgrwt>
</event>
<event>
12    1  0.2743855E-001  0.2830049E+03  0.7546771E-02  0.1094073E+00
         21   -1    0    0  502  503  0.00000000000E+00  0.00000000000E+00  0.56813732593E+03  0.56813732593E+03  0.00000000000E+00 0. -1.
         21   -1    0    0  503  504 -0.00000000000E+00 -0.00000000000E+00 -0.22205591139E+03  0.22205591139E+03  0.00000000000E+00 0.  1.
         -6    2    1    2    0  504 -0.12091093084E+03  0.18710260065E+03 -0.65800980332E+02  0.29045443759E+03  0.17437653208E+03 0.  0.
        -24    2    3    3    0    0 -0.10407139568E+03  0.10358211967E+03  0.22173920624E+02  0.16789459962E+03  0.78337748953E+02 0.  0.
          6    2    1    2  502    0  0.12091093084E+03 -0.18710260065E+03  0.41188239488E+03  0.49973879973E+03  0.17454204186E+03 0.  0.
         24    2    5    5    0    0 -0.65087531603E+01 -0.41450083263E+02  0.99764790948E+02  0.13246516826E+03  0.76377575363E+02 0.  0.
          4    1    6    6  501    0  0.56340157889E+01 -0.60106394462E+02  0.51645982757E+02  0.79447015828E+02  0.00000000000E+00 0. -1.
         -3    1    6    6    0  501 -0.12142768949E+02  0.18656311198E+02  0.48118808191E+02  0.53018152429E+02  0.00000000000E+00 0.  1.
          5    1    5    5  502    0  0.12741968400E+03 -0.14565251738E+03  0.31211760393E+03  0.36727363147E+03  0.47000000000E+01 0. -1.
         13    1    4    4    0    0 -0.20876776542E+02  0.40560539183E+01 -0.22251355650E+02  0.30780094224E+02  0.00000000000E+00 0. -1.
        -14    1    4    4    0    0 -0.83194619137E+02  0.99526065754E+02  0.44425276274E+02  0.13711450540E+03  0.00000000000E+00 0.  1.
         -5    1    3    3    0  504 -0.16839535160E+02  0.83520480973E+02 -0.87974900956E+02  0.12255983798E+03  0.47000000000E+01 0.  1.
<mgrwt>
<rscale>  2 0.28297936E+03</rscale>
<asrwt>0</asrwt>
<pdfrwt beam="1">  1       21 0.87405742E-01 0.28300488E+03</pdfrwt>
<pdfrwt beam="2">  1       21 0.34162448E-01 0.28300488E+03</pdfrwt>
<totfact> 0.87880144E+03</totfact>
</mgrwt>
</event>
<event>
12    1  0.2743855E-001  0.2109730E+03  0.7546771E-02  0.1140895E+00
         21   -1    0    0  502  503  0.00000000000E+00  0.00000000000E+00  0.15201481316E+04  0.15201481316E+04  0.00000000000E+00 0. -1.
         21   -1    0    0  503  504 -0.00000000000E+00 -0.00000000000E+00 -0.60869212200E+02  0.60869212200E+02  0.00000000000E+00 0. -1.
         -6    2    1    2    0  504  0.10524120793E+03 -0.60163996193E+02  0.15913274733E+03  0.26386523725E+03  0.17206456310E+03 0.  0.
        -24    2    3    3    0    0  0.26278529697E+02  0.29666494792E+02  0.71775638854E+02  0.11568299788E+03  0.81609752049E+02 0.  0.
          6    2    1    2  502    0 -0.10524120793E+03  0.60163996193E+02  0.13001461721E+04  0.13171521065E+04  0.17266784517E+03 0.  0.
         24    2    5    5    0    0 -0.10351513664E+03 -0.11087617883E+02  0.10116640043E+04  0.10199588647E+04  0.77548110686E+02 0.  0.
          2    1    6    6  501    0 -0.59209315664E+02 -0.41618301163E+02  0.69477509753E+03  0.69853436723E+03  0.00000000000E+00 0. -1.
         -1    1    6    6    0  501 -0.44305820976E+02  0.30530683280E+02  0.31688890672E+03  0.32142449751E+03  0.00000000000E+00 0.  1.
          5    1    5    5  502    0 -0.17260712856E+01  0.71251614076E+02  0.28848216780E+03  0.29719324180E+03  0.47000000000E+01 0. -1.
         11    1    4    4    0    0  0.23883547060E+02  0.57221967378E+02  0.57468999302E+02  0.84542671187E+02  0.00000000000E+00 0. -1.
        -12    1    4    4    0    0  0.23949826373E+01 -0.27555472586E+02  0.14306639552E+02  0.31140326693E+02  0.00000000000E+00 0.  1.
         -5    1    3    3    0  504  0.78962678228E+02 -0.89830490985E+02  0.87357108480E+02  0.14818223937E+03  0.47000000000E+01 0.  1.
<mgrwt>
<rscale>  2 0.21084952E+03</rscale>
<asrwt>0</asrwt>
<pdfrwt beam="1">  1       21 0.23386891E+00 0.21097299E+03</pdfrwt>
<pdfrwt beam="2">  1       21 0.93644953E-02 0.21097299E+03</pdfrwt>
<totfact> 0.74244844E+03</totfact>
</mgrwt>
</event>
<event>
12    1  0.2743855E-001  0.2264504E+03  0.7546771E-02  0.1129413E+00
         21   -1    0    0  502  503  0.00000000000E+00  0.00000000000E+00  0.39371162134E+03  0.39371162134E+03  0.00000000000E+00 0. -1.
         21   -1    0    0  503  504 -0.00000000000E+00 -0.00000000000E+00 -0.27431083811E+03  0.27431083811E+03  0.00000000000E+00 0. -1.
         -6    2    1    2    0  504 -0.31173557710E+02 -0.14228653681E+03 -0.18310868690E+03  0.29014448418E+03  0.17157441891E+03 0.  0.
        -24    2    3    3    0    0 -0.30723820001E+02 -0.71046414622E+02 -0.18878945207E+03  0.21852243195E+03  0.78224356210E+02 0.  0.
          6    2    1    2  502    0  0.31173557710E+02  0.14228653681E+03  0.30250947013E+03  0.37787797527E+03  0.17338551097E+03 0.  0.
         24    2    5    5    0    0  0.51853860091E+02  0.16766031708E+03  0.26070426245E+03  0.32457441984E+03  0.81135915741E+02 0.  0.
          4    1    6    6  501    0  0.61402834819E+02  0.92703456162E+02  0.19483589285E+03  0.22433293126E+03  0.00000000000E+00 0. -1.
         -3    1    6    6    0  501 -0.95489747280E+01  0.74956860923E+02  0.65868369608E+02  0.10024148858E+03  0.00000000000E+00 0.  1.
          5    1    5    5  502    0 -0.20680302381E+02 -0.25373780275E+02  0.41805207675E+02  0.53303555423E+02  0.47000000000E+01 0. -1.
         13    1    4    4    0    0 -0.35819530605E+01 -0.68824633000E+02 -0.17482378311E+03  0.18791757671E+03  0.00000000000E+00 0. -1.
        -14    1    4    4    0    0 -0.27141866940E+02 -0.22217816227E+01 -0.13965668961E+02  0.30604855238E+02  0.00000000000E+00 0.  1.
         -5    1    3    3    0  504 -0.44973770936E+00 -0.71240122187E+02  0.56807651686E+01  0.71622052234E+02  0.47000000000E+01 0.  1.
<mgrwt>
<rscale>  2 0.22610369E+03</rscale>
<asrwt>0</asrwt>
<pdfrwt beam="1">  1       21 0.60571019E-01 0.22645040E+03</pdfrwt>
<pdfrwt beam="2">  1       21 0.42201667E-01 0.22645040E+03</pdfrwt>
<totfact> 0.13433352E+04</totfact>
</mgrwt>
</event>
<event>
12    1  0.2743855E-001  0.2241436E+03  0.7546771E-02  0.1130878E+00
         21   -1    0    0  502  503  0.00000000000E+00  0.00000000000E+00  0.36199234626E+03  0.36199234626E+03  0.00000000000E+00 0.  1.
         21   -1    0    0  503  504 -0.00000000000E+00 -0.00000000000E+00 -0.68093361570E+03  0.68093361570E+03  0.00000000000E+00 0.  1.
         -6    2    1    2    0  504 -0.92018784603E+02  0.10929321128E+03 -0.62485349316E+03  0.66383902161E+03  0.17270754455E+03 0.  0.
        -24    2    3    3    0    0 -0.33449399258E+02  0.13293583334E+03 -0.40321615531E+03  0.43332970291E+03  0.80003533831E+02 0.  0.
          6    2    1    2  502    0  0.92018784603E+02 -0.10929321128E+03  0.30591222371E+03  0.37908694035E+03  0.17237214674E+03 0.  0.
         24    2    5    5    0    0  0.95874080492E+02 -0.76003956826E+02  0.11867209549E+03  0.18881347035E+03  0.81234349711E+02 0.  0.
          4    1    6    6  501    0 -0.27719668785E+01 -0.15058669399E+02 -0.78394495526E+01  0.17201868902E+02  0.00000000000E+00 0. -1.
         -3    1    6    6    0  501  0.98646047371E+02 -0.60945287427E+02  0.12651154504E+03  0.17161160144E+03  0.00000000000E+00 0.  1.
          5    1    5    5  502    0 -0.38552958892E+01 -0.33289254458E+02  0.18724012823E+03  0.19027347000E+03  0.47000000000E+01 0. -1.
         13    1    4    4    0    0 -0.41771266275E+02  0.71647761173E+02 -0.31402045496E+03  0.32478775608E+03  0.00000000000E+00 0. -1.
        -14    1    4    4    0    0  0.83218670170E+01  0.61288072169E+02 -0.89195700354E+02  0.10854194683E+03  0.00000000000E+00 0.  1.
         -5    1    3    3    0  504 -0.58569385345E+02 -0.23642622058E+02 -0.22163733785E+03  0.23050931870E+03  0.47000000000E+01 0.  1.
<mgrwt>
<rscale>  2 0.22407900E+03</rscale>
<asrwt>0</asrwt>
<pdfrwt beam="1">  1       21 0.55691131E-01 0.22414361E+03</pdfrwt>
<pdfrwt beam="2">  1       21 0.10475902E+00 0.22414361E+03</pdfrwt>
<totfact> 0.21721012E+03</totfact>
</mgrwt>
</event>
<event>
12    1  0.2743855E-001  0.2445392E+03  0.7546771E-02  0.1117460E+00
         21   -1    0    0  502  503  0.00000000000E+00  0.00000000000E+00  0.12605150389E+04  0.12605150389E+04  0.00000000000E+00 0. -1.
         21   -1    0    0  503  504 -0.00000000000E+00 -0.00000000000E+00 -0.18091030417E+03  0.18091030417E+03  0.00000000000E+00 0.  1.
         -6    2    1    2    0  504  0.16983842422E+03 -0.29935957732E+02 -0.82167591875E+02  0.25419564202E+03  0.16769811973E+03 0.  0.
        -24    2    3    3    0    0  0.16995706045E+03  0.18667686743E+02 -0.80481726959E+02  0.20533604244E+03  0.80322456547E+02 0.  0.
          6    2    1    2  502    0 -0.16983842422E+03  0.29935957732E+02  0.11617723266E+04  0.11872297010E+04  0.17337292833E+03 0.  0.
         24    2    5    5    0    0 -0.15973623393E+03 -0.27958315164E+02  0.76348084355E+03  0.78459836030E+03  0.79964096261E+02 0.  0.
          2    1    6    6  501    0 -0.10953099906E+03 -0.55702872640E+02  0.54853207634E+03  0.56212746646E+03  0.00000000000E+00 0. -1.
         -1    1    6    6    0  501 -0.50205234870E+02  0.27744557476E+02  0.21494876721E+03  0.22247089383E+03  0.00000000000E+00 0.  1.
          5    1    5    5  502    0 -0.10102190283E+02  0.57894272896E+02  0.39829148301E+03  0.40263134071E+03  0.47000000000E+01 0. -1.
         11    1    4    4    0    0  0.69868674633E+02  0.35993070361E+00  0.82198991250E+01  0.70351460445E+02  0.00000000000E+00 0. -1.
        -12    1    4    4    0    0  0.10008838581E+03  0.18307756039E+02 -0.88701626084E+02  0.13498458199E+03  0.00000000000E+00 0.  1.
         -5    1    3    3    0  504 -0.11863623006E+00 -0.48603644475E+02 -0.16858649162E+01  0.48859599582E+02  0.47000000000E+01 0.  1.
<mgrwt>
<rscale>  2 0.24353554E+03</rscale>
<asrwt>0</asrwt>
<pdfrwt beam="1">  1       21 0.19392539E+00 0.24453921E+03</pdfrwt>
<pdfrwt beam="2">  1       21 0.27832355E-01 0.24453921E+03</pdfrwt>
<totfact> 0.17252019E+03</totfact>
</mgrwt>
</event>
<event>
12    1  0.2743855E-001  0.1759042E+03  0.7546771E-02  0.1171928E+00
         21   -1    0    0  502  503  0.00000000000E+00  0.00000000000E+00  0.72626378274E+02  0.72626378274E+02  0.00000000000E+00 0. -1.
         21   -1    0    0  503  504 -0.00000000000E+00 -0.00000000000E+00 -0.46750272520E+03  0.46750272520E+03  0.00000000000E+00 0.  1.
         -6    2    1    2    0  504  0.23315013124E+02 -0.18747176806E+02 -0.11627655174E+03  0.21086137289E+03  0.17334138461E+03 0.  0.
        -24    2    3    3    0    0 -0.20760933817E+02  0.74452431428E+01 -0.13193157147E+03  0.15704779093E+03  0.82289860046E+02 0.  0.
          6    2    1    2  502    0 -0.23315013124E+02  0.18747176806E+02 -0.27859979518E+03  0.32926773058E+03  0.17292873113E+03 0.  0.
         24    2    5    5    0    0  0.90249073810E+01 -0.24533296346E+02 -0.25674239148E+03  0.27079631952E+03  0.82040596667E+02 0.  0.
          4    1    6    6  501    0  0.34702431311E+02 -0.40600550037E+02 -0.13127354021E+03  0.14172298953E+03  0.00000000000E+00 0. -1.
         -3    1    6    6    0  501 -0.25677523930E+02  0.16067253691E+02 -0.12546885127E+03  0.12907332999E+03  0.00000000000E+00 0.  1.
          5    1    5    5  502    0 -0.32339920505E+02  0.43280473152E+02 -0.21857403703E+02  0.58471411058E+02  0.47000000000E+01 0. -1.
         13    1    4    4    0    0 -0.40119800083E+02 -0.71649584074E+01 -0.12550681140E+03  0.13195792775E+03  0.00000000000E+00 0. -1.
        -14    1    4    4    0    0  0.19358866266E+02  0.14610201550E+02 -0.64247600696E+01  0.25089863180E+02  0.00000000000E+00 0.  1.
         -5    1    3    3    0  504  0.44075946941E+02 -0.26192419949E+02  0.15655019724E+02  0.53813581967E+02  0.47000000000E+01 0.  1.
<mgrwt>
<rscale>  2 0.17580244E+03</rscale>
<asrwt>0</asrwt>
<pdfrwt beam="1">  1       21 0.11173289E-01 0.17590418E+03</pdfrwt>
<pdfrwt beam="2">  1       21 0.71923493E-01 0.17590418E+03</pdfrwt>
<totfact> 0.11704741E+05</totfact>
</mgrwt>
</event>
<event>
12    1  0.2743855E-001  0.2039094E+03  0.7546771E-02  0.1146717E+00
         21   -1    0    0  502  503  0.00000000000E+00  0.00000000000E+00  0.10874162729E+03  0.10874162729E+03  0.00000000000E+00 0.  1.
         21   -1    0    0  503  504 -0.00000000000E+00 -0.00000000000E+00 -0.42594826337E+03  0.42594826337E+03  0.00000000000E+00 0. -1.
         -6    2    1    2    0  504 -0.79585561902E+02  0.71751056467E+02 -0.71418177189E+02  0.21605459481E+03  0.17348474324E+03 0.  0.
        -24    2    3    3    0    0 -0.10996551902E+03  0.71456617945E+02 -0.91437174932E+02  0.17936837451E+03  0.81325230981E+02 0.  0.
          6    2    1    2  502    0  0.79585561902E+02 -0.71751056467E+02 -0.24578845889E+03  0.31863529586E+03  0.17214647681E+03 0.  0.
         24    2    5    5    0    0  0.38323540065E+02 -0.89367200253E+02 -0.24118613158E+03  0.27329045729E+03  0.84034122686E+02 0.  0.
          4    1    6    6  501    0  0.98742331393E+01 -0.10136192957E+02 -0.14408260273E+03  0.14477582428E+03  0.00000000000E+00 0. -1.
         -3    1    6    6    0  501  0.28449306926E+02 -0.79231007296E+02 -0.97103528850E+02  0.12851463301E+03  0.00000000000E+00 0.  1.
          5    1    5    5  502    0  0.41262021836E+02  0.17616143786E+02 -0.46023273047E+01  0.45344838566E+02  0.47000000000E+01 0. -1.
         11    1    4    4    0    0 -0.41632068867E+02  0.66231102546E+02 -0.76105614174E+02  0.10914143398E+03  0.00000000000E+00 0. -1.
        -12    1    4    4    0    0 -0.68333450156E+02  0.52255153998E+01 -0.15331560758E+02  0.70226940534E+02  0.00000000000E+00 0.  1.
         -5    1    3    3    0  504  0.30379957121E+02  0.29443852124E+00  0.20018997743E+02  0.36686220293E+02  0.47000000000E+01 0.  1.
<mgrwt>
<rscale>  2 0.20362443E+03</rscale>
<asrwt>0</asrwt>
<pdfrwt beam="1">  1       21 0.16729481E-01 0.20390937E+03</pdfrwt>
<pdfrwt beam="2">  1       21 0.65530501E-01 0.20390937E+03</pdfrwt>
<totfact> 0.68447988E+04</totfact>
</mgrwt>
</event>
<event>
12    1  0.2743855E-001  0.4108553E+03  0.7546771E-02  0.1040170E+00
         21   -1    0    0  502  503  0.00000000000E+00  0.00000000000E+00  0.99606052890E+03  0.99606052890E+03  0.00000000000E+00 0.  1.
         21   -1    0    0  503  504 -0.00000000000E+00 -0.00000000000E+00 -0.20640864158E+03  0.20640864158E+03  0.00000000000E+00 0.  1.
         -6    2    1    2    0  504 -0.31037683619E+03 -0.20375768290E+03  0.13863594207E+03  0.43264853219E+03  0.17353343824E+03 0.  0.
        -24    2    3    3    0    0 -0.14358649894E+03 -0.31112003653E+02  0.35330509641E+02  0.17126825456E+03  0.80619666714E+02 0.  0.
          6    2    1    2  502    0  0.31037683619E+03  0.20375768290E+03  0.65101594525E+03  0.76982063829E+03  0.17592919138E+03 0.  0.
         24    2    5    5    0    0  0.31189736958E+03  0.22161993518E+03  0.59371897715E+03  0.70960100169E+03  0.68088126375E+02 0.  0.
          4    1    6    6  501    0  0.31633586759E+02  0.45735923583E+02  0.61524073596E+02  0.82931719800E+02  0.00000000000E+00 0. -1.
         -3    1    6    6    0  501  0.28026378282E+03  0.17588401160E+03  0.53219490355E+03  0.62666928189E+03  0.00000000000E+00 0.  1.
          5    1    5    5  502    0 -0.15205333937E+01 -0.17862252277E+02  0.57296968101E+02  0.60219636596E+02  0.47000000000E+01 0. -1.
         13    1    4    4    0    0 -0.11974885607E+03 -0.53604009993E+02  0.42128339703E+02  0.13779686289E+03  0.00000000000E+00 0. -1.
        -14    1    4    4    0    0 -0.23837642868E+02  0.22492006340E+02 -0.67978300627E+01  0.33471391669E+02  0.00000000000E+00 0.  1.
         -5    1    3    3    0  504 -0.16679033725E+03 -0.17264567925E+03  0.10330543242E+03  0.26138027763E+03  0.47000000000E+01 0.  1.
<mgrwt>
<rscale>  2 0.41060000E+03</rscale>
<asrwt>0</asrwt>
<pdfrwt beam="1">  1       21 0.15324008E+00 0.41085527E+03</pdfrwt>
<pdfrwt beam="2">  1       21 0.31755176E-01 0.41085527E+03</pdfrwt>
<totfact> 0.23481994E+03</totfact>
</mgrwt>
</event>
<event>
12    1  0.2743855E-001  0.4485591E+03  0.7546771E-02  0.1028203E+00
         21   -1    0    0  502  503  0.00000000000E+00  0.00000000000E+00  0.67520926374E+03  0.67520926374E+03  0.00000000000E+00 0.  1.
         21   -1    0    0  503  504 -0.00000000000E+00 -0.00000000000E+00 -0.33587400988E+03  0.33587400988E+03  0.00000000000E+00 0. -1.
         -6    2    1    2    0  504 -0.50034105549E+02  0.41069794438E+03 -0.12231165862E+01  0.44789121627E+03  0.17154833827E+03 0.  0.
        -24    2    3    3    0    0 -0.66386576264E+02  0.31118031840E+03 -0.56395869852E+02  0.33283782048E+03  0.79750564519E+02 0.  0.
          6    2    1    2  502    0  0.50034105549E+02 -0.41069794438E+03  0.34055837045E+03  0.56319205736E+03  0.17328899721E+03 0.  0.
         24    2    5    5    0    0 -0.30973353017E+02 -0.19570940682E+03  0.20562182869E+03  0.29671083864E+03  0.80594446585E+02 0.  0.
          2    1    6    6  501    0  0.13597010289E+01 -0.17350315242E+03  0.15490422899E+03  0.23259516944E+03  0.00000000000E+00 0. -1.
         -1    1    6    6    0  501 -0.32333054046E+02 -0.22206254397E+02  0.50717599699E+02  0.64115669204E+02  0.00000000000E+00 0.  1.
          5    1    5    5  502    0  0.81007458566E+02 -0.21498853756E+03  0.13493654176E+03  0.26648121871E+03  0.47000000000E+01 0. -1.
         13    1    4    4    0    0 -0.28174048505E+02  0.28563536732E+02 -0.21512020700E+02  0.45523836332E+02  0.00000000000E+00 0. -1.
        -14    1    4    4    0    0 -0.38212527759E+02  0.28261678167E+03 -0.34883849152E+02  0.28731398415E+03  0.00000000000E+00 0.  1.
         -5    1    3    3    0  504  0.16352470715E+02  0.99517625982E+02  0.55172753266E+02  0.11505339579E+03  0.47000000000E+01 0.  1.
<mgrwt>
<rscale>  2 0.44839164E+03</rscale>
<asrwt>0</asrwt>
<pdfrwt beam="1">  1       21 0.10387835E+00 0.44855913E+03</pdfrwt>
<pdfrwt beam="2">  1       21 0.51672925E-01 0.44855913E+03</pdfrwt>
<totfact> 0.23068784E+03</totfact>
</mgrwt>
</event>
<event>
12    1  0.2743855E-001  0.1872970E+03  0.7546771E-02  0.1161001E+00
         21   -1    0    0  502  503  0.00000000000E+00  0.00000000000E+00  0.59446304981E+02  0.59446304981E+02  0.00000000000E+00 0. -1.
         21   -1    0    0  503  504 -0.00000000000E+00 -0.00000000000E+00 -0.13091694559E+04  0.13091694559E+04  0.00000000000E+00 0. -1.
         -6    2    1    2    0  504 -0.67305513998E+02 -0.15746915162E+02 -0.11321328486E+04  0.11474650572E+04  0.17370455673E+03 0.  0.
        -24    2    3    3    0    0 -0.12763431398E+02 -0.52089286402E+02 -0.92792282313E+03  0.93294365680E+03  0.80417051267E+02 0.  0.
          6    2    1    2  502    0  0.67305513998E+02  0.15746915162E+02 -0.11759030235E+03  0.22115070372E+03  0.17407514756E+03 0.  0.
         24    2    5    5    0    0  0.78411411232E+02  0.59571277001E+02 -0.42024321237E+02  0.13296780773E+03  0.78849907185E+02 0.  0.
          2    1    6    6  501    0  0.30495116544E+02  0.52268757542E+01  0.20626214817E+02  0.37184850421E+02  0.00000000000E+00 0. -1.
         -1    1    6    6    0  501  0.47916294688E+02  0.54344401247E+02 -0.62650536055E+02  0.95782957312E+02  0.00000000000E+00 0.  1.
          5    1    5    5  502    0 -0.11105897234E+02 -0.43824361840E+02 -0.75565981110E+02  0.88182895990E+02  0.47000000000E+01 0. -1.
         13    1    4    4    0    0 -0.38907676835E+02 -0.57909529030E+02 -0.65017821798E+03  0.65391057188E+03  0.00000000000E+00 0. -1.
        -14    1    4    4    0    0  0.26144245436E+02  0.58202426286E+01 -0.27774460515E+03  0.27903308492E+03  0.00000000000E+00 0.  1.
         -5    1    3    3    0  504 -0.54542082599E+02  0.36342371240E+02 -0.20421002547E+03  0.21452140039E+03  0.47000000000E+01 0.  1.
<mgrwt>
<rscale>  2 0.18721081E+03</rscale>
<asrwt>0</asrwt>
<pdfrwt beam="1">  1       21 0.91455862E-02 0.18729697E+03</pdfrwt>
<pdfrwt beam="2">  1       21 0.20141067E+00 0.18729697E+03</pdfrwt>
<totfact> 0.12544022E+04</totfact>
</mgrwt>
</event>
<event>
12    1  0.2743855E-001  0.2426342E+03  0.7546771E-02  0.1118217E+00
         21   -1    0    0  502  503  0.00000000000E+00  0.00000000000E+00  0.26682007664E+03  0.26682007664E+03  0.00000000000E+00 0.  1.
         21   -1    0    0  503  504 -0.00000000000E+00 -0.00000000000E+00 -0.45146809171E+03  0.45146809171E+03  0.00000000000E+00 0.  1.
         -6    2    1    2    0  504  0.10229418063E+03 -0.13609114516E+03 -0.34973208958E+03  0.42565702440E+03  0.17287703365E+03 0.  0.
        -24    2    3    3    0    0  0.12431473222E+02 -0.10800841289E+02 -0.72312418015E+02  0.10823501730E+03  0.78832312352E+02 0.  0.
          6    2    1    2  502    0 -0.10229418063E+03  0.13609114516E+03  0.16508407450E+03  0.29263114394E+03  0.17145067970E+03 0.  0.
         24    2    5    5    0    0 -0.12066762823E+03  0.15504319981E+03  0.15840948920E+03  0.26500137664E+03  0.80827551241E+02 0.  0.
          4    1    6    6  501    0 -0.66967921556E+02  0.13324985640E+03  0.13905009612E+03  0.20389986753E+03  0.00000000000E+00 0. -1.
         -3    1    6    6    0  501 -0.53699706679E+02  0.21793343411E+02  0.19359393075E+02  0.61101509103E+02  0.00000000000E+00 0.  1.
          5    1    5    5  502    0  0.18373447602E+02 -0.18952054655E+02  0.66745853082E+01  0.27629767308E+02  0.47000000000E+01 0. -1.
         11    1    4    4    0    0  0.32692456506E+02 -0.79531930296E+00 -0.78303091627E+02  0.84857547711E+02  0.00000000000E+00 0. -1.
        -12    1    4    4    0    0 -0.20260983284E+02 -0.10005521986E+02  0.59906736117E+01  0.23377469584E+02  0.00000000000E+00 0.  1.
         -5    1    3    3    0  504  0.89862707410E+02 -0.12529030387E+03 -0.27741967156E+03  0.31742200711E+03  0.47000000000E+01 0.  1.
<mgrwt>
<rscale>  2 0.24238028E+03</rscale>
<asrwt>0</asrwt>
<pdfrwt beam="1">  1       21 0.41049243E-01 0.24263423E+03</pdfrwt>
<pdfrwt beam="2">  1       21 0.69456629E-01 0.24263423E+03</pdfrwt>
<totfact> 0.10440497E+04</totfact>
</mgrwt>
</event>
<event>
12    1  0.2743855E-001  0.2852075E+03  0.7546771E-02  0.1092993E+00
         21   -1    0    0  502  503  0.00000000000E+00  0.00000000000E+00  0.86770029086E+03  0.86770029086E+03  0.00000000000E+00 0. -1.
         21   -1    0    0  503  504 -0.00000000000E+00 -0.00000000000E+00 -0.96137024174E+02  0.96137024174E+02  0.00000000000E+00 0.  1.
         -6    2    1    2    0  504 -0.10299300408E+03  0.20202091032E+03  0.30597317695E+03  0.41828565718E+03  0.17298352204E+03 0.  0.
        -24    2    3    3    0    0 -0.50735292646E+02  0.30368036460E+02  0.14080842472E+03  0.17436545940E+03  0.84142815503E+02 0.  0.
          6    2    1    2  502    0  0.10299300408E+03 -0.20202091032E+03  0.46559008974E+03  0.54555165785E+03  0.17155894796E+03 0.  0.
         24    2    5    5    0    0  0.99019811077E+02 -0.18323888143E+03  0.27415580075E+03  0.35309977329E+03  0.78336684613E+02 0.  0.
          4    1    6    6  501    0  0.94108652612E+02 -0.19025635712E+03  0.27036990851E+03  0.34373508309E+03  0.00000000000E+00 0. -1.
         -3    1    6    6    0  501  0.49111584652E+01  0.70174756844E+01  0.37858922445E+01  0.93646901998E+01  0.00000000000E+00 0.  1.
          5    1    5    5  502    0  0.39731930029E+01 -0.18782028888E+02  0.19143428899E+03  0.19245188456E+03  0.47000000000E+01 0. -1.
         11    1    4    4    0    0 -0.50489469157E+02  0.10988040486E+02  0.25835219496E+02  0.57770079591E+02  0.00000000000E+00 0. -1.
        -12    1    4    4    0    0 -0.24582348864E+00  0.19379995974E+02  0.11497320522E+03  0.11659537980E+03  0.00000000000E+00 0.  1.
         -5    1    3    3    0  504 -0.52257711434E+02  0.17165287386E+03  0.16516475223E+03  0.24392019779E+03  0.47000000000E+01 0.  1.
<mgrwt>
<rscale>  2 0.28499179E+03</rscale>
<asrwt>0</asrwt>
<pdfrwt beam="1">  1       21 0.13349235E+00 0.28520748E+03</pdfrwt>
<pdfrwt beam="2">  1       21 0.14790312E-01 0.28520748E+03</pdfrwt>
<totfact> 0.15422463E+04</totfact>
</mgrwt>
</event>
<event>
12    1  0.2743855E-001  0.1995515E+03  0.7546771E-02  0.1150188E+00
         21   -1    0    0  502  503  0.00000000000E+00  0.00000000000E+00  0.37020032172E+03  0.37020032172E+03  0.00000000000E+00 0. -1.
         21   -1    0    0  503  504 -0.00000000000E+00 -0.00000000000E+00 -0.22760577137E+03  0.22760577137E+03  0.00000000000E+00 0. -1.
         -6    2    1    2    0  504  0.79433815766E+02 -0.64772317555E+02 -0.14590623166E+03  0.24720318229E+03  0.17121799172E+03 0.  0.
        -24    2    3    3    0    0  0.34004998748E+02 -0.82793073168E+01 -0.15009663798E+03  0.17443720723E+03  0.81697317369E+02 0.  0.
          6    2    1    2  502    0 -0.79433815766E+02  0.64772317555E+02  0.28850078201E+03  0.35060291079E+03  0.17083476118E+03 0.  0.
         24    2    5    5    0    0 -0.36247572657E+02  0.55840997199E+02  0.66264077891E+02  0.12398415002E+03  0.80926126469E+02 0.  0.
          2    1    6    6  501    0 -0.16303079972E+02  0.74832934864E+02  0.54690796455E+02  0.94110795203E+02  0.00000000000E+00 0. -1.
         -1    1    6    6    0  501 -0.19944492685E+02 -0.18991937664E+02  0.11573281436E+02  0.29873354815E+02  0.00000000000E+00 0.  1.
          5    1    5    5  502    0 -0.43186243109E+02  0.89313203555E+01  0.22223670412E+03  0.22661876078E+03  0.47000000000E+01 0. -1.
         13    1    4    4    0    0  0.35395276875E+02 -0.38559478627E+02 -0.61282646678E+02  0.80592938902E+02  0.00000000000E+00 0. -1.
        -14    1    4    4    0    0 -0.13902781265E+01  0.30280171310E+02 -0.88813991298E+02  0.93844268328E+02  0.00000000000E+00 0.  1.
         -5    1    3    3    0  504  0.45428817017E+02 -0.56493010238E+02  0.41904063111E+01  0.72765975060E+02  0.47000000000E+01 0.  1.
<mgrwt>
<rscale>  2 0.19946923E+03</rscale>
<asrwt>0</asrwt>
<pdfrwt beam="1">  1       21 0.56953895E-01 0.19955146E+03</pdfrwt>
<pdfrwt beam="2">  1       21 0.35016273E-01 0.19955146E+03</pdfrwt>
<totfact> 0.22680806E+04</totfact>
</mgrwt>
</event>
<event>
12    1  0.2743855E-001  0.2507829E+03  0.7546771E-02  0.1113374E+00
         21   -1    0    0  502  503  0.00000000000E+00  0.00000000000E+00  0.50456596056E+03  0.50456596056E+03  0.00000000000E+00 0. -1.
         21   -1    0    0  503  504 -0.00000000000E+00 -0.00000000000E+00 -0.15137380012E+03  0.15137380012E+03  0.00000000000E+00 0. -1.
         -6    2    1    2    0  504 -0.67322176007E+02  0.16786903512E+03  0.35344738421E+02  0.25326137454E+03  0.17372330001E+03 0.  0.
        -24    2    3    3    0    0 -0.56164794656E+02  0.11870837632E+03 -0.42785815061E+02  0.16016072513E+03  0.81084333490E+02 0.  0.
          6    2    1    2  502    0  0.67322176007E+02 -0.16786903512E+03  0.31784742202E+03  0.40267838614E+03  0.16855447382E+03 0.  0.
         24    2    5    5    0    0  0.58380731115E+02 -0.15380984496E+03  0.15480734207E+03  0.23872178232E+03  0.77181591220E+02 0.  0.
          2    1    6    6  501    0  0.64897026196E+02 -0.91365586526E+02  0.66311636603E+02  0.13021723219E+03  0.00000000000E+00 0. -1.
         -1    1    6    6    0  501 -0.65162950809E+01 -0.62444258439E+02  0.88495705466E+02  0.10850455013E+03  0.00000000000E+00 0.  1.
          5    1    5    5  502    0  0.89414448922E+01 -0.14059190154E+02  0.16304007995E+03  0.16395660381E+03  0.47000000000E+01 0. -1.
         13    1    4    4    0    0 -0.38238615840E+02  0.10690211975E+03 -0.14048023910E+01  0.11354394928E+03  0.00000000000E+00 0. -1.
        -14    1    4    4    0    0 -0.17926178817E+02  0.11806256567E+02 -0.41381012670E+02  0.46616775851E+02  0.00000000000E+00 0.  1.
         -5    1    3    3    0  504 -0.11157381351E+02  0.49160658798E+02  0.78130553482E+02  0.93100649404E+02  0.47000000000E+01 0.  1.
<mgrwt>
<rscale>  2 0.24989005E+03</rscale>
<asrwt>0</asrwt>
<pdfrwt beam="1">  1       21 0.77625531E-01 0.25078292E+03</pdfrwt>
<pdfrwt beam="2">  1       21 0.23288277E-01 0.25078292E+03</pdfrwt>
<totfact> 0.24745220E+04</totfact>
</mgrwt>
</event>
<event>
12    1  0.2743855E-001  0.1822103E+03  0.7546771E-02  0.1166476E+00
         21   -1    0    0  502  503  0.00000000000E+00  0.00000000000E+00  0.16515249359E+03  0.16515249359E+03  0.00000000000E+00 0. -1.
         21   -1    0    0  503  504 -0.00000000000E+00 -0.00000000000E+00 -0.23716689482E+03  0.23716689482E+03  0.00000000000E+00 0. -1.
         -6    2    1    2    0  504  0.42759214804E+01 -0.47348370835E+02 -0.11810425088E+03  0.21437031943E+03  0.17246990477E+03 0.  0.
        -24    2    3    3    0    0  0.12638149218E+02  0.15406366512E+02 -0.12728433816E+03  0.15022635702E+03  0.77263035509E+02 0.  0.
          6    2    1    2  502    0 -0.42759214804E+01  0.47348370835E+02  0.46089849659E+02  0.18794906898E+03  0.17589891007E+03 0.  0.
         24    2    5    5    0    0 -0.26176478860E+02  0.11051584675E+02 -0.38254056047E+02  0.93434120274E+02  0.80369250699E+02 0.  0.
          4    1    6    6  501    0  0.17451902357E+02  0.15443181546E+02 -0.43423653819E+02  0.49281583407E+02  0.00000000000E+00 0. -1.
         -3    1    6    6    0  501 -0.43628381217E+02 -0.43915968711E+01  0.51695977716E+01  0.44152536867E+02  0.00000000000E+00 0.  1.
          5    1    5    5  502    0  0.21900557380E+02  0.36296786160E+02  0.84343905706E+02  0.94514948706E+02  0.47000000000E+01 0. -1.
         13    1    4    4    0    0  0.29972625819E+02  0.31253540386E+02 -0.37063663383E+02  0.56998747605E+02  0.00000000000E+00 0. -1.
        -14    1    4    4    0    0 -0.17334476601E+02 -0.15847173875E+02 -0.90220674779E+02  0.93227609411E+02  0.00000000000E+00 0.  1.
         -5    1    3    3    0  504 -0.83622277378E+01 -0.62754737347E+02  0.91800872794E+01  0.64143962418E+02  0.47000000000E+01 0.  1.
<mgrwt>
<rscale>  2 0.18137757E+03</rscale>
<asrwt>0</asrwt>
<pdfrwt beam="1">  1       21 0.25408076E-01 0.18221026E+03</pdfrwt>
<pdfrwt beam="2">  1       21 0.36487214E-01 0.18221026E+03</pdfrwt>
<totfact> 0.10678707E+05</totfact>
</mgrwt>
</event>
<event>
12    1  0.2743855E-001  0.2234452E+03  0.7546771E-02  0.1133144E+00
         21   -1    0    0  502  503  0.00000000000E+00  0.00000000000E+00  0.11615614634E+03  0.11615614634E+03  0.00000000000E+00 0.  1.
         21   -1    0    0  503  504 -0.00000000000E+00 -0.00000000000E+00 -0.52696779674E+03  0.52696779674E+03  0.00000000000E+00 0. -1.
         -6    2    1    2    0  504 -0.74136688150E+02 -0.11460533888E+03 -0.35945293076E+03  0.42324246640E+03  0.17690998758E+03 0.  0.
        -24    2    3    3    0    0 -0.11341026598E+03 -0.88159956084E+02 -0.32659931925E+03  0.36542186474E+03  0.78942748934E+02 0.  0.
          6    2    1    2  502    0  0.74136688150E+02  0.11460533888E+03 -0.51358719639E+02  0.21988147667E+03  0.16455854116E+03 0.  0.
         24    2    5    5    0    0  0.98852518776E+02  0.63636117839E+02 -0.71981250380E+02  0.15941568013E+03  0.80066739052E+02 0.  0.
          2    1    6    6  501    0  0.10452818182E+03  0.59960477472E+02 -0.83115851895E+02  0.14638867610E+03  0.00000000000E+00 0. -1.
         -1    1    6    6    0  501 -0.56756630454E+01  0.36756403669E+01  0.11134601515E+02  0.13027004030E+02  0.00000000000E+00 0.  1.
          5    1    5    5  502    0 -0.24715830626E+02  0.50969221045E+02  0.20622530741E+02  0.60465796543E+02  0.47000000000E+01 0. -1.
         11    1    4    4    0    0 -0.92982546594E+02 -0.48340041629E+02 -0.28746254419E+03  0.30596932511E+03  0.00000000000E+00 0. -1.
        -12    1    4    4    0    0 -0.20427719389E+02 -0.39819914455E+02 -0.39136775062E+02  0.59452539633E+02  0.00000000000E+00 0.  1.
         -5    1    3    3    0  504  0.39273577833E+02 -0.26445382800E+02 -0.32853611510E+02  0.57820601662E+02  0.47000000000E+01 0.  1.
<mgrwt>
<rscale>  2 0.22099371E+03</rscale>
<asrwt>0</asrwt>
<pdfrwt beam="1">  1       21 0.17870176E-01 0.22344524E+03</pdfrwt>
<pdfrwt beam="2">  1       21 0.81071968E-01 0.22344524E+03</pdfrwt>
<totfact> 0.37375113E+04</totfact>
</mgrwt>
</event>
<event>
12    1  0.2743855E-001  0.2356045E+03  0.7546771E-02  0.1122800E+00
         21   -1    0    0  502  503  0.00000000000E+00  0.00000000000E+00  0.28759093772E+03  0.28759093772E+03  0.00000000000E+00 0. -1.
         21   -1    0    0  503  504 -0.00000000000E+00 -0.00000000000E+00 -0.20670055747E+03  0.20670055747E+03  0.00000000000E+00 0. -1.
         -6    2    1    2    0  504  0.15014475778E+03 -0.56228773949E+02  0.10450336512E+03  0.25750670423E+03  0.17228936732E+03 0.  0.
        -24    2    3    3    0    0  0.21344091697E+02 -0.50696560149E+02  0.99225951836E+01  0.97544743076E+02  0.79942526513E+02 0.  0.
          6    2    1    2  502    0 -0.15014475778E+03  0.56228773949E+02 -0.23612984871E+02  0.23678479096E+03  0.17263933754E+03 0.  0.
         24    2    5    5    0    0 -0.55003902489E+02  0.70647221078E+02 -0.59565639783E+02  0.13395309663E+03  0.79868063202E+02 0.  0.
          2    1    6    6  501    0 -0.75091139684E+02  0.56447039494E+02 -0.55231359371E+02  0.10897454099E+03  0.00000000000E+00 0. -1.
         -1    1    6    6    0  501  0.20087237195E+02  0.14200181585E+02 -0.43342804114E+01  0.24978555640E+02  0.00000000000E+00 0.  1.
          5    1    5    5  502    0 -0.95140855293E+02 -0.14418447130E+02  0.35952654912E+02  0.10283169433E+03  0.47000000000E+01 0. -1.
         11    1    4    4    0    0 -0.13994179407E+02 -0.58345987349E+02  0.12526465236E+02  0.61294401280E+02  0.00000000000E+00 0. -1.
        -12    1    4    4    0    0  0.35338271104E+02  0.76494271999E+01 -0.26038700527E+01  0.36250341796E+02  0.00000000000E+00 0.  1.
         -5    1    3    3    0  504  0.12880066609E+03 -0.55322138001E+01  0.94580769938E+02  0.15996196115E+03  0.47000000000E+01 0.  1.
<mgrwt>
<rscale>  2 0.23554036E+03</rscale>
<asrwt>0</asrwt>
<pdfrwt beam="1">  1       21 0.44244760E-01 0.23560447E+03</pdfrwt>
<pdfrwt beam="2">  1       21 0.31800086E-01 0.23560447E+03</pdfrwt>
<totfact> 0.45720608E+04</totfact>
</mgrwt>
</event>
<event>
12    1  0.2743855E-001  0.1820777E+03  0.7546771E-02  0.1166276E+00
         21   -1    0    0  502  503  0.00000000000E+00  0.00000000000E+00  0.22859461789E+03  0.22859461789E+03  0.00000000000E+00 0.  1.
         21   -1    0    0  503  504 -0.00000000000E+00 -0.00000000000E+00 -0.15145820174E+03  0.15145820174E+03  0.00000000000E+00 0.  1.
         -6    2    1    2    0  504  0.49710660652E+02  0.24703052349E+02  0.82392934184E+02  0.19985217033E+03  0.17340964161E+03 0.  0.
        -24    2    3    3    0    0  0.29644081696E+02  0.81050864755E+02  0.74347545936E+02  0.13931654589E+03  0.80209276990E+02 0.  0.
          6    2    1    2  502    0 -0.49710660652E+02 -0.24703052349E+02 -0.52565180364E+01  0.18020064929E+03  0.17135709045E+03 0.  0.
         24    2    5    5    0    0 -0.66488489548E+02  0.31643098477E+02  0.31103083226E+02  0.11091504574E+03  0.76894347404E+02 0.  0.
          4    1    6    6  501    0 -0.26497239762E+02  0.19544231625E+02  0.54018617970E+02  0.63262088111E+02  0.00000000000E+00 0. -1.
         -3    1    6    6    0  501 -0.39991249786E+02  0.12098866852E+02 -0.22915534744E+02  0.47652957633E+02  0.00000000000E+00 0.  1.
          5    1    5    5  502    0  0.16777828896E+02 -0.56346150826E+02 -0.36359601262E+02  0.69285603550E+02  0.47000000000E+01 0. -1.
         11    1    4    4    0    0 -0.20023445950E+02  0.81537294020E+01  0.38391697450E+02  0.44060686831E+02  0.00000000000E+00 0. -1.
        -12    1    4    4    0    0  0.49667527646E+02  0.72897135353E+02  0.35955848486E+02  0.95255859061E+02  0.00000000000E+00 0.  1.
         -5    1    3    3    0  504  0.20066578956E+02 -0.56347812406E+02  0.80453882476E+01  0.60535624437E+02  0.47000000000E+01 0.  1.
<mgrwt>
<rscale>  2 0.18158730E+03</rscale>
<asrwt>0</asrwt>
<pdfrwt beam="1">  1       21 0.35168403E-01 0.18207772E+03</pdfrwt>
<pdfrwt beam="2">  1       21 0.23301262E-01 0.18207772E+03</pdfrwt>
<totfact> 0.13545352E+05</totfact>
</mgrwt>
</event>
<event>
12    1  0.2743855E-001  0.3962732E+03  0.7546771E-02  0.1045267E+00
         21   -1    0    0  502  503  0.00000000000E+00  0.00000000000E+00  0.19020978726E+03  0.19020978726E+03  0.00000000000E+00 0.  1.
         21   -1    0    0  503  504 -0.00000000000E+00 -0.00000000000E+00 -0.95964250091E+03  0.95964250091E+03  0.00000000000E+00 0. -1.
         -6    2    1    2    0  504  0.14029050611E+03 -0.32445083682E+03 -0.60227183774E+03  0.71976484359E+03  0.17429943177E+03 0.  0.
        -24    2    3    3    0    0  0.77668399182E+02 -0.12257555885E+03 -0.16593592379E+03  0.23490787918E+03  0.81177786613E+02 0.  0.
          6    2    1    2  502    0 -0.14029050611E+03  0.32445083682E+03 -0.16716087592E+03  0.43008744458E+03  0.17911638656E+03 0.  0.
         24    2    5    5    0    0 -0.41354975275E+02  0.21960367404E+03 -0.47325044263E+02  0.24256709008E+03  0.81627971574E+02 0.  0.
          2    1    6    6  501    0  0.78589481443E+01  0.72115114959E+00  0.82730225744E+01  0.11433548331E+02  0.00000000000E+00 0. -1.
         -1    1    6    6    0  501 -0.49213923420E+02  0.21888252289E+03 -0.55598066838E+02  0.23113354175E+03  0.00000000000E+00 0.  1.
          5    1    5    5  502    0 -0.98935530835E+02  0.10484716278E+03 -0.11983583166E+03  0.18752035450E+03  0.47000000000E+01 0. -1.
         13    1    4    4    0    0  0.40858048192E+02 -0.10414784992E+02 -0.74447854434E+02  0.85558932195E+02  0.00000000000E+00 0. -1.
        -14    1    4    4    0    0  0.36810350990E+02 -0.11216077385E+03 -0.91488069360E+02  0.14934894699E+03  0.00000000000E+00 0.  1.
         -5    1    3    3    0  504  0.62622106927E+02 -0.20187527797E+03 -0.43633591394E+03  0.48485696440E+03  0.47000000000E+01 0.  1.
<mgrwt>
<rscale>  2 0.39573364E+03</rscale>
<asrwt>0</asrwt>
<pdfrwt beam="1">  1       21 0.29263044E-01 0.39627320E+03</pdfrwt>
<pdfrwt beam="2">  1       21 0.14763731E+00 0.39627320E+03</pdfrwt>
<totfact> 0.30745543E+03</totfact>
</mgrwt>
</event>
<event>
12    1  0.2743855E-001  0.1793150E+03  0.7546771E-02  0.1169214E+00
         21   -1    0    0  502  503  0.00000000000E+00  0.00000000000E+00  0.70032225464E+03  0.70032225464E+03  0.00000000000E+00 0. -1.
         21   -1    0    0  503  504 -0.00000000000E+00 -0.00000000000E+00 -0.83381337177E+02  0.83381337177E+02  0.00000000000E+00 0. -1.
         -6    2    1    2    0  504  0.26534846731E+02  0.70929387872E+01  0.44523693473E+02  0.18475991416E+03  0.17719892417E+03 0.  0.
        -24    2    3    3    0    0  0.67146340762E+02  0.55339172204E+02  0.27258918188E+02  0.11920722579E+03  0.76787101799E+02 0.  0.
          6    2    1    2  502    0 -0.26534846731E+02 -0.70929387872E+01  0.57241722399E+03  0.59894367765E+03  0.17411962214E+03 0.  0.
         24    2    5    5    0    0  0.25838381368E+02 -0.51805217418E+02  0.24681339206E+03  0.26610424453E+03  0.80890147418E+02 0.  0.
          4    1    6    6  501    0  0.40401641665E+02 -0.37202013257E+02  0.23697140698E+03  0.24325240012E+03  0.00000000000E+00 0. -1.
         -3    1    6    6    0  501 -0.14563260298E+02 -0.14603204161E+02  0.98419850852E+01  0.22851844404E+02  0.00000000000E+00 0.  1.
          5    1    5    5  502    0 -0.52373228099E+02  0.44712278631E+02  0.32560383192E+03  0.33283943313E+03  0.47000000000E+01 0. -1.
         13    1    4    4    0    0  0.34108594326E+01 -0.51549945987E+01 -0.18944387858E+02  0.19927311979E+02  0.00000000000E+00 0. -1.
        -14    1    4    4    0    0  0.63735481330E+02  0.60494166803E+02  0.46203306047E+02  0.99279913815E+02  0.00000000000E+00 0.  1.
         -5    1    3    3    0  504 -0.40611494031E+02 -0.48246233417E+02  0.17264775285E+02  0.65552688366E+02  0.47000000000E+01 0.  1.
<mgrwt>
<rscale>  2 0.17854952E+03</rscale>
<asrwt>0</asrwt>
<pdfrwt beam="1">  1       21 0.10774188E+00 0.17931499E+03</pdfrwt>
<pdfrwt beam="2">  1       21 0.12827898E-01 0.17931499E+03</pdfrwt>
<totfact> 0.36014214E+04</totfact>
</mgrwt>
</event>
<event>
12    1  0.2743855E-001  0.4165991E+03  0.7546771E-02  0.1038456E+00
         21   -1    0    0  502  503  0.00000000000E+00  0.00000000000E+00  0.40043138807E+03  0.40043138807E+03  0.00000000000E+00 0.  1.
         21   -1    0    0  503  504 -0.00000000000E+00 -0.00000000000E+00 -0.43193219447E+03  0.43193219447E+03  0.00000000000E+00 0. -1.
         -6    2    1    2    0  504 -0.32487537692E+03  0.18856637866E+03 -0.43956106433E+02  0.41557838112E+03  0.17225551332E+03 0.  0.
        -24    2    3    3    0    0 -0.24481641780E+03  0.19427640289E+03 -0.71705349070E+02  0.33052456416E+03  0.80165025323E+02 0.  0.
          6    2    1    2  502    0  0.32487537692E+03 -0.18856637866E+03  0.12455300039E+02  0.41678520142E+03  0.18014849411E+03 0.  0.
         24    2    5    5    0    0  0.21535745403E+03 -0.12232063030E+03  0.80026714201E+02  0.27197269981E+03  0.78890461096E+02 0.  0.
          2    1    6    6  501    0  0.19137080694E+03 -0.86357123168E+02  0.88633762364E+02  0.22789533190E+03  0.00000000000E+00 0. -1.
         -1    1    6    6    0  501  0.23986647098E+02 -0.35963507133E+02 -0.86070481625E+01  0.44077367916E+02  0.00000000000E+00 0.  1.
          5    1    5    5  502    0  0.10951792289E+03 -0.66245748361E+02 -0.67571414162E+02  0.14481250161E+03  0.47000000000E+01 0. -1.
         13    1    4    4    0    0 -0.26679642441E+02 -0.50538727655E+01 -0.65734555455E+01  0.27938419220E+02  0.00000000000E+00 0. -1.
        -14    1    4    4    0    0 -0.21813677536E+03  0.19933027565E+03 -0.65131893524E+02  0.30258614494E+03  0.00000000000E+00 0.  1.
         -5    1    3    3    0  504 -0.80058959125E+02 -0.57100242257E+01  0.27749242637E+02  0.85053816961E+02  0.47000000000E+01 0.  1.
<mgrwt>
<rscale>  2 0.41575855E+03</rscale>
<asrwt>0</asrwt>
<pdfrwt beam="1">  1       21 0.61604829E-01 0.41659905E+03</pdfrwt>
<pdfrwt beam="2">  1       21 0.66451107E-01 0.41659905E+03</pdfrwt>
<totfact> 0.45168383E+03</totfact>
</mgrwt>
</event>
<event>
12    1  0.2743855E-001  0.1805585E+03  0.7546771E-02  0.1167694E+00
         21   -1    0    0  502  503  0.00000000000E+00  0.00000000000E+00  0.23479379114E+04  0.23479379114E+04  0.00000000000E+00 0. -1.
         21   -1    0    0  503  504 -0.00000000000E+00 -0.00000000000E+00 -0.22123837017E+02  0.22123837017E+02  0.00000000000E+00 0. -1.
         -6    2    1    2    0  504 -0.27673088500E+02 -0.39045261323E+02  0.43737573383E+03  0.47317956402E+03  0.17410064621E+03 0.  0.
        -24    2    3    3    0    0 -0.83033911565E+02 -0.49843369438E+02  0.27957196310E+03  0.30553249448E+03  0.76227492995E+02 0.  0.
          6    2    1    2  502    0  0.27673088500E+02  0.39045261323E+02  0.18884383406E+04  0.18968821844E+04  0.17225656192E+03 0.  0.
         24    2    5    5    0    0  0.78327955308E+01  0.85335151141E+02  0.15808300780E+04  0.15851429916E+04  0.79442605908E+02 0.  0.
          2    1    6    6  501    0  0.39522811561E+02  0.40200657904E+02  0.10349373963E+04  0.10364716879E+04  0.00000000000E+00 0. -1.
         -1    1    6    6    0  501 -0.31690016030E+02  0.45134493237E+02  0.54589268167E+03  0.54867130369E+03  0.00000000000E+00 0.  1.
          5    1    5    5  502    0  0.19840292969E+02 -0.46289889818E+02  0.30760826260E+03  0.31173919282E+03  0.47000000000E+01 0. -1.
         13    1    4    4    0    0  0.63828639330E+01 -0.13113392053E+02  0.67107122590E+01  0.16054147818E+02  0.00000000000E+00 0. -1.
        -14    1    4    4    0    0 -0.89416775498E+02 -0.36729977385E+02  0.27286125084E+03  0.28947834666E+03  0.00000000000E+00 0.  1.
         -5    1    3    3    0  504  0.55360823065E+02  0.10798108115E+02  0.15780377073E+03  0.16764706954E+03  0.47000000000E+01 0.  1.
<mgrwt>
<rscale>  2 0.18011247E+03</rscale>
<asrwt>0</asrwt>
<pdfrwt beam="1">  1       21 0.36122102E+00 0.18055849E+03</pdfrwt>
<pdfrwt beam="2">  1       21 0.34036691E-02 0.18055849E+03</pdfrwt>
<totfact> 0.78194788E+03</totfact>
</mgrwt>
</event>
<event>
12    1  0.2743855E-001  0.1928536E+03  0.7546771E-02  0.1156017E+00
         21   -1    0    0  502  503  0.00000000000E+00  0.00000000000E+00  0.21758718726E+03  0.21758718726E+03  0.00000000000E+00 0.  1.
         21   -1    0    0  503  504 -0.00000000000E+00 -0.00000000000E+00 -0.17159768908E+03  0.17159768908E+03  0.00000000000E+00 0. -1.
         -6    2    1    2    0  504  0.82526908129E+02 -0.17612979231E+02  0.38438839930E+02  0.19618352669E+03  0.17288587023E+03 0.  0.
        -24    2    3    3    0    0  0.11612809924E+03 -0.29685235054E+02  0.57161376558E+02  0.15559531679E+03  0.81089648059E+02 0.  0.
          6    2    1    2  502    0 -0.82526908129E+02  0.17612979231E+02  0.75506582524E+01  0.19300134965E+03  0.17341165164E+03 0.  0.
         24    2    5    5    0    0 -0.57207987400E+02 -0.40618030464E+02  0.46027298217E+02  0.11860753230E+03  0.83825153237E+02 0.  0.
          4    1    6    6  501    0 -0.62191910811E+02  0.19709689927E+00  0.46223767341E+02  0.77488768765E+02  0.00000000000E+00 0. -1.
         -3    1    6    6    0  501  0.49839234116E+01 -0.40815127363E+02 -0.19646912406E+00  0.41118763532E+02  0.00000000000E+00 0.  1.
          5    1    5    5  502    0 -0.25318920729E+02  0.58231009695E+02 -0.38476639965E+02  0.74393817350E+02  0.47000000000E+01 0. -1.
         11    1    4    4    0    0 -0.48473307200E+01 -0.22990252526E+02  0.76621376917E+01  0.24713491869E+02  0.00000000000E+00 0. -1.
        -12    1    4    4    0    0  0.12097542996E+03 -0.66949825275E+01  0.49499238867E+02  0.13088182492E+03  0.00000000000E+00 0.  1.
         -5    1    3    3    0  504 -0.33601191115E+02  0.12072255823E+02 -0.18722536628E+02  0.40588209898E+02  0.47000000000E+01 0.  1.
<mgrwt>
<rscale>  2 0.19273533E+03</rscale>
<asrwt>0</asrwt>
<pdfrwt beam="1">  1       21 0.33474952E-01 0.19285359E+03</pdfrwt>
<pdfrwt beam="2">  1       21 0.26399644E-01 0.19285359E+03</pdfrwt>
<totfact> 0.11729079E+05</totfact>
</mgrwt>
</event>
<event>
12    1  0.2743855E-001  0.1908616E+03  0.7546771E-02  0.1157729E+00
         21   -1    0    0  502  503  0.00000000000E+00  0.00000000000E+00  0.37704793556E+03  0.37704793556E+03  0.00000000000E+00 0.  1.
         21   -1    0    0  503  504 -0.00000000000E+00 -0.00000000000E+00 -0.15851792121E+03  0.15851792121E+03  0.00000000000E+00 0. -1.
         -6    2    1    2    0  504 -0.76399671781E+02  0.21905381252E+02 -0.58238758888E+02  0.19936782397E+03  0.17331768698E+03 0.  0.
        -24    2    3    3    0    0 -0.40861842477E+02  0.71025304501E+02 -0.73397650679E+02  0.13669736704E+03  0.81145985602E+02 0.  0.
          6    2    1    2  502    0  0.76399671781E+02 -0.21905381252E+02  0.27676877324E+03  0.33619803281E+03  0.17352638948E+03 0.  0.
         24    2    5    5    0    0 -0.23122387138E+02  0.16069097953E+02  0.12041559024E+03  0.14694923065E+03  0.79380736456E+02 0.  0.
          4    1    6    6  501    0 -0.51015587883E+02  0.30710940471E+00  0.61685915176E+02  0.80048964106E+02  0.00000000000E+00 0. -1.
         -3    1    6    6    0  501  0.27893200745E+02  0.15761988548E+02  0.58729675065E+02  0.66900266547E+02  0.00000000000E+00 0.  1.
          5    1    5    5  502    0  0.99522058919E+02 -0.37974479205E+02  0.15635318300E+03  0.18924880215E+03  0.47000000000E+01 0. -1.
         11    1    4    4    0    0 -0.38422322455E+02 -0.44530622637E+01 -0.34109894564E+02  0.51571208378E+02  0.00000000000E+00 0. -1.
        -12    1    4    4    0    0 -0.24395200220E+01  0.75478366765E+02 -0.39287756115E+02  0.85126158659E+02  0.00000000000E+00 0.  1.
         -5    1    3    3    0  504 -0.35537829304E+02 -0.49119923249E+02  0.15158891792E+02  0.62670456931E+02  0.47000000000E+01 0.  1.
<mgrwt>
<rscale>  2 0.19081418E+03</rscale>
<asrwt>0</asrwt>
<pdfrwt beam="1">  1       21 0.58007374E-01 0.19086163E+03</pdfrwt>
<pdfrwt beam="2">  1       21 0.24387373E-01 0.19086163E+03</pdfrwt>
<totfact> 0.44275968E+04</totfact>
</mgrwt>
</event>
<event>
12    1  0.2743855E-001  0.2007919E+03  0.7546771E-02  0.1149236E+00
         21   -1    0    0  502  503  0.00000000000E+00  0.00000000000E+00  0.48420284154E+03  0.48420284154E+03  0.00000000000E+00 0. -1.
         21   -1    0    0  503  504 -0.00000000000E+00 -0.00000000000E+00 -0.13033564190E+03  0.13033564190E+03  0.00000000000E+00 0. -1.
         -6    2    1    2    0  504 -0.21130781967E+02  0.10006012289E+03 -0.85700485091E+01  0.20019786753E+03  0.17189299663E+03 0.  0.
        -24    2    3    3    0    0 -0.60982799222E+02  0.44709496873E+02 -0.49899673931E+02  0.12030980198E+03  0.79162049507E+02 0.  0.
          6    2    1    2  502    0  0.21130781967E+02 -0.10006012289E+03  0.36243724815E+03  0.41434061591E+03  0.17279713253E+03 0.  0.
         24    2    5    5    0    0 -0.31261057332E+01  0.15176783744E+02  0.12883113803E+03  0.15268846909E+03  0.80474835604E+02 0.  0.
          4    1    6    6  501    0  0.10167178280E+02 -0.26398533939E+01 -0.85354163118E+01  0.13534905679E+02  0.00000000000E+00 0. -1.
         -3    1    6    6    0  501 -0.13293284013E+02  0.17816637138E+02  0.13736655434E+03  0.13915356341E+03  0.00000000000E+00 0.  1.
          5    1    5    5  502    0  0.24256887700E+02 -0.11523690663E+03  0.23360611012E+03  0.26165214682E+03  0.47000000000E+01 0. -1.
         13    1    4    4    0    0 -0.43964001309E+02  0.33349230577E+02  0.10822369144E+02  0.56232804172E+02  0.00000000000E+00 0. -1.
        -14    1    4    4    0    0 -0.17018797913E+02  0.11360266296E+02 -0.60722043075E+02  0.64076997807E+02  0.00000000000E+00 0.  1.
         -5    1    3    3    0  504  0.39852017255E+02  0.55350626012E+02  0.41329625422E+02  0.79888065546E+02  0.47000000000E+01 0.  1.
<mgrwt>
<rscale>  2 0.20059723E+03</rscale>
<asrwt>0</asrwt>
<pdfrwt beam="1">  1       21 0.74492744E-01 0.20079190E+03</pdfrwt>
<pdfrwt beam="2">  1       21 0.20051638E-01 0.20079190E+03</pdfrwt>
<totfact> 0.36920443E+04</totfact>
</mgrwt>
</event>
<event>
12    1  0.2743855E-001  0.1759655E+03  0.7546771E-02  0.1171827E+00
         21   -1    0    0  502  503  0.00000000000E+00  0.00000000000E+00  0.22289066295E+02  0.22289066295E+02  0.00000000000E+00 0.  1.
         21   -1    0    0  503  504 -0.00000000000E+00 -0.00000000000E+00 -0.16777670438E+04  0.16777670438E+04  0.00000000000E+00 0.  1.
         -6    2    1    2    0  504 -0.12468352722E+02  0.26226354079E+02 -0.11819397306E+04  0.11949666876E+04  0.17355280553E+03 0.  0.
        -24    2    3    3    0    0  0.30712820964E+02  0.35002618376E+02 -0.10772093875E+04  0.10812469825E+04  0.80910517992E+02 0.  0.
          6    2    1    2  502    0  0.12468352722E+02 -0.26226354079E+02 -0.47353824691E+03  0.50508942247E+03  0.17330196749E+03 0.  0.
         24    2    5    5    0    0  0.34961822967E+02 -0.75935254561E+02 -0.39879505799E+03  0.41243109699E+03  0.63823346344E+02 0.  0.
          2    1    6    6  501    0 -0.12649915897E+02 -0.27305852887E+02 -0.63125316246E+02  0.69931648953E+02  0.00000000000E+00 0. -1.
         -1    1    6    6    0  501  0.47611738864E+02 -0.48629401674E+02 -0.33566974174E+03  0.34249944804E+03  0.00000000000E+00 0.  1.
          5    1    5    5  502    0 -0.22493470245E+02  0.49708900482E+02 -0.74743188925E+02  0.92658325484E+02  0.47000000000E+01 0. -1.
         11    1    4    4    0    0  0.19514699708E+01 -0.18725815064E+02 -0.80340945257E+02  0.82517464028E+02  0.00000000000E+00 0. -1.
        -12    1    4    4    0    0  0.28761350993E+02  0.53728433440E+02 -0.99686844223E+03  0.99872951843E+03  0.00000000000E+00 0.  1.
         -5    1    3    3    0  504 -0.43181173686E+02 -0.87762642967E+01 -0.10473034313E+03  0.11371970519E+03  0.47000000000E+01 0.  1.
<mgrwt>
<rscale>  2 0.17590362E+03</rscale>
<asrwt>0</asrwt>
<pdfrwt beam="1">  1       21 0.34290873E-02 0.17596550E+03</pdfrwt>
<pdfrwt beam="2">  1       21 0.25811799E+00 0.17596550E+03</pdfrwt>
<totfact> 0.30647336E+04</totfact>
</mgrwt>
</event>
<event>
12    1  0.2743855E-001  0.1926630E+03  0.7546771E-02  0.1156124E+00
         21   -1    0    0  502  503  0.00000000000E+00  0.00000000000E+00  0.17326083775E+04  0.17326083775E+04  0.00000000000E+00 0.  1.
         21   -1    0    0  503  504 -0.00000000000E+00 -0.00000000000E+00 -0.22048493838E+02  0.22048493838E+02  0.00000000000E+00 0. -1.
         -6    2    1    2    0  504 -0.82539368690E+02 -0.10889018509E+02  0.70548330700E+03  0.73131780342E+03  0.17374612236E+03 0.  0.
        -24    2    3    3    0    0 -0.10460294551E+03  0.20321519193E+02  0.65196614119E+03  0.66538544322E+03  0.79518541437E+02 0.  0.
          6    2    1    2  502    0  0.82539368690E+02  0.10889018509E+02  0.10050765767E+04  0.10233390680E+04  0.17352983855E+03 0.  0.
         24    2    5    5    0    0 -0.20958712752E+02  0.74745111862E+01  0.56359041582E+03  0.56984636462E+03  0.81213216406E+02 0.  0.
          2    1    6    6  501    0  0.20491352027E+02 -0.17072382001E+02  0.34407768043E+03  0.34510985484E+03  0.00000000000E+00 0. -1.
         -1    1    6    6    0  501 -0.41450064779E+02  0.24546893187E+02  0.21951273538E+03  0.22473650979E+03  0.00000000000E+00 0.  1.
          5    1    5    5  502    0  0.10349808144E+03  0.34145073230E+01  0.44148616089E+03  0.45349270334E+03  0.47000000000E+01 0. -1.
         13    1    4    4    0    0 -0.90853786859E+02  0.66981435088E+01  0.31619971620E+03  0.32906159946E+03  0.00000000000E+00 0. -1.
        -14    1    4    4    0    0 -0.13749158652E+02  0.13623375684E+02  0.33576642499E+03  0.33632384376E+03  0.00000000000E+00 0.  1.
         -5    1    3    3    0  504  0.22063576820E+02 -0.31210537702E+02  0.53517165807E+02  0.65932360202E+02  0.47000000000E+01 0.  1.
<mgrwt>
<rscale>  2 0.19261423E+03</rscale>
<asrwt>0</asrwt>
<pdfrwt beam="1">  1       21 0.26655503E+00 0.19266300E+03</pdfrwt>
<pdfrwt beam="2">  1       21 0.33920773E-02 0.19266300E+03</pdfrwt>
<totfact> 0.27467801E+04</totfact>
</mgrwt>
</event>
<event>
12    1  0.2743855E-001  0.5435204E+03  0.7546771E-02  0.1003184E+00
         21   -1    0    0  502  503  0.00000000000E+00  0.00000000000E+00  0.92366309643E+03  0.92366309643E+03  0.00000000000E+00 0. -1.
         21   -1    0    0  503  504 -0.00000000000E+00 -0.00000000000E+00 -0.36609436824E+03  0.36609436824E+03  0.00000000000E+00 0. -1.
         -6    2    1    2    0  504  0.51010697652E+03 -0.72602500897E+02  0.44476160364E+02  0.54230951493E+03  0.16322141562E+03 0.  0.
        -24    2    3    3    0    0  0.30262468664E+03 -0.66738228881E+02 -0.30578058351E+02  0.32154150084E+03  0.80113837460E+02 0.  0.
          6    2    1    2  502    0 -0.51010697652E+03  0.72602500897E+02  0.51309256782E+03  0.74744794974E+03  0.17301503920E+03 0.  0.
         24    2    5    5    0    0 -0.41520760287E+03 -0.15348805407E+01  0.38911880342E+03  0.57454963655E+03  0.79335567945E+02 0.  0.
          2    1    6    6  501    0 -0.11992832963E+03  0.22706737742E+02  0.77584435826E+02  0.14462968184E+03  0.00000000000E+00 0. -1.
         -1    1    6    6    0  501 -0.29527927324E+03 -0.24241618283E+02  0.31153436759E+03  0.42991995470E+03  0.00000000000E+00 0.  1.
          5    1    5    5  502    0 -0.94899373644E+02  0.74137381437E+02  0.12397376440E+03  0.17289831319E+03  0.47000000000E+01 0. -1.
         13    1    4    4    0    0  0.14127539061E+03 -0.68665748508E+02  0.11901042303E+01  0.15708321794E+03  0.00000000000E+00 0. -1.
        -14    1    4    4    0    0  0.16134929602E+03  0.19275196266E+01 -0.31768162581E+02  0.16445828290E+03  0.00000000000E+00 0.  1.
         -5    1    3    3    0  504  0.20748228988E+03 -0.58642720154E+01  0.75054218714E+02  0.22076801409E+03  0.47000000000E+01 0.  1.
<mgrwt>
<rscale>  2 0.54275938E+03</rscale>
<asrwt>0</asrwt>
<pdfrwt beam="1">  1       21 0.14210201E+00 0.54352043E+03</pdfrwt>
<pdfrwt beam="2">  1       21 0.56322211E-01 0.54352043E+03</pdfrwt>
<totfact> 0.83030557E+02</totfact>
</mgrwt>
</event>
<event>
12    1  0.2743855E-001  0.1947853E+03  0.7546771E-02  0.1154292E+00
         21   -1    0    0  502  503  0.00000000000E+00  0.00000000000E+00  0.31373524668E+03  0.31373524668E+03  0.00000000000E+00 0. -1.
         21   -1    0    0  503  504 -0.00000000000E+00 -0.00000000000E+00 -0.12386648190E+03  0.12386648190E+03  0.00000000000E+00 0. -1.
         -6    2    1    2    0  504  0.81660723063E+02 -0.37787011664E+02  0.12992367195E+03  0.23413984284E+03  0.17275697824E+03 0.  0.
        -24    2    3    3    0    0  0.12359172283E+03 -0.34340701003E+02  0.93787889799E+02  0.17848042719E+03  0.81270516920E+02 0.  0.
          6    2    1    2  502    0 -0.81660723063E+02  0.37787011664E+02  0.59945092831E+02  0.20346188574E+03  0.17235716653E+03 0.  0.
         24    2    5    5    0    0  0.52403003919E+01  0.51830127848E+02 -0.93052051088E+00  0.96331463878E+02  0.81025071204E+02 0.  0.
          2    1    6    6  501    0 -0.30737681536E+02  0.27303183771E+02 -0.23428477476E+02  0.47319789382E+02  0.00000000000E+00 0. -1.
         -1    1    6    6    0  501  0.35977981928E+02  0.24526944076E+02  0.22497956966E+02  0.49011674496E+02  0.00000000000E+00 0.  1.
          5    1    5    5  502    0 -0.86901023455E+02 -0.14043116184E+02  0.60875613342E+02  0.10713042187E+03  0.47000000000E+01 0. -1.
         11    1    4    4    0    0  0.59500066533E+02  0.19459778330E+02  0.64343005795E+02  0.89771728762E+02  0.00000000000E+00 0. -1.
        -12    1    4    4    0    0  0.64091656297E+02 -0.53800479332E+02  0.29444884003E+02  0.88708698431E+02  0.00000000000E+00 0.  1.
         -5    1    3    3    0  504 -0.41930999767E+02 -0.34463106610E+01  0.36135782150E+02  0.55659415647E+02  0.47000000000E+01 0.  1.
<mgrwt>
<rscale>  2 0.19469659E+03</rscale>
<asrwt>0</asrwt>
<pdfrwt beam="1">  1       21 0.48266961E-01 0.19478528E+03</pdfrwt>
<pdfrwt beam="2">  1       21 0.19056382E-01 0.19478528E+03</pdfrwt>
<totfact> 0.10349009E+05</totfact>
</mgrwt>
</event>
<event>
12    1  0.2743855E-001  0.2493173E+03  0.7546771E-02  0.1114004E+00
         21   -1    0    0  502  503  0.00000000000E+00  0.00000000000E+00  0.24776529411E+02  0.24776529411E+02  0.00000000000E+00 0. -1.
         21   -1    0    0  503  504 -0.00000000000E+00 -0.00000000000E+00 -0.27284925706E+04  0.27284925706E+04  0.00000000000E+00 0.  1.
         -6    2    1    2    0  504  0.13561225454E+03 -0.11746676957E+03 -0.17530445135E+04  0.17704489414E+04  0.17069054613E+03 0.  0.
        -24    2    3    3    0    0  0.94316526790E+02 -0.55503894458E+02 -0.61261113375E+03  0.62757750572E+03  0.81146996052E+02 0.  0.
          6    2    1    2  502    0 -0.13561225454E+03  0.11746676957E+03 -0.95067152772E+03  0.98282015857E+03  0.17311841301E+03 0.  0.
         24    2    5    5    0    0 -0.80151519659E+02  0.66057192029E+02 -0.83114836371E+03  0.84130438378E+03  0.78725122724E+02 0.  0.
          2    1    6    6  501    0 -0.14292006931E+02  0.62426244182E+02 -0.37967889539E+03  0.38504202502E+03  0.00000000000E+00 0. -1.
         -1    1    6    6    0  501 -0.65859512728E+02  0.36309478473E+01 -0.45146946832E+03  0.45626235877E+03  0.00000000000E+00 0.  1.
          5    1    5    5  502    0 -0.55460734886E+02  0.51409577541E+02 -0.11952316401E+03  0.14151577478E+03  0.47000000000E+01 0. -1.
         11    1    4    4    0    0  0.76596605151E+01 -0.14028181690E+02 -0.13822960668E+02  0.21131363476E+02  0.00000000000E+00 0. -1.
        -12    1    4    4    0    0  0.86656866275E+02 -0.41475712768E+02 -0.59878817308E+03  0.60644614225E+03  0.00000000000E+00 0.  1.
         -5    1    3    3    0  504  0.41295727755E+02 -0.61962875113E+02 -0.11404333797E+04  0.11428714357E+04  0.47000000000E+01 0.  1.
<mgrwt>
<rscale>  2 0.24889631E+03</rscale>
<asrwt>0</asrwt>
<pdfrwt beam="1">  1       21 0.38117758E-02 0.24931729E+03</pdfrwt>
<pdfrwt beam="2">  1       21 0.41976787E+00 0.24931729E+03</pdfrwt>
<totfact> 0.25845714E+03</totfact>
</mgrwt>
</event>
<event>
12    1  0.2743855E-001  0.1937009E+03  0.7546771E-02  0.1155194E+00
         21   -1    0    0  502  503  0.00000000000E+00  0.00000000000E+00  0.18220619720E+03  0.18220619720E+03  0.00000000000E+00 0. -1.
         21   -1    0    0  503  504 -0.00000000000E+00 -0.00000000000E+00 -0.33886827961E+03  0.33886827961E+03  0.00000000000E+00 0. -1.
         -6    2    1    2    0  504 -0.31602902744E+01  0.86471587900E+02 -0.24162180573E+03  0.30967910583E+03  0.17329953444E+03 0.  0.
        -24    2    3    3    0    0  0.23724426690E+02  0.10123588736E+03 -0.10377176642E+03  0.16837979274E+03  0.82289864401E+02 0.  0.
          6    2    1    2  502    0  0.31602902744E+01 -0.86471587900E+02  0.84959723315E+02  0.21139537097E+03  0.17315462839E+03 0.  0.
         24    2    5    5    0    0  0.74308973512E+01  0.16658361115E+02  0.71967347597E+02  0.10725644311E+03  0.77407533477E+02 0.  0.
          4    1    6    6  501    0  0.27595493731E+02  0.26810520103E+02  0.75179749495E+02  0.84453004663E+02  0.00000000000E+00 0. -1.
         -3    1    6    6    0  501 -0.20164596380E+02 -0.10152158988E+02 -0.32124018974E+01  0.22803438452E+02  0.00000000000E+00 0.  1.
          5    1    5    5  502    0 -0.42706070768E+01 -0.10312994901E+03  0.12992375717E+02  0.10413892786E+03  0.47000000000E+01 0. -1.
         11    1    4    4    0    0  0.69828619155E+01  0.73307625036E+02 -0.16826786516E+02  0.75537467481E+02  0.00000000000E+00 0. -1.
        -12    1    4    4    0    0  0.16741564774E+02  0.27928262327E+02 -0.86944979907E+02  0.92842325255E+02  0.00000000000E+00 0.  1.
         -5    1    3    3    0  504 -0.26884716964E+02 -0.14764299464E+02 -0.13785003931E+03  0.14129931310E+03  0.47000000000E+01 0.  1.
<mgrwt>
<rscale>  2 0.19366852E+03</rscale>
<asrwt>0</asrwt>
<pdfrwt beam="1">  1       21 0.28031723E-01 0.19370093E+03</pdfrwt>
<pdfrwt beam="2">  1       21 0.52133581E-01 0.19370093E+03</pdfrwt>
<totfact> 0.42426194E+04</totfact>
</mgrwt>
</event>
<event>
12    1  0.2743855E-001  0.3296465E+03  0.7546771E-02  0.1071313E+00
         21   -1    0    0  502  503  0.00000000000E+00  0.00000000000E+00  0.47600352924E+03  0.47600352924E+03  0.00000000000E+00 0.  1.
         21   -1    0    0  503  504 -0.00000000000E+00 -0.00000000000E+00 -0.28317400070E+03  0.28317400070E+03  0.00000000000E+00 0. -1.
         -6    2    1    2    0  504  0.71062027849E+02 -0.27155015057E+03 -0.70908229760E+02  0.33701122041E+03  0.17250881008E+03 0.  0.
        -24    2    3    3    0    0  0.50619951869E+02 -0.26592458554E+03 -0.20211974331E+02  0.28185937758E+03  0.75880960080E+02 0.  0.
          6    2    1    2  502    0 -0.71062027849E+02  0.27155015057E+03  0.26373775830E+03  0.42216630953E+03  0.17285106790E+03 0.  0.
         24    2    5    5    0    0  0.26644932106E+02  0.79131162306E+02  0.97959065407E+02  0.14999654250E+03  0.77014875267E+02 0.  0.
          4    1    6    6  501    0 -0.92410546515E+01  0.34426803570E+02 -0.96950411075E+00  0.35658685244E+02  0.00000000000E+00 0. -1.
         -3    1    6    6    0  501  0.35885986757E+02  0.44704358736E+02  0.98928569518E+02  0.11433785726E+03  0.00000000000E+00 0.  1.
          5    1    5    5  502    0 -0.97706959955E+02  0.19241898827E+03  0.16577869289E+03  0.27216976703E+03  0.47000000000E+01 0. -1.
         13    1    4    4    0    0  0.22818483090E+00 -0.18947397394E+03 -0.17064036998E+02  0.19024095308E+03  0.00000000000E+00 0. -1.
        -14    1    4    4    0    0  0.50391767038E+02 -0.76450611596E+02 -0.31479373326E+01  0.91618424501E+02  0.00000000000E+00 0.  1.
         -5    1    3    3    0  504  0.20442075981E+02 -0.56255650321E+01 -0.50696255429E+02  0.55151842824E+02  0.47000000000E+01 0.  1.
<mgrwt>
<rscale>  2 0.32960162E+03</rscale>
<asrwt>0</asrwt>
<pdfrwt beam="1">  1       21 0.73231312E-01 0.32964646E+03</pdfrwt>
<pdfrwt beam="2">  1       21 0.43565231E-01 0.32964646E+03</pdfrwt>
<totfact> 0.78669661E+03</totfact>
</mgrwt>
</event>
<event>
12    1  0.2743855E-001  0.1779039E+03  0.7546771E-02  0.1169903E+00
         21   -1    0    0  502  503  0.00000000000E+00  0.00000000000E+00  0.51447367395E+02  0.51447367395E+02  0.00000000000E+00 0. -1.
         21   -1    0    0  503  504 -0.00000000000E+00 -0.00000000000E+00 -0.71270206155E+03  0.71270206155E+03  0.00000000000E+00 0. -1.
         -6    2    1    2    0  504 -0.12303250442E+02 -0.37234616302E+02 -0.47271068899E+03  0.50507939195E+03  0.17352812471E+03 0.  0.
        -24    2    3    3    0    0  0.42013468363E+02  0.11656462066E+02 -0.35000219965E+03  0.36218045269E+03  0.82292988269E+02 0.  0.
          6    2    1    2  502    0  0.12303250442E+02  0.37234616302E+02 -0.18854400516E+03  0.25907003699E+03  0.17329355315E+03 0.  0.
         24    2    5    5    0    0  0.41214477016E+02  0.86163349793E+01 -0.29108543763E+02  0.94459522750E+02  0.79387781012E+02 0.  0.
          4    1    6    6  501    0  0.21817015358E+02  0.43365974237E+02 -0.73354587178E+01  0.49095812808E+02  0.00000000000E+00 0. -1.
         -3    1    6    6    0  501  0.19397461659E+02 -0.34749639258E+02 -0.21773085046E+02  0.45363709943E+02  0.00000000000E+00 0.  1.
          5    1    5    5  502    0 -0.28911226575E+02  0.28618281323E+02 -0.15943546140E+03  0.16461051424E+03  0.47000000000E+01 0. -1.
         11    1    4    4    0    0  0.46216310462E+02 -0.27478322581E+02 -0.20096055260E+03  0.20802920292E+03  0.00000000000E+00 0. -1.
        -12    1    4    4    0    0 -0.42028420996E+01  0.39134784647E+02 -0.14904164705E+03  0.15415124977E+03  0.00000000000E+00 0.  1.
         -5    1    3    3    0  504 -0.54316718804E+02 -0.48891078368E+02 -0.12270848934E+03  0.14289893926E+03  0.47000000000E+01 0.  1.
<mgrwt>
<rscale>  2 0.17784667E+03</rscale>
<asrwt>0</asrwt>
<pdfrwt beam="1">  1       21 0.79149795E-02 0.17790390E+03</pdfrwt>
<pdfrwt beam="2">  1       21 0.10964647E+00 0.17790390E+03</pdfrwt>
<totfact> 0.81004355E+04</totfact>
</mgrwt>
</event>
<event>
12    1  0.2743855E-001  0.1879296E+03  0.7546771E-02  0.1160753E+00
         21   -1    0    0  502  503  0.00000000000E+00  0.00000000000E+00  0.13852366162E+03  0.13852366162E+03  0.00000000000E+00 0. -1.
         21   -1    0    0  503  504 -0.00000000000E+00 -0.00000000000E+00 -0.37842108122E+03  0.37842108122E+03  0.00000000000E+00 0.  1.
         -6    2    1    2    0  504  0.34457827386E+02  0.64895216238E+02 -0.26940807332E+03  0.32847865971E+03  0.17297048578E+03 0.  0.
        -24    2    3    3    0    0 -0.10455421772E+02 -0.18647886695E+02 -0.74092909825E+02  0.11129957901E+03  0.80254454579E+02 0.  0.
          6    2    1    2  502    0 -0.34457827386E+02 -0.64895216238E+02  0.29510653721E+02  0.18846608313E+03  0.17102588941E+03 0.  0.
         24    2    5    5    0    0  0.34145739582E+02 -0.33720314854E+02  0.54186263768E+02  0.10903498338E+03  0.81544375976E+02 0.  0.
          2    1    6    6  501    0 -0.17628226462E+02 -0.97662716783E+01  0.47499208423E+02  0.51597570016E+02  0.00000000000E+00 0. -1.
         -1    1    6    6    0  501  0.51773966044E+02 -0.23954043176E+02  0.66870553443E+01  0.57437413361E+02  0.00000000000E+00 0.  1.
          5    1    5    5  502    0 -0.68603566968E+02 -0.31174901384E+02 -0.24675610046E+02  0.79431099755E+02  0.47000000000E+01 0. -1.
         11    1    4    4    0    0  0.15591337076E+02  0.73263955231E+01 -0.72459183803E+02  0.74478850559E+02  0.00000000000E+00 0. -1.
        -12    1    4    4    0    0 -0.26046758849E+02 -0.25974282218E+02 -0.16337260222E+01  0.36820728455E+02  0.00000000000E+00 0.  1.
         -5    1    3    3    0  504  0.44913249158E+02  0.83543102933E+02 -0.19531516350E+03  0.21717908069E+03  0.47000000000E+01 0.  1.
<mgrwt>
<rscale>  2 0.18748089E+03</rscale>
<asrwt>0</asrwt>
<pdfrwt beam="1">  1       21 0.21311332E-01 0.18792956E+03</pdfrwt>
<pdfrwt beam="2">  1       21 0.58218628E-01 0.18792956E+03</pdfrwt>
<totfact> 0.56766756E+04</totfact>
</mgrwt>
</event>
<event>
12    1  0.2743855E-001  0.2151289E+03  0.7546771E-02  0.1137793E+00
         21   -1    0    0  502  503  0.00000000000E+00  0.00000000000E+00  0.35206272952E+03  0.35206272952E+03  0.00000000000E+00 0. -1.
         21   -1    0    0  503  504 -0.00000000000E+00 -0.00000000000E+00 -0.13119432901E+03  0.13119432901E+03  0.00000000000E+00 0. -1.
         -6    2    1    2    0  504 -0.11723425128E+03  0.50370883505E+02  0.12433850363E+03  0.24746379979E+03  0.17174741088E+03 0.  0.
        -24    2    3    3    0    0 -0.10742776349E+03  0.93266824633E+02  0.12012083324E+03  0.20301036672E+03  0.80899749522E+02 0.  0.
          6    2    1    2  502    0  0.11723425128E+03 -0.50370883505E+02  0.96529896881E+02  0.23579325874E+03  0.17320318790E+03 0.  0.
         24    2    5    5    0    0  0.14514180724E+02 -0.52239623612E+02  0.89102923493E+02  0.13268091701E+03  0.82007652364E+02 0.  0.
          2    1    6    6  501    0 -0.89364085565E+01 -0.69908025761E+01  0.80133940474E+02  0.80933176970E+02  0.00000000000E+00 0. -1.
         -1    1    6    6    0  501  0.23450589281E+02 -0.45248821036E+02  0.89689830188E+01  0.51747740039E+02  0.00000000000E+00 0.  1.
          5    1    5    5  502    0  0.10272007055E+03  0.18687401066E+01  0.74269733883E+01  0.10311234174E+03  0.47000000000E+01 0. -1.
         13    1    4    4    0    0 -0.11109583693E+03  0.58599292711E+02  0.76102553578E+02  0.14685966346E+03  0.00000000000E+00 0. -1.
        -14    1    4    4    0    0  0.36680734448E+01  0.34667531923E+02  0.44018279665E+02  0.56150703264E+02  0.00000000000E+00 0.  1.
         -5    1    3    3    0  504 -0.98064877908E+01 -0.42895941128E+02  0.42176703859E+01  0.44453433068E+02  0.47000000000E+01 0.  1.
<mgrwt>
<rscale>  2 0.21483571E+03</rscale>
<asrwt>0</asrwt>
<pdfrwt beam="1">  1       21 0.54163497E-01 0.21512889E+03</pdfrwt>
<pdfrwt beam="2">  1       21 0.20183743E-01 0.21512889E+03</pdfrwt>
<totfact> 0.72395568E+04</totfact>
</mgrwt>
</event>
<event>
12    1  0.2743855E-001  0.2174031E+03  0.7546771E-02  0.1136296E+00
         21   -1    0    0  502  503  0.00000000000E+00  0.00000000000E+00  0.26368286916E+03  0.26368286916E+03  0.00000000000E+00 0.  1.
         21   -1    0    0  503  504 -0.00000000000E+00 -0.00000000000E+00 -0.34679053452E+03  0.34679053452E+03  0.00000000000E+00 0. -1.
         -6    2    1    2    0  504 -0.43244866156E+02  0.12740640864E+03 -0.25509296758E+03  0.33516642668E+03  0.17076767860E+03 0.  0.
        -24    2    3    3    0    0  0.37552815380E+02  0.61307120173E+02 -0.99204938556E+02  0.14749504136E+03  0.82124237980E+02 0.  0.
          6    2    1    2  502    0  0.43244866156E+02 -0.12740640864E+03  0.17198530221E+03  0.27530697701E+03  0.16766775480E+03 0.  0.
         24    2    5    5    0    0  0.51963987042E+02 -0.14323069917E+03  0.18519675073E+03  0.25243639302E+03  0.78809941662E+02 0.  0.
          4    1    6    6  501    0  0.54060245011E+02 -0.38936968568E+02  0.62005330370E+02  0.91012409079E+02  0.00000000000E+00 0. -1.
         -3    1    6    6    0  501 -0.20962579697E+01 -0.10429373061E+03  0.12319142036E+03  0.16142398394E+03  0.00000000000E+00 0.  1.
          5    1    5    5  502    0 -0.87191208859E+01  0.15824290531E+02 -0.13211448520E+02  0.22870583985E+02  0.47000000000E+01 0. -1.
         13    1    4    4    0    0 -0.19997066934E+02  0.39761644516E+02 -0.24643438422E+02  0.50874061346E+02  0.00000000000E+00 0. -1.
        -14    1    4    4    0    0  0.57549882315E+02  0.21545475657E+02 -0.74561500134E+02  0.96620980010E+02  0.00000000000E+00 0.  1.
         -5    1    3    3    0  504 -0.80797681536E+02  0.66099288469E+02 -0.15588802902E+03  0.18767138532E+03  0.47000000000E+01 0.  1.
<mgrwt>
<rscale>  2 0.21679395E+03</rscale>
<asrwt>0</asrwt>
<pdfrwt beam="1">  1       21 0.40566595E-01 0.21740311E+03</pdfrwt>
<pdfrwt beam="2">  1       21 0.53352390E-01 0.21740311E+03</pdfrwt>
<totfact> 0.19189563E+04</totfact>
</mgrwt>
</event>
<event>
12    1  0.2743855E-001  0.2308091E+03  0.7546771E-02  0.1126571E+00
         21   -1    0    0  502  503  0.00000000000E+00  0.00000000000E+00  0.54743453040E+03  0.54743453040E+03  0.00000000000E+00 0.  1.
         21   -1    0    0  503  504 -0.00000000000E+00 -0.00000000000E+00 -0.12203840090E+03  0.12203840090E+03  0.00000000000E+00 0.  1.
         -6    2    1    2    0  504  0.11979053863E+03  0.94907874094E+02  0.57415573203E+02  0.23509692446E+03  0.16916482535E+03 0.  0.
        -24    2    3    3    0    0  0.35919367667E+02  0.11015605304E+03  0.41166948065E+02  0.14818899560E+03  0.82708547376E+02 0.  0.
          6    2    1    2  502    0 -0.11979053863E+03 -0.94907874094E+02  0.36798055630E+03  0.43437600683E+03  0.17296111640E+03 0.  0.
         24    2    5    5    0    0 -0.48199463781E+02 -0.88316964318E+02  0.32736014005E+03  0.35166669474E+03  0.79885720882E+02 0.  0.
          4    1    6    6  501    0  0.13761209051E+02 -0.17692757865E+02  0.19234892844E+02  0.29536175415E+02  0.00000000000E+00 0. -1.
         -3    1    6    6    0  501 -0.61960672832E+02 -0.70624206453E+02  0.30812524721E+03  0.32213051933E+03  0.00000000000E+00 0.  1.
          5    1    5    5  502    0 -0.71591074854E+02 -0.65909097763E+01  0.40620416245E+02  0.82709312089E+02  0.47000000000E+01 0. -1.
         13    1    4    4    0    0  0.24894275382E+02  0.15815084562E+02  0.44224460239E+02  0.53156793827E+02  0.00000000000E+00 0. -1.
        -14    1    4    4    0    0  0.11025092284E+02  0.94340968477E+02 -0.30575121742E+01  0.95032201773E+02  0.00000000000E+00 0.  1.
         -5    1    3    3    0  504  0.83871170968E+02 -0.15248178946E+02  0.16248625138E+02  0.86907928865E+02  0.47000000000E+01 0.  1.
<mgrwt>
<rscale>  2 0.23009805E+03</rscale>
<asrwt>0</asrwt>
<pdfrwt beam="1">  1       21 0.84220696E-01 0.23080907E+03</pdfrwt>
<pdfrwt beam="2">  1       21 0.18775139E-01 0.23080907E+03</pdfrwt>
<totfact> 0.31140695E+04</totfact>
</mgrwt>
</event>
<event>
12    1  0.2743855E-001  0.2094687E+03  0.7546771E-02  0.1142005E+00
         21   -1    0    0  502  503  0.00000000000E+00  0.00000000000E+00  0.14832857973E+03  0.14832857973E+03  0.00000000000E+00 0.  1.
         21   -1    0    0  503  504 -0.00000000000E+00 -0.00000000000E+00 -0.34633537934E+03  0.34633537934E+03  0.00000000000E+00 0. -1.
         -6    2    1    2    0  504  0.18974512281E+02 -0.11745585756E+03 -0.19360455645E+03  0.28523647214E+03  0.17239840536E+03 0.  0.
        -24    2    3    3    0    0  0.25104154115E+02 -0.10403439074E+03 -0.21928460032E+03  0.25524875910E+03  0.74918756499E+02 0.  0.
          6    2    1    2  502    0 -0.18974512281E+02  0.11745585756E+03 -0.44022431525E+01  0.20942748693E+03  0.17229214127E+03 0.  0.
         24    2    5    5    0    0  0.11317248722E+02  0.64485139698E+02  0.60149234943E+02  0.12047541522E+03  0.81301794869E+02 0.  0.
          4    1    6    6  501    0 -0.22930752072E+02  0.61225017948E+01  0.45382087065E+02  0.51213652918E+02  0.00000000000E+00 0. -1.
         -3    1    6    6    0  501  0.34248000795E+02  0.58362637903E+02  0.14767147878E+02  0.69261762307E+02  0.00000000000E+00 0.  1.
          5    1    5    5  502    0 -0.30291761003E+02  0.52970717864E+02 -0.64551478095E+02  0.88952071702E+02  0.47000000000E+01 0. -1.
         13    1    4    4    0    0  0.21732353981E+01  0.11974899188E+02 -0.25007317978E+02  0.27811636326E+02  0.00000000000E+00 0. -1.
        -14    1    4    4    0    0  0.22930918717E+02 -0.11600928993E+03 -0.19427728234E+03  0.22743712277E+03  0.00000000000E+00 0.  1.
         -5    1    3    3    0  504 -0.61296418339E+01 -0.13421466819E+02  0.25680043867E+02  0.29987713044E+02  0.47000000000E+01 0.  1.
<mgrwt>
<rscale>  2 0.20944680E+03</rscale>
<asrwt>0</asrwt>
<pdfrwt beam="1">  1       21 0.22819782E-01 0.20946866E+03</pdfrwt>
<pdfrwt beam="2">  1       21 0.53282366E-01 0.20946866E+03</pdfrwt>
<totfact> 0.59614927E+04</totfact>
</mgrwt>
</event>
<event>
12    1  0.2743855E-001  0.3006996E+03  0.7546771E-02  0.1085022E+00
         21   -1    0    0  502  503  0.00000000000E+00  0.00000000000E+00  0.85887228106E+03  0.85887228106E+03  0.00000000000E+00 0. -1.
         21   -1    0    0  503  504 -0.00000000000E+00 -0.00000000000E+00 -0.23315575320E+03  0.23315575320E+03  0.00000000000E+00 0.  1.
         -6    2    1    2    0  504  0.15157556294E+03  0.19173747779E+03 -0.91843263516E+02  0.31441279845E+03  0.17516224224E+03 0.  0.
        -24    2    3    3    0    0  0.11807736183E+03  0.17557326913E+03 -0.13220529266E+02  0.22730920806E+03  0.82014983159E+02 0.  0.
          6    2    1    2  502    0 -0.15157556294E+03 -0.19173747779E+03  0.71755979138E+03  0.77761523580E+03  0.17336374787E+03 0.  0.
         24    2    5    5    0    0 -0.66280388513E+02 -0.12934040128E+03  0.26568936069E+03  0.31352727208E+03  0.81157160187E+02 0.  0.
          4    1    6    6  501    0 -0.15010395946E+02 -0.10833487677E+03  0.15444257892E+03  0.18924657908E+03  0.00000000000E+00 0. -1.
         -3    1    6    6    0  501 -0.51269992567E+02 -0.21005524512E+02  0.11124678177E+03  0.12428069299E+03  0.00000000000E+00 0.  1.
          5    1    5    5  502    0 -0.85295174427E+02 -0.62397076511E+02  0.45187043069E+03  0.46408796372E+03  0.47000000000E+01 0. -1.
         13    1    4    4    0    0 -0.11552312788E+02  0.56069879270E+01 -0.35948448174E+01  0.13334809846E+02  0.00000000000E+00 0. -1.
        -14    1    4    4    0    0  0.12962967462E+03  0.16996628120E+03 -0.96256844489E+01  0.21397439821E+03  0.00000000000E+00 0.  1.
         -5    1    3    3    0  504  0.33498201109E+02  0.16164208664E+02 -0.78622734250E+02  0.87103590397E+02  0.47000000000E+01 0.  1.
<mgrwt>
<rscale>  2 0.30043819E+03</rscale>
<asrwt>0</asrwt>
<pdfrwt beam="1">  1       21 0.13213420E+00 0.30069956E+03</pdfrwt>
<pdfrwt beam="2">  1       21 0.35870116E-01 0.30069956E+03</pdfrwt>
<totfact> 0.28768358E+03</totfact>
</mgrwt>
</event>
<event>
12    1  0.2743855E-001  0.2538638E+03  0.7546771E-02  0.1111315E+00
         21   -1    0    0  502  503  0.00000000000E+00  0.00000000000E+00  0.38243013807E+02  0.38243013807E+02  0.00000000000E+00 0. -1.
         21   -1    0    0  503  504 -0.00000000000E+00 -0.00000000000E+00 -0.18182384032E+04  0.18182384032E+04  0.00000000000E+00 0.  1.
         -6    2    1    2    0  504  0.17011001980E+03 -0.71218868863E+02 -0.11532683093E+04  0.11802908744E+04  0.17043828440E+03 0.  0.
        -24    2    3    3    0    0  0.63248885865E+02 -0.95517771080E+02 -0.70286808442E+03  0.71672621744E+03  0.80925030177E+02 0.  0.
          6    2    1    2  502    0 -0.17011001980E+03  0.71218868863E+02 -0.62672708009E+03  0.67619054262E+03  0.17446280663E+03 0.  0.
         24    2    5    5    0    0 -0.12745676379E+03  0.69498866335E+02 -0.60627557397E+03  0.62862361336E+03  0.80760489239E+02 0.  0.
          2    1    6    6  501    0 -0.56856721125E+02  0.94337070530E+00 -0.12409365426E+03  0.13650205754E+03  0.00000000000E+00 0. -1.
         -1    1    6    6    0  501 -0.70600042665E+02  0.68555495629E+02 -0.48218191971E+03  0.49212155581E+03  0.00000000000E+00 0.  1.
          5    1    5    5  502    0 -0.42653256012E+02  0.17200025281E+01 -0.20451506120E+02  0.47566929265E+02  0.47000000000E+01 0. -1.
         11    1    4    4    0    0 -0.77130752824E+01  0.68345935500E+01 -0.13341781773E+03  0.13381523563E+03  0.00000000000E+00 0. -1.
        -12    1    4    4    0    0  0.70961961147E+02 -0.10235236463E+03 -0.56945026669E+03  0.58291098180E+03  0.00000000000E+00 0.  1.
         -5    1    3    3    0  504  0.10686113394E+03  0.24298902217E+02 -0.45040022486E+03  0.46356465693E+03  0.47000000000E+01 0.  1.
<mgrwt>
<rscale>  2 0.25317378E+03</rscale>
<asrwt>0</asrwt>
<pdfrwt beam="1">  1       21 0.58835423E-02 0.25386378E+03</pdfrwt>
<pdfrwt beam="2">  1       21 0.27972891E+00 0.25386378E+03</pdfrwt>
<totfact> 0.86088039E+03</totfact>
</mgrwt>
</event>
<event>
12    1  0.2743855E-001  0.1841558E+03  0.7546771E-02  0.1164053E+00
         21   -1    0    0  502  503  0.00000000000E+00  0.00000000000E+00  0.14008293112E+03  0.14008293112E+03  0.00000000000E+00 0. -1.
         21   -1    0    0  503  504 -0.00000000000E+00 -0.00000000000E+00 -0.24973117199E+03  0.24973117199E+03  0.00000000000E+00 0. -1.
         -6    2    1    2    0  504 -0.57229248482E+02 -0.22411593195E+02 -0.18328557747E+02  0.18506569481E+03  0.17359697283E+03 0.  0.
        -24    2    3    3    0    0 -0.33040519787E+02 -0.29066529869E+02  0.53827370294E+02  0.10852844421E+03  0.83333656489E+02 0.  0.
          6    2    1    2  502    0  0.57229248482E+02  0.22411593195E+02 -0.91319683129E+02  0.20474840830E+03  0.17264170928E+03 0.  0.
         24    2    5    5    0    0  0.94302319295E+01  0.59040693386E+02 -0.10169427011E+03  0.14346089718E+03  0.81636828059E+02 0.  0.
          2    1    6    6  501    0  0.24697124430E+02  0.75060502129E+02 -0.77736966643E+02  0.11084702485E+03  0.00000000000E+00 0. -1.
         -1    1    6    6    0  501 -0.15266892500E+02 -0.16019808743E+02 -0.23957303472E+02  0.32613872331E+02  0.00000000000E+00 0.  1.
          5    1    5    5  502    0  0.47799016552E+02 -0.36629100191E+02  0.10374586985E+02  0.61287511120E+02  0.47000000000E+01 0. -1.
         13    1    4    4    0    0 -0.31398760163E+02  0.86640784039E+01  0.61865408349E+02  0.69916215176E+02  0.00000000000E+00 0. -1.
        -14    1    4    4    0    0 -0.16417596241E+01 -0.37730608273E+02 -0.80380380550E+01  0.38612229035E+02  0.00000000000E+00 0.  1.
         -5    1    3    3    0  504 -0.24188728695E+02  0.66549366739E+01 -0.72155928041E+02  0.76537250600E+02  0.47000000000E+01 0.  1.
<mgrwt>
<rscale>  2 0.18393038E+03</rscale>
<asrwt>0</asrwt>
<pdfrwt beam="1">  1       21 0.21551220E-01 0.18415585E+03</pdfrwt>
<pdfrwt beam="2">  1       21 0.38420180E-01 0.18415585E+03</pdfrwt>
<totfact> 0.13147104E+05</totfact>
</mgrwt>
</event>
<event>
12    1  0.2743855E-001  0.1857864E+03  0.7546771E-02  0.1162330E+00
         21   -1    0    0  502  503  0.00000000000E+00  0.00000000000E+00  0.35342117143E+03  0.35342117143E+03  0.00000000000E+00 0. -1.
         21   -1    0    0  503  504 -0.00000000000E+00 -0.00000000000E+00 -0.58079173790E+03  0.58079173790E+03  0.00000000000E+00 0. -1.
         -6    2    1    2    0  504  0.58196439393E+02  0.30974327891E+02 -0.53972634633E+03  0.57080742891E+03  0.17369616412E+03 0.  0.
        -24    2    3    3    0    0  0.56581885920E+02 -0.43616954790E+02 -0.35997277089E+03  0.37612845182E+03  0.82390945685E+02 0.  0.
          6    2    1    2  502    0 -0.58196439393E+02 -0.30974327891E+02  0.31235577986E+03  0.36340548042E+03  0.17364093827E+03 0.  0.
         24    2    5    5    0    0 -0.87943912860E+02 -0.11520537382E+02  0.30385832707E+03  0.32655905798E+03  0.80275032417E+02 0.  0.
          2    1    6    6  501    0 -0.25615992217E+02 -0.10969274245E+02  0.22163973161E+03  0.22338458913E+03  0.00000000000E+00 0. -1.
         -1    1    6    6    0  501 -0.62327920643E+02 -0.55126313773E+00  0.82218595466E+02  0.10317446885E+03  0.00000000000E+00 0.  1.
          5    1    5    5  502    0  0.29747473467E+02 -0.19453790508E+02  0.84974527896E+01  0.36846422441E+02  0.47000000000E+01 0. -1.
         11    1    4    4    0    0 -0.21629547189E+02 -0.85478550669E+01 -0.82891958288E+02  0.86092856188E+02  0.00000000000E+00 0. -1.
        -12    1    4    4    0    0  0.78211433109E+02 -0.35069099724E+02 -0.27708081260E+03  0.29003559564E+03  0.00000000000E+00 0.  1.
         -5    1    3    3    0  504  0.16145534730E+01  0.74591282681E+02 -0.17975357544E+03  0.19467897708E+03  0.47000000000E+01 0.  1.
<mgrwt>
<rscale>  2 0.18577351E+03</rscale>
<asrwt>0</asrwt>
<pdfrwt beam="1">  1       21 0.54372488E-01 0.18578641E+03</pdfrwt>
<pdfrwt beam="2">  1       21 0.89352575E-01 0.18578641E+03</pdfrwt>
<totfact> 0.34337784E+03</totfact>
</mgrwt>
</event>
<event>
12    1  0.2743855E-001  0.1964364E+03  0.7546771E-02  0.1153642E+00
         21   -1    0    0  502  503  0.00000000000E+00  0.00000000000E+00  0.84173180210E+02  0.84173180210E+02  0.00000000000E+00 0. -1.
         21   -1    0    0  503  504 -0.00000000000E+00 -0.00000000000E+00 -0.47236448026E+03  0.47236448026E+03  0.00000000000E+00 0. -1.
         -6    2    1    2    0  504 -0.81922289350E+02  0.25393014180E+02 -0.25375449907E+03  0.31850298448E+03  0.17232741703E+03 0.  0.
        -24    2    3    3    0    0 -0.38571431339E+02  0.43939853121E+02 -0.25221969452E+03  0.27109277724E+03  0.80362015672E+02 0.  0.
          6    2    1    2  502    0  0.81922289350E+02 -0.25393014180E+02 -0.13443680098E+03  0.23803467599E+03  0.17672347568E+03 0.  0.
         24    2    5    5    0    0  0.11205646272E+03  0.53459091835E+01 -0.57573722664E+02  0.14981351854E+03  0.80895779950E+02 0.  0.
          2    1    6    6  501    0  0.67504730274E+02 -0.11473277233E+02 -0.72679699458E+02  0.99854210793E+02  0.00000000000E+00 0. -1.
         -1    1    6    6    0  501  0.44551732445E+02  0.16819186417E+02  0.15105976794E+02  0.49959307747E+02  0.00000000000E+00 0.  1.
          5    1    5    5  502    0 -0.30134173369E+02 -0.30738923364E+02 -0.76863078312E+02  0.88221157450E+02  0.47000000000E+01 0. -1.
         13    1    4    4    0    0 -0.41216199902E+02 -0.52636149054E+01 -0.17200550074E+03  0.17695302501E+03  0.00000000000E+00 0. -1.
        -14    1    4    4    0    0  0.26447685625E+01  0.49203468027E+02 -0.80214193776E+02  0.94139752229E+02  0.00000000000E+00 0.  1.
         -5    1    3    3    0  504 -0.43350858011E+02 -0.18546838941E+02 -0.15348045543E+01  0.47410207235E+02  0.47000000000E+01 0.  1.
<mgrwt>
<rscale>  2 0.19544254E+03</rscale>
<asrwt>0</asrwt>
<pdfrwt beam="1">  1       21 0.12949720E-01 0.19643639E+03</pdfrwt>
<pdfrwt beam="2">  1       21 0.72671457E-01 0.19643639E+03</pdfrwt>
<totfact> 0.87163016E+04</totfact>
</mgrwt>
</event>
<event>
12    1  0.2743855E-001  0.1878355E+03  0.7546771E-02  0.1160733E+00
         21   -1    0    0  502  503  0.00000000000E+00  0.00000000000E+00  0.13615735931E+03  0.13615735931E+03  0.00000000000E+00 0. -1.
         21   -1    0    0  503  504 -0.00000000000E+00 -0.00000000000E+00 -0.49698103245E+03  0.49698103245E+03  0.00000000000E+00 0. -1.
         -6    2    1    2    0  504 -0.10825701355E+02 -0.67427060113E+02 -0.39992460436E+03  0.44127626539E+03  0.17355531966E+03 0.  0.
        -24    2    3    3    0    0  0.73168991538E+01  0.22786336133E+02 -0.26158933823E+03  0.27506451289E+03  0.81601165725E+02 0.  0.
          6    2    1    2  502    0  0.10825701355E+02  0.67427060113E+02  0.39100931220E+02  0.19186212638E+03  0.17498168038E+03 0.  0.
         24    2    5    5    0    0 -0.44126223255E+02  0.38044665810E+02  0.69246879196E+02  0.12247979943E+03  0.82532725715E+02 0.  0.
          4    1    6    6  501    0 -0.30902638319E+02  0.64437756074E+02  0.50569410358E+02  0.87546917290E+02  0.00000000000E+00 0. -1.
         -3    1    6    6    0  501 -0.13223584935E+02 -0.26393090264E+02  0.18677468838E+02  0.34932882137E+02  0.00000000000E+00 0.  1.
          5    1    5    5  502    0  0.54951924610E+02  0.29382394303E+02 -0.30145947976E+02  0.69382326948E+02  0.47000000000E+01 0. -1.
         11    1    4    4    0    0  0.39832265356E+02 -0.34660841732E+01 -0.16585667353E+03  0.17060791089E+03  0.00000000000E+00 0. -1.
        -12    1    4    4    0    0 -0.32515366202E+02  0.26252420306E+02 -0.95732664702E+02  0.10445660200E+03  0.00000000000E+00 0.  1.
         -5    1    3    3    0  504 -0.18142600509E+02 -0.90213396246E+02 -0.13833526613E+03  0.16621175250E+03  0.47000000000E+01 0.  1.
<mgrwt>
<rscale>  2 0.18750266E+03</rscale>
<asrwt>0</asrwt>
<pdfrwt beam="1">  1       21 0.20947286E-01 0.18783555E+03</pdfrwt>
<pdfrwt beam="2">  1       21 0.76458621E-01 0.18783555E+03</pdfrwt>
<totfact> 0.32319147E+04</totfact>
</mgrwt>
</event>
<event>
12    1  0.2743855E-001  0.1787375E+03  0.7546771E-02  0.1169351E+00
         21   -1    0    0  502  503  0.00000000000E+00  0.00000000000E+00  0.43190528855E+03  0.43190528855E+03  0.00000000000E+00 0. -1.
         21   -1    0    0  503  504 -0.00000000000E+00 -0.00000000000E+00 -0.10330018209E+03  0.10330018209E+03  0.00000000000E+00 0. -1.
         -6    2    1    2    0  504 -0.37896863158E+02 -0.21356806763E+02  0.30777858708E+03  0.35525874190E+03  0.17201403896E+03 0.  0.
        -24    2    3    3    0    0  0.21620806591E+02  0.18383254067E+02  0.25696833528E+03  0.26736450355E+03  0.68158998781E+02 0.  0.
          6    2    1    2  502    0  0.37896863158E+02  0.21356806763E+02  0.20826519386E+02  0.17994672875E+03  0.17336319057E+03 0.  0.
         24    2    5    5    0    0 -0.17444220535E+02  0.54069743986E+02  0.46180094268E+02  0.11068154582E+03  0.83005815667E+02 0.  0.
          2    1    6    6  501    0 -0.26907971650E+02  0.47886195750E+02 -0.78455173093E+01  0.55485843452E+02  0.00000000000E+00 0. -1.
         -1    1    6    6    0  501  0.94637511154E+01  0.61835482360E+01  0.54025611577E+02  0.55195702371E+02  0.00000000000E+00 0.  1.
          5    1    5    5  502    0  0.55341083692E+02 -0.32712937224E+02 -0.25353574882E+02  0.69265182923E+02  0.47000000000E+01 0. -1.
         11    1    4    4    0    0  0.21232772552E+02 -0.23657500870E+02  0.11095473516E+03  0.11541863469E+03  0.00000000000E+00 0. -1.
        -12    1    4    4    0    0  0.38803403975E+00  0.42040754937E+02  0.14601360012E+03  0.15194586886E+03  0.00000000000E+00 0.  1.
         -5    1    3    3    0  504 -0.59517669749E+02 -0.39740060830E+02  0.50810251797E+02  0.87894238348E+02  0.47000000000E+01 0.  1.
<mgrwt>
<rscale>  2 0.17840949E+03</rscale>
<asrwt>0</asrwt>
<pdfrwt beam="1">  1       21 0.66446967E-01 0.17873746E+03</pdfrwt>
<pdfrwt beam="2">  1       21 0.15892336E-01 0.17873746E+03</pdfrwt>
<totfact> 0.73769853E+04</totfact>
</mgrwt>
</event>
<event>
12    1  0.2743855E-001  0.2089905E+03  0.7546771E-02  0.1142892E+00
         21   -1    0    0  502  503  0.00000000000E+00  0.00000000000E+00  0.11777584229E+03  0.11777584229E+03  0.00000000000E+00 0. -1.
         21   -1    0    0  503  504 -0.00000000000E+00 -0.00000000000E+00 -0.36643938764E+03  0.36643938764E+03  0.00000000000E+00 0.  1.
         -6    2    1    2    0  504  0.10440792090E+03 -0.54981014195E+02 -0.13092970740E+03  0.24661632734E+03  0.17249086573E+03 0.  0.
        -24    2    3    3    0    0 -0.11241675460E+02 -0.25422669133E+02 -0.30276001748E+02  0.90405625518E+02  0.80522378693E+02 0.  0.
          6    2    1    2  502    0 -0.10440792090E+03  0.54981014195E+02 -0.11773383795E+03  0.23759890259E+03  0.16931643761E+03 0.  0.
         24    2    5    5    0    0 -0.36638061554E+02 -0.28938895964E+02 -0.79364015253E+02  0.12301426815E+03  0.81572397274E+02 0.  0.
          4    1    6    6  501    0 -0.31620103407E+02 -0.17237122954E+02  0.61699142427E+01  0.36537887035E+02  0.00000000000E+00 0. -1.
         -3    1    6    6    0  501 -0.50179581472E+01 -0.11701773010E+02 -0.85533929496E+02  0.86476381114E+02  0.00000000000E+00 0.  1.
          5    1    5    5  502    0 -0.67769859342E+02  0.83919910159E+02 -0.38369822695E+02  0.11458463444E+03  0.47000000000E+01 0. -1.
         13    1    4    4    0    0 -0.24541922815E+02 -0.44284957648E+02  0.20661547143E+01  0.50672797877E+02  0.00000000000E+00 0. -1.
        -14    1    4    4    0    0  0.13300247354E+02  0.18862288516E+02 -0.32342156462E+02  0.39732827641E+02  0.00000000000E+00 0.  1.
         -5    1    3    3    0  504  0.11564959636E+03 -0.29558345062E+02 -0.10065370565E+03  0.15621070182E+03  0.47000000000E+01 0.  1.
<mgrwt>
<rscale>  2 0.20833435E+03</rscale>
<asrwt>0</asrwt>
<pdfrwt beam="1">  1       21 0.18119361E-01 0.20899049E+03</pdfrwt>
<pdfrwt beam="2">  1       21 0.56375290E-01 0.20899049E+03</pdfrwt>
<totfact> 0.81524013E+04</totfact>
</mgrwt>
</event>
<event>
12    1  0.2743855E-001  0.2065132E+03  0.7546771E-02  0.1144384E+00
         21   -1    0    0  502  503  0.00000000000E+00  0.00000000000E+00  0.41106144161E+03  0.41106144161E+03  0.00000000000E+00 0.  1.
         21   -1    0    0  503  504 -0.00000000000E+00 -0.00000000000E+00 -0.23433966080E+03  0.23433966080E+03  0.00000000000E+00 0. -1.
         -6    2    1    2    0  504  0.11886314524E+02 -0.11045771758E+03 -0.15260838035E+03  0.25667747131E+03  0.17393048806E+03 0.  0.
        -24    2    3    3    0    0 -0.22517924584E+02  0.25373788583E+01 -0.99303399294E+02  0.12700459637E+03  0.75865058951E+02 0.  0.
          6    2    1    2  502    0 -0.11886314524E+02  0.11045771758E+03  0.32933016116E+03  0.38872363110E+03  0.17408479107E+03 0.  0.
         24    2    5    5    0    0 -0.15181360937E+02  0.16120051467E+02  0.25576528555E+03  0.26895579944E+03  0.80193584399E+02 0.  0.
          4    1    6    6  501    0  0.28891195799E+02  0.11147432527E+02  0.16562261176E+03  0.16849277721E+03  0.00000000000E+00 0. -1.
         -3    1    6    6    0  501 -0.44072556736E+02  0.49726189399E+01  0.90142673791E+02  0.10046302223E+03  0.00000000000E+00 0.  1.
          5    1    5    5  502    0  0.32950464134E+01  0.94337666115E+02  0.73564875610E+02  0.11976783167E+03  0.47000000000E+01 0. -1.
         11    1    4    4    0    0 -0.33434776907E+02 -0.29888829493E+02 -0.52907733246E+02  0.69357441364E+02  0.00000000000E+00 0. -1.
        -12    1    4    4    0    0  0.10916852323E+02  0.32426208352E+02 -0.46395666047E+02  0.57647155009E+02  0.00000000000E+00 0.  1.
         -5    1    3    3    0  504  0.34404239107E+02 -0.11299509644E+03 -0.53304981057E+02  0.12967287493E+03  0.47000000000E+01 0.  1.
<mgrwt>
<rscale>  2 0.20648069E+03</rscale>
<asrwt>0</asrwt>
<pdfrwt beam="1">  1       21 0.63240222E-01 0.20651321E+03</pdfrwt>
<pdfrwt beam="2">  1       21 0.36052255E-01 0.20651321E+03</pdfrwt>
<totfact> 0.17016326E+04</totfact>
</mgrwt>
</event>
<event>
12    1  0.2743855E-001  0.1817516E+03  0.7546771E-02  0.1166508E+00
         21   -1    0    0  502  503  0.00000000000E+00  0.00000000000E+00  0.24816420341E+03  0.24816420341E+03  0.00000000000E+00 0. -1.
         21   -1    0    0  503  504 -0.00000000000E+00 -0.00000000000E+00 -0.13356067382E+03  0.13356067382E+03  0.00000000000E+00 0. -1.
         -6    2    1    2    0  504  0.46627258481E+02  0.18665075605E+02  0.78168668353E+02  0.19635724393E+03  0.17298364157E+03 0.  0.
        -24    2    3    3    0    0  0.61218799110E+02  0.29521853660E+02 -0.10848933712E+02  0.10537919072E+03  0.79798454036E+02 0.  0.
          6    2    1    2  502    0 -0.46627258481E+02 -0.18665075605E+02  0.36434861231E+02  0.18536763330E+03  0.17467448034E+03 0.  0.
         24    2    5    5    0    0 -0.62741774946E+02 -0.25010398101E+02  0.85199841733E+02  0.13340558868E+03  0.77304512948E+02 0.  0.
          4    1    6    6  501    0 -0.11229948656E+02  0.24612308487E+02  0.41650691104E+02  0.49665456258E+02  0.00000000000E+00 0. -1.
         -3    1    6    6    0  501 -0.51511826290E+02 -0.49622706588E+02  0.43549150630E+02  0.83740132419E+02  0.00000000000E+00 0.  1.
          5    1    5    5  502    0  0.16114516465E+02  0.63453224962E+01 -0.48764980503E+02  0.51962044628E+02  0.47000000000E+01 0. -1.
         13    1    4    4    0    0  0.18491193574E+02  0.39887956284E+02  0.23253932815E+02  0.49736492515E+02  0.00000000000E+00 0. -1.
        -14    1    4    4    0    0  0.42727605536E+02 -0.10366102624E+02 -0.34102866527E+02  0.55642698207E+02  0.00000000000E+00 0.  1.
         -5    1    3    3    0  504 -0.14591540629E+02 -0.10856778055E+02  0.89017602065E+02  0.90978053205E+02  0.47000000000E+01 0.  1.
<mgrwt>
<rscale>  2 0.18134418E+03</rscale>
<asrwt>0</asrwt>
<pdfrwt beam="1">  1       21 0.38179108E-01 0.18175164E+03</pdfrwt>
<pdfrwt beam="2">  1       21 0.20547796E-01 0.18175164E+03</pdfrwt>
<totfact> 0.14570424E+05</totfact>
</mgrwt>
</event>
<event>
12    1  0.2743855E-001  0.1854411E+03  0.7546771E-02  0.1163132E+00
         21   -1    0    0  502  503  0.00000000000E+00  0.00000000000E+00  0.28957749633E+03  0.28957749633E+03  0.00000000000E+00 0.  1.
         21   -1    0    0  503  504 -0.00000000000E+00 -0.00000000000E+00 -0.19421095458E+03  0.19421095458E+03  0.00000000000E+00 0. -1.
         -6    2    1    2    0  504 -0.34989615346E+01 -0.67272139045E+02 -0.10459597791E+03  0.21107355525E+03  0.17051083164E+03 0.  0.
        -24    2    3    3    0    0  0.18239365661E+02 -0.93409037773E+02 -0.12180106530E+03  0.17268348653E+03  0.76981583592E+02 0.  0.
          6    2    1    2  502    0  0.34989615346E+01  0.67272139045E+02  0.19996251966E+03  0.27271489566E+03  0.17277332439E+03 0.  0.
         24    2    5    5    0    0  0.17408769123E+02  0.10849278993E+03  0.18141674644E+03  0.22518952863E+03  0.75660671480E+02 0.  0.
          2    1    6    6  501    0 -0.22666754746E+02  0.55771444784E+02  0.50910070411E+02  0.78842064238E+02  0.00000000000E+00 0. -1.
         -1    1    6    6    0  501  0.40075523869E+02  0.52721345145E+02  0.13050667603E+03  0.14634746439E+03  0.00000000000E+00 0.  1.
          5    1    5    5  502    0 -0.13909807589E+02 -0.41220650884E+02  0.18545773227E+02  0.47525367027E+02  0.47000000000E+01 0. -1.
         11    1    4    4    0    0  0.13376095626E+02  0.29731923584E+00 -0.57247403421E+02  0.58790080212E+02  0.00000000000E+00 0. -1.
        -12    1    4    4    0    0  0.48632700353E+01 -0.93706357009E+02 -0.64553661882E+02  0.11389340631E+03  0.00000000000E+00 0.  1.
         -5    1    3    3    0  504 -0.21738327196E+02  0.26136898728E+02  0.17205087395E+02  0.38390068725E+02  0.47000000000E+01 0.  1.
<mgrwt>
<rscale>  2 0.18491233E+03</rscale>
<asrwt>0</asrwt>
<pdfrwt beam="1">  1       21 0.44550384E-01 0.18544111E+03</pdfrwt>
<pdfrwt beam="2">  1       21 0.29878608E-01 0.18544111E+03</pdfrwt>
<totfact> 0.52129562E+04</totfact>
</mgrwt>
</event>
<event>
12    1  0.2743855E-001  0.2285806E+03  0.7546771E-02  0.1128252E+00
         21   -1    0    0  502  503  0.00000000000E+00  0.00000000000E+00  0.29434208406E+03  0.29434208406E+03  0.00000000000E+00 0.  1.
         21   -1    0    0  503  504 -0.00000000000E+00 -0.00000000000E+00 -0.22851570948E+03  0.22851570948E+03  0.00000000000E+00 0.  1.
         -6    2    1    2    0  504 -0.14842637766E+03  0.85582869678E+01 -0.93931714319E+02  0.24398193317E+03  0.16911647730E+03 0.  0.
        -24    2    3    3    0    0 -0.37018395449E+02  0.40920033749E+02 -0.79485936918E+02  0.12697855014E+03  0.82223641757E+02 0.  0.
          6    2    1    2  502    0  0.14842637766E+03 -0.85582869678E+01  0.15975808891E+03  0.27887586037E+03  0.17362449327E+03 0.  0.
         24    2    5    5    0    0  0.51344951198E+02  0.17075785745E+02  0.76174798174E+01  0.96527940222E+02  0.79572173355E+02 0.  0.
          4    1    6    6  501    0  0.16105404104E+02  0.47182695474E+02  0.29169143197E+01  0.49940956966E+02  0.00000000000E+00 0. -1.
         -3    1    6    6    0  501  0.35239547094E+02 -0.30106909730E+02  0.47005654978E+01  0.46586983256E+02  0.00000000000E+00 0.  1.
          5    1    5    5  502    0  0.97081426467E+02 -0.25634072713E+02  0.15214060909E+03  0.18234792015E+03  0.47000000000E+01 0. -1.
         13    1    4    4    0    0  0.92914316188E+01 -0.20258804010E+02 -0.17344695115E+02  0.28241605657E+02  0.00000000000E+00 0. -1.
        -14    1    4    4    0    0 -0.46309827068E+02  0.61178837759E+02 -0.62141241803E+02  0.98736944481E+02  0.00000000000E+00 0.  1.
         -5    1    3    3    0  504 -0.11140798222E+03 -0.32361746781E+02 -0.14445777401E+02  0.11700338303E+03  0.47000000000E+01 0.  1.
<mgrwt>
<rscale>  2 0.22772455E+03</rscale>
<asrwt>0</asrwt>
<pdfrwt beam="1">  1       21 0.45283398E-01 0.22858062E+03</pdfrwt>
<pdfrwt beam="2">  1       21 0.35156263E-01 0.22858062E+03</pdfrwt>
<totfact> 0.35834007E+04</totfact>
</mgrwt>
</event>
<event>
12    1  0.2743855E-001  0.2256092E+03  0.7546771E-02  0.1129814E+00
         21   -1    0    0  502  503  0.00000000000E+00  0.00000000000E+00  0.48091814900E+02  0.48091814900E+02  0.00000000000E+00 0. -1.
         21   -1    0    0  503  504 -0.00000000000E+00 -0.00000000000E+00 -0.10583217283E+04  0.10583217283E+04  0.00000000000E+00 0.  1.
         -6    2    1    2    0  504 -0.13309120286E+03 -0.54952152256E+02 -0.52268346604E+03  0.56919753263E+03  0.17336325492E+03 0.  0.
        -24    2    3    3    0    0 -0.48882154693E+02 -0.69174715692E+02 -0.42288788322E+03  0.43776430450E+03  0.75025450244E+02 0.  0.
          6    2    1    2  502    0  0.13309120286E+03  0.54952152256E+02 -0.48754644739E+03  0.53721601060E+03  0.17368504936E+03 0.  0.
         24    2    5    5    0    0  0.18045108253E+02  0.66582809994E+02 -0.17947450418E+03  0.20812439984E+03  0.79660351737E+02 0.  0.
          2    1    6    6  501    0  0.14254313190E+02  0.30506873356E+02 -0.10458467679E+02  0.35259527971E+02  0.00000000000E+00 0. -1.
         -1    1    6    6    0  501  0.37907950630E+01  0.36075936637E+02 -0.16901603650E+03  0.17286487187E+03  0.00000000000E+00 0.  1.
          5    1    5    5  502    0  0.11504609461E+03 -0.11630657738E+02 -0.30807194321E+03  0.32909161077E+03  0.47000000000E+01 0. -1.
         13    1    4    4    0    0 -0.54950920987E+02 -0.18995883752E+02 -0.16432965830E+03  0.17431203032E+03  0.00000000000E+00 0. -1.
        -14    1    4    4    0    0  0.60687662939E+01 -0.50178831940E+02 -0.25855822492E+03  0.26345227418E+03  0.00000000000E+00 0.  1.
         -5    1    3    3    0  504 -0.84209048168E+02  0.14222563436E+02 -0.99795582821E+02  0.13143322812E+03  0.47000000000E+01 0.  1.
<mgrwt>
<rscale>  2 0.22554725E+03</rscale>
<asrwt>0</asrwt>
<pdfrwt beam="1">  1       21 0.73987408E-02 0.22560918E+03</pdfrwt>
<pdfrwt beam="2">  1       21 0.16281873E+00 0.22560918E+03</pdfrwt>
<totfact> 0.32338882E+04</totfact>
</mgrwt>
</event>
<event>
12    1  0.2743855E-001  0.2053550E+03  0.7546771E-02  0.1145561E+00
         21   -1    0    0  502  503  0.00000000000E+00  0.00000000000E+00  0.38532842869E+02  0.38532842869E+02  0.00000000000E+00 0.  1.
         21   -1    0    0  503  504 -0.00000000000E+00 -0.00000000000E+00 -0.19799018329E+04  0.19799018329E+04  0.00000000000E+00 0. -1.
         -6    2    1    2    0  504 -0.10751136521E+03 -0.22943636865E+02 -0.16498855954E+04  0.16626163565E+04  0.17345191517E+03 0.  0.
        -24    2    3    3    0    0 -0.28048803692E+02  0.47228222241E+02 -0.89917528838E+03  0.90444326046E+03  0.80524355298E+02 0.  0.
          6    2    1    2  502    0  0.10751136521E+03  0.22943636865E+02 -0.29148339463E+03  0.35581831927E+03  0.17192731854E+03 0.  0.
         24    2    5    5    0    0  0.12488867902E+02  0.41706088516E+02 -0.71086997235E+02  0.11503217645E+03  0.79269608317E+02 0.  0.
          4    1    6    6  501    0  0.18021475242E+02  0.64252284809E+02 -0.57801031108E+02  0.88284137138E+02  0.00000000000E+00 0. -1.
         -3    1    6    6    0  501 -0.55326073397E+01 -0.22546196292E+02 -0.13285966126E+02  0.26748039314E+02  0.00000000000E+00 0.  1.
          5    1    5    5  502    0  0.95022497308E+02 -0.18762451651E+02 -0.22039639740E+03  0.24078614281E+03  0.47000000000E+01 0. -1.
         11    1    4    4    0    0 -0.13200944571E+02  0.27716818922E+02 -0.93826246601E+02  0.98721079512E+02  0.00000000000E+00 0. -1.
        -12    1    4    4    0    0 -0.14847859121E+02  0.19511403319E+02 -0.80534904178E+03  0.80572218095E+03  0.00000000000E+00 0.  1.
         -5    1    3    3    0  504 -0.79462561518E+02 -0.70171859106E+02 -0.75071030703E+03  0.75817309605E+03  0.47000000000E+01 0.  1.
<mgrwt>
<rscale>  2 0.20503270E+03</rscale>
<asrwt>0</asrwt>
<pdfrwt beam="1">  1       21 0.59281307E-02 0.20535499E+03</pdfrwt>
<pdfrwt beam="2">  1       21 0.30460023E+00 0.20535499E+03</pdfrwt>
<totfact> 0.63740338E+03</totfact>
</mgrwt>
</event>
<event>
12    1  0.2743855E-001  0.1915433E+03  0.7546771E-02  0.1157109E+00
         21   -1    0    0  502  503  0.00000000000E+00  0.00000000000E+00  0.19474146076E+02  0.19474146076E+02  0.00000000000E+00 0. -1.
         21   -1    0    0  503  504 -0.00000000000E+00 -0.00000000000E+00 -0.22846981250E+04  0.22846981250E+04  0.00000000000E+00 0.  1.
         -6    2    1    2    0  504 -0.79742767315E+02  0.17011430795E+02 -0.16163114474E+04  0.16276214278E+04  0.17332201141E+03 0.  0.
        -24    2    3    3    0    0 -0.11596385667E+03  0.20786241862E+02 -0.98563154627E+03  0.99587350010E+03  0.80092442153E+02 0.  0.
          6    2    1    2  502    0  0.79742767315E+02 -0.17011430795E+02 -0.64891253148E+03  0.67655084320E+03  0.17316256004E+03 0.  0.
         24    2    5    5    0    0 -0.26682322280E+02 -0.94900465356E+00 -0.24469870819E+03  0.25822655970E+03  0.78042625590E+02 0.  0.
          4    1    6    6  501    0  0.11587535686E+02 -0.22576929933E+02 -0.31042913992E+02  0.40095526653E+02  0.00000000000E+00 0. -1.
         -3    1    6    6    0  501 -0.38269857966E+02  0.21627925279E+02 -0.21365579420E+03  0.21813103304E+03  0.00000000000E+00 0.  1.
          5    1    5    5  502    0  0.10642508959E+03 -0.16062426142E+02 -0.40421382329E+03  0.41832428350E+03  0.47000000000E+01 0. -1.
         13    1    4    4    0    0 -0.10540561883E+01  0.23750409030E+02 -0.27274197791E+03  0.27377614849E+03  0.00000000000E+00 0. -1.
        -14    1    4    4    0    0 -0.11490980048E+03 -0.29641671676E+01 -0.71288956836E+03  0.72209735162E+03  0.00000000000E+00 0.  1.
         -5    1    3    3    0  504  0.36221089354E+02 -0.37748110668E+01 -0.63067990114E+03  0.63174792775E+03  0.47000000000E+01 0.  1.
<mgrwt>
<rscale>  2 0.19150717E+03</rscale>
<asrwt>0</asrwt>
<pdfrwt beam="1">  1       21 0.29960222E-02 0.19154325E+03</pdfrwt>
<pdfrwt beam="2">  1       21 0.35149205E+00 0.19154325E+03</pdfrwt>
<totfact> 0.10880172E+04</totfact>
</mgrwt>
</event>
<event>
12    1  0.2743855E-001  0.1769001E+03  0.7546771E-02  0.1170950E+00
         21   -1    0    0  502  503  0.00000000000E+00  0.00000000000E+00  0.70366603786E+03  0.70366603786E+03  0.00000000000E+00 0.  1.
         21   -1    0    0  503  504 -0.00000000000E+00 -0.00000000000E+00 -0.73783857940E+02  0.73783857940E+02  0.00000000000E+00 0.  1.
         -6    2    1    2    0  504 -0.28826736643E+02 -0.17731677972E+02  0.69699259119E+02  0.19013583036E+03  0.17363252609E+03 0.  0.
        -24    2    3    3    0    0 -0.76517962485E+02  0.21730789316E+02  0.55267380687E+02  0.12640115799E+03  0.81212952087E+02 0.  0.
          6    2    1    2  502    0  0.28826736643E+02  0.17731677972E+02  0.56018292081E+03  0.58731406544E+03  0.17316903175E+03 0.  0.
         24    2    5    5    0    0 -0.31059467722E+02  0.58316812101E+02  0.33046965289E+03  0.34643279585E+03  0.80249295632E+02 0.  0.
          4    1    6    6  501    0 -0.42507505938E+02  0.16747312810E+02  0.78720543177E+02  0.91018044725E+02  0.00000000000E+00 0. -1.
         -3    1    6    6    0  501  0.11448038216E+02  0.41569499291E+02  0.25174910972E+03  0.25541475113E+03  0.00000000000E+00 0.  1.
          5    1    5    5  502    0  0.59886204364E+02 -0.40585134129E+02  0.22971326791E+03  0.24088126959E+03  0.47000000000E+01 0. -1.
         11    1    4    4    0    0 -0.32157337135E+01  0.25826164185E+02 -0.10279115976E+02  0.27981992872E+02  0.00000000000E+00 0. -1.
        -12    1    4    4    0    0 -0.73302228771E+02 -0.40953748686E+01  0.65546496664E+02  0.98419165121E+02  0.00000000000E+00 0.  1.
         -5    1    3    3    0  504  0.47691225842E+02 -0.39462467288E+02  0.14431878432E+02  0.63734672368E+02  0.47000000000E+01 0.  1.
<mgrwt>
<rscale>  2 0.17678627E+03</rscale>
<asrwt>0</asrwt>
<pdfrwt beam="1">  1       21 0.10825631E+00 0.17690011E+03</pdfrwt>
<pdfrwt beam="2">  1       21 0.11351363E-01 0.17690011E+03</pdfrwt>
<totfact> 0.44355707E+04</totfact>
</mgrwt>
</event>
<event>
12    1  0.2743855E-001  0.1955526E+03  0.7546771E-02  0.1153666E+00
         21   -1    0    0  502  503  0.00000000000E+00  0.00000000000E+00  0.73237704552E+02  0.73237704552E+02  0.00000000000E+00 0.  1.
         21   -1    0    0  503  504 -0.00000000000E+00 -0.00000000000E+00 -0.62815227241E+03  0.62815227241E+03  0.00000000000E+00 0.  1.
         -6    2    1    2    0  504 -0.55876673453E+02  0.77736119751E+02 -0.42219290499E+03  0.46505154472E+03  0.16988520617E+03 0.  0.
        -24    2    3    3    0    0 -0.17417542483E+02  0.40427038371E+02 -0.39270222463E+03  0.40370936889E+03  0.82634744963E+02 0.  0.
          6    2    1    2  502    0  0.55876673453E+02 -0.77736119751E+02 -0.13272166287E+03  0.23633843224E+03  0.17051600456E+03 0.  0.
         24    2    5    5    0    0  0.92713431351E+02 -0.52265418749E+02 -0.13620100680E+03  0.19117318923E+03  0.81664066005E+02 0.  0.
          2    1    6    6  501    0  0.14569271675E+01 -0.19477644014E+02 -0.72663939727E+02  0.75243268069E+02  0.00000000000E+00 0. -1.
         -1    1    6    6    0  501  0.91256504184E+02 -0.32787774735E+02 -0.63537067078E+02  0.11592992116E+03  0.00000000000E+00 0.  1.
          5    1    5    5  502    0 -0.36836757899E+02 -0.25470701003E+02  0.34793439345E+01  0.45165243011E+02  0.47000000000E+01 0. -1.
         11    1    4    4    0    0 -0.21424667709E+02  0.69373290365E+01 -0.22021975573E+02  0.31497782918E+02  0.00000000000E+00 0. -1.
        -12    1    4    4    0    0  0.40071252265E+01  0.33489709335E+02 -0.37068024906E+03  0.37221158597E+03  0.00000000000E+00 0.  1.
         -5    1    3    3    0  504 -0.38459130970E+02  0.37309081380E+02 -0.29490680353E+02  0.61342175834E+02  0.47000000000E+01 0.  1.
<mgrwt>
<rscale>  2 0.19541499E+03</rscale>
<asrwt>0</asrwt>
<pdfrwt beam="1">  1       21 0.11267339E-01 0.19555259E+03</pdfrwt>
<pdfrwt beam="2">  1       21 0.96638813E-01 0.19555259E+03</pdfrwt>
<totfact> 0.58356306E+04</totfact>
</mgrwt>
</event>
<event>
12    1  0.2743855E-001  0.2317821E+03  0.7546771E-02  0.1126953E+00
         21   -1    0    0  502  503  0.00000000000E+00  0.00000000000E+00  0.13023578937E+04  0.13023578937E+04  0.00000000000E+00 0. -1.
         21   -1    0    0  503  504 -0.00000000000E+00 -0.00000000000E+00 -0.52147464143E+02  0.52147464143E+02  0.00000000000E+00 0. -1.
         -6    2    1    2    0  504  0.11355780367E+03  0.84582013045E+02  0.28512541375E+03  0.36197726466E+03  0.17228333310E+03 0.  0.
        -24    2    3    3    0    0  0.73262376191E+02  0.68216187083E+02  0.29087101105E+03  0.31785625353E+03  0.80036422293E+02 0.  0.
          6    2    1    2  502    0 -0.11355780367E+03 -0.84582013045E+02  0.96508501585E+03  0.99252809321E+03  0.18350323239E+03 0.  0.
         24    2    5    5    0    0 -0.13730587022E+02 -0.17785414221E+02  0.69160523680E+02  0.88575636242E+02  0.50572871394E+02 0.  0.
          2    1    6    6  501    0  0.13374558128E+02  0.69689746740E+01  0.36299863851E+02  0.39308084775E+02  0.00000000000E+00 0. -1.
         -1    1    6    6    0  501 -0.27105145149E+02 -0.24754388895E+02  0.32860659829E+02  0.49267551467E+02  0.00000000000E+00 0.  1.
          5    1    5    5  502    0 -0.99827216650E+02 -0.66796598824E+02  0.89592449217E+03  0.90395245697E+03  0.47000000000E+01 0. -1.
         13    1    4    4    0    0  0.63046975071E+02  0.52276084074E+02  0.11620121979E+03  0.14216340427E+03  0.00000000000E+00 0. -1.
        -14    1    4    4    0    0  0.10215401120E+02  0.15940103009E+02  0.17466979126E+03  0.17569284926E+03  0.00000000000E+00 0.  1.
         -5    1    3    3    0  504  0.40295427481E+02  0.16365825962E+02 -0.57455973034E+01  0.44121011136E+02  0.47000000000E+01 0.  1.
<mgrwt>
<rscale>  2 0.22955583E+03</rscale>
<asrwt>0</asrwt>
<pdfrwt beam="1">  1       21 0.20036273E+00 0.23178207E+03</pdfrwt>
<pdfrwt beam="2">  1       21 0.80226878E-02 0.23178207E+03</pdfrwt>
<totfact> 0.15489420E+04</totfact>
</mgrwt>
</event>
<event>
12    1  0.2743855E-001  0.1856067E+03  0.7546771E-02  0.1162576E+00
         21   -1    0    0  502  503  0.00000000000E+00  0.00000000000E+00  0.65613015933E+02  0.65613015933E+02  0.00000000000E+00 0. -1.
         21   -1    0    0  503  504 -0.00000000000E+00 -0.00000000000E+00 -0.56674069439E+03  0.56674069439E+03  0.00000000000E+00 0. -1.
         -6    2    1    2    0  504  0.57961779569E+02  0.31589082304E+02 -0.33770818314E+03  0.38535267209E+03  0.17347168908E+03 0.  0.
        -24    2    3    3    0    0  0.10377245736E+03  0.87396046053E+01 -0.21482979464E+03  0.25215392888E+03  0.81145915430E+02 0.  0.
          6    2    1    2  502    0 -0.57961779569E+02 -0.31589082304E+02 -0.16341949532E+03  0.24700103824E+03  0.17304954039E+03 0.  0.
         24    2    5    5    0    0 -0.26041959970E+02 -0.22950849379E+02 -0.17844123842E+03  0.21037813943E+03  0.10589032447E+03 0.  0.
          2    1    6    6  501    0 -0.52967379873E+02  0.13988373357E+02 -0.50469299809E+02  0.74487369017E+02  0.00000000000E+00 0. -1.
         -1    1    6    6    0  501  0.26925419903E+02 -0.36939222736E+02 -0.12797193861E+03  0.13589077041E+03  0.00000000000E+00 0.  1.
          5    1    5    5  502    0 -0.31919819599E+02 -0.86382329247E+01  0.15021743098E+02  0.36622898807E+02  0.47000000000E+01 0. -1.
         13    1    4    4    0    0  0.36427004926E+02 -0.24496703021E+02 -0.31476962301E+02  0.54016796485E+02  0.00000000000E+00 0. -1.
        -14    1    4    4    0    0  0.67345452431E+02  0.33236307627E+02 -0.18335283234E+03  0.19813713240E+03  0.00000000000E+00 0.  1.
         -5    1    3    3    0  504 -0.45810677788E+02  0.22849477698E+02 -0.12287838850E+03  0.13319874321E+03  0.47000000000E+01 0.  1.
<mgrwt>
<rscale>  2 0.18550805E+03</rscale>
<asrwt>0</asrwt>
<pdfrwt beam="1">  1       21 0.10094311E-01 0.18560675E+03</pdfrwt>
<pdfrwt beam="2">  1       21 0.87190872E-01 0.18560675E+03</pdfrwt>
<totfact> 0.90471978E+04</totfact>
</mgrwt>
</event>
<event>
12    1  0.2743855E-001  0.2039861E+03  0.7546771E-02  0.1146808E+00
         21   -1    0    0  502  503  0.00000000000E+00  0.00000000000E+00  0.12914045537E+04  0.12914045537E+04  0.00000000000E+00 0.  1.
         21   -1    0    0  503  504 -0.00000000000E+00 -0.00000000000E+00 -0.53059761803E+02  0.53059761803E+02  0.00000000000E+00 0.  1.
         -6    2    1    2    0  504 -0.56629534320E+02  0.91655737502E+02  0.19663119574E+03  0.28332693622E+03  0.17321272261E+03 0.  0.
        -24    2    3    3    0    0 -0.89420546216E+02  0.82887592025E+02  0.10033619057E+03  0.18111661943E+03  0.88710155562E+02 0.  0.
          6    2    1    2  502    0  0.56629534320E+02 -0.91655737502E+02  0.10417135962E+04  0.10611373793E+04  0.17099018371E+03 0.  0.
         24    2    5    5    0    0  0.89540218662E+02 -0.10903593804E+03  0.90217781178E+03  0.91664686182E+03  0.80064840478E+02 0.  0.
          2    1    6    6  501    0  0.30935785112E+02 -0.91093245221E+02  0.43802830213E+03  0.44846827713E+03  0.00000000000E+00 0. -1.
         -1    1    6    6    0  501  0.58604433550E+02 -0.17942692821E+02  0.46414950965E+03  0.46817858469E+03  0.00000000000E+00 0.  1.
          5    1    5    5  502    0 -0.32910684342E+02  0.17380200540E+02  0.13953578439E+03  0.14449051747E+03  0.47000000000E+01 0. -1.
         13    1    4    4    0    0  0.10818488069E+02  0.81170051069E+01  0.40084232319E+02  0.42304504921E+02  0.00000000000E+00 0. -1.
        -14    1    4    4    0    0 -0.10023903429E+03  0.74770586918E+02  0.60251958250E+02  0.13881211451E+03  0.00000000000E+00 0.  1.
         -5    1    3    3    0  504  0.32791011896E+02  0.87681454764E+01  0.96295005168E+02  0.10221031678E+03  0.47000000000E+01 0.  1.
<mgrwt>
<rscale>  2 0.20351349E+03</rscale>
<asrwt>0</asrwt>
<pdfrwt beam="1">  1       21 0.19867760E+00 0.20398609E+03</pdfrwt>
<pdfrwt beam="2">  1       21 0.81630412E-02 0.20398609E+03</pdfrwt>
<totfact> 0.15724120E+04</totfact>
</mgrwt>
</event>
<event>
12    1  0.2743855E-001  0.2407813E+03  0.7546771E-02  0.1119719E+00
         21   -1    0    0  502  503  0.00000000000E+00  0.00000000000E+00  0.74690373083E+03  0.74690373083E+03  0.00000000000E+00 0. -1.
         21   -1    0    0  503  504 -0.00000000000E+00 -0.00000000000E+00 -0.26261981403E+03  0.26261981403E+03  0.00000000000E+00 0. -1.
         -6    2    1    2    0  504 -0.55904534254E+02 -0.15354684390E+03 -0.18209267014E+03  0.30188304738E+03  0.17684366982E+03 0.  0.
        -24    2    3    3    0    0 -0.51095276964E+02 -0.18369379854E+03 -0.17251890859E+03  0.26954553449E+03  0.80857172797E+02 0.  0.
          6    2    1    2  502    0  0.55904534254E+02  0.15354684390E+03  0.66637658694E+03  0.70764049747E+03  0.17319170827E+03 0.  0.
         24    2    5    5    0    0  0.87281992208E+02  0.47310187659E+02  0.40337238572E+03  0.42222138133E+03  0.75532862203E+02 0.  0.
          2    1    6    6  501    0  0.49893597286E+02  0.64477507359E+02  0.22959295159E+03  0.24363834555E+03  0.00000000000E+00 0. -1.
         -1    1    6    6    0  501  0.37388394922E+02 -0.17167319700E+02  0.17377943413E+03  0.17858303578E+03  0.00000000000E+00 0.  1.
          5    1    5    5  502    0 -0.31377457954E+02  0.10623665624E+03  0.26300420123E+03  0.28541911614E+03  0.47000000000E+01 0. -1.
         11    1    4    4    0    0  0.71712363846E+01 -0.11825873165E+03 -0.11220127735E+03  0.16317377510E+03  0.00000000000E+00 0. -1.
        -12    1    4    4    0    0 -0.58266513348E+02 -0.65435066895E+02 -0.60317631238E+02  0.10637175939E+03  0.00000000000E+00 0.  1.
         -5    1    3    3    0  504 -0.48092572898E+01  0.30146954639E+02 -0.95737615527E+01  0.32337512890E+02  0.47000000000E+01 0.  1.
<mgrwt>
<rscale>  2 0.24011118E+03</rscale>
<asrwt>0</asrwt>
<pdfrwt beam="1">  1       21 0.11490826E+00 0.24078130E+03</pdfrwt>
<pdfrwt beam="2">  1       21 0.40403049E-01 0.24078130E+03</pdfrwt>
<totfact> 0.33387942E+03</totfact>
</mgrwt>
</event>
<event>
12    1  0.2743855E-001  0.1946137E+03  0.7546771E-02  0.1154475E+00
         21   -1    0    0  502  503  0.00000000000E+00  0.00000000000E+00  0.47312257225E+03  0.47312257225E+03  0.00000000000E+00 0. -1.
         21   -1    0    0  503  504 -0.00000000000E+00 -0.00000000000E+00 -0.12976855433E+03  0.12976855433E+03  0.00000000000E+00 0. -1.
         -6    2    1    2    0  504  0.44279184799E+02 -0.76960167577E+02 -0.15158788106E+02  0.19520316087E+03  0.17317901593E+03 0.  0.
        -24    2    3    3    0    0  0.24964723055E+02  0.26928106811E+02 -0.10971924619E+02  0.89347401398E+02  0.80710684999E+02 0.  0.
          6    2    1    2  502    0 -0.44279184799E+02  0.76960167577E+02  0.35851280603E+03  0.40768796572E+03  0.17261092580E+03 0.  0.
         24    2    5    5    0    0  0.25214108947E+02  0.27320545958E+02  0.95528494440E+02  0.13114457301E+03  0.81798791300E+02 0.  0.
          4    1    6    6  501    0  0.74201765705E+01  0.27831890626E+02 -0.48415965298E+01  0.29208118959E+02  0.00000000000E+00 0. -1.
         -3    1    6    6    0  501  0.17793932377E+02 -0.51134466869E+00  0.10037009097E+03  0.10193645405E+03  0.00000000000E+00 0.  1.
          5    1    5    5  502    0 -0.69493293746E+02  0.49639621619E+02  0.26298431158E+03  0.27654339271E+03  0.47000000000E+01 0. -1.
         11    1    4    4    0    0 -0.24283748807E+02 -0.10758400464E+02 -0.52135122244E+01  0.27067034310E+02  0.00000000000E+00 0. -1.
        -12    1    4    4    0    0  0.49248471861E+02  0.37686507274E+02 -0.57584123949E+01  0.62280367087E+02  0.00000000000E+00 0.  1.
         -5    1    3    3    0  504  0.19314461744E+02 -0.10388827439E+03 -0.41868634863E+01  0.10585575947E+03  0.47000000000E+01 0.  1.
<mgrwt>
<rscale>  2 0.19448722E+03</rscale>
<asrwt>0</asrwt>
<pdfrwt beam="1">  1       21 0.72788087E-01 0.19461368E+03</pdfrwt>
<pdfrwt beam="2">  1       21 0.19964393E-01 0.19461368E+03</pdfrwt>
<totfact> 0.39322067E+04</totfact>
</mgrwt>
</event>
<event>
12    1  0.2743855E-001  0.2549616E+03  0.7546771E-02  0.1110272E+00
         21   -1    0    0  502  503  0.00000000000E+00  0.00000000000E+00  0.88935096790E+03  0.88935096790E+03  0.00000000000E+00 0.  1.
         21   -1    0    0  503  504 -0.00000000000E+00 -0.00000000000E+00 -0.98516013496E+02  0.98516013496E+02  0.00000000000E+00 0.  1.
         -6    2    1    2    0  504  0.11325070217E+03 -0.14907150752E+03  0.14369107565E+03  0.29230920302E+03  0.17248045991E+03 0.  0.
        -24    2    3    3    0    0  0.85915621196E+02 -0.17441730787E+03  0.96529296461E+02  0.23201044960E+03  0.81902700816E+02 0.  0.
          6    2    1    2  502    0 -0.11325070217E+03  0.14907150752E+03  0.64714387875E+03  0.69555777838E+03  0.17308202493E+03 0.  0.
         24    2    5    5    0    0  0.64607492114E+01  0.66072202915E+02  0.29414302593E+03  0.31365280557E+03  0.86317353192E+02 0.  0.
          4    1    6    6  501    0  0.34371242252E+02  0.17892668691E+00  0.13235512576E+03  0.13674536052E+03  0.00000000000E+00 0. -1.
         -3    1    6    6    0  501 -0.27910493040E+02  0.65893276228E+02  0.16178790017E+03  0.17690744505E+03  0.00000000000E+00 0.  1.
          5    1    5    5  502    0 -0.11971145138E+03  0.82999304608E+02  0.35300085282E+03  0.38190497280E+03  0.47000000000E+01 0. -1.
         13    1    4    4    0    0 -0.12194695536E+02 -0.40763876753E+02  0.35239676357E+02  0.55247072655E+02  0.00000000000E+00 0. -1.
        -14    1    4    4    0    0  0.98110316733E+02 -0.13365343111E+03  0.61289620104E+02  0.17676337695E+03  0.00000000000E+00 0.  1.
         -5    1    3    3    0  504  0.27335080977E+02  0.25345800344E+02  0.47161779185E+02  0.60298753412E+02  0.47000000000E+01 0.  1.
<mgrwt>
<rscale>  2 0.25485955E+03</rscale>
<asrwt>0</asrwt>
<pdfrwt beam="1">  1       21 0.13682322E+00 0.25496161E+03</pdfrwt>
<pdfrwt beam="2">  1       21 0.15156310E-01 0.25496161E+03</pdfrwt>
<totfact> 0.14054872E+04</totfact>
</mgrwt>
</event>
<event>
12    1  0.2743855E-001  0.2893143E+03  0.7546771E-02  0.1091387E+00
         21   -1    0    0  502  503  0.00000000000E+00  0.00000000000E+00  0.87786066875E+02  0.87786066875E+02  0.00000000000E+00 0.  1.
         21   -1    0    0  503  504 -0.00000000000E+00 -0.00000000000E+00 -0.10353540120E+04  0.10353540120E+04  0.00000000000E+00 0.  1.
         -6    2    1    2    0  504  0.20120678418E+03 -0.10164638627E+03 -0.64334751956E+03  0.70331531335E+03  0.17303248603E+03 0.  0.
        -24    2    3    3    0    0  0.25920811608E+02 -0.65613705885E+01 -0.16620306007E+03  0.18615454762E+03  0.79467719005E+02 0.  0.
          6    2    1    2  502    0 -0.20120678418E+03  0.10164638627E+03 -0.30422042558E+03  0.41982476554E+03  0.18134665307E+03 0.  0.
         24    2    5    5    0    0 -0.15699999472E+02  0.35100447692E+02 -0.11810070302E+03  0.14870897803E+03  0.81780515280E+02 0.  0.
          2    1    6    6  501    0  0.67436526328E+01 -0.10692078657E+02  0.63998318403E+01  0.14168812386E+02  0.00000000000E+00 0. -1.
         -1    1    6    6    0  501 -0.22443652104E+02  0.45792526349E+02 -0.12450053486E+03  0.13454016564E+03  0.00000000000E+00 0.  1.
          5    1    5    5  502    0 -0.18550678471E+03  0.66545938583E+02 -0.18611972256E+03  0.27111578751E+03  0.47000000000E+01 0. -1.
         11    1    4    4    0    0  0.36012649890E+02 -0.25731960937E+02 -0.45328787052E+02  0.63354113532E+02  0.00000000000E+00 0. -1.
        -12    1    4    4    0    0 -0.10091838282E+02  0.19170590349E+02 -0.12087427302E+03  0.12280043408E+03  0.00000000000E+00 0.  1.
         -5    1    3    3    0  504  0.17528597257E+03 -0.95085015686E+02 -0.47714445949E+03  0.51716076573E+03  0.47000000000E+01 0.  1.
<mgrwt>
<rscale>  2 0.28802126E+03</rscale>
<asrwt>0</asrwt>
<pdfrwt beam="1">  1       21 0.13505548E-01 0.28931430E+03</pdfrwt>
<pdfrwt beam="2">  1       21 0.15928524E+00 0.28931430E+03</pdfrwt>
<totfact> 0.11375244E+04</totfact>
</mgrwt>
</event>
<event>
12    1  0.2743855E-001  0.2743801E+03  0.7546771E-02  0.1099407E+00
         21   -1    0    0  502  503  0.00000000000E+00  0.00000000000E+00  0.93664953378E+02  0.93664953378E+02  0.00000000000E+00 0. -1.
         21   -1    0    0  503  504 -0.00000000000E+00 -0.00000000000E+00 -0.10632320154E+04  0.10632320154E+04  0.00000000000E+00 0. -1.
         -6    2    1    2    0  504  0.92621096833E+02  0.18670417186E+03 -0.78021930071E+03  0.82705899925E+03  0.17845816224E+03 0.  0.
        -24    2    3    3    0    0  0.50195012019E+02  0.17398282487E+03 -0.42411048891E+03  0.46817547889E+03  0.80802287425E+02 0.  0.
          6    2    1    2  502    0 -0.92621096833E+02 -0.18670417186E+03 -0.18934776133E+03  0.32983796955E+03  0.17176552641E+03 0.  0.
         24    2    5    5    0    0 -0.70678977856E+02 -0.57854441630E+02 -0.32183256833E+02  0.12537163725E+03  0.79621800284E+02 0.  0.
          4    1    6    6  501    0 -0.52590566161E+02  0.66691582299E+01 -0.22799617875E+02  0.57706740472E+02  0.00000000000E+00 0. -1.
         -3    1    6    6    0  501 -0.18088411694E+02 -0.64523599860E+02 -0.93836389577E+01  0.67664896782E+02  0.00000000000E+00 0.  1.
          5    1    5    5  502    0 -0.21942118977E+02 -0.12884973024E+03 -0.15716450450E+03  0.20446633229E+03  0.47000000000E+01 0. -1.
         11    1    4    4    0    0  0.18007008344E+02  0.10914018170E+03 -0.16135872369E+03  0.19563350766E+03  0.00000000000E+00 0. -1.
        -12    1    4    4    0    0  0.32188003675E+02  0.64842643165E+02 -0.26275176522E+03  0.27254197123E+03  0.00000000000E+00 0.  1.
         -5    1    3    3    0  504  0.42426084814E+02  0.12721346998E+02 -0.35610881180E+03  0.35888352036E+03  0.47000000000E+01 0.  1.
<mgrwt>
<rscale>  2 0.27329743E+03</rscale>
<asrwt>0</asrwt>
<pdfrwt beam="1">  1       21 0.14409993E-01 0.27438008E+03</pdfrwt>
<pdfrwt beam="2">  1       21 0.16357416E+00 0.27438008E+03</pdfrwt>
<totfact> 0.94698057E+03</totfact>
</mgrwt>
</event>
<event>
12    1  0.2743855E-001  0.2114567E+03  0.7546771E-02  0.1140763E+00
         21   -1    0    0  502  503  0.00000000000E+00  0.00000000000E+00  0.38662924969E+02  0.38662924969E+02  0.00000000000E+00 0. -1.
         21   -1    0    0  503  504 -0.00000000000E+00 -0.00000000000E+00 -0.16007917930E+04  0.16007917930E+04  0.00000000000E+00 0. -1.
         -6    2    1    2    0  504 -0.83161099505E+02 -0.85027759953E+02 -0.12152084446E+04  0.12331694444E+04  0.17271313331E+03 0.  0.
        -24    2    3    3    0    0 -0.66246962837E+02 -0.17851938395E+02 -0.10317897129E+04  0.10370490729E+04  0.78571088836E+02 0.  0.
          6    2    1    2  502    0  0.83161099505E+02  0.85027759953E+02 -0.34692042346E+03  0.40628527357E+03  0.17483836784E+03 0.  0.
         24    2    5    5    0    0  0.43548375266E+02  0.47268694171E+01 -0.74054815925E+02  0.11906561770E+03  0.82302498583E+02 0.  0.
          4    1    6    6  501    0  0.48744643592E+02 -0.30319150813E+02 -0.51069816266E+02  0.76833699106E+02  0.00000000000E+00 0. -1.
         -3    1    6    6    0  501 -0.51962683260E+01  0.35046020230E+02 -0.22984999658E+02  0.42231918589E+02  0.00000000000E+00 0.  1.
          5    1    5    5  502    0  0.39612724239E+02  0.80300890536E+02 -0.27286560754E+03  0.28721965587E+03  0.47000000000E+01 0. -1.
         13    1    4    4    0    0 -0.34220921899E+02 -0.12932309335E+02 -0.14094431698E+03  0.14561461674E+03  0.00000000000E+00 0. -1.
        -14    1    4    4    0    0 -0.32026040938E+02 -0.49196290602E+01 -0.89084539597E+03  0.89143445612E+03  0.00000000000E+00 0.  1.
         -5    1    3    3    0  504 -0.16914136668E+02 -0.67175821558E+02 -0.18341873163E+03  0.19612037154E+03  0.47000000000E+01 0.  1.
<mgrwt>
<rscale>  2 0.21101690E+03</rscale>
<asrwt>0</asrwt>
<pdfrwt beam="1">  1       21 0.59481420E-02 0.21145672E+03</pdfrwt>
<pdfrwt beam="2">  1       21 0.24627567E+00 0.21145672E+03</pdfrwt>
<totfact> 0.13766798E+04</totfact>
</mgrwt>
</event>
<event>
12    1  0.2743855E-001  0.2166180E+03  0.7546771E-02  0.1136556E+00
         21   -1    0    0  502  503  0.00000000000E+00  0.00000000000E+00  0.17027772411E+03  0.17027772411E+03  0.00000000000E+00 0. -1.
         21   -1    0    0  503  504 -0.00000000000E+00 -0.00000000000E+00 -0.46053816439E+03  0.46053816439E+03  0.00000000000E+00 0.  1.
         -6    2    1    2    0  504  0.11684622097E+03  0.59187964747E+02 -0.34534108801E+03  0.40730470577E+03  0.17169857820E+03 0.  0.
        -24    2    3    3    0    0  0.41752521314E+02  0.95785565207E+02 -0.20703354805E+03  0.24565844477E+03  0.81037237932E+02 0.  0.
          6    2    1    2  502    0 -0.11684622097E+03 -0.59187964747E+02  0.55080647734E+02  0.22351118272E+03  0.17253149429E+03 0.  0.
         24    2    5    5    0    0 -0.69755947833E+02 -0.75818167157E+02  0.93796152952E+02  0.16014685680E+03  0.78962083963E+02 0.  0.
          2    1    6    6  501    0 -0.25540123286E+01 -0.55990782660E+02  0.60823577519E+02  0.82710327675E+02  0.00000000000E+00 0. -1.
         -1    1    6    6    0  501 -0.67201935505E+02 -0.19827384497E+02  0.32972575433E+02  0.77436529120E+02  0.00000000000E+00 0.  1.
          5    1    5    5  502    0 -0.47090273133E+02  0.16630202410E+02 -0.38715505218E+02  0.63364325927E+02  0.47000000000E+01 0. -1.
         11    1    4    4    0    0 -0.23632712501E+02  0.38255123800E+02 -0.64619105790E+02  0.78724763767E+02  0.00000000000E+00 0. -1.
        -12    1    4    4    0    0  0.65385233815E+02  0.57530441407E+02 -0.14241444226E+03  0.16693368100E+03  0.00000000000E+00 0.  1.
         -5    1    3    3    0  504  0.75093699652E+02 -0.36597600460E+02 -0.13830753996E+03  0.16164626100E+03  0.47000000000E+01 0.  1.
<mgrwt>
<rscale>  2 0.21645214E+03</rscale>
<asrwt>0</asrwt>
<pdfrwt beam="1">  1       21 0.26196573E-01 0.21661803E+03</pdfrwt>
<pdfrwt beam="2">  1       21 0.70852025E-01 0.21661803E+03</pdfrwt>
<totfact> 0.24650358E+04</totfact>
</mgrwt>
</event>
<event>
12    1  0.2743855E-001  0.1849175E+03  0.7546771E-02  0.1163229E+00
         21   -1    0    0  502  503  0.00000000000E+00  0.00000000000E+00  0.13997141007E+03  0.13997141007E+03  0.00000000000E+00 0. -1.
         21   -1    0    0  503  504 -0.00000000000E+00 -0.00000000000E+00 -0.28371424874E+03  0.28371424874E+03  0.00000000000E+00 0. -1.
         -6    2    1    2    0  504 -0.63376077350E+02  0.42425419226E+01  0.77412072092E+01  0.18464196740E+03  0.17319989461E+03 0.  0.
        -24    2    3    3    0    0 -0.96860232362E+02 -0.51474197698E+01  0.45784860450E+02  0.13288513626E+03  0.78446194608E+02 0.  0.
          6    2    1    2  502    0  0.63376077350E+02 -0.42425419226E+01 -0.15148404588E+03  0.23904369141E+03  0.17366618526E+03 0.  0.
         24    2    5    5    0    0 -0.86307994570E+01 -0.31642923102E+02 -0.13175251073E+03  0.15937440827E+03  0.83460844986E+02 0.  0.
          4    1    6    6  501    0 -0.84190623482E+00  0.27980537968E+02 -0.56452975704E+02  0.63012362096E+02  0.00000000000E+00 0. -1.
         -3    1    6    6    0  501 -0.77888932222E+01 -0.59623461070E+02 -0.75299535028E+02  0.96362046175E+02  0.00000000000E+00 0.  1.
          5    1    5    5  502    0  0.72006876807E+02  0.27400381179E+02 -0.19731535149E+02  0.79669283137E+02  0.47000000000E+01 0. -1.
         11    1    4    4    0    0 -0.43478810619E+02 -0.39797210284E+02  0.34361119546E+02  0.68226911521E+02  0.00000000000E+00 0. -1.
        -12    1    4    4    0    0 -0.53381421742E+02  0.34649790514E+02  0.11423740905E+02  0.64658224737E+02  0.00000000000E+00 0.  1.
         -5    1    3    3    0  504  0.33484155012E+02  0.93899616924E+01 -0.38043653241E+02  0.51756831137E+02  0.47000000000E+01 0.  1.
<mgrwt>
<rscale>  2 0.18480791E+03</rscale>
<asrwt>0</asrwt>
<pdfrwt beam="1">  1       21 0.21534064E-01 0.18491747E+03</pdfrwt>
<pdfrwt beam="2">  1       21 0.43648345E-01 0.18491747E+03</pdfrwt>
<totfact> 0.10166759E+05</totfact>
</mgrwt>
</event>
<event>
12    1  0.2743855E-001  0.1742437E+03  0.7546771E-02  0.1173564E+00
         21   -1    0    0  502  503  0.00000000000E+00  0.00000000000E+00  0.15821348061E+03  0.15821348061E+03  0.00000000000E+00 0.  1.
         21   -1    0    0  503  504 -0.00000000000E+00 -0.00000000000E+00 -0.32049456964E+03  0.32049456964E+03  0.00000000000E+00 0.  1.
         -6    2    1    2    0  504  0.13907670745E+02  0.98911232779E+01 -0.23297836913E+03  0.29092918635E+03  0.17340592078E+03 0.  0.
        -24    2    3    3    0    0  0.55771358874E+02  0.33432238843E+02 -0.21685993197E+03  0.24005044303E+03  0.79798659373E+02 0.  0.
          6    2    1    2  502    0 -0.13907670745E+02 -0.98911232779E+01  0.70697280095E+02  0.18777886390E+03  0.17312290053E+03 0.  0.
         24    2    5    5    0    0  0.46161926477E+02 -0.39881857009E+02  0.27926372531E+02  0.10803401357E+03  0.84675733422E+02 0.  0.
          2    1    6    6  501    0  0.54043020705E+02  0.49489499966E+01 -0.67941049935E+00  0.54273398563E+02  0.00000000000E+00 0. -1.
         -1    1    6    6    0  501 -0.78810942283E+01 -0.44830807006E+02  0.28605783031E+02  0.53760615006E+02  0.00000000000E+00 0.  1.
          5    1    5    5  502    0 -0.60069597222E+02  0.29990733731E+02  0.42770907563E+02  0.79744850329E+02  0.47000000000E+01 0. -1.
         13    1    4    4    0    0 -0.18061566241E+02 -0.58370077651E+01 -0.33090118578E+02  0.38147696946E+02  0.00000000000E+00 0. -1.
        -14    1    4    4    0    0  0.73832925115E+02  0.39269246608E+02 -0.18376981339E+03  0.20190274608E+03  0.00000000000E+00 0.  1.
         -5    1    3    3    0  504 -0.41863688128E+02 -0.23541115565E+02 -0.16118437161E+02  0.50878743324E+02  0.47000000000E+01 0.  1.
<mgrwt>
<rscale>  2 0.17417325E+03</rscale>
<asrwt>0</asrwt>
<pdfrwt beam="1">  1       21 0.24340536E-01 0.17424371E+03</pdfrwt>
<pdfrwt beam="2">  1       21 0.49306856E-01 0.17424371E+03</pdfrwt>
<totfact> 0.63040191E+04</totfact>
</mgrwt>
</event>
<event>
12    1  0.2743855E-001  0.2133611E+03  0.7546771E-02  0.1138978E+00
         21   -1    0    0  502  503  0.00000000000E+00  0.00000000000E+00  0.47338654778E+03  0.47338654778E+03  0.00000000000E+00 0.  1.
         21   -1    0    0  503  504 -0.00000000000E+00 -0.00000000000E+00 -0.96083877326E+02  0.96083877326E+02  0.00000000000E+00 0.  1.
         -6    2    1    2    0  504 -0.91360480080E+02 -0.85017214423E+02  0.18382574578E+03  0.28144913181E+03  0.17276297322E+03 0.  0.
        -24    2    3    3    0    0 -0.86841662561E+02 -0.67743294708E+02  0.47751262492E+02  0.14412774595E+03  0.79762119754E+02 0.  0.
          6    2    1    2  502    0  0.91360480080E+02  0.85017214423E+02  0.19347692468E+03  0.28802129330E+03  0.17305571629E+03 0.  0.
         24    2    5    5    0    0  0.16777434071E+02  0.79174736214E+02  0.17936079659E+03  0.21174468892E+03  0.78201002435E+02 0.  0.
          2    1    6    6  501    0  0.14129630392E+01  0.45040236573E+02  0.22287926708E+02  0.50272965420E+02  0.00000000000E+00 0. -1.
         -1    1    6    6    0  501  0.15364471032E+02  0.34134499641E+02  0.15707286988E+03  0.16147172350E+03  0.00000000000E+00 0.  1.
          5    1    5    5  502    0  0.74583046009E+02  0.58424782088E+01  0.14116128085E+02  0.76276604380E+02  0.47000000000E+01 0. -1.
         13    1    4    4    0    0  0.96280012237E+01 -0.25737920685E+02  0.23483995039E+02  0.36147434096E+02  0.00000000000E+00 0. -1.
        -14    1    4    4    0    0 -0.96469663785E+02 -0.42005374024E+02  0.24267267453E+02  0.10798031185E+03  0.00000000000E+00 0.  1.
         -5    1    3    3    0  504 -0.45188175193E+01 -0.17273919715E+02  0.13607448329E+03  0.13732138587E+03  0.47000000000E+01 0.  1.
<mgrwt>
<rscale>  2 0.21330170E+03</rscale>
<asrwt>0</asrwt>
<pdfrwt beam="1">  1       21 0.72828698E-01 0.21336107E+03</pdfrwt>
<pdfrwt beam="2">  1       21 0.14782135E-01 0.21336107E+03</pdfrwt>
<totfact> 0.67744230E+04</totfact>
</mgrwt>
</event>
<event>
12    1  0.2743855E-001  0.2975237E+03  0.7546771E-02  0.1086554E+00
         21   -1    0    0  502  503  0.00000000000E+00  0.00000000000E+00  0.30179624487E+03  0.30179624487E+03  0.00000000000E+00 0. -1.
         21   -1    0    0  503  504 -0.00000000000E+00 -0.00000000000E+00 -0.30126222803E+03  0.30126222803E+03  0.00000000000E+00 0. -1.
         -6    2    1    2    0  504  0.19911754476E+03 -0.13682034976E+03  0.50877204544E+02  0.30130557538E+03  0.17271061079E+03 0.  0.
        -24    2    3    3    0    0  0.21947832493E+03 -0.10917786564E+03  0.27738722200E+02  0.25963847011E+03  0.80945395122E+02 0.  0.
          6    2    1    2  502    0 -0.19911754476E+03  0.13682034976E+03 -0.50343187706E+02  0.30175289751E+03  0.17364552938E+03 0.  0.
         24    2    5    5    0    0 -0.97491497997E+02  0.27810573926E+01 -0.65905354596E+01  0.12788291777E+03  0.82451676987E+02 0.  0.
          2    1    6    6  501    0 -0.26200449171E+02  0.12406496452E+01 -0.41027228511E+02  0.48695340923E+02  0.00000000000E+00 0. -1.
         -1    1    6    6    0  501 -0.71291048826E+02  0.15404077474E+01  0.34436693051E+02  0.79187576848E+02  0.00000000000E+00 0.  1.
          5    1    5    5  502    0 -0.10162604676E+03  0.13403929236E+03 -0.43752652246E+02  0.17386997974E+03  0.47000000000E+01 0. -1.
         13    1    4    4    0    0  0.20340926927E+03 -0.97775007401E+02  0.48686315765E+02  0.23088014258E+03  0.00000000000E+00 0. -1.
        -14    1    4    4    0    0  0.16069055659E+02 -0.11402858241E+02 -0.20947593565E+02  0.28758327524E+02  0.00000000000E+00 0.  1.
         -5    1    3    3    0  504 -0.20360780170E+02 -0.27642484113E+02  0.23138482344E+02  0.41667105278E+02  0.47000000000E+01 0.  1.
<mgrwt>
<rscale>  2 0.29738747E+03</rscale>
<asrwt>0</asrwt>
<pdfrwt beam="1">  1       21 0.46430191E-01 0.29752374E+03</pdfrwt>
<pdfrwt beam="2">  1       21 0.46348035E-01 0.29752374E+03</pdfrwt>
<totfact> 0.18799426E+04</totfact>
</mgrwt>
</event>
<event>
12    1  0.2743855E-001  0.1997469E+03  0.7546771E-02  0.1149974E+00
         21   -1    0    0  502  503  0.00000000000E+00  0.00000000000E+00  0.41282638252E+03  0.41282638252E+03  0.00000000000E+00 0. -1.
         21   -1    0    0  503  504 -0.00000000000E+00 -0.00000000000E+00 -0.97569993904E+02  0.97569993904E+02  0.00000000000E+00 0. -1.
         -6    2    1    2    0  504  0.36318848936E+02  0.92790438084E+02  0.13211937962E+03  0.23940189791E+03  0.17299888458E+03 0.  0.
        -24    2    3    3    0    0  0.63252526233E+02  0.11012403519E+03  0.63429411706E+02  0.16346588371E+03  0.81053190345E+02 0.  0.
          6    2    1    2  502    0 -0.36318848936E+02 -0.92790438084E+02  0.18313700900E+03  0.27099447851E+03  0.17311764535E+03 0.  0.
         24    2    5    5    0    0 -0.44413860796E+02  0.12000482706E+02  0.74730691950E+02  0.11992930757E+03  0.81742032506E+02 0.  0.
          2    1    6    6  501    0 -0.24875132922E+02  0.47083377884E+02  0.37134939745E+02  0.64920108292E+02  0.00000000000E+00 0. -1.
         -1    1    6    6    0  501 -0.19538727873E+02 -0.35082895178E+02  0.37595752205E+02  0.55009199275E+02  0.00000000000E+00 0.  1.
          5    1    5    5  502    0  0.80950118596E+01 -0.10479092079E+03  0.10840631705E+03  0.15106517095E+03  0.47000000000E+01 0. -1.
         13    1    4    4    0    0 -0.13631904879E+02  0.33473932979E+02  0.37012757797E+02  0.51732748424E+02  0.00000000000E+00 0. -1.
        -14    1    4    4    0    0  0.76884431112E+02  0.76650102213E+02  0.26416653909E+02  0.11173313528E+03  0.00000000000E+00 0.  1.
         -5    1    3    3    0  504 -0.26933677297E+02 -0.17333597109E+02  0.68689967912E+02  0.75936014204E+02  0.47000000000E+01 0.  1.
<mgrwt>
<rscale>  2 0.19972121E+03</rscale>
<asrwt>0</asrwt>
<pdfrwt beam="1">  1       21 0.63511750E-01 0.19974695E+03</pdfrwt>
<pdfrwt beam="2">  1       21 0.15010768E-01 0.19974695E+03</pdfrwt>
<totfact> 0.89522945E+04</totfact>
</mgrwt>
</event>
<event>
12    1  0.2743855E-001  0.1773131E+03  0.7546771E-02  0.1171565E+00
         21   -1    0    0  502  503  0.00000000000E+00  0.00000000000E+00  0.24615411159E+02  0.24615411159E+02  0.00000000000E+00 0. -1.
         21   -1    0    0  503  504 -0.00000000000E+00 -0.00000000000E+00 -0.16765861729E+04  0.16765861729E+04  0.00000000000E+00 0. -1.
         -6    2    1    2    0  504 -0.19022261753E+02  0.21208608609E+02 -0.12655990605E+04  0.12779596641E+04  0.17500934084E+03 0.  0.
        -24    2    3    3    0    0  0.43552393086E+02  0.38894077248E+02 -0.79896100841E+03  0.80678928624E+03  0.95711541865E+02 0.  0.
          6    2    1    2  502    0  0.19022261753E+02 -0.21208608609E+02 -0.38637170121E+03  0.42324192002E+03  0.17040827399E+03 0.  0.
         24    2    5    5    0    0  0.37339574711E+02 -0.46762942252E+02 -0.37668996651E+03  0.39000979838E+03  0.81432765857E+02 0.  0.
          4    1    6    6  501    0  0.58310235862E+02 -0.40253622563E+02 -0.20453486926E+03  0.21646004361E+03  0.00000000000E+00 0. -1.
         -3    1    6    6    0  501 -0.20970661152E+02 -0.65093196888E+01 -0.17215509725E+03  0.17354975477E+03  0.00000000000E+00 0.  1.
          5    1    5    5  502    0 -0.18317312958E+02  0.25554333642E+02 -0.96817347024E+01  0.33232121641E+02  0.47000000000E+01 0. -1.
         13    1    4    4    0    0 -0.15260387127E+02  0.49884546404E+02 -0.35360471583E+03  0.35743201093E+03  0.00000000000E+00 0. -1.
        -14    1    4    4    0    0  0.58812780213E+02 -0.10990469156E+02 -0.44535629259E+03  0.44935727531E+03  0.00000000000E+00 0.  1.
         -5    1    3    3    0  504 -0.62574654839E+02 -0.17685468639E+02 -0.46663805213E+03  0.47117037781E+03  0.47000000000E+01 0.  1.
<mgrwt>
<rscale>  2 0.17616707E+03</rscale>
<asrwt>0</asrwt>
<pdfrwt beam="1">  1       21 0.37869846E-02 0.17731306E+03</pdfrwt>
<pdfrwt beam="2">  1       21 0.25793645E+00 0.17731306E+03</pdfrwt>
<totfact> 0.26008578E+04</totfact>
</mgrwt>
</event>
<event>
12    1  0.2743855E-001  0.1816637E+03  0.7546771E-02  0.1166748E+00
         21   -1    0    0  502  503  0.00000000000E+00  0.00000000000E+00  0.22931153012E+03  0.22931153012E+03  0.00000000000E+00 0. -1.
         21   -1    0    0  503  504 -0.00000000000E+00 -0.00000000000E+00 -0.15816082294E+03  0.15816082294E+03  0.00000000000E+00 0. -1.
         -6    2    1    2    0  504  0.62138651404E+02 -0.51698580634E+01 -0.26309955179E+02  0.18131641335E+03  0.16821262907E+03 0.  0.
        -24    2    3    3    0    0  0.91672746471E+02 -0.44274845979E+02 -0.13594145425E+02  0.13047111200E+03  0.80459653529E+02 0.  0.
          6    2    1    2  502    0 -0.62138651404E+02  0.51698580634E+01  0.97460662359E+02  0.20615593971E+03  0.17062752222E+03 0.  0.
         24    2    5    5    0    0 -0.27010432679E+02 -0.63617798031E+01  0.13165616708E+03  0.15557538055E+03  0.78104526039E+02 0.  0.
          4    1    6    6  501    0 -0.25234955156E+02  0.13353006079E+02  0.13271631022E+03  0.13575243913E+03  0.00000000000E+00 0. -1.
         -3    1    6    6    0  501 -0.17754775235E+01 -0.19714785882E+02 -0.10601431415E+01  0.19822941414E+02  0.00000000000E+00 0.  1.
          5    1    5    5  502    0 -0.35128218725E+02  0.11531637866E+02 -0.34195504716E+02  0.50580559165E+02  0.47000000000E+01 0. -1.
         11    1    4    4    0    0  0.54391496971E+02 -0.30094402739E+02  0.31981168195E+02  0.69906388392E+02  0.00000000000E+00 0. -1.
        -12    1    4    4    0    0  0.37281249500E+02 -0.14180443240E+02 -0.45575313620E+02  0.60564723613E+02  0.00000000000E+00 0.  1.
         -5    1    3    3    0  504 -0.29534095066E+02  0.39104987915E+02 -0.12715809754E+02  0.50845301346E+02  0.47000000000E+01 0.  1.
<mgrwt>
<rscale>  2 0.18109444E+03</rscale>
<asrwt>0</asrwt>
<pdfrwt beam="1">  1       21 0.35278697E-01 0.18166367E+03</pdfrwt>
<pdfrwt beam="2">  1       21 0.24332434E-01 0.18166367E+03</pdfrwt>
<totfact> 0.12401673E+05</totfact>
</mgrwt>
</event>
<event>
12    1  0.2743855E-001  0.2769085E+03  0.7546771E-02  0.1097461E+00
         21   -1    0    0  502  503  0.00000000000E+00  0.00000000000E+00  0.16742369499E+03  0.16742369499E+03  0.00000000000E+00 0. -1.
         21   -1    0    0  503  504 -0.00000000000E+00 -0.00000000000E+00 -0.11534537934E+04  0.11534537934E+04  0.00000000000E+00 0.  1.
         -6    2    1    2    0  504  0.21363833888E+03  0.31649202189E+02 -0.10059731192E+04  0.10432517412E+04  0.17247975821E+03 0.  0.
        -24    2    3    3    0    0  0.13260564315E+03 -0.16816221013E+02 -0.39301564124E+03  0.42304681145E+03  0.81487842849E+02 0.  0.
          6    2    1    2  502    0 -0.21363833888E+03 -0.31649202189E+02  0.19943020816E+02  0.27762574724E+03  0.17330700970E+03 0.  0.
         24    2    5    5    0    0 -0.22871813475E+03 -0.97486007038E+00  0.18405360453E+02  0.24308924615E+03  0.80253901990E+02 0.  0.
          2    1    6    6  501    0 -0.19449681965E+03 -0.39721006091E+01 -0.15074666942E+02  0.19512056790E+03  0.00000000000E+00 0. -1.
         -1    1    6    6    0  501 -0.34221315104E+02  0.29972405387E+01  0.33480027395E+02  0.47968678246E+02  0.00000000000E+00 0.  1.
          5    1    5    5  502    0  0.15079795868E+02 -0.30674342118E+02  0.15376603633E+01  0.34536501085E+02  0.47000000000E+01 0. -1.
         13    1    4    4    0    0 -0.36553032365E+01 -0.17530936757E+01  0.22819666100E+01  0.46520910133E+01  0.00000000000E+00 0. -1.
        -14    1    4    4    0    0  0.13626094639E+03 -0.15063127337E+02 -0.39529760785E+03  0.41839472044E+03  0.00000000000E+00 0.  1.
         -5    1    3    3    0  504  0.81032695733E+02  0.48465423201E+02 -0.61295747797E+03  0.62020492970E+03  0.47000000000E+01 0.  1.
<mgrwt>
<rscale>  2 0.27677919E+03</rscale>
<asrwt>0</asrwt>
<pdfrwt beam="1">  1       21 0.25757492E-01 0.27690853E+03</pdfrwt>
<pdfrwt beam="2">  1       21 0.17745442E+00 0.27690853E+03</pdfrwt>
<totfact> 0.25290781E+03</totfact>
</mgrwt>
</event>
<event>
12    1  0.2743855E-001  0.1834398E+03  0.7546771E-02  0.1164757E+00
         21   -1    0    0  502  503  0.00000000000E+00  0.00000000000E+00  0.11014717370E+03  0.11014717370E+03  0.00000000000E+00 0. -1.
         21   -1    0    0  503  504 -0.00000000000E+00 -0.00000000000E+00 -0.30873658712E+03  0.30873658712E+03  0.00000000000E+00 0. -1.
         -6    2    1    2    0  504 -0.55220229483E+02 -0.22647199798E+02 -0.12605125497E+03  0.22257378608E+03  0.17345893453E+03 0.  0.
        -24    2    3    3    0    0  0.34664383759E+02 -0.10230495453E+02 -0.41363165936E+02  0.98365973651E+02  0.81600678535E+02 0.  0.
          6    2    1    2  502    0  0.55220229483E+02  0.22647199798E+02 -0.72538158449E+02  0.19630997474E+03  0.17237648432E+03 0.  0.
         24    2    5    5    0    0  0.18065226885E+02 -0.38677707820E+02  0.29015358211E+01  0.92125158263E+02  0.81586202083E+02 0.  0.
          4    1    6    6  501    0 -0.97746000237E+01 -0.25431931361E+02 -0.34302967496E+02  0.43806614996E+02  0.00000000000E+00 0. -1.
         -3    1    6    6    0  501  0.27839826909E+02 -0.13245776459E+02  0.37204503318E+02  0.48318543267E+02  0.00000000000E+00 0.  1.
          5    1    5    5  502    0  0.37155002597E+02  0.61324907618E+02 -0.75439694270E+02  0.10418481648E+03  0.47000000000E+01 0. -1.
         11    1    4    4    0    0  0.22680868665E+02 -0.46434473153E+01  0.23014654378E+02  0.32644413343E+02  0.00000000000E+00 0. -1.
        -12    1    4    4    0    0  0.11983515095E+02 -0.55870481375E+01 -0.64377820314E+02  0.65721560308E+02  0.00000000000E+00 0.  1.
         -5    1    3    3    0  504 -0.89884613242E+02 -0.12416704345E+02 -0.84688089039E+02  0.12420781243E+03  0.47000000000E+01 0.  1.
<mgrwt>
<rscale>  2 0.18318349E+03</rscale>
<asrwt>0</asrwt>
<pdfrwt beam="1">  1       21 0.16945719E-01 0.18343983E+03</pdfrwt>
<pdfrwt beam="2">  1       21 0.47497936E-01 0.18343983E+03</pdfrwt>
<totfact> 0.13344736E+05</totfact>
</mgrwt>
</event>
<event>
12    1  0.2743855E-001  0.1987497E+03  0.7546771E-02  0.1150969E+00
         21   -1    0    0  502  503  0.00000000000E+00  0.00000000000E+00  0.36680192352E+03  0.36680192352E+03  0.00000000000E+00 0.  1.
         21   -1    0    0  503  504 -0.00000000000E+00 -0.00000000000E+00 -0.13329196678E+03  0.13329196678E+03  0.00000000000E+00 0.  1.
         -6    2    1    2    0  504 -0.75057138003E+02 -0.58718222021E+02  0.64366030265E+01  0.19885392280E+03  0.17441344327E+03 0.  0.
        -24    2    3    3    0    0  0.32929181882E+02 -0.37161396166E+02 -0.15647795569E+02  0.86445948511E+02  0.69012666399E+02 0.  0.
          6    2    1    2  502    0  0.75057138003E+02  0.58718222021E+02  0.22707335371E+03  0.30123996749E+03  0.17349872185E+03 0.  0.
         24    2    5    5    0    0  0.98806223125E+02  0.87999691620E+00  0.10910475891E+03  0.16764371497E+03  0.80231680960E+02 0.  0.
          4    1    6    6  501    0  0.51517081316E+01 -0.61162067216E+01  0.62116954737E+02  0.62629578852E+02  0.00000000000E+00 0. -1.
         -3    1    6    6    0  501  0.93654514993E+02  0.69962036378E+01  0.46987804175E+02  0.10501413612E+03  0.00000000000E+00 0.  1.
          5    1    5    5  502    0 -0.23749085122E+02  0.57838225105E+02  0.11796859480E+03  0.13359625252E+03  0.47000000000E+01 0. -1.
         13    1    4    4    0    0  0.93956781789E+00 -0.23066173064E+02  0.24195128153E+02  0.33441521404E+02  0.00000000000E+00 0. -1.
        -14    1    4    4    0    0  0.31989614064E+02 -0.14095223103E+02 -0.39842923722E+02  0.53004427107E+02  0.00000000000E+00 0.  1.
         -5    1    3    3    0  504 -0.10798631988E+03 -0.21556825855E+02  0.22084398595E+02  0.11240797429E+03  0.47000000000E+01 0.  1.
<mgrwt>
<rscale>  2 0.19854886E+03</rscale>
<asrwt>0</asrwt>
<pdfrwt beam="1">  1       21 0.56431065E-01 0.19874972E+03</pdfrwt>
<pdfrwt beam="2">  1       21 0.20506457E-01 0.19874972E+03</pdfrwt>
<totfact> 0.64887746E+04</totfact>
</mgrwt>
</event>
<event>
12    1  0.2743855E-001  0.2008944E+03  0.7546771E-02  0.1149250E+00
         21   -1    0    0  502  503  0.00000000000E+00  0.00000000000E+00  0.13103370722E+03  0.13103370722E+03  0.00000000000E+00 0. -1.
         21   -1    0    0  503  504 -0.00000000000E+00 -0.00000000000E+00 -0.68904141479E+03  0.68904141479E+03  0.00000000000E+00 0. -1.
         -6    2    1    2    0  504 -0.93514002772E+02 -0.42874321829E+02 -0.58430161849E+03  0.61746728785E+03  0.17109761545E+03 0.  0.
        -24    2    3    3    0    0 -0.10888057534E+03 -0.44915947105E+02 -0.29022907978E+03  0.32294895598E+03  0.78680921626E+02 0.  0.
          6    2    1    2  502    0  0.93514002772E+02  0.42874321829E+02  0.26293910918E+02  0.20260783416E+03  0.17255575482E+03 0.  0.
         24    2    5    5    0    0  0.26960906783E+02 -0.40557996793E+02  0.18279679513E+02  0.95479013190E+02  0.80064059842E+02 0.  0.
          2    1    6    6  501    0  0.43496153045E+02  0.20074868894E+01  0.23564399338E+02  0.49509860124E+02  0.00000000000E+00 0. -1.
         -1    1    6    6    0  501 -0.16535246262E+02 -0.42565483682E+02 -0.52847198256E+01  0.45969153067E+02  0.00000000000E+00 0.  1.
          5    1    5    5  502    0  0.66553095989E+02  0.83432318621E+02  0.80142314052E+01  0.10712882096E+03  0.47000000000E+01 0. -1.
         13    1    4    4    0    0 -0.26225922183E+02 -0.38218516364E+02 -0.17466613708E+03  0.18071168593E+03  0.00000000000E+00 0. -1.
        -14    1    4    4    0    0 -0.82654653157E+02 -0.66974307403E+01 -0.11556294270E+03  0.14223727005E+03  0.00000000000E+00 0.  1.
         -5    1    3    3    0  504  0.15366572568E+02  0.20416252760E+01 -0.29407253871E+03  0.29451833188E+03  0.47000000000E+01 0.  1.
<mgrwt>
<rscale>  2 0.20058092E+03</rscale>
<asrwt>0</asrwt>
<pdfrwt beam="1">  1       21 0.20159032E-01 0.20089441E+03</pdfrwt>
<pdfrwt beam="2">  1       21 0.10600637E+00 0.20089441E+03</pdfrwt>
<totfact> 0.16153266E+04</totfact>
</mgrwt>
</event>
<event>
12    1  0.2743855E-001  0.1757675E+03  0.7546771E-02  0.1172375E+00
         21   -1    0    0  502  503  0.00000000000E+00  0.00000000000E+00  0.11807583207E+03  0.11807583207E+03  0.00000000000E+00 0. -1.
         21   -1    0    0  503  504 -0.00000000000E+00 -0.00000000000E+00 -0.52256504072E+03  0.52256504072E+03  0.00000000000E+00 0. -1.
         -6    2    1    2    0  504 -0.10916964252E+02 -0.18275472504E+02 -0.43011184898E+03  0.46464009851E+03  0.17447362409E+03 0.  0.
        -24    2    3    3    0    0  0.59242145754E+02  0.39754731950E+01 -0.24053951418E+03  0.26122631967E+03  0.82791883554E+02 0.  0.
          6    2    1    2  502    0  0.10916964252E+02  0.18275472504E+02  0.25622640329E+02  0.17600077429E+03  0.17281950077E+03 0.  0.
         24    2    5    5    0    0 -0.32970635114E+02 -0.25596453185E+02 -0.23547564195E+02  0.96687053816E+02  0.83974147216E+02 0.  0.
          2    1    6    6  501    0 -0.30810755440E+02  0.63881215933E+01  0.23838156114E+02  0.39476175539E+02  0.00000000000E+00 0. -1.
         -1    1    6    6    0  501 -0.21598796738E+01 -0.31984574778E+02 -0.47385720309E+02  0.57210878277E+02  0.00000000000E+00 0.  1.
          5    1    5    5  502    0  0.43887599366E+02  0.43871925689E+02  0.49170204524E+02  0.79313720470E+02  0.47000000000E+01 0. -1.
         13    1    4    4    0    0  0.32111824802E+02 -0.30116290128E+02 -0.54028387604E+02  0.69693808120E+02  0.00000000000E+00 0. -1.
        -14    1    4    4    0    0  0.27130320951E+02  0.34091763323E+02 -0.18651112658E+03  0.19153251155E+03  0.00000000000E+00 0.  1.
         -5    1    3    3    0  504 -0.70159110006E+02 -0.22250945699E+02 -0.18957233480E+03  0.20341377884E+03  0.47000000000E+01 0.  1.
<mgrwt>
<rscale>  2 0.17535561E+03</rscale>
<asrwt>0</asrwt>
<pdfrwt beam="1">  1       21 0.18165512E-01 0.17576751E+03</pdfrwt>
<pdfrwt beam="2">  1       21 0.80394622E-01 0.17576751E+03</pdfrwt>
<totfact> 0.37880303E+04</totfact>
</mgrwt>
</event>
<event>
12    1  0.2743855E-001  0.1910293E+03  0.7546771E-02  0.1157953E+00
         21   -1    0    0  502  503  0.00000000000E+00  0.00000000000E+00  0.24325581762E+03  0.24325581762E+03  0.00000000000E+00 0. -1.
         21   -1    0    0  503  504 -0.00000000000E+00 -0.00000000000E+00 -0.24838046373E+03  0.24838046373E+03  0.00000000000E+00 0. -1.
         -6    2    1    2    0  504  0.72125595586E+02  0.25044341896E+02 -0.15839980766E+03  0.24815858924E+03  0.17510815443E+03 0.  0.
        -24    2    3    3    0    0  0.72564870222E+02 -0.48102454197E+02 -0.86631152485E+02  0.14557459143E+03  0.78150486876E+02 0.  0.
          6    2    1    2  502    0 -0.72125595586E+02 -0.25044341896E+02  0.15327516155E+03  0.24347769211E+03  0.17308607918E+03 0.  0.
         24    2    5    5    0    0 -0.24585422327E+02 -0.81094811268E+02  0.97857627928E+02  0.15130982231E+03  0.78343701587E+02 0.  0.
          4    1    6    6  501    0 -0.49574329032E+02 -0.53011907432E+02  0.84556957817E+02  0.11143498348E+03  0.00000000000E+00 0. -1.
         -3    1    6    6    0  501  0.24988906705E+02 -0.28082903836E+02  0.13300670111E+02  0.39874838828E+02  0.00000000000E+00 0.  1.
          5    1    5    5  502    0 -0.47540173259E+02  0.56050469371E+02  0.55417533620E+02  0.92167869796E+02  0.47000000000E+01 0. -1.
         13    1    4    4    0    0  0.40263614637E+01 -0.23222376070E+02 -0.65572909924E+02  0.69679960196E+02  0.00000000000E+00 0. -1.
        -14    1    4    4    0    0  0.68538508758E+02 -0.24880078127E+02 -0.21058242561E+02  0.75894631234E+02  0.00000000000E+00 0.  1.
         -5    1    3    3    0  504 -0.43927463579E+00  0.73146796093E+02 -0.71768655179E+02  0.10258399781E+03  0.47000000000E+01 0.  1.
<mgrwt>
<rscale>  2 0.19056463E+03</rscale>
<asrwt>0</asrwt>
<pdfrwt beam="1">  1       21 0.37423972E-01 0.19102928E+03</pdfrwt>
<pdfrwt beam="2">  1       21 0.38212379E-01 0.19102928E+03</pdfrwt>
<totfact> 0.45515647E+04</totfact>
</mgrwt>
</event>
<event>
12    1  0.2743855E-001  0.2456363E+03  0.7546771E-02  0.1116237E+00
         21   -1    0    0  502  503  0.00000000000E+00  0.00000000000E+00  0.32528497830E+03  0.32528497830E+03  0.00000000000E+00 0. -1.
         21   -1    0    0  503  504 -0.00000000000E+00 -0.00000000000E+00 -0.49207428029E+03  0.49207428029E+03  0.00000000000E+00 0. -1.
         -6    2    1    2    0  504 -0.15123509100E+03 -0.86198766988E+02 -0.40627146015E+03  0.47430113868E+03  0.17205461530E+03 0.  0.
        -24    2    3    3    0    0 -0.10597382753E+03 -0.98752687916E+02 -0.18582565957E+03  0.24885796648E+03  0.80103472049E+02 0.  0.
          6    2    1    2  502    0  0.15123509100E+03  0.86198766988E+02  0.23948215816E+03  0.34305811991E+03  0.17330576846E+03 0.  0.
         24    2    5    5    0    0  0.66731795900E+02  0.83131028105E+02  0.62795847045E+02  0.14712353787E+03  0.79612289074E+02 0.  0.
          4    1    6    6  501    0  0.36653572877E+02  0.82941100357E+02  0.71869140119E+02  0.11570602333E+03  0.00000000000E+00 0. -1.
         -3    1    6    6    0  501  0.30078223023E+02  0.18992774827E+00 -0.90732930742E+01  0.31417514542E+02  0.00000000000E+00 0.  1.
          5    1    5    5  502    0  0.84503295099E+02  0.30677388834E+01  0.17668631111E+03  0.19593458204E+03  0.47000000000E+01 0. -1.
         11    1    4    4    0    0 -0.10216816512E+03 -0.10829429779E+03 -0.18641099474E+03  0.23856874870E+03  0.00000000000E+00 0. -1.
        -12    1    4    4    0    0 -0.38056624016E+01  0.95416098698E+01  0.58533516747E+00  0.10289217778E+02  0.00000000000E+00 0.  1.
         -5    1    3    3    0  504 -0.45261263473E+02  0.12553920928E+02 -0.22044580057E+03  0.22544317220E+03  0.47000000000E+01 0.  1.
<mgrwt>
<rscale>  2 0.24541568E+03</rscale>
<asrwt>0</asrwt>
<pdfrwt beam="1">  1       21 0.50043843E-01 0.24563625E+03</pdfrwt>
<pdfrwt beam="2">  1       21 0.75703735E-01 0.24563625E+03</pdfrwt>
<totfact> 0.57081041E+03</totfact>
</mgrwt>
</event>
<event>
12    1  0.2743855E-001  0.2028044E+03  0.7546771E-02  0.1151398E+00
         21   -1    0    0  502  503  0.00000000000E+00  0.00000000000E+00  0.33112614693E+03  0.33112614693E+03  0.00000000000E+00 0. -1.
         21   -1    0    0  503  504 -0.00000000000E+00 -0.00000000000E+00 -0.15234967141E+03  0.15234967141E+03  0.00000000000E+00 0. -1.
         -6    2    1    2    0  504 -0.49304508778E+02  0.51195326452E+02 -0.29880099414E+02  0.20499380272E+03  0.18994141933E+03 0.  0.
        -24    2    3    3    0    0 -0.38669800543E+02 -0.19252986381E+02 -0.77051567580E+02  0.11941752558E+03  0.80359009391E+02 0.  0.
          6    2    1    2  502    0  0.49304508778E+02 -0.51195326452E+02  0.20865657493E+03  0.27848201562E+03  0.17018451964E+03 0.  0.
         24    2    5    5    0    0 -0.29045740896E+00 -0.84353273592E+02  0.96201628573E+02  0.15109553639E+03  0.80371317313E+02 0.  0.
          4    1    6    6  501    0  0.21430438785E+02 -0.83568832655E+02  0.96389369227E+02  0.12935966913E+03  0.00000000000E+00 0. -1.
         -3    1    6    6    0  501 -0.21720896194E+02 -0.78444093730E+00 -0.18774065394E+00  0.21735867262E+02  0.00000000000E+00 0.  1.
          5    1    5    5  502    0  0.49594966187E+02  0.33157947140E+02  0.11245494636E+03  0.12738647923E+03  0.47000000000E+01 0. -1.
         13    1    4    4    0    0 -0.41319272965E+01  0.18165091356E+02 -0.64271635906E+02  0.66917012405E+02  0.00000000000E+00 0. -1.
        -14    1    4    4    0    0 -0.34537873247E+02 -0.37418077737E+02 -0.12779931674E+02  0.52500513174E+02  0.00000000000E+00 0.  1.
         -5    1    3    3    0  504 -0.10634708235E+02  0.70448312833E+02  0.47171468166E+02  0.85576277140E+02  0.47000000000E+01 0.  1.
<mgrwt>
<rscale>  2 0.19804613E+03</rscale>
<asrwt>0</asrwt>
<pdfrwt beam="1">  1       21 0.50942484E-01 0.20280443E+03</pdfrwt>
<pdfrwt beam="2">  1       21 0.23438411E-01 0.20280443E+03</pdfrwt>
<totfact> 0.62463014E+04</totfact>
</mgrwt>
</event>
<event>
12    1  0.2743855E-001  0.3097157E+03  0.7546771E-02  0.1080523E+00
         21   -1    0    0  502  503  0.00000000000E+00  0.00000000000E+00  0.67708346121E+03  0.67708346121E+03  0.00000000000E+00 0.  1.
         21   -1    0    0  503  504 -0.00000000000E+00 -0.00000000000E+00 -0.14315162223E+03  0.14315162223E+03  0.00000000000E+00 0.  1.
         -6    2    1    2    0  504  0.24672463518E+02  0.25529872248E+03  0.31094962631E+03  0.43887753007E+03  0.17360198196E+03 0.  0.
        -24    2    3    3    0    0 -0.15692711252E+02  0.48178202484E+02  0.12470503870E+03  0.15738615622E+03  0.81557679655E+02 0.  0.
          6    2    1    2  502    0 -0.24672463518E+02 -0.25529872248E+03  0.22298221267E+03  0.38135755337E+03  0.17299233563E+03 0.  0.
         24    2    5    5    0    0 -0.52000761312E+02 -0.21799440038E+03  0.23427392034E+03  0.33352408213E+03  0.78284135286E+02 0.  0.
          4    1    6    6  501    0 -0.29172304512E+02 -0.82718921635E+02  0.14621454928E+03  0.17050553588E+03  0.00000000000E+00 0. -1.
         -3    1    6    6    0  501 -0.22828456800E+02 -0.13527547874E+03  0.88059371067E+02  0.16301854625E+03  0.00000000000E+00 0.  1.
          5    1    5    5  502    0  0.27328297794E+02 -0.37304322108E+02 -0.11291707673E+02  0.47833471236E+02  0.47000000000E+01 0. -1.
         13    1    4    4    0    0 -0.80760277111E+01  0.51698210727E+02  0.13459978747E+03  0.14441270721E+03  0.00000000000E+00 0. -1.
        -14    1    4    4    0    0 -0.76166835410E+01 -0.35200082423E+01 -0.98947487658E+01  0.12973449014E+02  0.00000000000E+00 0.  1.
         -5    1    3    3    0  504  0.40365174770E+02  0.20712052000E+03  0.18624458761E+03  0.28149137385E+03  0.47000000000E+01 0.  1.
<mgrwt>
<rscale>  2 0.30963034E+03</rscale>
<asrwt>0</asrwt>
<pdfrwt beam="1">  1       21 0.10416668E+00 0.30971570E+03</pdfrwt>
<pdfrwt beam="2">  1       21 0.22023327E-01 0.30971570E+03</pdfrwt>
<totfact> 0.13467502E+04</totfact>
</mgrwt>
</event>
<event>
12    1  0.2743855E-001  0.2012574E+03  0.7546771E-02  0.1149507E+00
         21   -1    0    0  502  503  0.00000000000E+00  0.00000000000E+00  0.21142273058E+03  0.21142273058E+03  0.00000000000E+00 0. -1.
         21   -1    0    0  503  504 -0.00000000000E+00 -0.00000000000E+00 -0.26819645073E+03  0.26819645073E+03  0.00000000000E+00 0. -1.
         -6    2    1    2    0  504  0.11017902127E+02  0.10192467043E+03 -0.15980453244E+03  0.25698647389E+03  0.17318927958E+03 0.  0.
        -24    2    3    3    0    0 -0.50154505514E+02  0.97339056362E+01 -0.46870348264E+02  0.98817511929E+02  0.70411986019E+02 0.  0.
          6    2    1    2  502    0 -0.11017902127E+02 -0.10192467043E+03  0.10303081229E+03  0.22263270743E+03  0.16864145850E+03 0.  0.
         24    2    5    5    0    0 -0.32810907602E+02 -0.26318401130E+02 -0.16721140937E+01  0.91575331298E+02  0.81326695747E+02 0.  0.
          2    1    6    6  501    0  0.24356520884E+02 -0.23574208642E+02  0.36627511356E+01  0.34093975546E+02  0.00000000000E+00 0. -1.
         -1    1    6    6    0  501 -0.57167428486E+02 -0.27441924881E+01 -0.53348652293E+01  0.57481355752E+02  0.00000000000E+00 0.  1.
          5    1    5    5  502    0  0.21793005475E+02 -0.75606269304E+02  0.10470292638E+03  0.13105737613E+03  0.47000000000E+01 0. -1.
         11    1    4    4    0    0 -0.11954899157E+02  0.29329757770E+02 -0.46033228003E+02  0.55876760689E+02  0.00000000000E+00 0. -1.
        -12    1    4    4    0    0 -0.38199606358E+02 -0.19595852134E+02 -0.83712026069E+00  0.42940751240E+02  0.00000000000E+00 0.  1.
         -5    1    3    3    0  504  0.61172407641E+02  0.92190764798E+02 -0.11293418418E+03  0.15816896196E+03  0.47000000000E+01 0.  1.
<mgrwt>
<rscale>  2 0.20027529E+03</rscale>
<asrwt>0</asrwt>
<pdfrwt beam="1">  1       21 0.32526574E-01 0.20125745E+03</pdfrwt>
<pdfrwt beam="2">  1       21 0.41260992E-01 0.20125745E+03</pdfrwt>
<totfact> 0.51236844E+04</totfact>
</mgrwt>
</event>
<event>
12    1  0.2743855E-001  0.2077923E+03  0.7546771E-02  0.1143388E+00
         21   -1    0    0  502  503  0.00000000000E+00  0.00000000000E+00  0.11211431495E+03  0.11211431495E+03  0.00000000000E+00 0. -1.
         21   -1    0    0  503  504 -0.00000000000E+00 -0.00000000000E+00 -0.44253378975E+03  0.44253378975E+03  0.00000000000E+00 0.  1.
         -6    2    1    2    0  504  0.11354270873E+03  0.18779189670E+02 -0.26570176131E+03  0.33730556781E+03  0.17301160494E+03 0.  0.
        -24    2    3    3    0    0 -0.47259457442E+01 -0.45903138179E+01 -0.69609590513E+02  0.10707125722E+03  0.81088553369E+02 0.  0.
          6    2    1    2  502    0 -0.11354270873E+03 -0.18779189670E+02 -0.64717713486E+02  0.21734253688E+03  0.17264064188E+03 0.  0.
         24    2    5    5    0    0 -0.10671352583E+03 -0.72157200513E+02 -0.29979918866E+02  0.15311906644E+03  0.77150598119E+02 0.  0.
          2    1    6    6  501    0 -0.63575794083E+02 -0.35168185464E+01  0.69167674816E+01  0.64047570433E+02  0.00000000000E+00 0. -1.
         -1    1    6    6    0  501 -0.43137731747E+02 -0.68640381967E+02 -0.36896686348E+02  0.89071496003E+02  0.00000000000E+00 0.  1.
          5    1    5    5  502    0 -0.68291829024E+01  0.53378010843E+02 -0.34737794620E+02  0.64223470443E+02  0.47000000000E+01 0. -1.
         11    1    4    4    0    0  0.34941132707E+02  0.13835862786E+02 -0.30559457101E+02  0.48437529584E+02  0.00000000000E+00 0. -1.
        -12    1    4    4    0    0 -0.39667078452E+02 -0.18426176604E+02 -0.39050133412E+02  0.58633727637E+02  0.00000000000E+00 0.  1.
         -5    1    3    3    0  504  0.11826865448E+03  0.23369503488E+02 -0.19609217080E+03  0.23023431059E+03  0.47000000000E+01 0.  1.
<mgrwt>
<rscale>  2 0.20771502E+03</rscale>
<asrwt>0</asrwt>
<pdfrwt beam="1">  1       21 0.17248356E-01 0.20779225E+03</pdfrwt>
<pdfrwt beam="2">  1       21 0.68082122E-01 0.20779225E+03</pdfrwt>
<totfact> 0.59403389E+04</totfact>
</mgrwt>
</event>
<event>
12    1  0.2743855E-001  0.1772244E+03  0.7546771E-02  0.1171198E+00
         21   -1    0    0  502  503  0.00000000000E+00  0.00000000000E+00  0.20542504552E+03  0.20542504552E+03  0.00000000000E+00 0. -1.
         21   -1    0    0  503  504 -0.00000000000E+00 -0.00000000000E+00 -0.27396274151E+03  0.27396274151E+03  0.00000000000E+00 0. -1.
         -6    2    1    2    0  504  0.15415205266E+02  0.11184517332E+02 -0.19529316126E+03  0.26371939723E+03  0.17619812616E+03 0.  0.
        -24    2    3    3    0    0  0.55671099851E+02  0.32744897326E+02 -0.56278634580E+02  0.11732091479E+03  0.80158671876E+02 0.  0.
          6    2    1    2  502    0 -0.15415205266E+02 -0.11184517332E+02  0.12675546527E+03  0.21566838979E+03  0.17344504721E+03 0.  0.
         24    2    5    5    0    0 -0.54736048423E+02 -0.53379966920E+02  0.10921621902E+03  0.15520104463E+03  0.79458957282E+02 0.  0.
          2    1    6    6  501    0 -0.19192092337E+02 -0.68869899296E+02  0.71267091366E+02  0.10094749996E+03  0.00000000000E+00 0. -1.
         -1    1    6    6    0  501 -0.35543956086E+02  0.15489932376E+02  0.37949127649E+02  0.54253544664E+02  0.00000000000E+00 0.  1.
          5    1    5    5  502    0  0.39320843157E+02  0.42195449588E+02  0.17539246252E+02  0.60467345167E+02  0.47000000000E+01 0. -1.
         13    1    4    4    0    0  0.50428499459E+02  0.13583532515E+02 -0.74085097264E+02  0.90642967460E+02  0.00000000000E+00 0. -1.
        -14    1    4    4    0    0  0.52426003921E+01  0.19161364811E+02  0.17806462684E+02  0.26677947328E+02  0.00000000000E+00 0.  1.
         -5    1    3    3    0  504 -0.40255894585E+02 -0.21560379994E+02 -0.13901452668E+03  0.14639848245E+03  0.47000000000E+01 0.  1.
<mgrwt>
<rscale>  2 0.17653622E+03</rscale>
<asrwt>0</asrwt>
<pdfrwt beam="1">  1       21 0.31603853E-01 0.17722444E+03</pdfrwt>
<pdfrwt beam="2">  1       21 0.42148114E-01 0.17722444E+03</pdfrwt>
<totfact> 0.52515820E+04</totfact>
</mgrwt>
</event>
<event>
12    1  0.2743855E-001  0.2334794E+03  0.7546771E-02  0.1124870E+00
         21   -1    0    0  502  503  0.00000000000E+00  0.00000000000E+00  0.28011967229E+03  0.28011967229E+03  0.00000000000E+00 0. -1.
         21   -1    0    0  503  504 -0.00000000000E+00 -0.00000000000E+00 -0.21797398183E+03  0.21797398183E+03  0.00000000000E+00 0.  1.
         -6    2    1    2    0  504 -0.94617269969E+02 -0.12391144465E+03  0.11812020532E+03  0.26165818703E+03  0.17379916584E+03 0.  0.
        -24    2    3    3    0    0 -0.16017856213E+02 -0.12015371903E+03  0.87993416178E+02  0.17726801125E+03  0.94803051678E+02 0.  0.
          6    2    1    2  502    0  0.94617269969E+02  0.12391144465E+03 -0.55974514849E+02  0.23643546709E+03  0.16870717203E+03 0.  0.
         24    2    5    5    0    0 -0.34390781861E+01  0.33263789251E+01 -0.11602871489E+02  0.74735936403E+02  0.73674564863E+02 0.  0.
          4    1    6    6  501    0  0.54264541645E+01 -0.34473320007E+02 -0.74970225239E+01  0.35693998709E+02  0.00000000000E+00 0. -1.
         -3    1    6    6    0  501 -0.88655323507E+01  0.37799698932E+02 -0.41058489655E+01  0.39041937694E+02  0.00000000000E+00 0.  1.
          5    1    5    5  502    0  0.98056348155E+02  0.12058506573E+03 -0.44371643359E+02  0.16169953069E+03  0.47000000000E+01 0. -1.
         11    1    4    4    0    0 -0.35574585788E+02 -0.73536059678E+02  0.96035132061E+02  0.12607874451E+03  0.00000000000E+00 0. -1.
        -12    1    4    4    0    0  0.19556729575E+02 -0.46617659354E+02 -0.80417158829E+01  0.51189266743E+02  0.00000000000E+00 0.  1.
         -5    1    3    3    0  504 -0.78599413756E+02 -0.37577256201E+01  0.30126789138E+02  0.84390175781E+02  0.47000000000E+01 0.  1.
<mgrwt>
<rscale>  2 0.23253233E+03</rscale>
<asrwt>0</asrwt>
<pdfrwt beam="1">  1       21 0.43095334E-01 0.23347939E+03</pdfrwt>
<pdfrwt beam="2">  1       21 0.33534459E-01 0.23347939E+03</pdfrwt>
<totfact> 0.43489787E+04</totfact>
</mgrwt>
</event>
<event>
12    1  0.2743855E-001  0.1899987E+03  0.7546771E-02  0.1158532E+00
         21   -1    0    0  502  503  0.00000000000E+00  0.00000000000E+00  0.13603919134E+03  0.13603919134E+03  0.00000000000E+00 0. -1.
         21   -1    0    0  503  504 -0.00000000000E+00 -0.00000000000E+00 -0.29008716661E+03  0.29008716661E+03  0.00000000000E+00 0. -1.
         -6    2    1    2    0  504  0.44398738093E+02  0.65244932225E+02 -0.13982748034E+03  0.23590510127E+03  0.17283328215E+03 0.  0.
        -24    2    3    3    0    0 -0.34369803766E+01 -0.25004072522E+02 -0.81474501036E+02  0.11817533013E+03  0.81794240962E+02 0.  0.
          6    2    1    2  502    0 -0.44398738093E+02 -0.65244932225E+02 -0.14220494926E+02  0.19022125668E+03  0.17249276765E+03 0.  0.
         24    2    5    5    0    0  0.11732366452E+02  0.21344324660E+02 -0.23341640150E+02  0.86521277916E+02  0.79673526026E+02 0.  0.
          4    1    6    6  501    0  0.32624820267E+02  0.24222215969E+02  0.14546529435E+02  0.43158963872E+02  0.00000000000E+00 0. -1.
         -3    1    6    6    0  501 -0.20892453815E+02 -0.28778913086E+01 -0.37888169584E+02  0.43362314044E+02  0.00000000000E+00 0.  1.
          5    1    5    5  502    0 -0.56131104545E+02 -0.86589256885E+02  0.91211452237E+01  0.10369997876E+03  0.47000000000E+01 0. -1.
         13    1    4    4    0    0 -0.12799357785E+02  0.15682720289E+02  0.61134853251E+01  0.21145826496E+02  0.00000000000E+00 0. -1.
        -14    1    4    4    0    0  0.93623774080E+01 -0.40686792811E+02 -0.87587986361E+02  0.97029503631E+02  0.00000000000E+00 0.  1.
         -5    1    3    3    0  504  0.47835718469E+02  0.90249004747E+02 -0.58352979307E+02  0.11772977114E+03  0.47000000000E+01 0.  1.
<mgrwt>
<rscale>  2 0.18992119E+03</rscale>
<asrwt>0</asrwt>
<pdfrwt beam="1">  1       21 0.20929106E-01 0.18999866E+03</pdfrwt>
<pdfrwt beam="2">  1       21 0.44628795E-01 0.18999866E+03</pdfrwt>
<totfact> 0.10229610E+05</totfact>
</mgrwt>
</event>
<event>
12    1  0.2743855E-001  0.1738574E+03  0.7546771E-02  0.1173925E+00
         21   -1    0    0  502  503  0.00000000000E+00  0.00000000000E+00  0.17176895166E+03  0.17176895166E+03  0.00000000000E+00 0.  1.
         21   -1    0    0  503  504 -0.00000000000E+00 -0.00000000000E+00 -0.48714775505E+03  0.48714775505E+03  0.00000000000E+00 0.  1.
         -6    2    1    2    0  504 -0.25172230718E+01  0.16727003965E+02 -0.42109886677E+03  0.45557728711E+03  0.17303259770E+03 0.  0.
        -24    2    3    3    0    0 -0.10461108012E+01  0.32031631495E+02 -0.42912341746E+03  0.43760844717E+03  0.79543232608E+02 0.  0.
          6    2    1    2  502    0  0.25172230718E+01 -0.16727003965E+02  0.10572006338E+03  0.20333941960E+03  0.17287006302E+03 0.  0.
         24    2    5    5    0    0 -0.57514103817E+02 -0.44223580776E+02  0.58664184705E+02  0.12212262539E+03  0.78796267867E+02 0.  0.
          2    1    6    6  501    0 -0.31709368026E+02 -0.40478895120E+02 -0.66003791561E+01  0.51841971179E+02  0.00000000000E+00 0. -1.
         -1    1    6    6    0  501 -0.25804735791E+02 -0.37446856560E+01  0.65264563861E+02  0.70280654208E+02  0.00000000000E+00 0.  1.
          5    1    5    5  502    0  0.60031326888E+02  0.27496576811E+02  0.47055878673E+02  0.81216794211E+02  0.47000000000E+01 0. -1.
         13    1    4    4    0    0 -0.34671884479E+02  0.61100954983E+01 -0.10567272011E+03  0.11138310741E+03  0.00000000000E+00 0. -1.
        -14    1    4    4    0    0  0.33625773678E+02  0.25921535997E+02 -0.32345069735E+03  0.32622533975E+03  0.00000000000E+00 0.  1.
         -5    1    3    3    0  504 -0.14711122707E+01 -0.15304627530E+02  0.80245506935E+01  0.17968839945E+02  0.47000000000E+01 0.  1.
<mgrwt>
<rscale>  2 0.17381698E+03</rscale>
<asrwt>0</asrwt>
<pdfrwt beam="1">  1       21 0.26425993E-01 0.17385744E+03</pdfrwt>
<pdfrwt beam="2">  1       21 0.74945808E-01 0.17385744E+03</pdfrwt>
<totfact> 0.21936056E+04</totfact>
</mgrwt>
</event>
<event>
12    1  0.2743855E-001  0.2473390E+03  0.7546771E-02  0.1115247E+00
         21   -1    0    0  502  503  0.00000000000E+00  0.00000000000E+00  0.19208221990E+03  0.19208221990E+03  0.00000000000E+00 0.  1.
         21   -1    0    0  503  504 -0.00000000000E+00 -0.00000000000E+00 -0.50417169714E+03  0.50417169714E+03  0.00000000000E+00 0.  1.
         -6    2    1    2    0  504  0.84353765991E+02  0.15604343307E+03 -0.36813311432E+03  0.44264504466E+03  0.17013975097E+03 0.  0.
        -24    2    3    3    0    0  0.16989822021E+02  0.19334600197E+02 -0.73248790728E+02  0.11067206348E+03  0.78869762739E+02 0.  0.
          6    2    1    2  502    0 -0.84353765991E+02 -0.15604343307E+03  0.56043637078E+02  0.25360887238E+03  0.17237012517E+03 0.  0.
         24    2    5    5    0    0 -0.69021362896E+02 -0.10336406100E+03 -0.30736100522E+02  0.15083235909E+03  0.79734653882E+02 0.  0.
          2    1    6    6  501    0 -0.51642584338E+02 -0.53815898608E+02 -0.55312517515E+02  0.92857859409E+02  0.00000000000E+00 0. -1.
         -1    1    6    6    0  501 -0.17378778558E+02 -0.49548162391E+02  0.24576416994E+02  0.57974499676E+02  0.00000000000E+00 0.  1.
          5    1    5    5  502    0 -0.15332403095E+02 -0.52679372074E+02  0.86779737600E+02  0.10277651329E+03  0.47000000000E+01 0. -1.
         11    1    4    4    0    0 -0.15554412641E+02  0.36497607858E+02 -0.59250189894E+02  0.71306382144E+02  0.00000000000E+00 0. -1.
        -12    1    4    4    0    0  0.32544234662E+02 -0.17163007661E+02 -0.13998600834E+02  0.39365681335E+02  0.00000000000E+00 0.  1.
         -5    1    3    3    0  504  0.67363943970E+02  0.13670883288E+03 -0.29488432359E+03  0.33197298118E+03  0.47000000000E+01 0.  1.
<mgrwt>
<rscale>  2 0.24695078E+03</rscale>
<asrwt>0</asrwt>
<pdfrwt beam="1">  1       21 0.29551111E-01 0.24733898E+03</pdfrwt>
<pdfrwt beam="2">  1       21 0.77564877E-01 0.24733898E+03</pdfrwt>
<totfact> 0.15675249E+04</totfact>
</mgrwt>
</event>
<event>
12    1  0.2743855E-001  0.1970732E+03  0.7546771E-02  0.1152466E+00
         21   -1    0    0  502  503  0.00000000000E+00  0.00000000000E+00  0.76916609929E+02  0.76916609929E+02  0.00000000000E+00 0.  1.
         21   -1    0    0  503  504 -0.00000000000E+00 -0.00000000000E+00 -0.58962885264E+03  0.58962885264E+03  0.00000000000E+00 0.  1.
         -6    2    1    2    0  504  0.94485438251E+02  0.94773512322E+01 -0.38532066817E+03  0.43279311006E+03  0.17268624892E+03 0.  0.
        -24    2    3    3    0    0  0.70006785821E+02  0.67513789434E+02 -0.31094575378E+03  0.33521672729E+03  0.78891892074E+02 0.  0.
          6    2    1    2  502    0 -0.94485438251E+02 -0.94773512322E+01 -0.12739157454E+03  0.23375235251E+03  0.17144745788E+03 0.  0.
         24    2    5    5    0    0 -0.12329453792E+03 -0.33386779235E+01 -0.13781797345E+03  0.20215413534E+03  0.81607663720E+02 0.  0.
          2    1    6    6  501    0 -0.90397357323E+02 -0.37367944992E+01 -0.14262929870E+03  0.16890459642E+03  0.00000000000E+00 0. -1.
         -1    1    6    6    0  501 -0.32897180600E+02  0.39811657568E+00  0.48113252432E+01  0.33249538926E+02  0.00000000000E+00 0.  1.
          5    1    5    5  502    0  0.28809099672E+02 -0.61386733087E+01  0.10426398913E+02  0.31598217168E+02  0.47000000000E+01 0. -1.
         11    1    4    4    0    0 -0.15504988737E+02  0.42295061217E+01 -0.21519045891E+02  0.26858196772E+02  0.00000000000E+00 0. -1.
        -12    1    4    4    0    0  0.85511774559E+02  0.63284283313E+02 -0.28942670789E+03  0.30835853052E+03  0.00000000000E+00 0.  1.
         -5    1    3    3    0  504  0.24478652430E+02 -0.58036438202E+02 -0.74374914392E+02  0.97576382772E+02  0.47000000000E+01 0.  1.
<mgrwt>
<rscale>  2 0.19680152E+03</rscale>
<asrwt>0</asrwt>
<pdfrwt beam="1">  1       21 0.11833324E-01 0.19707323E+03</pdfrwt>
<pdfrwt beam="2">  1       21 0.90712135E-01 0.19707323E+03</pdfrwt>
<totfact> 0.61937190E+04</totfact>
</mgrwt>
</event>
<event>
12    1  0.2743855E-001  0.1991601E+03  0.7546771E-02  0.1151046E+00
         21   -1    0    0  502  503  0.00000000000E+00  0.00000000000E+00  0.39386249758E+03  0.39386249758E+03  0.00000000000E+00 0.  1.
         21   -1    0    0  503  504 -0.00000000000E+00 -0.00000000000E+00 -0.10015414443E+03  0.10015414443E+03  0.00000000000E+00 0.  1.
         -6    2    1    2    0  504 -0.68855067230E+02  0.69844475383E+02  0.12301544224E+03  0.23171751830E+03  0.17012036397E+03 0.  0.
        -24    2    3    3    0    0 -0.80940627741E+01  0.21319880226E+02  0.12891040907E+03  0.15359340787E+03  0.80330506211E+02 0.  0.
          6    2    1    2  502    0  0.68855067230E+02 -0.69844475383E+02  0.17069291091E+03  0.26229912371E+03  0.17333634771E+03 0.  0.
         24    2    5    5    0    0  0.14772279307E+01 -0.46629358750E+02  0.18980856337E+02  0.94616827764E+02  0.80097390026E+02 0.  0.
          2    1    6    6  501    0 -0.27256119110E+02 -0.48094033364E+02 -0.71622233530E+01  0.55742528805E+02  0.00000000000E+00 0. -1.
         -1    1    6    6    0  501  0.28733347041E+02  0.14646746143E+01  0.26143079690E+02  0.38874298959E+02  0.00000000000E+00 0.  1.
          5    1    5    5  502    0  0.67377839299E+02 -0.23215116633E+02  0.15171205458E+03  0.16768229594E+03  0.47000000000E+01 0. -1.
         11    1    4    4    0    0 -0.28789134181E+02 -0.30156411260E+01  0.11528522012E+03  0.11886374686E+03  0.00000000000E+00 0. -1.
        -12    1    4    4    0    0  0.20695071406E+02  0.24335521352E+02  0.13625188950E+02  0.34729661010E+02  0.00000000000E+00 0.  1.
         -5    1    3    3    0  504 -0.60761004456E+02  0.48524595157E+02 -0.58949668359E+01  0.78124110437E+02  0.47000000000E+01 0.  1.
<mgrwt>
<rscale>  2 0.19845829E+03</rscale>
<asrwt>0</asrwt>
<pdfrwt beam="1">  1       21 0.60594230E-01 0.19916014E+03</pdfrwt>
<pdfrwt beam="2">  1       21 0.15408330E-01 0.19916014E+03</pdfrwt>
<totfact> 0.94507946E+04</totfact>
</mgrwt>
</event>
<event>
12    1  0.2743855E-001  0.2265623E+03  0.7546771E-02  0.1129238E+00
         21   -1    0    0  502  503  0.00000000000E+00  0.00000000000E+00  0.73490342584E+03  0.73490342584E+03  0.00000000000E+00 0.  1.
         21   -1    0    0  503  504 -0.00000000000E+00 -0.00000000000E+00 -0.75549836448E+02  0.75549836448E+02  0.00000000000E+00 0.  1.
         -6    2    1    2    0  504 -0.75159006731E+02 -0.12447834233E+03  0.44300373998E+03  0.49718385384E+03  0.17261441679E+03 0.  0.
        -24    2    3    3    0    0 -0.47794883369E+02 -0.60358370122E+02  0.40020788141E+03  0.41524642897E+03  0.79597516998E+02 0.  0.
          6    2    1    2  502    0  0.75159006731E+02  0.12447834233E+03  0.21634984941E+03  0.31326940844E+03  0.17374329030E+03 0.  0.
         24    2    5    5    0    0  0.72701456964E+02  0.13933428282E+03  0.23162172539E+03  0.29131357290E+03  0.80718212743E+02 0.  0.
          4    1    6    6  501    0  0.25389863461E+02  0.12232282634E+03  0.14734070957E+03  0.19317557741E+03  0.00000000000E+00 0. -1.
         -3    1    6    6    0  501  0.47311593503E+02  0.17011456482E+02  0.84281015816E+02  0.98137995488E+02  0.00000000000E+00 0.  1.
          5    1    5    5  502    0  0.24575497678E+01 -0.14855940487E+02 -0.15271875977E+02  0.21955835545E+02  0.47000000000E+01 0. -1.
         11    1    4    4    0    0 -0.99039869598E+00  0.76503403064E+01  0.12241420160E+01  0.78107054775E+01  0.00000000000E+00 0. -1.
        -12    1    4    4    0    0 -0.46804484673E+02 -0.68008710429E+02  0.39898373939E+03  0.40743572349E+03  0.00000000000E+00 0.  1.
         -5    1    3    3    0  504 -0.27364123363E+02 -0.64119972211E+02  0.42795858569E+02  0.81937424871E+02  0.47000000000E+01 0.  1.
<mgrwt>
<rscale>  2 0.22634583E+03</rscale>
<asrwt>0</asrwt>
<pdfrwt beam="1">  1       21 0.11306206E+00 0.22656228E+03</pdfrwt>
<pdfrwt beam="2">  1       21 0.11623052E-01 0.22656228E+03</pdfrwt>
<totfact> 0.37277815E+04</totfact>
</mgrwt>
</event>
<event>
12    1  0.2743855E-001  0.2239271E+03  0.7546771E-02  0.1131879E+00
         21   -1    0    0  502  503  0.00000000000E+00  0.00000000000E+00  0.71129320374E+03  0.71129320374E+03  0.00000000000E+00 0. -1.
         21   -1    0    0  503  504 -0.00000000000E+00 -0.00000000000E+00 -0.72524763444E+02  0.72524763444E+02  0.00000000000E+00 0. -1.
         -6    2    1    2    0  504  0.26767274578E+02  0.13103331387E+03  0.23610146915E+03  0.32540321260E+03  0.17960270238E+03 0.  0.
        -24    2    3    3    0    0 -0.44668906104E+02  0.10874135678E+03  0.11322885254E+03  0.18145937225E+03  0.79288945518E+02 0.  0.
          6    2    1    2  502    0 -0.26767274578E+02 -0.13103331387E+03  0.40266697114E+03  0.45841475459E+03  0.17354302418E+03 0.  0.
         24    2    5    5    0    0 -0.17804692425E+02 -0.16251416464E+03  0.29608997958E+03  0.34682570058E+03  0.76752392734E+02 0.  0.
          4    1    6    6  501    0 -0.11140433206E+02 -0.16087012358E+03  0.29872756252E+03  0.33947232954E+03  0.00000000000E+00 0. -1.
         -3    1    6    6    0  501 -0.66642592195E+01 -0.16440410678E+01 -0.26375829354E+01  0.73533710445E+01  0.00000000000E+00 0.  1.
          5    1    5    5  502    0 -0.89625821524E+01  0.31480850775E+02  0.10657699156E+03  0.11158905401E+03  0.47000000000E+01 0. -1.
         11    1    4    4    0    0  0.17180516487E+02  0.61013064608E+02  0.44988844077E+02  0.77728761028E+02  0.00000000000E+00 0. -1.
        -12    1    4    4    0    0 -0.61849422592E+02  0.47728292177E+02  0.68240008462E+02  0.10373061122E+03  0.00000000000E+00 0.  1.
         -5    1    3    3    0  504  0.71436180682E+02  0.22291957085E+02  0.12287261661E+03  0.14394384035E+03  0.47000000000E+01 0.  1.
<mgrwt>
<rscale>  2 0.22270963E+03</rscale>
<asrwt>0</asrwt>
<pdfrwt beam="1">  1       21 0.10942972E+00 0.22392710E+03</pdfrwt>
<pdfrwt beam="2">  1       21 0.11157656E-01 0.22392710E+03</pdfrwt>
<totfact> 0.43482496E+04</totfact>
</mgrwt>
</event>
<event>
12    1  0.2743855E-001  0.1753706E+03  0.7546771E-02  0.1173309E+00
         21   -1    0    0  502  503  0.00000000000E+00  0.00000000000E+00  0.11452559635E+04  0.11452559635E+04  0.00000000000E+00 0. -1.
         21   -1    0    0  503  504 -0.00000000000E+00 -0.00000000000E+00 -0.26580475710E+02  0.26580475710E+02  0.00000000000E+00 0. -1.
         -6    2    1    2    0  504  0.28509579216E+02  0.13043563230E+02  0.49140438988E+03  0.52051172274E+03  0.16873425397E+03 0.  0.
        -24    2    3    3    0    0  0.64031362386E+02 -0.13188011587E+02  0.44804292955E+03  0.45844563828E+03  0.71805275047E+02 0.  0.
          6    2    1    2  502    0 -0.28509579216E+02 -0.13043563230E+02  0.62727109793E+03  0.65132471650E+03  0.17254542987E+03 0.  0.
         24    2    5    5    0    0 -0.75983827669E+01  0.36589620432E+02  0.54958689370E+03  0.55667981889E+03  0.80312709332E+02 0.  0.
          2    1    6    6  501    0 -0.43799149635E+02  0.17976672498E+02  0.26491614582E+03  0.26911352730E+03  0.00000000000E+00 0. -1.
         -1    1    6    6    0  501  0.36200766868E+02  0.18612947933E+02  0.28467074789E+03  0.28756629158E+03  0.00000000000E+00 0.  1.
          5    1    5    5  502    0 -0.20911196449E+02 -0.49633183662E+02  0.77684204231E+02  0.94644897614E+02  0.47000000000E+01 0. -1.
         11    1    4    4    0    0  0.60224182524E+02  0.19489280468E+02  0.26375712576E+03  0.27124639279E+03  0.00000000000E+00 0. -1.
        -12    1    4    4    0    0  0.38071798623E+01 -0.32677292055E+02  0.18428580379E+03  0.18719924549E+03  0.00000000000E+00 0.  1.
         -5    1    3    3    0  504 -0.35521783171E+02  0.26231574817E+02  0.43361460332E+02  0.62066084451E+02  0.47000000000E+01 0.  1.
<mgrwt>
<rscale>  2 0.17442591E+03</rscale>
<asrwt>0</asrwt>
<pdfrwt beam="1">  1       21 0.17619319E+00 0.17537062E+03</pdfrwt>
<pdfrwt beam="2">  1       21 0.40893048E-02 0.17537062E+03</pdfrwt>
<totfact> 0.73680049E+04</totfact>
</mgrwt>
</event>
<event>
12    1  0.2743855E-001  0.2357378E+03  0.7546771E-02  0.1122758E+00
         21   -1    0    0  502  503  0.00000000000E+00  0.00000000000E+00  0.11833664511E+03  0.11833664511E+03  0.00000000000E+00 0. -1.
         21   -1    0    0  503  504 -0.00000000000E+00 -0.00000000000E+00 -0.12023637844E+04  0.12023637844E+04  0.00000000000E+00 0.  1.
         -6    2    1    2    0  504  0.10632395129E+03  0.11959559918E+03 -0.10581441138E+04  0.10840854653E+04  0.17310239944E+03 0.  0.
        -24    2    3    3    0    0  0.14094589716E+03  0.94323962405E+02 -0.76724158690E+03  0.79000434575E+03  0.81758533628E+02 0.  0.
          6    2    1    2  502    0 -0.10632395129E+03 -0.11959559918E+03 -0.25883025487E+02  0.23661496415E+03  0.17236246775E+03 0.  0.
         24    2    5    5    0    0 -0.11523521114E+03 -0.14069452514E+03 -0.47650873995E+02  0.20466962869E+03  0.80900851832E+02 0.  0.
          2    1    6    6  501    0 -0.10649317042E+03 -0.87024983944E+02 -0.87424838407E+01  0.13780629231E+03  0.00000000000E+00 0. -1.
         -1    1    6    6    0  501 -0.87420407184E+01 -0.53669541193E+02 -0.38908390155E+02  0.66863336382E+02  0.00000000000E+00 0.  1.
          5    1    5    5  502    0  0.89112598463E+01  0.21098925958E+02  0.21767848508E+02  0.31945335454E+02  0.47000000000E+01 0. -1.
         13    1    4    4    0    0  0.51556665925E+02 -0.20924582273E+01 -0.14189480189E+03  0.15098543965E+03  0.00000000000E+00 0. -1.
        -14    1    4    4    0    0  0.89389231234E+02  0.96416420633E+02 -0.62534678501E+03  0.63901890610E+03  0.00000000000E+00 0.  1.
         -5    1    3    3    0  504 -0.34621945865E+02  0.25271636773E+02 -0.29090252688E+03  0.29408111960E+03  0.47000000000E+01 0.  1.
<mgrwt>
<rscale>  2 0.23560203E+03</rscale>
<asrwt>0</asrwt>
<pdfrwt beam="1">  1       21 0.18205637E-01 0.23573784E+03</pdfrwt>
<pdfrwt beam="2">  1       21 0.18497905E+00 0.23573784E+03</pdfrwt>
<totfact> 0.44643264E+03</totfact>
</mgrwt>
</event>
<event>
12    1  0.2743855E-001  0.1825175E+03  0.7546771E-02  0.1165870E+00
         21   -1    0    0  502  503  0.00000000000E+00  0.00000000000E+00  0.19956627834E+03  0.19956627834E+03  0.00000000000E+00 0. -1.
         21   -1    0    0  503  504 -0.00000000000E+00 -0.00000000000E+00 -0.23523511452E+03  0.23523511452E+03  0.00000000000E+00 0. -1.
         -6    2    1    2    0  504  0.48634026245E+01 -0.57799529710E+02 -0.13662031472E+03  0.22798628966E+03  0.17305548115E+03 0.  0.
        -24    2    3    3    0    0 -0.25746602432E+02 -0.99857878430E+02 -0.10607203578E+03  0.16747873267E+03  0.78507106042E+02 0.  0.
          6    2    1    2  502    0 -0.48634026245E+01  0.57799529710E+02  0.10095147855E+03  0.20681510320E+03  0.17092936428E+03 0.  0.
         24    2    5    5    0    0  0.32523107843E+02 -0.15752550680E+02  0.86211076212E+02  0.12286851807E+03  0.79739749650E+02 0.  0.
          4    1    6    6  501    0  0.18790102917E+02 -0.35668169896E+02  0.81309104187E+01  0.41126609581E+02  0.00000000000E+00 0. -1.
         -3    1    6    6    0  501  0.13733004926E+02  0.19915619216E+02  0.78080165794E+02  0.81741908489E+02  0.00000000000E+00 0.  1.
          5    1    5    5  502    0 -0.37386510468E+02  0.73552080390E+02  0.14740402336E+02  0.83946585134E+02  0.47000000000E+01 0. -1.
         11    1    4    4    0    0 -0.21146142335E+02 -0.41217660178E+02 -0.15605449079E+00  0.46325794103E+02  0.00000000000E+00 0. -1.
        -12    1    4    4    0    0 -0.46004600971E+01 -0.58640218252E+02 -0.10591598129E+03  0.12115293856E+03  0.00000000000E+00 0.  1.
         -5    1    3    3    0  504  0.30610005057E+02  0.42058348720E+02 -0.30548278942E+02  0.60507556990E+02  0.47000000000E+01 0.  1.
<mgrwt>
<rscale>  2 0.18201174E+03</rscale>
<asrwt>0</asrwt>
<pdfrwt beam="1">  1       21 0.30702505E-01 0.18251750E+03</pdfrwt>
<pdfrwt beam="2">  1       21 0.36190017E-01 0.18251750E+03</pdfrwt>
<totfact> 0.75310995E+04</totfact>
</mgrwt>
</event>
<event>
12    1  0.2743855E-001  0.1894752E+03  0.7546771E-02  0.1159389E+00
         21   -1    0    0  502  503  0.00000000000E+00  0.00000000000E+00  0.28955122290E+03  0.28955122290E+03  0.00000000000E+00 0. -1.
         21   -1    0    0  503  504 -0.00000000000E+00 -0.00000000000E+00 -0.12391708495E+03  0.12391708495E+03  0.00000000000E+00 0.  1.
         -6    2    1    2    0  504  0.27652275123E+02  0.67491829492E+02  0.10298738049E+03  0.21390515865E+03  0.17271138061E+03 0.  0.
        -24    2    3    3    0    0  0.72453001305E+02  0.74232027562E+01  0.41503148946E+02  0.11686008813E+03  0.81420068092E+02 0.  0.
          6    2    1    2  502    0 -0.27652275123E+02 -0.67491829492E+02  0.62646757451E+02  0.19956314919E+03  0.17487435183E+03 0.  0.
         24    2    5    5    0    0 -0.36819824931E+02 -0.44123522328E+02 -0.30790472638E+02  0.10269866801E+03  0.79349722585E+02 0.  0.
          2    1    6    6  501    0  0.99670325874E+01  0.70723932274E+01 -0.31023444478E+02  0.33343883875E+02  0.00000000000E+00 0. -1.
         -1    1    6    6    0  501 -0.46786857518E+02 -0.51195915556E+02  0.23297183963E+00  0.69354784131E+02  0.00000000000E+00 0.  1.
          5    1    5    5  502    0  0.91675498078E+01 -0.23368307164E+02  0.93437230089E+02  0.96864481189E+02  0.47000000000E+01 0. -1.
         11    1    4    4    0    0 -0.97476756740E+01  0.19514499807E+02  0.23079305084E+02  0.31756687594E+02  0.00000000000E+00 0. -1.
        -12    1    4    4    0    0  0.82200676979E+02 -0.12091297051E+02  0.18423843862E+02  0.85103400536E+02  0.00000000000E+00 0.  1.
         -5    1    3    3    0  504 -0.44800726182E+02  0.60068626736E+02  0.61484231546E+02  0.97045070525E+02  0.47000000000E+01 0.  1.
<mgrwt>
<rscale>  2 0.18897456E+03</rscale>
<asrwt>0</asrwt>
<pdfrwt beam="1">  1       21 0.44546342E-01 0.18947515E+03</pdfrwt>
<pdfrwt beam="2">  1       21 0.19064167E-01 0.18947515E+03</pdfrwt>
<totfact> 0.12225316E+05</totfact>
</mgrwt>
</event>
<event>
12    1  0.2743855E-001  0.1751993E+03  0.7546771E-02  0.1173146E+00
         21   -1    0    0  502  503  0.00000000000E+00  0.00000000000E+00  0.24702543641E+03  0.24702543641E+03  0.00000000000E+00 0.  1.
         21   -1    0    0  503  504 -0.00000000000E+00 -0.00000000000E+00 -0.25456309697E+03  0.25456309697E+03  0.00000000000E+00 0.  1.
         -6    2    1    2    0  504 -0.68990030986E+01 -0.13387629146E+02 -0.18439096402E+03  0.25435173847E+03  0.17455072154E+03 0.  0.
        -24    2    3    3    0    0  0.44941342520E+02  0.38042640157E+02 -0.10766002021E+03  0.14832239455E+03  0.83317981459E+02 0.  0.
          6    2    1    2  502    0  0.68990030986E+01  0.13387629146E+02  0.17685330345E+03  0.24723679492E+03  0.17211076945E+03 0.  0.
         24    2    5    5    0    0  0.67262966861E+02  0.46536649361E+01  0.14104791282E+03  0.17635515942E+03  0.81612898707E+02 0.  0.
          2    1    6    6  501    0  0.32664586390E+02 -0.57999509955E+01  0.13584756998E+03  0.13983982589E+03  0.00000000000E+00 0. -1.
         -1    1    6    6    0  501  0.34598380471E+02  0.10453615932E+02  0.52003428417E+01  0.36515333532E+02  0.00000000000E+00 0.  1.
          5    1    5    5  502    0 -0.60363963762E+02  0.87339642098E+01  0.35805390628E+02  0.70881635491E+02  0.47000000000E+01 0. -1.
         11    1    4    4    0    0  0.15543216586E+02 -0.19751061085E+02 -0.31478901480E+01  0.25329927126E+02  0.00000000000E+00 0. -1.
        -12    1    4    4    0    0  0.29398125934E+02  0.57793701242E+02 -0.10451213006E+03  0.12299246742E+03  0.00000000000E+00 0.  1.
         -5    1    3    3    0  504 -0.51840345619E+02 -0.51430269303E+02 -0.76730943807E+02  0.10602934392E+03  0.47000000000E+01 0.  1.
<mgrwt>
<rscale>  2 0.17458837E+03</rscale>
<asrwt>0</asrwt>
<pdfrwt beam="1">  1       21 0.38003913E-01 0.17519926E+03</pdfrwt>
<pdfrwt beam="2">  1       21 0.39163553E-01 0.17519926E+03</pdfrwt>
<totfact> 0.42338082E+04</totfact>
</mgrwt>
</event>
<event>
12    1  0.2743855E-001  0.1842113E+03  0.7546771E-02  0.1165075E+00
         21   -1    0    0  502  503  0.00000000000E+00  0.00000000000E+00  0.43855535146E+02  0.43855535146E+02  0.00000000000E+00 0.  1.
         21   -1    0    0  503  504 -0.00000000000E+00 -0.00000000000E+00 -0.92553787269E+03  0.92553787269E+03  0.00000000000E+00 0.  1.
         -6    2    1    2    0  504  0.43782629517E+01 -0.51777475591E+02 -0.65646195673E+03  0.68181823153E+03  0.17673065395E+03 0.  0.
        -24    2    3    3    0    0 -0.50864881600E+02 -0.76966485266E+02 -0.45181566828E+03  0.46830363107E+03  0.81607700278E+02 0.  0.
          6    2    1    2  502    0 -0.43782629517E+01  0.51777475591E+02 -0.22522038081E+03  0.28757517630E+03  0.17109992966E+03 0.  0.
         24    2    5    5    0    0  0.14972598196E+02  0.87955473164E+02 -0.21499212202E+03  0.24503095680E+03  0.76538965898E+02 0.  0.
          4    1    6    6  501    0 -0.21450335568E+01  0.83111229950E+02 -0.21101409112E+03  0.22680172920E+03  0.00000000000E+00 0. -1.
         -3    1    6    6    0  501  0.17117631753E+02  0.48442432139E+01 -0.39780308984E+01  0.18229227602E+02  0.00000000000E+00 0.  1.
          5    1    5    5  502    0 -0.19350861147E+02 -0.36177997574E+02 -0.10228258786E+02  0.42544219506E+02  0.47000000000E+01 0. -1.
         13    1    4    4    0    0 -0.14595523909E+02  0.60110616403E+01 -0.20138302052E+03  0.20200070082E+03  0.00000000000E+00 0. -1.
        -14    1    4    4    0    0 -0.36269357692E+02 -0.82977546906E+02 -0.25043264776E+03  0.26630293025E+03  0.00000000000E+00 0.  1.
         -5    1    3    3    0  504  0.55243144552E+02  0.25189009676E+02 -0.20464628846E+03  0.21351460045E+03  0.47000000000E+01 0.  1.
<mgrwt>
<rscale>  2 0.18284747E+03</rscale>
<asrwt>0</asrwt>
<pdfrwt beam="1">  1       21 0.67470058E-02 0.18421129E+03</pdfrwt>
<pdfrwt beam="2">  1       21 0.14239043E+00 0.18421129E+03</pdfrwt>
<totfact> 0.55451292E+04</totfact>
</mgrwt>
</event>
<event>
12    1  0.2743855E-001  0.2288737E+03  0.7546771E-02  0.1127639E+00
         21   -1    0    0  502  503  0.00000000000E+00  0.00000000000E+00  0.21770400674E+03  0.21770400674E+03  0.00000000000E+00 0. -1.
         21   -1    0    0  503  504 -0.00000000000E+00 -0.00000000000E+00 -0.24982617804E+03  0.24982617804E+03  0.00000000000E+00 0.  1.
         -6    2    1    2    0  504  0.40971332608E+02 -0.14160807874E+03  0.31708248403E+02  0.22992230283E+03  0.17357233150E+03 0.  0.
        -24    2    3    3    0    0  0.53194400880E+02 -0.16721617378E+03  0.22201011157E+02  0.19962947381E+03  0.92564295817E+02 0.  0.
          6    2    1    2  502    0 -0.40971332608E+02  0.14160807874E+03 -0.63830419700E+02  0.23760788195E+03  0.17507622633E+03 0.  0.
         24    2    5    5    0    0  0.29461016211E+02  0.73468628129E+02  0.11388758894E+02  0.11398055763E+03  0.81217442052E+02 0.  0.
          2    1    6    6  501    0  0.19199218801E+02  0.48330436070E+02  0.46385930174E+02  0.69685691296E+02  0.00000000000E+00 0. -1.
         -1    1    6    6    0  501  0.10261797410E+02  0.25138192059E+02 -0.34997171280E+02  0.44294866336E+02  0.00000000000E+00 0.  1.
          5    1    5    5  502    0 -0.70432348820E+02  0.68139450607E+02 -0.75219178593E+02  0.12362732432E+03  0.47000000000E+01 0. -1.
         11    1    4    4    0    0  0.45665231425E+02 -0.41189775827E+02  0.38158481854E+02  0.72373895371E+02  0.00000000000E+00 0. -1.
        -12    1    4    4    0    0  0.75291694543E+01 -0.12602639795E+03 -0.15957470697E+02  0.12725557844E+03  0.00000000000E+00 0.  1.
         -5    1    3    3    0  504 -0.12223068271E+02  0.25608095043E+02  0.95072372461E+01  0.30292829015E+02  0.47000000000E+01 0.  1.
<mgrwt>
<rscale>  2 0.22858610E+03</rscale>
<asrwt>0</asrwt>
<pdfrwt beam="1">  1       21 0.33492924E-01 0.22887373E+03</pdfrwt>
<pdfrwt beam="2">  1       21 0.38434797E-01 0.22887373E+03</pdfrwt>
<totfact> 0.55134556E+04</totfact>
</mgrwt>
</event>
<event>
12    1  0.2743855E-001  0.2094019E+03  0.7546771E-02  0.1142043E+00
         21   -1    0    0  502  503  0.00000000000E+00  0.00000000000E+00  0.60749826941E+02  0.60749826941E+02  0.00000000000E+00 0.  1.
         21   -1    0    0  503  504 -0.00000000000E+00 -0.00000000000E+00 -0.80194891823E+03  0.80194891823E+03  0.00000000000E+00 0.  1.
         -6    2    1    2    0  504 -0.11745477201E+03  0.24129629206E+02 -0.50699045558E+03  0.54852866579E+03  0.17165812730E+03 0.  0.
        -24    2    3    3    0    0 -0.68818717716E+02 -0.28738624697E+02 -0.17826437429E+03  0.21201203237E+03  0.87229526367E+02 0.  0.
          6    2    1    2  502    0  0.11745477201E+03 -0.24129629206E+02 -0.23420863571E+03  0.31417007939E+03  0.17167204568E+03 0.  0.
         24    2    5    5    0    0  0.12067330718E+03 -0.35222311881E+02 -0.25225438392E+03  0.29223504791E+03  0.77242415143E+02 0.  0.
          2    1    6    6  501    0  0.53304292835E+02  0.19797143008E+02 -0.13285969093E+03  0.14451633811E+03  0.00000000000E+00 0. -1.
         -1    1    6    6    0  501  0.67369014345E+02 -0.55019454890E+02 -0.11939469299E+03  0.14771870980E+03  0.00000000000E+00 0.  1.
          5    1    5    5  502    0 -0.32185351722E+01  0.11092682675E+02  0.18045748210E+02  0.21935031480E+02  0.47000000000E+01 0. -1.
         11    1    4    4    0    0 -0.75570464946E+02 -0.38013826699E+02 -0.91967253347E+02  0.12495567967E+03  0.00000000000E+00 0. -1.
        -12    1    4    4    0    0  0.67517472296E+01  0.92752020019E+01 -0.86297120942E+02  0.87056352701E+02  0.00000000000E+00 0.  1.
         -5    1    3    3    0  504 -0.48636054292E+02  0.52868253904E+02 -0.32872608129E+03  0.33651663342E+03  0.47000000000E+01 0.  1.
<mgrwt>
<rscale>  2 0.20939904E+03</rscale>
<asrwt>0</asrwt>
<pdfrwt beam="1">  1       21 0.93461272E-02 0.20940190E+03</pdfrwt>
<pdfrwt beam="2">  1       21 0.12337676E+00 0.20940190E+03</pdfrwt>
<totfact> 0.44648548E+04</totfact>
</mgrwt>
</event>
<event>
12    1  0.2743855E-001  0.1894735E+03  0.7546771E-02  0.1159232E+00
         21   -1    0    0  502  503  0.00000000000E+00  0.00000000000E+00  0.60028228197E+03  0.60028228197E+03  0.00000000000E+00 0. -1.
         21   -1    0    0  503  504 -0.00000000000E+00 -0.00000000000E+00 -0.17886041236E+03  0.17886041236E+03  0.00000000000E+00 0. -1.
         -6    2    1    2    0  504  0.53571334375E+02 -0.54644479184E+02 -0.10742994900E+03  0.21781045813E+03  0.17333290154E+03 0.  0.
        -24    2    3    3    0    0  0.56416593841E+02 -0.82105729729E+02 -0.24951880620E+02  0.13070742978E+03  0.80855753902E+02 0.  0.
          6    2    1    2  502    0 -0.53571334375E+02  0.54644479184E+02  0.52885181862E+03  0.56133223620E+03  0.17191197275E+03 0.  0.
         24    2    5    5    0    0 -0.23132253811E+02  0.77989185901E+02  0.49984746361E+03  0.51301189301E+03  0.81953042685E+02 0.  0.
          4    1    6    6  501    0 -0.38491242122E+02  0.12124879002E+02  0.28299030733E+03  0.28585328834E+03  0.00000000000E+00 0. -1.
         -3    1    6    6    0  501  0.15358988311E+02  0.65864306899E+02  0.21685715628E+03  0.22715860467E+03  0.00000000000E+00 0.  1.
          5    1    5    5  502    0 -0.30439080564E+02 -0.23344706717E+02  0.29004355009E+02  0.48320343198E+02  0.47000000000E+01 0. -1.
         11    1    4    4    0    0 -0.49158031299E+01 -0.43181762670E+02 -0.36995698672E+02  0.57074613165E+02  0.00000000000E+00 0. -1.
        -12    1    4    4    0    0  0.61332396971E+02 -0.38923967059E+02  0.12043818052E+02  0.73632816618E+02  0.00000000000E+00 0.  1.
         -5    1    3    3    0  504 -0.28452594664E+01  0.27461250545E+02 -0.82478068384E+02  0.87103028348E+02  0.47000000000E+01 0.  1.
<mgrwt>
<rscale>  2 0.18914789E+03</rscale>
<asrwt>0</asrwt>
<pdfrwt beam="1">  1       21 0.92351119E-01 0.18947349E+03</pdfrwt>
<pdfrwt beam="2">  1       21 0.27516987E-01 0.18947349E+03</pdfrwt>
<totfact> 0.12495223E+04</totfact>
</mgrwt>
</event>
<event>
12    1  0.2743855E-001  0.1842307E+03  0.7546771E-02  0.1163846E+00
         21   -1    0    0  502  503  0.00000000000E+00  0.00000000000E+00  0.39845959090E+02  0.39845959090E+02  0.00000000000E+00 0. -1.
         21   -1    0    0  503  504 -0.00000000000E+00 -0.00000000000E+00 -0.91561701517E+03  0.91561701517E+03  0.00000000000E+00 0. -1.
         -6    2    1    2    0  504  0.64643130361E+02 -0.50582963742E+01 -0.56511316920E+03  0.59428536828E+03  0.17209847262E+03 0.  0.
        -24    2    3    3    0    0  0.93619077808E+02 -0.20815609752E+02 -0.27109869627E+03  0.29838927377E+03  0.79648190436E+02 0.  0.
          6    2    1    2  502    0 -0.64643130361E+02  0.50582963742E+01 -0.31065788687E+03  0.36117760598E+03  0.17244309124E+03 0.  0.
         24    2    5    5    0    0 -0.14034116871E+02 -0.48170679579E+02 -0.98780570267E+02  0.13688163316E+03  0.80384137912E+02 0.  0.
          4    1    6    6  501    0 -0.44372433081E+02 -0.46337503132E+02 -0.71176436729E+02  0.95823599178E+02  0.00000000000E+00 0. -1.
         -3    1    6    6    0  501  0.30338316210E+02 -0.18331764474E+01 -0.27604133538E+02  0.41058033986E+02  0.00000000000E+00 0.  1.
          5    1    5    5  502    0 -0.50609013491E+02  0.53228975953E+02 -0.21187731661E+03  0.22429597281E+03  0.47000000000E+01 0. -1.
         11    1    4    4    0    0  0.95645870075E+01  0.26506757493E+02 -0.58754187025E+02  0.65162443251E+02  0.00000000000E+00 0. -1.
        -12    1    4    4    0    0  0.84054490800E+02 -0.47322367244E+02 -0.21234450925E+03  0.23322683052E+03  0.00000000000E+00 0.  1.
         -5    1    3    3    0  504 -0.28975947446E+02  0.15757313377E+02 -0.29401447293E+03  0.29589609451E+03  0.47000000000E+01 0.  1.
<mgrwt>
<rscale>  2 0.18414999E+03</rscale>
<asrwt>0</asrwt>
<pdfrwt beam="1">  1       21 0.61301472E-02 0.18423067E+03</pdfrwt>
<pdfrwt beam="2">  1       21 0.14086416E+00 0.18423067E+03</pdfrwt>
<totfact> 0.67223405E+04</totfact>
</mgrwt>
</event>
<event>
12    1  0.2743855E-001  0.1988524E+03  0.7546771E-02  0.1150991E+00
         21   -1    0    0  502  503  0.00000000000E+00  0.00000000000E+00  0.11160241977E+03  0.11160241977E+03  0.00000000000E+00 0.  1.
         21   -1    0    0  503  504 -0.00000000000E+00 -0.00000000000E+00 -0.37667633804E+03  0.37667633804E+03  0.00000000000E+00 0. -1.
         -6    2    1    2    0  504  0.33604300780E+02  0.95206917664E+02 -0.19546207927E+03  0.27883274935E+03  0.17131453959E+03 0.  0.
        -24    2    3    3    0    0  0.23005655005E+02 -0.14379507567E+02 -0.72947241721E+02  0.11404958484E+03  0.83366524018E+02 0.  0.
          6    2    1    2  502    0 -0.33604300780E+02 -0.95206917664E+02 -0.69611838998E+02  0.20944600846E+03  0.16978873970E+03 0.  0.
         24    2    5    5    0    0 -0.32916333783E+02 -0.10575731295E+01  0.16425557107E+02  0.81817265996E+02  0.73072994999E+02 0.  0.
          2    1    6    6  501    0 -0.48549503828E+01 -0.18246756115E+01 -0.28431387632E+02  0.28900584544E+02  0.00000000000E+00 0. -1.
         -1    1    6    6    0  501 -0.28061383400E+02  0.76710248192E+00  0.44856944739E+02  0.52916681452E+02  0.00000000000E+00 0.  1.
          5    1    5    5  502    0 -0.68796699677E+00 -0.94149344534E+02 -0.86037396105E+02  0.12762874247E+03  0.47000000000E+01 0. -1.
         13    1    4    4    0    0 -0.26091458242E+02  0.11345443888E+02 -0.41516540243E+02  0.50329975203E+02  0.00000000000E+00 0. -1.
        -14    1    4    4    0    0  0.49097113247E+02 -0.25724951455E+02 -0.31430701479E+02  0.63719609635E+02  0.00000000000E+00 0.  1.
         -5    1    3    3    0  504  0.10598645774E+02  0.10958642523E+03 -0.12251483755E+03  0.16478316451E+03  0.47000000000E+01 0.  1.
<mgrwt>
<rscale>  2 0.19852334E+03</rscale>
<asrwt>0</asrwt>
<pdfrwt beam="1">  1       21 0.17169603E-01 0.19885240E+03</pdfrwt>
<pdfrwt beam="2">  1       21 0.57950205E-01 0.19885240E+03</pdfrwt>
<totfact> 0.85281621E+04</totfact>
</mgrwt>
</event>
<event>
12    1  0.2743855E-001  0.1779551E+03  0.7546771E-02  0.1170082E+00
         21   -1    0    0  502  503  0.00000000000E+00  0.00000000000E+00  0.16756326131E+03  0.16756326131E+03  0.00000000000E+00 0. -1.
         21   -1    0    0  503  504 -0.00000000000E+00 -0.00000000000E+00 -0.18848042693E+03  0.18848042693E+03  0.00000000000E+00 0. -1.
         -6    2    1    2    0  504  0.24682528084E+02  0.30468760995E+02 -0.21403575282E+02  0.17808793024E+03  0.17239380869E+03 0.  0.
        -24    2    3    3    0    0  0.55283447858E+01  0.85600999217E+02 -0.60085056674E+00  0.11594865293E+03  0.78010482835E+02 0.  0.
          6    2    1    2  502    0 -0.24682528084E+02 -0.30468760995E+02  0.48640965718E+00  0.17795575800E+03  0.17358122773E+03 0.  0.
         24    2    5    5    0    0  0.52548824598E+02 -0.11126782002E+02  0.78627946309E+01  0.97860221019E+02  0.81422448220E+02 0.  0.
          2    1    6    6  501    0  0.31142584031E+02 -0.32712195262E+01 -0.36432473737E+02  0.48040467940E+02  0.00000000000E+00 0. -1.
         -1    1    6    6    0  501  0.21406240567E+02 -0.78555624761E+01  0.44295268368E+02  0.49819753079E+02  0.00000000000E+00 0.  1.
          5    1    5    5  502    0 -0.77231352681E+02 -0.19341978993E+02 -0.73763849737E+01  0.80095536977E+02  0.47000000000E+01 0. -1.
         13    1    4    4    0    0  0.26996853254E+02  0.29277157488E+02  0.28542388564E+02  0.48996428249E+02  0.00000000000E+00 0. -1.
        -14    1    4    4    0    0 -0.21468508468E+02  0.56323841729E+02 -0.29143239131E+02  0.66952224683E+02  0.00000000000E+00 0.  1.
         -5    1    3    3    0  504  0.19154183298E+02 -0.55132238222E+02 -0.20802724716E+02  0.62139277311E+02  0.47000000000E+01 0.  1.
<mgrwt>
<rscale>  2 0.17766487E+03</rscale>
<asrwt>0</asrwt>
<pdfrwt beam="1">  1       21 0.25778964E-01 0.17795509E+03</pdfrwt>
<pdfrwt beam="2">  1       21 0.28996989E-01 0.17795509E+03</pdfrwt>
<totfact> 0.16336087E+05</totfact>
</mgrwt>
</event>
<event>
12    1  0.2743855E-001  0.3509763E+03  0.7546771E-02  0.1062326E+00
         21   -1    0    0  502  503  0.00000000000E+00  0.00000000000E+00  0.26484020869E+03  0.26484020869E+03  0.00000000000E+00 0. -1.
         21   -1    0    0  503  504 -0.00000000000E+00 -0.00000000000E+00 -0.68210320541E+03  0.68210320541E+03  0.00000000000E+00 0.  1.
         -6    2    1    2    0  504  0.30111581021E+03 -0.46490481335E+02 -0.47676803928E+03  0.59202377967E+03  0.17421910460E+03 0.  0.
        -24    2    3    3    0    0  0.73643134524E+02 -0.13088198242E+02 -0.22259721935E+03  0.24926376683E+03  0.83595999885E+02 0.  0.
          6    2    1    2  502    0 -0.30111581021E+03  0.46490481335E+02  0.59505042568E+02  0.35491963443E+03  0.17203197609E+03 0.  0.
         24    2    5    5    0    0 -0.64340776397E+02 -0.20865485982E+02  0.27783181435E+02  0.10667054693E+03  0.77663352999E+02 0.  0.
          4    1    6    6  501    0 -0.40717526017E+02  0.20329290608E+02  0.36562595602E+02  0.58378252618E+02  0.00000000000E+00 0. -1.
         -3    1    6    6    0  501 -0.23623250380E+02 -0.41194776590E+02 -0.87794141674E+01  0.48292294312E+02  0.00000000000E+00 0.  1.
          5    1    5    5  502    0 -0.23677503381E+03  0.67355967317E+02  0.31721861133E+02  0.24824908750E+03  0.47000000000E+01 0. -1.
         13    1    4    4    0    0 -0.13702123712E+02 -0.13792804002E+02 -0.16792984041E+02  0.25690347398E+02  0.00000000000E+00 0. -1.
        -14    1    4    4    0    0  0.87345258236E+02  0.70460575986E+00 -0.20580423531E+03  0.22357341943E+03  0.00000000000E+00 0.  1.
         -5    1    3    3    0  504  0.22747267569E+03 -0.33402283093E+02 -0.25417081993E+03  0.34276001284E+03  0.47000000000E+01 0.  1.
<mgrwt>
<rscale>  2 0.35070590E+03</rscale>
<asrwt>0</asrwt>
<pdfrwt beam="1">  1       21 0.40744648E-01 0.35097634E+03</pdfrwt>
<pdfrwt beam="2">  1       21 0.10493895E+00 0.35097634E+03</pdfrwt>
<totfact> 0.38532106E+03</totfact>
</mgrwt>
</event>
<event>
12    1  0.2743855E-001  0.1914174E+03  0.7546771E-02  0.1157408E+00
         21   -1    0    0  502  503  0.00000000000E+00  0.00000000000E+00  0.32656100973E+02  0.32656100973E+02  0.00000000000E+00 0. -1.
         21   -1    0    0  503  504 -0.00000000000E+00 -0.00000000000E+00 -0.15467472939E+04  0.15467472939E+04  0.00000000000E+00 0. -1.
         -6    2    1    2    0  504 -0.13516806859E+02  0.78725891437E+02 -0.11722442427E+04  0.11876126657E+04  0.17287801754E+03 0.  0.
        -24    2    3    3    0    0 -0.31582551123E+02  0.96412253195E+02 -0.53786412697E+03  0.55271157116E+03  0.76808083660E+02 0.  0.
          6    2    1    2  502    0  0.13516806859E+02 -0.78725891437E+02 -0.34184695015E+03  0.39179072917E+03  0.17395450006E+03 0.  0.
         24    2    5    5    0    0  0.48042133442E+02 -0.53647648036E+02 -0.33007739781E+03  0.34727636262E+03  0.80396932521E+02 0.  0.
          4    1    6    6  501    0  0.56023428475E+02 -0.54433990911E+02 -0.33014098008E+03  0.33925617258E+03  0.00000000000E+00 0. -1.
         -3    1    6    6    0  501 -0.79812950330E+01  0.78634287546E+00  0.63582266675E-01  0.80201900368E+01  0.00000000000E+00 0.  1.
          5    1    5    5  502    0 -0.34525326583E+02 -0.25078243401E+02 -0.11769552331E+02  0.44514366555E+02  0.47000000000E+01 0. -1.
         13    1    4    4    0    0 -0.33498650394E+02  0.10340690245E+03 -0.53301974522E+03  0.54399006963E+03  0.00000000000E+00 0. -1.
        -14    1    4    4    0    0  0.19160992719E+01 -0.69946492505E+01 -0.48443817411E+01  0.87215015342E+01  0.00000000000E+00 0.  1.
         -5    1    3    3    0  504  0.18065744263E+02 -0.17686361758E+02 -0.63438011577E+03  0.63490109449E+03  0.47000000000E+01 0.  1.
<mgrwt>
<rscale>  2 0.19117254E+03</rscale>
<asrwt>0</asrwt>
<pdfrwt beam="1">  1       21 0.50240146E-02 0.19141744E+03</pdfrwt>
<pdfrwt beam="2">  1       21 0.23796116E+00 0.19141744E+03</pdfrwt>
<totfact> 0.20925939E+04</totfact>
</mgrwt>
</event>
<event>
12    1  0.2743855E-001  0.1938070E+03  0.7546771E-02  0.1155488E+00
         21   -1    0    0  502  503  0.00000000000E+00  0.00000000000E+00  0.12796587659E+03  0.12796587659E+03  0.00000000000E+00 0.  1.
         21   -1    0    0  503  504 -0.00000000000E+00 -0.00000000000E+00 -0.42831436383E+03  0.42831436383E+03  0.00000000000E+00 0.  1.
         -6    2    1    2    0  504  0.84617356150E+02 -0.48798134892E+01 -0.30734622899E+03  0.36234691861E+03  0.17219081104E+03 0.  0.
        -24    2    3    3    0    0  0.15674489370E+02  0.17161234250E+02 -0.52602699500E+02  0.97478493756E+02  0.78707148165E+02 0.  0.
          6    2    1    2  502    0 -0.84617356150E+02  0.48798134892E+01  0.69977417511E+01  0.19393332181E+03  0.17429072085E+03 0.  0.
         24    2    5    5    0    0 -0.87966471242E+02 -0.86231041161E+00 -0.54889625454E+02  0.13151277408E+03  0.80894345427E+02 0.  0.
          4    1    6    6  501    0 -0.13716271220E+02  0.19417554187E+02 -0.48823894181E+02  0.54304236941E+02  0.00000000000E+00 0. -1.
         -3    1    6    6    0  501 -0.74250200022E+02 -0.20279864598E+02 -0.60657312733E+01  0.77208537140E+02  0.00000000000E+00 0.  1.
          5    1    5    5  502    0  0.33491150917E+01  0.57421239008E+01  0.61887367206E+02  0.62420547726E+02  0.47000000000E+01 0. -1.
         13    1    4    4    0    0 -0.93709117806E+01  0.27310949465E+02  0.89711305710E+01  0.30235461498E+02  0.00000000000E+00 0. -1.
        -14    1    4    4    0    0  0.25045401151E+02 -0.10149715215E+02 -0.61573830071E+02  0.67243032259E+02  0.00000000000E+00 0.  1.
         -5    1    3    3    0  504  0.68942866780E+02 -0.22041047739E+02 -0.25474352949E+03  0.26486842485E+03  0.47000000000E+01 0.  1.
<mgrwt>
<rscale>  2 0.19333374E+03</rscale>
<asrwt>0</asrwt>
<pdfrwt beam="1">  1       21 0.19687058E-01 0.19380703E+03</pdfrwt>
<pdfrwt beam="2">  1       21 0.65894518E-01 0.19380703E+03</pdfrwt>
<totfact> 0.50266651E+04</totfact>
</mgrwt>
</event>
<event>
12    1  0.2743855E-001  0.2696003E+03  0.7546771E-02  0.1101511E+00
         21   -1    0    0  502  503  0.00000000000E+00  0.00000000000E+00  0.89241513761E+03  0.89241513761E+03  0.00000000000E+00 0. -1.
         21   -1    0    0  503  504 -0.00000000000E+00 -0.00000000000E+00 -0.12682006204E+03  0.12682006204E+03  0.00000000000E+00 0.  1.
         -6    2    1    2    0  504 -0.20053507217E+03 -0.49624989316E+02  0.77964160511E+02  0.28064701389E+03  0.17322638756E+03 0.  0.
        -24    2    3    3    0    0 -0.22314362569E+03 -0.51528798935E+02  0.85392917287E+02  0.25631498539E+03  0.77182424210E+02 0.  0.
          6    2    1    2  502    0  0.20053507217E+03  0.49624989316E+02  0.68763091506E+03  0.73858818576E+03  0.17320299667E+03 0.  0.
         24    2    5    5    0    0  0.20647078898E+03  0.40110392288E+02  0.47359777683E+03  0.52420993463E+03  0.79133880766E+02 0.  0.
          2    1    6    6  501    0  0.89552163788E+02  0.44007254950E+02  0.28825421318E+03  0.30503560439E+03  0.00000000000E+00 0. -1.
         -1    1    6    6    0  501  0.11691862519E+03 -0.38968626617E+01  0.18534356364E+03  0.21917433024E+03  0.00000000000E+00 0.  1.
          5    1    5    5  502    0 -0.59357168079E+01  0.95145970280E+01  0.21403313824E+03  0.21437825112E+03  0.47000000000E+01 0. -1.
         13    1    4    4    0    0 -0.26995949417E+01 -0.11715827446E+02  0.19334289404E+02  0.22767590394E+02  0.00000000000E+00 0. -1.
        -14    1    4    4    0    0 -0.22044403075E+03 -0.39812971489E+02  0.66058627883E+02  0.23354739500E+03  0.00000000000E+00 0.  1.
         -5    1    3    3    0  504  0.22608553526E+02  0.19038096189E+01 -0.74287567762E+01  0.24332028498E+02  0.47000000000E+01 0.  1.
<mgrwt>
<rscale>  2 0.26959657E+03</rscale>
<asrwt>0</asrwt>
<pdfrwt beam="1">  1       21 0.13729463E+00 0.26960033E+03</pdfrwt>
<pdfrwt beam="2">  1       21 0.19510779E-01 0.26960033E+03</pdfrwt>
<totfact> 0.86485346E+03</totfact>
</mgrwt>
</event>
<event>
12    1  0.2743855E-001  0.2137462E+03  0.7546771E-02  0.1138689E+00
         21   -1    0    0  502  503  0.00000000000E+00  0.00000000000E+00  0.66196311268E+02  0.66196311268E+02  0.00000000000E+00 0. -1.
         21   -1    0    0  503  504 -0.00000000000E+00 -0.00000000000E+00 -0.94436490846E+03  0.94436490846E+03  0.00000000000E+00 0.  1.
         -6    2    1    2    0  504 -0.10784801517E+03  0.65862452518E+02 -0.70148782795E+03  0.73324633393E+03  0.17203475359E+03 0.  0.
        -24    2    3    3    0    0 -0.62990003433E+02 -0.32583959203E+02 -0.35844987561E+03  0.37352274013E+03  0.77482056876E+02 0.  0.
          6    2    1    2  502    0  0.10784801517E+03 -0.65862452518E+02 -0.17668076925E+03  0.27731488580E+03  0.17239023938E+03 0.  0.
         24    2    5    5    0    0  0.14214391944E+03 -0.41454144449E+02 -0.15729242534E+03  0.23073192290E+03  0.81073875274E+02 0.  0.
          4    1    6    6  501    0  0.14196094107E+03 -0.47894831869E+02 -0.11744916055E+03  0.19037102989E+03  0.00000000000E+00 0. -1.
         -3    1    6    6    0  501  0.18297836943E+00  0.64406874201E+01 -0.39843264786E+02  0.40360893007E+02  0.00000000000E+00 0.  1.
          5    1    5    5  502    0 -0.34295904270E+02 -0.24408308069E+02 -0.19388343911E+02  0.46582962896E+02  0.47000000000E+01 0. -1.
         13    1    4    4    0    0 -0.18839865397E+02 -0.50071987631E+02 -0.13780297031E+03  0.14782355394E+03  0.00000000000E+00 0. -1.
        -14    1    4    4    0    0 -0.44150138036E+02  0.17488028427E+02 -0.22064690530E+03  0.22569918619E+03  0.00000000000E+00 0.  1.
         -5    1    3    3    0  504 -0.44858011734E+02  0.98446411721E+02 -0.34303795234E+03  0.35972359381E+03  0.47000000000E+01 0.  1.
<mgrwt>
<rscale>  2 0.21367455E+03</rscale>
<asrwt>0</asrwt>
<pdfrwt beam="1">  1       21 0.10184048E-01 0.21374623E+03</pdfrwt>
<pdfrwt beam="2">  1       21 0.14528691E+00 0.21374623E+03</pdfrwt>
<totfact> 0.25198071E+04</totfact>
</mgrwt>
</event>
<event>
12    1  0.2743855E-001  0.2115775E+03  0.7546771E-02  0.1140472E+00
         21   -1    0    0  502  503  0.00000000000E+00  0.00000000000E+00  0.58488594732E+03  0.58488594732E+03  0.00000000000E+00 0. -1.
         21   -1    0    0  503  504 -0.00000000000E+00 -0.00000000000E+00 -0.76478478528E+02  0.76478478528E+02  0.00000000000E+00 0. -1.
         -6    2    1    2    0  504  0.60503669114E+01 -0.12173041861E+03  0.27137322071E+03  0.34363767619E+03  0.17201315595E+03 0.  0.
        -24    2    3    3    0    0 -0.36506924344E+02 -0.79903761568E+01  0.10273728673E+03  0.13577212222E+03  0.80514082309E+02 0.  0.
          6    2    1    2  502    0 -0.60503669114E+01  0.12173041861E+03  0.23703424808E+03  0.31772674966E+03  0.17294551435E+03 0.  0.
         24    2    5    5    0    0  0.34351923251E+02  0.92677808249E+01  0.11748362534E+03  0.14862727792E+03  0.83795698723E+02 0.  0.
          4    1    6    6  501    0 -0.61216810713E+01  0.26158822121E+01  0.10575834893E+03  0.10596766576E+03  0.00000000000E+00 0. -1.
         -3    1    6    6    0  501  0.40473604322E+02  0.66518986128E+01  0.11725276412E+02  0.42659612152E+02  0.00000000000E+00 0.  1.
          5    1    5    5  502    0 -0.40402290162E+02  0.11246263779E+03  0.11955062274E+03  0.16909947175E+03  0.47000000000E+01 0. -1.
         11    1    4    4    0    0 -0.38446741160E+02 -0.40516781209E+02  0.70390339742E+02  0.89858563278E+02  0.00000000000E+00 0. -1.
        -12    1    4    4    0    0  0.19398168162E+01  0.32526405052E+02  0.32346946990E+02  0.45913558939E+02  0.00000000000E+00 0.  1.
         -5    1    3    3    0  504  0.42557291255E+02 -0.11374004246E+03  0.16863593398E+03  0.20786555397E+03  0.47000000000E+01 0.  1.
<mgrwt>
<rscale>  2 0.21138692E+03</rscale>
<asrwt>0</asrwt>
<pdfrwt beam="1">  1       21 0.89982450E-01 0.21157753E+03</pdfrwt>
<pdfrwt beam="2">  1       21 0.11765920E-01 0.21157753E+03</pdfrwt>
<totfact> 0.63320467E+04</totfact>
</mgrwt>
</event>
<event>
12    1  0.2743855E-001  0.2192831E+03  0.7546771E-02  0.1134465E+00
         21   -1    0    0  502  503  0.00000000000E+00  0.00000000000E+00  0.13685082184E+04  0.13685082184E+04  0.00000000000E+00 0. -1.
         21   -1    0    0  503  504 -0.00000000000E+00 -0.00000000000E+00 -0.36702517872E+02  0.36702517872E+02  0.00000000000E+00 0.  1.
         -6    2    1    2    0  504 -0.13119868070E+03 -0.32603662055E+02  0.81249147370E+03  0.84149772625E+03  0.17233669330E+03 0.  0.
        -24    2    3    3    0    0 -0.11567125986E+03  0.20988363800E+02  0.71534601462E+03  0.72937040463E+03  0.80255309809E+02 0.  0.
          6    2    1    2  502    0  0.13119868070E+03  0.32603662055E+02  0.51931422684E+03  0.56371301003E+03  0.17265282762E+03 0.  0.
         24    2    5    5    0    0  0.92259590243E+02 -0.72803809722E+01  0.17002881903E+03  0.20997670180E+03  0.81336216156E+02 0.  0.
          4    1    6    6  501    0  0.29408059933E+02  0.30355285588E+02  0.29634883721E+02  0.51618830724E+02  0.00000000000E+00 0. -1.
         -3    1    6    6    0  501  0.62851530310E+02 -0.37635666560E+02  0.14039393531E+03  0.15835787107E+03  0.00000000000E+00 0.  1.
          5    1    5    5  502    0  0.38939090453E+02  0.39884043028E+02  0.34928540781E+03  0.35373630823E+03  0.47000000000E+01 0. -1.
         11    1    4    4    0    0 -0.75770831489E+02  0.46714171870E+02  0.35875769755E+03  0.36963565616E+03  0.00000000000E+00 0. -1.
        -12    1    4    4    0    0 -0.39900428366E+02 -0.25725808070E+02  0.35658831707E+03  0.35973474847E+03  0.00000000000E+00 0.  1.
         -5    1    3    3    0  504 -0.15527420841E+02 -0.53592025856E+02  0.97145459080E+02  0.11212732162E+03  0.47000000000E+01 0.  1.
<mgrwt>
<rscale>  2 0.21922090E+03</rscale>
<asrwt>0</asrwt>
<pdfrwt beam="1">  1       21 0.21053969E+00 0.21928313E+03</pdfrwt>
<pdfrwt beam="2">  1       21 0.56465423E-02 0.21928313E+03</pdfrwt>
<totfact> 0.24699617E+04</totfact>
</mgrwt>
</event>
<event>
12    1  0.2743855E-001  0.2233437E+03  0.7546771E-02  0.1131632E+00
         21   -1    0    0  502  503  0.00000000000E+00  0.00000000000E+00  0.48251769102E+03  0.48251769102E+03  0.00000000000E+00 0. -1.
         21   -1    0    0  503  504 -0.00000000000E+00 -0.00000000000E+00 -0.10448109083E+03  0.10448109083E+03  0.00000000000E+00 0.  1.
         -6    2    1    2    0  504 -0.12398780974E+03  0.64292876808E+02  0.22641152751E+03  0.31803239162E+03  0.17428675038E+03 0.  0.
        -24    2    3    3    0    0 -0.11488297462E+03 -0.10423829628E+02  0.18574161625E+03  0.23234916149E+03  0.78609355404E+02 0.  0.
          6    2    1    2  502    0  0.12398780974E+03 -0.64292876808E+02  0.15162507268E+03  0.26896639023E+03  0.17276054363E+03 0.  0.
         24    2    5    5    0    0  0.83179132493E+02 -0.61468158584E+02  0.17691014478E+03  0.22064711827E+03  0.81797609224E+02 0.  0.
          2    1    6    6  501    0  0.66031283349E+02 -0.53695908625E+02  0.64805596328E+02  0.10697264276E+03  0.00000000000E+00 0. -1.
         -1    1    6    6    0  501  0.17147849144E+02 -0.77722499591E+01  0.11210454845E+03  0.11367447551E+03  0.00000000000E+00 0.  1.
          5    1    5    5  502    0  0.40808677245E+02 -0.28247182245E+01 -0.25285072097E+02  0.48319271957E+02  0.47000000000E+01 0. -1.
         11    1    4    4    0    0  0.11996475790E+02 -0.35987477050E+01  0.16087197289E+02  0.20387847680E+02  0.00000000000E+00 0. -1.
        -12    1    4    4    0    0 -0.12687945041E+03 -0.68250819228E+01  0.16965441896E+03  0.21196131381E+03  0.00000000000E+00 0.  1.
         -5    1    3    3    0  504 -0.91048351208E+01  0.74716706436E+02  0.40669911261E+02  0.85683230128E+02  0.47000000000E+01 0.  1.
<mgrwt>
<rscale>  2 0.22304590E+03</rscale>
<asrwt>0</asrwt>
<pdfrwt beam="1">  1       21 0.74233490E-01 0.22334373E+03</pdfrwt>
<pdfrwt beam="2">  1       21 0.16074014E-01 0.22334373E+03</pdfrwt>
<totfact> 0.55444062E+04</totfact>
</mgrwt>
</event>
<event>
12    1  0.2743855E-001  0.2738051E+03  0.7546771E-02  0.1099125E+00
         21   -1    0    0  502  503  0.00000000000E+00  0.00000000000E+00  0.17055423129E+03  0.17055423129E+03  0.00000000000E+00 0. -1.
         21   -1    0    0  503  504 -0.00000000000E+00 -0.00000000000E+00 -0.47643370332E+03  0.47643370332E+03  0.00000000000E+00 0. -1.
         -6    2    1    2    0  504 -0.46169966525E+02  0.20691430180E+03 -0.62884734875E+02  0.28090639814E+03  0.17323025296E+03 0.  0.
        -24    2    3    3    0    0 -0.77670236249E+02  0.12097954239E+03  0.62577944123E+01  0.16610296081E+03  0.82959739167E+02 0.  0.
          6    2    1    2  502    0  0.46169966525E+02 -0.20691430180E+03 -0.24299473715E+03  0.36608153647E+03  0.17327450754E+03 0.  0.
         24    2    5    5    0    0  0.83969091101E+02 -0.14116559671E+03 -0.11126839766E+03  0.21401055122E+03  0.80257870391E+02 0.  0.
          4    1    6    6  501    0  0.70049696251E+02 -0.15005256611E+03 -0.10623910991E+03  0.19674725161E+03  0.00000000000E+00 0. -1.
         -3    1    6    6    0  501  0.13919394850E+02  0.88869694004E+01 -0.50292877535E+01  0.17263299610E+02  0.00000000000E+00 0.  1.
          5    1    5    5  502    0 -0.37799124577E+02 -0.65748705088E+02 -0.13172633949E+03  0.15207098525E+03  0.47000000000E+01 0. -1.
         13    1    4    4    0    0 -0.45114391848E+02  0.10152290507E+03 -0.28462611529E+02  0.11468360328E+03  0.00000000000E+00 0. -1.
        -14    1    4    4    0    0 -0.32555844401E+02  0.19456637326E+02  0.34720405941E+02  0.51419357536E+02  0.00000000000E+00 0.  1.
         -5    1    3    3    0  504  0.31500269724E+02  0.85934759405E+02 -0.69142529287E+02  0.11480343733E+03  0.47000000000E+01 0.  1.
<mgrwt>
<rscale>  2 0.27379813E+03</rscale>
<asrwt>0</asrwt>
<pdfrwt beam="1">  1       21 0.26239113E-01 0.27380513E+03</pdfrwt>
<pdfrwt beam="2">  1       21 0.73297491E-01 0.27380513E+03</pdfrwt>
<totfact> 0.22162488E+04</totfact>
</mgrwt>
</event>
<event>
12    1  0.2743855E-001  0.2200564E+03  0.7546771E-02  0.1134393E+00
         21   -1    0    0  502  503  0.00000000000E+00  0.00000000000E+00  0.13958843516E+03  0.13958843516E+03  0.00000000000E+00 0. -1.
         21   -1    0    0  503  504 -0.00000000000E+00 -0.00000000000E+00 -0.38386321978E+03  0.38386321978E+03  0.00000000000E+00 0. -1.
         -6    2    1    2    0  504  0.93149901441E+02 -0.90559412180E+02 -0.20900243958E+03  0.30349108467E+03  0.17761449109E+03 0.  0.
        -24    2    3    3    0    0  0.11057434671E+03 -0.12156946703E+03 -0.18520293848E+03  0.26043599150E+03  0.80752435136E+02 0.  0.
          6    2    1    2  502    0 -0.93149901441E+02  0.90559412180E+02 -0.35272345031E+02  0.21996057027E+03  0.17395574977E+03 0.  0.
         24    2    5    5    0    0 -0.32058191288E+02  0.11938811253E+03 -0.29733102185E+02  0.15201894662E+03  0.83333389000E+02 0.  0.
          4    1    6    6  501    0  0.17931033557E+01  0.11454893812E+03 -0.18641925285E+02  0.11606978859E+03  0.00000000000E+00 0. -1.
         -3    1    6    6    0  501 -0.33851294644E+02  0.48391744114E+01 -0.11091176900E+02  0.35949158030E+02  0.00000000000E+00 0.  1.
          5    1    5    5  502    0 -0.61091710153E+02 -0.28828700352E+02 -0.55392428459E+01  0.67941623654E+02  0.47000000000E+01 0. -1.
         11    1    4    4    0    0  0.88048209437E+02 -0.91751130870E+02 -0.83612387868E+02  0.15218997538E+03  0.00000000000E+00 0. -1.
        -12    1    4    4    0    0  0.22526137277E+02 -0.29818336161E+02 -0.10159055061E+03  0.10824601612E+03  0.00000000000E+00 0.  1.
         -5    1    3    3    0  504 -0.17424445273E+02  0.31010054850E+02 -0.23799501108E+02  0.43055093170E+02  0.47000000000E+01 0.  1.
<mgrwt>
<rscale>  2 0.21931710E+03</rscale>
<asrwt>0</asrwt>
<pdfrwt beam="1">  1       21 0.21475144E-01 0.22005640E+03</pdfrwt>
<pdfrwt beam="2">  1       21 0.59055881E-01 0.22005640E+03</pdfrwt>
<totfact> 0.53464102E+04</totfact>
</mgrwt>
</event>
<event>
12    1  0.2743855E-001  0.1757252E+03  0.7546771E-02  0.1172339E+00
         21   -1    0    0  502  503  0.00000000000E+00  0.00000000000E+00  0.56837216262E+02  0.56837216262E+02  0.00000000000E+00 0. -1.
         21   -1    0    0  503  504 -0.00000000000E+00 -0.00000000000E+00 -0.72526629103E+03  0.72526629103E+03  0.00000000000E+00 0. -1.
         -6    2    1    2    0  504  0.10946015259E+02 -0.18532768194E+02 -0.53134629187E+03  0.55923351572E+03  0.17306058035E+03 0.  0.
        -24    2    3    3    0    0 -0.12612619539E+02  0.64582956889E+01 -0.12040901254E+03  0.14683674065E+03  0.82836648578E+02 0.  0.
          6    2    1    2  502    0 -0.10946015259E+02  0.18532768194E+02 -0.13708278290E+03  0.22286999158E+03  0.17440202129E+03 0.  0.
         24    2    5    5    0    0 -0.41425336698E+02 -0.48657781514E+02 -0.84121646337E+02  0.13192753179E+03  0.79023945995E+02 0.  0.
          2    1    6    6  501    0 -0.38423324774E+02 -0.15148665617E+01 -0.74326354506E+02  0.83684249902E+02  0.00000000000E+00 0. -1.
         -1    1    6    6    0  501 -0.30020119240E+01 -0.47142914952E+02 -0.97952918304E+01  0.48243281893E+02  0.00000000000E+00 0.  1.
          5    1    5    5  502    0  0.30479321439E+02  0.67190549707E+02 -0.52961136567E+02  0.90942459786E+02  0.47000000000E+01 0. -1.
         13    1    4    4    0    0 -0.54686736498E+01 -0.36089931902E+02 -0.79051324136E+02  0.87071817621E+02  0.00000000000E+00 0. -1.
        -14    1    4    4    0    0 -0.71439458890E+01  0.42548227591E+02 -0.41357688407E+02  0.59764923026E+02  0.00000000000E+00 0.  1.
         -5    1    3    3    0  504  0.23558634798E+02 -0.24991063883E+02 -0.41093727933E+03  0.41239677507E+03  0.47000000000E+01 0.  1.
<mgrwt>
<rscale>  2 0.17539143E+03</rscale>
<asrwt>0</asrwt>
<pdfrwt beam="1">  1       21 0.87441875E-02 0.17572519E+03</pdfrwt>
<pdfrwt beam="2">  1       21 0.11157942E+00 0.17572519E+03</pdfrwt>
<totfact> 0.65354771E+04</totfact>
</mgrwt>
</event>
<event>
12    1  0.2743855E-001  0.1765359E+03  0.7546771E-02  0.1171265E+00
         21   -1    0    0  502  503  0.00000000000E+00  0.00000000000E+00  0.26358567478E+04  0.26358567478E+04  0.00000000000E+00 0. -1.
         21   -1    0    0  503  504 -0.00000000000E+00 -0.00000000000E+00 -0.25195251955E+02  0.25195251955E+02  0.00000000000E+00 0. -1.
         -6    2    1    2    0  504  0.33977502717E+02 -0.19291128740E+01  0.33584423898E+03  0.37941572569E+03  0.17322455911E+03 0.  0.
        -24    2    3    3    0    0  0.87292442953E+02 -0.15827989497E+02  0.25412656967E+03  0.28074694086E+03  0.79799972046E+02 0.  0.
          6    2    1    2  502    0 -0.33977502717E+02  0.19291128740E+01  0.22748172569E+04  0.22816362741E+04  0.17295185116E+03 0.  0.
         24    2    5    5    0    0 -0.75923098257E+02  0.40877416606E+02  0.15961959041E+04  0.16005889675E+04  0.81292057279E+02 0.  0.
          4    1    6    6  501    0 -0.69665617736E+02  0.60792990539E+02  0.14454868635E+04  0.14484410097E+04  0.00000000000E+00 0. -1.
         -3    1    6    6    0  501 -0.62574805212E+01 -0.19915573933E+02  0.15070904054E+03  0.15214795775E+03  0.00000000000E+00 0.  1.
          5    1    5    5  502    0  0.41945595540E+02 -0.38948303732E+02  0.67862135277E+03  0.68104730657E+03  0.47000000000E+01 0. -1.
         13    1    4    4    0    0  0.26436065881E+02 -0.27388637550E+02  0.30731591109E+02  0.48922732326E+02  0.00000000000E+00 0. -1.
        -14    1    4    4    0    0  0.60856377072E+02  0.11560648053E+02  0.22339497856E+03  0.23182420853E+03  0.00000000000E+00 0.  1.
         -5    1    3    3    0  504 -0.53314940236E+02  0.13898876623E+02  0.81717669306E+02  0.98668784834E+02  0.47000000000E+01 0.  1.
<mgrwt>
<rscale>  2 0.17646901E+03</rscale>
<asrwt>0</asrwt>
<pdfrwt beam="1">  1       21 0.40551621E+00 0.17653595E+03</pdfrwt>
<pdfrwt beam="2">  1       21 0.38761947E-02 0.17653595E+03</pdfrwt>
<totfact> 0.34050390E+03</totfact>
</mgrwt>
</event>
<event>
12    1  0.2743855E-001  0.1865719E+03  0.7546771E-02  0.1161673E+00
         21   -1    0    0  502  503  0.00000000000E+00  0.00000000000E+00  0.16391561468E+03  0.16391561468E+03  0.00000000000E+00 0.  1.
         21   -1    0    0  503  504 -0.00000000000E+00 -0.00000000000E+00 -0.21270301535E+03  0.21270301535E+03  0.00000000000E+00 0. -1.
         -6    2    1    2    0  504 -0.35997679253E+02 -0.59005991389E+02 -0.13171961861E+02  0.18667777017E+03  0.17290907832E+03 0.  0.
        -24    2    3    3    0    0  0.29578891726E+02  0.15742004865E+02 -0.21123410533E+01  0.86518123518E+02  0.79738335570E+02 0.  0.
          6    2    1    2  502    0  0.35997679253E+02  0.59005991389E+02 -0.35615438807E+02  0.18994085986E+03  0.17329607852E+03 0.  0.
         24    2    5    5    0    0 -0.13194037159E+02  0.90410244680E+02 -0.46414589517E+02  0.13040294132E+03  0.80638192093E+02 0.  0.
          4    1    6    6  501    0 -0.83940380703E+01  0.89280489484E+02 -0.65270406152E+02  0.11091299111E+03  0.00000000000E+00 0. -1.
         -3    1    6    6    0  501 -0.47999990885E+01  0.11297551959E+01  0.18855816635E+02  0.19489950206E+02  0.00000000000E+00 0.  1.
          5    1    5    5  502    0  0.49191716411E+02 -0.31404253292E+02  0.10799150710E+02  0.59537918542E+02  0.47000000000E+01 0. -1.
         11    1    4    4    0    0 -0.16900926172E+02 -0.56673134205E+01 -0.24799191700E+02  0.30541114188E+02  0.00000000000E+00 0. -1.
        -12    1    4    4    0    0  0.46479817898E+02  0.21409318285E+02  0.22686850646E+02  0.55977009330E+02  0.00000000000E+00 0.  1.
         -5    1    3    3    0  504 -0.65576570978E+02 -0.74747996253E+02 -0.11059620807E+02  0.10015964665E+03  0.47000000000E+01 0.  1.
<mgrwt>
<rscale>  2 0.18648197E+03</rscale>
<asrwt>0</asrwt>
<pdfrwt beam="1">  1       21 0.25217787E-01 0.18657189E+03</pdfrwt>
<pdfrwt beam="2">  1       21 0.32723541E-01 0.18657189E+03</pdfrwt>
<totfact> 0.13418032E+05</totfact>
</mgrwt>
</event>
<event>
12    1  0.2743855E-001  0.2706797E+03  0.7546771E-02  0.1101279E+00
         21   -1    0    0  502  503  0.00000000000E+00  0.00000000000E+00  0.10306021240E+03  0.10306021240E+03  0.00000000000E+00 0.  1.
         21   -1    0    0  503  504 -0.00000000000E+00 -0.00000000000E+00 -0.73103195730E+03  0.73103195730E+03  0.00000000000E+00 0.  1.
         -6    2    1    2    0  504  0.16004208592E+03  0.13330936667E+03 -0.39593977051E+03  0.47962046895E+03  0.17286594765E+03 0.  0.
        -24    2    3    3    0    0  0.42464571376E+02 -0.21835897924E+01 -0.20743501361E+03  0.21935340121E+03  0.57259251339E+02 0.  0.
          6    2    1    2  502    0 -0.16004208592E+03 -0.13330936667E+03 -0.23203197440E+03  0.35447170075E+03  0.16860158060E+03 0.  0.
         24    2    5    5    0    0 -0.24946261948E+02 -0.72532349345E+02 -0.14228220802E+03  0.18120359043E+03  0.81897843545E+02 0.  0.
          4    1    6    6  501    0  0.10456057828E+02 -0.20982226117E+02 -0.10671734587E+03  0.10926195526E+03  0.00000000000E+00 0. -1.
         -3    1    6    6    0  501 -0.35402319777E+02 -0.51550123228E+02 -0.35564862152E+02  0.71941635166E+02  0.00000000000E+00 0.  1.
          5    1    5    5  502    0 -0.13509582397E+03 -0.60777017325E+02 -0.89749766377E+02  0.17326811032E+03  0.47000000000E+01 0. -1.
         11    1    4    4    0    0 -0.12777550148E+02 -0.70443872802E+01 -0.28435760327E+02  0.31960626485E+02  0.00000000000E+00 0. -1.
        -12    1    4    4    0    0  0.55242121524E+02  0.48607974877E+01 -0.17899925328E+03  0.18739277472E+03  0.00000000000E+00 0.  1.
         -5    1    3    3    0  504  0.11757751455E+03  0.13549295646E+03 -0.18850475690E+03  0.26026706774E+03  0.47000000000E+01 0.  1.
<mgrwt>
<rscale>  2 0.27000132E+03</rscale>
<asrwt>0</asrwt>
<pdfrwt beam="1">  1       21 0.15855417E-01 0.27067969E+03</pdfrwt>
<pdfrwt beam="2">  1       21 0.11246646E+00 0.27067969E+03</pdfrwt>
<totfact> 0.21030096E+04</totfact>
</mgrwt>
</event>
<event>
12    1  0.2743855E-001  0.1989568E+03  0.7546771E-02  0.1150765E+00
         21   -1    0    0  502  503  0.00000000000E+00  0.00000000000E+00  0.44633371600E+03  0.44633371600E+03  0.00000000000E+00 0.  1.
         21   -1    0    0  503  504 -0.00000000000E+00 -0.00000000000E+00 -0.90402114213E+02  0.90402114213E+02  0.00000000000E+00 0.  1.
         -6    2    1    2    0  504 -0.96524404135E+02  0.19601704983E+02  0.13820498655E+03  0.24224871896E+03  0.17286594836E+03 0.  0.
        -24    2    3    3    0    0 -0.46380592773E+02  0.69121089660E+02  0.42216941879E+02  0.12307503900E+03  0.80226620405E+02 0.  0.
          6    2    1    2  502    0  0.96524404135E+02 -0.19601704983E+02  0.21772661524E+03  0.29448711125E+03  0.17209471891E+03 0.  0.
         24    2    5    5    0    0  0.98230044600E+01 -0.57402499672E+02  0.78001007469E+02  0.12569324806E+03  0.79517903995E+02 0.  0.
          4    1    6    6  501    0 -0.12096440597E+02  0.15540368038E+02  0.52849878861E+01  0.20390144944E+02  0.00000000000E+00 0. -1.
         -3    1    6    6    0  501  0.21919445057E+02 -0.72942867709E+02  0.72716019583E+02  0.10530310311E+03  0.00000000000E+00 0.  1.
          5    1    5    5  502    0  0.86701399675E+02  0.37800794689E+02  0.13972560777E+03  0.16879386319E+03  0.47000000000E+01 0. -1.
         13    1    4    4    0    0 -0.18944221893E+02  0.76782636522E+02  0.94354156390E+01  0.79645991002E+02  0.00000000000E+00 0. -1.
        -14    1    4    4    0    0 -0.27436370880E+02 -0.76615468627E+01  0.32781526240E+02  0.43429047997E+02  0.00000000000E+00 0.  1.
         -5    1    3    3    0  504 -0.50143811362E+02 -0.49519384676E+02  0.95988044670E+02  0.11917367996E+03  0.47000000000E+01 0.  1.
<mgrwt>
<rscale>  2 0.19878920E+03</rscale>
<asrwt>0</asrwt>
<pdfrwt beam="1">  1       21 0.68666724E-01 0.19895684E+03</pdfrwt>
<pdfrwt beam="2">  1       21 0.13908018E-01 0.19895684E+03</pdfrwt>
<totfact> 0.86747621E+04</totfact>
</mgrwt>
</event>
<event>
12    1  0.2743855E-001  0.1940677E+03  0.7546771E-02  0.1155124E+00
         21   -1    0    0  502  503  0.00000000000E+00  0.00000000000E+00  0.50923663521E+03  0.50923663521E+03  0.00000000000E+00 0.  1.
         21   -1    0    0  503  504 -0.00000000000E+00 -0.00000000000E+00 -0.78236923201E+02  0.78236923201E+02  0.00000000000E+00 0. -1.
         -6    2    1    2    0  504 -0.83127008641E+02  0.21578728839E+02  0.28731734115E+03  0.34600532936E+03  0.17260559758E+03 0.  0.
        -24    2    3    3    0    0 -0.31930941750E+02 -0.51204113074E+02  0.18089217182E+03  0.20720048071E+03  0.81046993434E+02 0.  0.
          6    2    1    2  502    0  0.83127008641E+02 -0.21578728839E+02  0.14368237086E+03  0.24146822905E+03  0.17403028713E+03 0.  0.
         24    2    5    5    0    0  0.56804599663E+02 -0.83643298241E+02  0.76981793972E+02  0.14651594131E+03  0.72922976979E+02 0.  0.
          2    1    6    6  501    0  0.10850199556E+02 -0.50082371032E+02  0.57537064693E+00  0.51247456230E+02  0.00000000000E+00 0. -1.
         -1    1    6    6    0  501  0.45954400107E+02 -0.33560927209E+02  0.76406423325E+02  0.95268485081E+02  0.00000000000E+00 0.  1.
          5    1    5    5  502    0  0.26322408978E+02  0.62064569403E+02  0.66700576884E+02  0.94952287736E+02  0.47000000000E+01 0. -1.
         13    1    4    4    0    0 -0.28571568850E+02 -0.55590867166E+02  0.61520211487E+02  0.87700715392E+02  0.00000000000E+00 0. -1.
        -14    1    4    4    0    0 -0.33593728998E+01  0.43867540927E+01  0.11937196033E+03  0.11949976532E+03  0.00000000000E+00 0.  1.
         -5    1    3    3    0  504 -0.51196066891E+02  0.72782841912E+02  0.10642516933E+03  0.13880484865E+03  0.47000000000E+01 0.  1.
<mgrwt>
<rscale>  2 0.19374779E+03</rscale>
<asrwt>0</asrwt>
<pdfrwt beam="1">  1       21 0.78344096E-01 0.19406773E+03</pdfrwt>
<pdfrwt beam="2">  1       21 0.12036450E-01 0.19406773E+03</pdfrwt>
<totfact> 0.84102429E+04</totfact>
</mgrwt>
</event>
<event>
12    1  0.2743855E-001  0.1890963E+03  0.7546771E-02  0.1160324E+00
         21   -1    0    0  502  503  0.00000000000E+00  0.00000000000E+00  0.11237539035E+04  0.11237539035E+04  0.00000000000E+00 0.  1.
         21   -1    0    0  503  504 -0.00000000000E+00 -0.00000000000E+00 -0.41786574888E+02  0.41786574888E+02  0.00000000000E+00 0.  1.
         -6    2    1    2    0  504  0.34807714356E+02 -0.68088058466E+02  0.25061969160E+03  0.31395485207E+03  0.17294466930E+03 0.  0.
        -24    2    3    3    0    0  0.27838671665E+02  0.23326587840E+02  0.17315470813E+03  0.19383774764E+03  0.79192159454E+02 0.  0.
          6    2    1    2  502    0 -0.34807714356E+02  0.68088058466E+02  0.83134763704E+03  0.85158562634E+03  0.16796316470E+03 0.  0.
         24    2    5    5    0    0  0.35238791541E+01  0.99995378168E+02  0.68420261331E+03  0.69614709792E+03  0.80474048567E+02 0.  0.
          4    1    6    6  501    0  0.13544488263E+02  0.26848658358E+02  0.55491188644E+02  0.63115573633E+02  0.00000000000E+00 0. -1.
         -3    1    6    6    0  501 -0.10020609109E+02  0.73146719810E+02  0.62871142467E+03  0.63303152428E+03  0.00000000000E+00 0.  1.
          5    1    5    5  502    0 -0.38331593510E+02 -0.31907319702E+02  0.14714502372E+03  0.15543852842E+03  0.47000000000E+01 0. -1.
         13    1    4    4    0    0  0.11073356948E+02  0.32475015550E+02  0.17123941082E+03  0.17464301213E+03  0.00000000000E+00 0. -1.
        -14    1    4    4    0    0  0.16765314717E+02 -0.91484277108E+01  0.19152973129E+01  0.19194735501E+02  0.00000000000E+00 0.  1.
         -5    1    3    3    0  504  0.69690426916E+01 -0.91414646305E+02  0.77464983462E+02  0.12011710444E+03  0.47000000000E+01 0.  1.
<mgrwt>
<rscale>  2 0.18794968E+03</rscale>
<asrwt>0</asrwt>
<pdfrwt beam="1">  1       21 0.17288519E+00 0.18909632E+03</pdfrwt>
<pdfrwt beam="2">  1       21 0.64287047E-02 0.18909632E+03</pdfrwt>
<totfact> 0.35761749E+04</totfact>
</mgrwt>
</event>
<event>
12    1  0.2743855E-001  0.2242655E+03  0.7546771E-02  0.1130853E+00
         21   -1    0    0  502  503  0.00000000000E+00  0.00000000000E+00  0.11111361981E+04  0.11111361981E+04  0.00000000000E+00 0. -1.
         21   -1    0    0  503  504 -0.00000000000E+00 -0.00000000000E+00 -0.60798734042E+02  0.60798734042E+02  0.00000000000E+00 0. -1.
         -6    2    1    2    0  504  0.11042671748E+03  0.88552895030E+02  0.22833842459E+03  0.32005225866E+03  0.17395211116E+03 0.  0.
        -24    2    3    3    0    0  0.12100787878E+03  0.14506921284E+02  0.11926486693E+03  0.18771217333E+03  0.78475435912E+02 0.  0.
          6    2    1    2  502    0 -0.11042671748E+03 -0.88552895030E+02  0.82199903947E+03  0.85188267349E+03  0.17316464232E+03 0.  0.
         24    2    5    5    0    0 -0.13517265134E+03 -0.51961051968E+02  0.74376809531E+03  0.76191882049E+03  0.79735267180E+02 0.  0.
          2    1    6    6  501    0 -0.12719605164E+03 -0.68596532272E+02  0.69286580227E+03  0.70777633455E+03  0.00000000000E+00 0. -1.
         -1    1    6    6    0  501 -0.79765996990E+01  0.16635480304E+02  0.50902293036E+02  0.54142485942E+02  0.00000000000E+00 0.  1.
          5    1    5    5  502    0  0.24745933862E+02 -0.36591843062E+02  0.78230944162E+02  0.89963852995E+02  0.47000000000E+01 0. -1.
         13    1    4    4    0    0  0.58181860975E+02  0.36221546874E+01  0.71462518018E+01  0.58730893625E+02  0.00000000000E+00 0. -1.
        -14    1    4    4    0    0  0.62826017804E+02  0.10884766597E+02  0.11211861512E+03  0.12898127971E+03  0.00000000000E+00 0.  1.
         -5    1    3    3    0  504 -0.10581161304E+02  0.74045973746E+02  0.10907355767E+03  0.13234008533E+03  0.47000000000E+01 0.  1.
<mgrwt>
<rscale>  2 0.22411278E+03</rscale>
<asrwt>0</asrwt>
<pdfrwt beam="1">  1       21 0.17094402E+00 0.22426549E+03</pdfrwt>
<pdfrwt beam="2">  1       21 0.93536522E-02 0.22426549E+03</pdfrwt>
<totfact> 0.18773418E+04</totfact>
</mgrwt>
</event>
<event>
12    1  0.2743855E-001  0.2874637E+03  0.7546771E-02  0.1091737E+00
         21   -1    0    0  502  503  0.00000000000E+00  0.00000000000E+00  0.50822406143E+03  0.50822406143E+03  0.00000000000E+00 0. -1.
         21   -1    0    0  503  504 -0.00000000000E+00 -0.00000000000E+00 -0.16490392143E+03  0.16490392143E+03  0.00000000000E+00 0. -1.
         -6    2    1    2    0  504  0.14535177003E+03 -0.17787006161E+03  0.21335837279E+03  0.35765143195E+03  0.17212744019E+03 0.  0.
        -24    2    3    3    0    0  0.15781992411E+03 -0.18682084315E+03  0.22129872364E+03  0.33974303927E+03  0.81504918659E+02 0.  0.
          6    2    1    2  502    0 -0.14535177003E+03  0.17787006161E+03  0.12996176721E+03  0.31547655091E+03  0.17283083455E+03 0.  0.
         24    2    5    5    0    0 -0.11709945450E+03  0.20434736001E+03  0.11093261724E+03  0.27207794251E+03  0.79058430565E+02 0.  0.
          4    1    6    6  501    0 -0.59182210285E+02  0.15629684175E+03  0.10321275711E+03  0.19642838386E+03  0.00000000000E+00 0. -1.
         -3    1    6    6    0  501 -0.57917244220E+02  0.48050518258E+02  0.77198601259E+01  0.75649558645E+02  0.00000000000E+00 0.  1.
          5    1    5    5  502    0 -0.28252315522E+02 -0.26477298399E+02  0.19029149972E+02  0.43398608405E+02  0.47000000000E+01 0. -1.
         11    1    4    4    0    0  0.70764322200E+02 -0.10717458448E+03  0.65095996732E+02  0.14398426875E+03  0.00000000000E+00 0. -1.
        -12    1    4    4    0    0  0.87055601914E+02 -0.79646258669E+02  0.15620272691E+03  0.19575877053E+03  0.00000000000E+00 0.  1.
         -5    1    3    3    0  504 -0.12468154088E+02  0.89507815434E+01 -0.79403508469E+01  0.17908392674E+02  0.47000000000E+01 0.  1.
<mgrwt>
<rscale>  2 0.28735808E+03</rscale>
<asrwt>0</asrwt>
<pdfrwt beam="1">  1       21 0.78188317E-01 0.28746373E+03</pdfrwt>
<pdfrwt beam="2">  1       21 0.25369834E-01 0.28746373E+03</pdfrwt>
<totfact> 0.20323262E+04</totfact>
</mgrwt>
</event>
<event>
12    1  0.2743855E-001  0.1991822E+03  0.7546771E-02  0.1150632E+00
         21   -1    0    0  502  503  0.00000000000E+00  0.00000000000E+00  0.37930537224E+03  0.37930537224E+03  0.00000000000E+00 0. -1.
         21   -1    0    0  503  504 -0.00000000000E+00 -0.00000000000E+00 -0.13951404769E+03  0.13951404769E+03  0.00000000000E+00 0. -1.
         -6    2    1    2    0  504  0.15931105008E+02  0.95558613004E+02 -0.10588117989E+02  0.19946340556E+03  0.17403532196E+03 0.  0.
        -24    2    3    3    0    0 -0.55734231890E+02  0.31232945989E+02 -0.13330143565E+02  0.10300968270E+03  0.79696301566E+02 0.  0.
          6    2    1    2  502    0 -0.15931105008E+02 -0.95558613004E+02  0.25037944254E+03  0.31935601437E+03  0.17295418480E+03 0.  0.
         24    2    5    5    0    0 -0.58819798153E+02 -0.41906871837E+02  0.70991281882E+02  0.12720984211E+03  0.76984591083E+02 0.  0.
          4    1    6    6  501    0 -0.90312107216E+01  0.49364626772E+01 -0.14478830159E+02  0.17764232425E+02  0.00000000000E+00 0. -1.
         -3    1    6    6    0  501 -0.49788587432E+02 -0.46843334514E+02  0.85470112041E+02  0.10944560968E+03  0.00000000000E+00 0.  1.
          5    1    5    5  502    0  0.42888693145E+02 -0.53651741168E+02  0.17938816066E+03  0.19214617226E+03  0.47000000000E+01 0. -1.
         11    1    4    4    0    0 -0.18754440688E+02  0.45833060772E+02 -0.32129586652E+02  0.59031422511E+02  0.00000000000E+00 0. -1.
        -12    1    4    4    0    0 -0.36979791203E+02 -0.14600114783E+02  0.18799443087E+02  0.43978260191E+02  0.00000000000E+00 0.  1.
         -5    1    3    3    0  504  0.71665336898E+02  0.64325667015E+02  0.27420255760E+01  0.96453722862E+02  0.47000000000E+01 0.  1.
<mgrwt>
<rscale>  2 0.19894578E+03</rscale>
<asrwt>0</asrwt>
<pdfrwt beam="1">  1       21 0.58354672E-01 0.19918218E+03</pdfrwt>
<pdfrwt beam="2">  1       21 0.21463700E-01 0.19918218E+03</pdfrwt>
<totfact> 0.55439772E+04</totfact>
</mgrwt>
</event>
<event>
12    1  0.2743855E-001  0.1978174E+03  0.7546771E-02  0.1151620E+00
         21   -1    0    0  502  503  0.00000000000E+00  0.00000000000E+00  0.13783803908E+03  0.13783803908E+03  0.00000000000E+00 0.  1.
         21   -1    0    0  503  504 -0.00000000000E+00 -0.00000000000E+00 -0.32581624920E+03  0.32581624920E+03  0.00000000000E+00 0.  1.
         -6    2    1    2    0  504 -0.94857060411E+02  0.15162537647E+02 -0.17734587911E+03  0.26567513327E+03  0.17292758930E+03 0.  0.
        -24    2    3    3    0    0 -0.10376052945E+03  0.69935095392E+02 -0.10669378148E+03  0.17571339839E+03  0.61923100116E+02 0.  0.
          6    2    1    2  502    0  0.94857060411E+02 -0.15162537647E+02 -0.10632331009E+02  0.19797915501E+03  0.17278580641E+03 0.  0.
         24    2    5    5    0    0  0.83377742737E+02 -0.52625195928E+02 -0.55530296655E+02  0.13820338384E+03  0.79342940625E+02 0.  0.
          2    1    6    6  501    0  0.21358365760E+02 -0.85318166171E+01 -0.57659636038E+02  0.62077413854E+02  0.00000000000E+00 0. -1.
         -1    1    6    6    0  501  0.62019376977E+02 -0.44093379311E+02  0.21293393833E+01  0.76125969983E+02  0.00000000000E+00 0.  1.
          5    1    5    5  502    0  0.11479317674E+02  0.37462658282E+02  0.44897965646E+02  0.59775771170E+02  0.47000000000E+01 0. -1.
         11    1    4    4    0    0 -0.20891717456E+02 -0.31804439008E+00  0.32533300079E+01  0.21145901887E+02  0.00000000000E+00 0. -1.
        -12    1    4    4    0    0 -0.82868811993E+02  0.70253139782E+02 -0.10994711149E+03  0.15456749650E+03  0.00000000000E+00 0.  1.
         -5    1    3    3    0  504  0.89034690382E+01 -0.54772557745E+02 -0.70652097630E+02  0.89961734878E+02  0.47000000000E+01 0.  1.
<mgrwt>
<rscale>  2 0.19778639E+03</rscale>
<asrwt>0</asrwt>
<pdfrwt beam="1">  1       21 0.21205852E-01 0.19781738E+03</pdfrwt>
<pdfrwt beam="2">  1       21 0.50125576E-01 0.19781738E+03</pdfrwt>
<totfact> 0.78235266E+04</totfact>
</mgrwt>
</event>
<event>
12    1  0.2743855E-001  0.2992850E+03  0.7546771E-02  0.1085845E+00
         21   -1    0    0  502  503  0.00000000000E+00  0.00000000000E+00  0.47288768608E+03  0.47288768608E+03  0.00000000000E+00 0. -1.
         21   -1    0    0  503  504 -0.00000000000E+00 -0.00000000000E+00 -0.46079857013E+03  0.46079857013E+03  0.00000000000E+00 0.  1.
         -6    2    1    2    0  504 -0.17863588287E+03  0.16386957227E+03 -0.35304688014E+03  0.46156784186E+03  0.17215910577E+03 0.  0.
        -24    2    3    3    0    0 -0.16469898261E+03  0.12513531020E+03 -0.18538466139E+03  0.28886205202E+03  0.79304550237E+02 0.  0.
          6    2    1    2  502    0  0.17863588287E+03 -0.16386957227E+03  0.36513599609E+03  0.47211841435E+03  0.17552061463E+03 0.  0.
         24    2    5    5    0    0  0.12210061323E+03 -0.12498315503E+03  0.35365466794E+03  0.40238821245E+03  0.79468865451E+02 0.  0.
          4    1    6    6  501    0  0.10661678858E+03 -0.54443717598E+02  0.21794169699E+03  0.24865607026E+03  0.00000000000E+00 0. -1.
         -3    1    6    6    0  501  0.15483824652E+02 -0.70539437428E+02  0.13571297095E+03  0.15373214219E+03  0.00000000000E+00 0.  1.
          5    1    5    5  502    0  0.56535269641E+02 -0.38886417248E+02  0.11481328150E+02  0.69730201892E+02  0.47000000000E+01 0. -1.
         13    1    4    4    0    0 -0.86639585674E+02  0.63736565012E+02 -0.14753778898E+03  0.18258194517E+03  0.00000000000E+00 0. -1.
        -14    1    4    4    0    0 -0.78059396938E+02  0.61398745192E+02 -0.37846872405E+02  0.10628010685E+03  0.00000000000E+00 0.  1.
         -5    1    3    3    0  504 -0.13936900261E+02  0.38734262070E+02 -0.16766221875E+03  0.17270578984E+03  0.47000000000E+01 0.  1.
<mgrwt>
<rscale>  2 0.29879404E+03</rscale>
<asrwt>0</asrwt>
<pdfrwt beam="1">  1       21 0.72751952E-01 0.29928498E+03</pdfrwt>
<pdfrwt beam="2">  1       21 0.70892087E-01 0.29928498E+03</pdfrwt>
<totfact> 0.28473342E+03</totfact>
</mgrwt>
</event>
<event>
12    1  0.2743855E-001  0.1803167E+03  0.7546771E-02  0.1169048E+00
         21   -1    0    0  502  503  0.00000000000E+00  0.00000000000E+00  0.62803454327E+03  0.62803454327E+03  0.00000000000E+00 0. -1.
         21   -1    0    0  503  504 -0.00000000000E+00 -0.00000000000E+00 -0.50481195585E+02  0.50481195585E+02  0.00000000000E+00 0. -1.
         -6    2    1    2    0  504  0.57344558892E+01 -0.15047188458E+02  0.32774826458E+03  0.37407623358E+03  0.17959621858E+03 0.  0.
        -24    2    3    3    0    0 -0.36162687776E+02 -0.54738191090E+02  0.28068692410E+03  0.29945984058E+03  0.81160564353E+02 0.  0.
          6    2    1    2  502    0 -0.57344558892E+01  0.15047188458E+02  0.24980508310E+03  0.30443950527E+03  0.17326722414E+03 0.  0.
         24    2    5    5    0    0  0.11144328582E+02  0.73549487202E+02  0.18748899242E+03  0.21718815868E+03  0.80528571743E+02 0.  0.
          4    1    6    6  501    0  0.31311711900E+02 -0.19267195413E+01  0.58672837583E+02  0.66532979945E+02  0.00000000000E+00 0. -1.
         -3    1    6    6    0  501 -0.20167383317E+02  0.75476206743E+02  0.12881615484E+03  0.15065517874E+03  0.00000000000E+00 0.  1.
          5    1    5    5  502    0 -0.16878784471E+02 -0.58502298744E+02  0.62316090684E+02  0.87251346590E+02  0.47000000000E+01 0. -1.
         13    1    4    4    0    0 -0.15970968133E+02 -0.26118078240E+02  0.25291139714E+03  0.25475753303E+03  0.00000000000E+00 0. -1.
        -14    1    4    4    0    0 -0.20191719643E+02 -0.28620112850E+02  0.27775526960E+02  0.44702307543E+02  0.00000000000E+00 0.  1.
         -5    1    3    3    0  504  0.41897143665E+02  0.39691002632E+02  0.47061340481E+02  0.74616393005E+02  0.47000000000E+01 0.  1.
<mgrwt>
<rscale>  2 0.17871989E+03</rscale>
<asrwt>0</asrwt>
<pdfrwt beam="1">  1       21 0.96620693E-01 0.18031668E+03</pdfrwt>
<pdfrwt beam="2">  1       21 0.77663382E-02 0.18031668E+03</pdfrwt>
<totfact> 0.11303807E+05</totfact>
</mgrwt>
</event>
<event>
12    1  0.2743855E-001  0.2083933E+03  0.7546771E-02  0.1143008E+00
         21   -1    0    0  502  503  0.00000000000E+00  0.00000000000E+00  0.25025744699E+03  0.25025744699E+03  0.00000000000E+00 0.  1.
         21   -1    0    0  503  504 -0.00000000000E+00 -0.00000000000E+00 -0.17353473693E+03  0.17353473693E+03  0.00000000000E+00 0.  1.
         -6    2    1    2    0  504  0.89135954607E+02 -0.71275227525E+02  0.25159491279E+02  0.20990654584E+03  0.17436278709E+03 0.  0.
        -24    2    3    3    0    0  0.12289511275E+03 -0.30602708881E+02  0.11475210544E+00  0.15122721820E+03  0.82643353201E+02 0.  0.
          6    2    1    2  502    0 -0.89135954607E+02  0.71275227525E+02  0.51563218777E+02  0.21388563808E+03  0.17338663208E+03 0.  0.
         24    2    5    5    0    0 -0.43666901695E+02  0.10038102280E+03  0.75223409800E+02  0.15475462480E+03  0.79418413947E+02 0.  0.
          4    1    6    6  501    0  0.22741504575E+02  0.36499857435E+02  0.21305703887E+02  0.47993214534E+02  0.00000000000E+00 0. -1.
         -3    1    6    6    0  501 -0.66408406271E+02  0.63881165368E+02  0.53917705913E+02  0.10676141027E+03  0.00000000000E+00 0.  1.
          5    1    5    5  502    0 -0.45469052912E+02 -0.29105795278E+02 -0.23660191023E+02  0.59131013273E+02  0.47000000000E+01 0. -1.
         11    1    4    4    0    0  0.13369072057E+01 -0.28369853009E+02 -0.76104766243E+01  0.29403320137E+02  0.00000000000E+00 0. -1.
        -12    1    4    4    0    0  0.12155820555E+03 -0.22328558718E+01  0.77252287298E+01  0.12182389807E+03  0.00000000000E+00 0.  1.
         -5    1    3    3    0  504 -0.33759158146E+02 -0.40672518644E+02  0.25044739173E+02  0.58679327636E+02  0.47000000000E+01 0.  1.
<mgrwt>
<rscale>  2 0.20818896E+03</rscale>
<asrwt>0</asrwt>
<pdfrwt beam="1">  1       21 0.38501146E-01 0.20839328E+03</pdfrwt>
<pdfrwt beam="2">  1       21 0.26697652E-01 0.20839328E+03</pdfrwt>
<totfact> 0.86310776E+04</totfact>
</mgrwt>
</event>
<event>
12    1  0.2743855E-001  0.2268911E+03  0.7546771E-02  0.1129304E+00
         21   -1    0    0  502  503  0.00000000000E+00  0.00000000000E+00  0.89431752216E+03  0.89431752216E+03  0.00000000000E+00 0. -1.
         21   -1    0    0  503  504 -0.00000000000E+00 -0.00000000000E+00 -0.66219848845E+02  0.66219848845E+02  0.00000000000E+00 0.  1.
         -6    2    1    2    0  504 -0.16506986520E+02  0.14016212902E+03  0.23208801084E+03  0.32280146496E+03  0.17440767755E+03 0.  0.
        -24    2    3    3    0    0  0.25338806087E+02  0.93964395286E+01  0.97031251533E+02  0.13015371870E+03  0.82429233567E+02 0.  0.
          6    2    1    2  502    0  0.16506986520E+02 -0.14016212902E+03  0.59600966248E+03  0.63773590605E+03  0.17765603024E+03 0.  0.
         24    2    5    5    0    0 -0.28255935149E+02 -0.13880500225E+03  0.33132586593E+03  0.36924910357E+03  0.80640216596E+02 0.  0.
          4    1    6    6  501    0  0.23719664381E+02 -0.51917857304E+02  0.79819662140E+02  0.98128817630E+02  0.00000000000E+00 0. -1.
         -3    1    6    6    0  501 -0.51975599530E+02 -0.86887144948E+02  0.25150620379E+03  0.27112028594E+03  0.00000000000E+00 0.  1.
          5    1    5    5  502    0  0.44762921669E+02 -0.13571267645E+01  0.26468379654E+03  0.26848680247E+03  0.47000000000E+01 0. -1.
         11    1    4    4    0    0 -0.20842700759E+02 -0.15726134734E+02  0.61185356456E+02  0.66523509628E+02  0.00000000000E+00 0. -1.
        -12    1    4    4    0    0  0.46181506845E+02  0.25122574262E+02  0.35845895077E+02  0.63630209067E+02  0.00000000000E+00 0.  1.
         -5    1    3    3    0  504 -0.41845792607E+02  0.13076568949E+03  0.13505675931E+03  0.19264774626E+03  0.47000000000E+01 0.  1.
<mgrwt>
<rscale>  2 0.22625483E+03</rscale>
<asrwt>0</asrwt>
<pdfrwt beam="1">  1       21 0.13758730E+00 0.22689109E+03</pdfrwt>
<pdfrwt beam="2">  1       21 0.10187670E-01 0.22689109E+03</pdfrwt>
<totfact> 0.28799217E+04</totfact>
</mgrwt>
</event>
<event>
12    1  0.2743855E-001  0.3822189E+03  0.7546771E-02  0.1050351E+00
         21   -1    0    0  502  503  0.00000000000E+00  0.00000000000E+00  0.95996614026E+03  0.95996614026E+03  0.00000000000E+00 0.  1.
         21   -1    0    0  503  504 -0.00000000000E+00 -0.00000000000E+00 -0.32824336993E+03  0.32824336993E+03  0.00000000000E+00 0. -1.
         -6    2    1    2    0  504 -0.32921831175E+03  0.88925239983E+02 -0.15770079908E+03  0.41112292489E+03  0.16691351725E+03 0.  0.
        -24    2    3    3    0    0 -0.17869038354E+03  0.67920581958E+01 -0.13288963033E+03  0.23779606368E+03  0.83131996420E+02 0.  0.
          6    2    1    2  502    0  0.32921831175E+03 -0.88925239983E+02  0.78942356941E+03  0.87708658530E+03  0.17262361099E+03 0.  0.
         24    2    5    5    0    0  0.29170427404E+03 -0.20945212469E+02  0.60967964412E+03  0.68123318133E+03  0.82700021006E+02 0.  0.
          2    1    6    6  501    0  0.11760448413E+03 -0.48869168028E+02  0.24227925903E+03  0.27371198298E+03  0.00000000000E+00 0. -1.
         -1    1    6    6    0  501  0.17409978991E+03  0.27923955560E+02  0.36740038509E+03  0.40752119835E+03  0.00000000000E+00 0.  1.
          5    1    5    5  502    0  0.37514037711E+02 -0.67980027514E+02  0.17974392530E+03  0.19585340397E+03  0.47000000000E+01 0. -1.
         13    1    4    4    0    0 -0.14522980789E+03  0.18010192216E+02 -0.62649575479E+02  0.15918867243E+03  0.00000000000E+00 0. -1.
        -14    1    4    4    0    0 -0.33460575655E+02 -0.11218134020E+02 -0.70240054850E+02  0.78607391251E+02  0.00000000000E+00 0.  1.
         -5    1    3    3    0  504 -0.15052792821E+03  0.82133181787E+02 -0.24811168754E+02  0.17332686121E+03  0.47000000000E+01 0.  1.
<mgrwt>
<rscale>  2 0.38158116E+03</rscale>
<asrwt>0</asrwt>
<pdfrwt beam="1">  1       21 0.14768710E+00 0.38221892E+03</pdfrwt>
<pdfrwt beam="2">  1       21 0.50498980E-01 0.38221892E+03</pdfrwt>
<totfact> 0.10132702E+03</totfact>
</mgrwt>
</event>
<event>
12    1  0.2743855E-001  0.1891895E+03  0.7546771E-02  0.1159411E+00
         21   -1    0    0  502  503  0.00000000000E+00  0.00000000000E+00  0.86225748748E+02  0.86225748748E+02  0.00000000000E+00 0.  1.
         21   -1    0    0  503  504 -0.00000000000E+00 -0.00000000000E+00 -0.42548708693E+03  0.42548708693E+03  0.00000000000E+00 0.  1.
         -6    2    1    2    0  504  0.16876536948E+02 -0.73158739282E+02 -0.21301574685E+03  0.28426914512E+03  0.17261581570E+03 0.  0.
        -24    2    3    3    0    0  0.61634264413E+02 -0.34995378497E+02 -0.66964894726E+02  0.12674886808E+03  0.80978511761E+02 0.  0.
          6    2    1    2  502    0 -0.16876536948E+02  0.73158739282E+02 -0.12624559133E+03  0.22744369056E+03  0.17365386379E+03 0.  0.
         24    2    5    5    0    0  0.42437484972E+02  0.49548854360E+02 -0.24231562505E+02  0.10700892838E+03  0.81287840624E+02 0.  0.
          4    1    6    6  501    0  0.33345078383E+02  0.62833365532E+02  0.73995575999E+01  0.71516987696E+02  0.00000000000E+00 0. -1.
         -3    1    6    6    0  501  0.90924065893E+01 -0.13284511172E+02 -0.31631120105E+02  0.35491940688E+02  0.00000000000E+00 0.  1.
          5    1    5    5  502    0 -0.59314021920E+02  0.23609884922E+02 -0.10201402883E+03  0.12043476217E+03  0.47000000000E+01 0. -1.
         13    1    4    4    0    0  0.89617256612E+01 -0.35166003005E+02 -0.64512405212E+02  0.74018988917E+02  0.00000000000E+00 0. -1.
        -14    1    4    4    0    0  0.52672538752E+02  0.17062450814E+00 -0.24524895141E+01  0.52729879159E+02  0.00000000000E+00 0.  1.
         -5    1    3    3    0  504 -0.44757727465E+02 -0.38163360785E+02 -0.14605085212E+03  0.15752027705E+03  0.47000000000E+01 0.  1.
<mgrwt>
<rscale>  2 0.18895100E+03</rscale>
<asrwt>0</asrwt>
<pdfrwt beam="1">  1       21 0.13265500E-01 0.18918954E+03</pdfrwt>
<pdfrwt beam="2">  1       21 0.65459552E-01 0.18918954E+03</pdfrwt>
<totfact> 0.10533525E+05</totfact>
</mgrwt>
</event>
<event>
12    1  0.2743855E-001  0.2075543E+03  0.7546771E-02  0.1144359E+00
         21   -1    0    0  502  503  0.00000000000E+00  0.00000000000E+00  0.18944750214E+03  0.18944750214E+03  0.00000000000E+00 0. -1.
         21   -1    0    0  503  504 -0.00000000000E+00 -0.00000000000E+00 -0.77411277678E+03  0.77411277678E+03  0.00000000000E+00 0. -1.
         -6    2    1    2    0  504 -0.10555209838E+03  0.19742694399E+02 -0.69802969779E+03  0.72706445979E+03  0.17276067329E+03 0.  0.
        -24    2    3    3    0    0 -0.13215654089E+03  0.30935024204E+01 -0.42558445639E+03  0.45277721707E+03  0.80063460593E+02 0.  0.
          6    2    1    2  502    0  0.10555209838E+03 -0.19742694399E+02  0.11336442315E+03  0.23649581913E+03  0.17761689271E+03 0.  0.
         24    2    5    5    0    0  0.10617865803E+03 -0.36441860025E+02  0.16835181580E+02  0.13841809899E+03  0.79210038543E+02 0.  0.
          4    1    6    6  501    0  0.36792926454E+02 -0.43182892184E+02  0.34635781087E+02  0.66468932186E+02  0.00000000000E+00 0. -1.
         -3    1    6    6    0  501  0.69385731578E+02  0.67410321589E+01 -0.17800599507E+02  0.71949166806E+02  0.00000000000E+00 0.  1.
          5    1    5    5  502    0 -0.62655964930E+00  0.16699165627E+02  0.96529241571E+02  0.98077720140E+02  0.47000000000E+01 0. -1.
         11    1    4    4    0    0 -0.23116051209E+02  0.14015596469E+02 -0.20178650035E+03  0.20358924454E+03  0.00000000000E+00 0. -1.
        -12    1    4    4    0    0 -0.10904048968E+03 -0.10922094048E+02 -0.22379795604E+03  0.24918797254E+03  0.00000000000E+00 0.  1.
         -5    1    3    3    0  504  0.26604442511E+02  0.16649191979E+02 -0.27244524140E+03  0.27428724272E+03  0.47000000000E+01 0.  1.
<mgrwt>
<rscale>  2 0.20651139E+03</rscale>
<asrwt>0</asrwt>
<pdfrwt beam="1">  1       21 0.29145769E-01 0.20755428E+03</pdfrwt>
<pdfrwt beam="2">  1       21 0.11909428E+00 0.20755428E+03</pdfrwt>
<totfact> 0.59960304E+03</totfact>
</mgrwt>
</event>
<event>
12    1  0.2743855E-001  0.2202698E+03  0.7546771E-02  0.1133750E+00
         21   -1    0    0  502  503  0.00000000000E+00  0.00000000000E+00  0.60302853941E+02  0.60302853941E+02  0.00000000000E+00 0. -1.
         21   -1    0    0  503  504 -0.00000000000E+00 -0.00000000000E+00 -0.80748736263E+03  0.80748736263E+03  0.00000000000E+00 0. -1.
         -6    2    1    2    0  504  0.97458128654E+02  0.94303025259E+02 -0.40531195731E+03  0.46129879998E+03  0.17357319123E+03 0.  0.
        -24    2    3    3    0    0  0.76338997618E+01 -0.60003544113E+01 -0.11752328998E+03  0.14353541771E+03  0.81831606184E+02 0.  0.
          6    2    1    2  502    0 -0.97458128654E+02 -0.94303025259E+02 -0.34187255137E+03  0.40649141659E+03  0.17311060903E+03 0.  0.
         24    2    5    5    0    0 -0.11474394165E+03 -0.17960716961E+02 -0.20279768499E+03  0.24683285644E+03  0.79440534248E+02 0.  0.
          4    1    6    6  501    0 -0.78461824750E+02 -0.27764896500E+02 -0.69791265868E+02  0.10861845245E+03  0.00000000000E+00 0. -1.
         -3    1    6    6    0  501 -0.36282116904E+02  0.98041795384E+01 -0.13300641913E+03  0.13821440400E+03  0.00000000000E+00 0.  1.
          5    1    5    5  502    0  0.17285813000E+02 -0.76342308298E+02 -0.13907486638E+03  0.15965856014E+03  0.47000000000E+01 0. -1.
         11    1    4    4    0    0  0.30041539492E+02  0.22741900915E+02 -0.90907137615E+02  0.98406279381E+02  0.00000000000E+00 0. -1.
        -12    1    4    4    0    0 -0.22407639730E+02 -0.28742255327E+02 -0.26616152364E+02  0.45129138328E+02  0.00000000000E+00 0.  1.
         -5    1    3    3    0  504  0.89824228892E+02  0.10030337967E+03 -0.28778866733E+03  0.31776338227E+03  0.47000000000E+01 0.  1.
<mgrwt>
<rscale>  2 0.22017870E+03</rscale>
<asrwt>0</asrwt>
<pdfrwt beam="1">  1       21 0.92773623E-02 0.22026983E+03</pdfrwt>
<pdfrwt beam="2">  1       21 0.12422882E+00 0.22026983E+03</pdfrwt>
<totfact> 0.44210687E+04</totfact>
</mgrwt>
</event>
<event>
12    1  0.2743855E-001  0.2001120E+03  0.7546771E-02  0.1150315E+00
         21   -1    0    0  502  503  0.00000000000E+00  0.00000000000E+00  0.14961603928E+03  0.14961603928E+03  0.00000000000E+00 0. -1.
         21   -1    0    0  503  504 -0.00000000000E+00 -0.00000000000E+00 -0.29043252211E+03  0.29043252211E+03  0.00000000000E+00 0. -1.
         -6    2    1    2    0  504 -0.26383490841E+02  0.90903251868E+02 -0.13696115749E+03  0.23989944353E+03  0.17272491005E+03 0.  0.
        -24    2    3    3    0    0 -0.75790472218E+02  0.97476006671E+02 -0.10290135134E+03  0.17934854502E+03  0.79570377265E+02 0.  0.
          6    2    1    2  502    0  0.26383490841E+02 -0.90903251868E+02 -0.38553253353E+01  0.20014911786E+03  0.17631028347E+03 0.  0.
         24    2    5    5    0    0  0.31385579814E+02 -0.70444408742E+02  0.64716038421E+02  0.12826235215E+03  0.79470724219E+02 0.  0.
          2    1    6    6  501    0 -0.61812298976E+01 -0.72832307299E+02  0.43078759799E+02  0.84844163827E+02  0.00000000000E+00 0. -1.
         -1    1    6    6    0  501  0.37566809712E+02  0.23878985576E+01  0.21637278621E+02  0.43418188327E+02  0.00000000000E+00 0.  1.
          5    1    5    5  502    0 -0.50020889735E+01 -0.20458843126E+02 -0.68571363756E+02  0.71886765705E+02  0.47000000000E+01 0. -1.
         11    1    4    4    0    0 -0.81149982746E+02  0.47838081343E+02 -0.50155910697E+02  0.10672121206E+03  0.00000000000E+00 0. -1.
        -12    1    4    4    0    0  0.53595105285E+01  0.49637925328E+02 -0.52745440646E+02  0.72627332960E+02  0.00000000000E+00 0.  1.
         -5    1    3    3    0  504  0.49406981377E+02 -0.65727548028E+01 -0.34059806151E+02  0.60550898503E+02  0.47000000000E+01 0.  1.
<mgrwt>
<rscale>  2 0.19931938E+03</rscale>
<asrwt>0</asrwt>
<pdfrwt beam="1">  1       21 0.23017852E-01 0.20011198E+03</pdfrwt>
<pdfrwt beam="2">  1       21 0.44681926E-01 0.20011198E+03</pdfrwt>
<totfact> 0.84943202E+04</totfact>
</mgrwt>
</event>
<event>
12    1  0.2743855E-001  0.2714293E+03  0.7546771E-02  0.1101033E+00
         21   -1    0    0  502  503  0.00000000000E+00  0.00000000000E+00  0.28553654631E+03  0.28553654631E+03  0.00000000000E+00 0.  1.
         21   -1    0    0  503  504 -0.00000000000E+00 -0.00000000000E+00 -0.92061178275E+03  0.92061178275E+03  0.00000000000E+00 0. -1.
         -6    2    1    2    0  504  0.19087475239E+03  0.78465226695E+02 -0.82996714313E+03  0.87199754942E+03  0.17013025779E+03 0.  0.
        -24    2    3    3    0    0  0.12917336438E+03  0.98223049045E+01 -0.32697863301E+03  0.36058925529E+03  0.79544634295E+02 0.  0.
          6    2    1    2  502    0 -0.19087475239E+03 -0.78465226695E+02  0.19489190669E+03  0.33415077964E+03  0.17630633949E+03 0.  0.
         24    2    5    5    0    0 -0.66944610941E+02  0.16895810550E+02  0.36161285212E+02  0.11128331325E+03  0.79431026121E+02 0.  0.
          2    1    6    6  501    0 -0.40568897765E+02  0.47254207894E+02  0.94200829119E+01  0.62988360763E+02  0.00000000000E+00 0. -1.
         -1    1    6    6    0  501 -0.26375713176E+02 -0.30358397344E+02  0.26741202301E+02  0.48294952483E+02  0.00000000000E+00 0.  1.
          5    1    5    5  502    0 -0.12393014145E+03 -0.95361037245E+02  0.15873062148E+03  0.22286746640E+03  0.47000000000E+01 0. -1.
         11    1    4    4    0    0  0.11057968609E+03  0.89676862600E+01 -0.32304534759E+03  0.34156490301E+03  0.00000000000E+00 0. -1.
        -12    1    4    4    0    0  0.18593678285E+02  0.85461864446E+00 -0.39332854232E+01  0.19024352273E+02  0.00000000000E+00 0.  1.
         -5    1    3    3    0  504  0.61701388015E+02  0.68642921790E+02 -0.50298851012E+03  0.51140829413E+03  0.47000000000E+01 0.  1.
<mgrwt>
<rscale>  2 0.27043124E+03</rscale>
<asrwt>0</asrwt>
<pdfrwt beam="1">  1       21 0.43928699E-01 0.27142934E+03</pdfrwt>
<pdfrwt beam="2">  1       21 0.14163258E+00 0.27142934E+03</pdfrwt>
<totfact> 0.16192521E+03</totfact>
</mgrwt>
</event>
<event>
12    1  0.2743855E-001  0.2110522E+03  0.7546771E-02  0.1140750E+00
         21   -1    0    0  502  503  0.00000000000E+00  0.00000000000E+00  0.17349461065E+04  0.17349461065E+04  0.00000000000E+00 0.  1.
         21   -1    0    0  503  504 -0.00000000000E+00 -0.00000000000E+00 -0.36129811309E+02  0.36129811309E+02  0.00000000000E+00 0. -1.
         -6    2    1    2    0  504  0.87564510537E+01 -0.12022856271E+03  0.37270936702E+03  0.42827935793E+03  0.17314546903E+03 0.  0.
        -24    2    3    3    0    0  0.25419853397E+02 -0.11124403362E+03  0.15073431127E+03  0.20544891542E+03  0.80417785892E+02 0.  0.
          6    2    1    2  502    0 -0.87564510537E+01  0.12022856271E+03  0.13261069281E+04  0.13427965598E+04  0.17323808336E+03 0.  0.
         24    2    5    5    0    0  0.50235110989E+02  0.42631920069E+02  0.89176268993E+03  0.89762440144E+03  0.78408060397E+02 0.  0.
          2    1    6    6  501    0  0.55971385165E+01 -0.21152519899E+02  0.29403578531E+03  0.29484877496E+03  0.00000000000E+00 0. -1.
         -1    1    6    6    0  501  0.44637972472E+02  0.63784439968E+02  0.59772690462E+03  0.60277562648E+03  0.00000000000E+00 0.  1.
          5    1    5    5  502    0 -0.58991562042E+02  0.77596642638E+02  0.43434423821E+03  0.44517215839E+03  0.47000000000E+01 0. -1.
         13    1    4    4    0    0  0.11947332020E+02 -0.97990460639E+02  0.15707107341E+03  0.18551601338E+03  0.00000000000E+00 0. -1.
        -14    1    4    4    0    0  0.13472521377E+02 -0.13253572984E+02 -0.63367621398E+01  0.19932902034E+02  0.00000000000E+00 0.  1.
         -5    1    3    3    0  504 -0.16663402343E+02 -0.89845290845E+01  0.22197505575E+03  0.22283044252E+03  0.47000000000E+01 0.  1.
<mgrwt>
<rscale>  2 0.21103316E+03</rscale>
<asrwt>0</asrwt>
<pdfrwt beam="1">  1       21 0.26691472E+00 0.21105216E+03</pdfrwt>
<pdfrwt beam="2">  1       21 0.55584338E-02 0.21105216E+03</pdfrwt>
<totfact> 0.11696223E+04</totfact>
</mgrwt>
</event>
<event>
12    1  0.2743855E-001  0.2484604E+03  0.7546771E-02  0.1116414E+00
         21   -1    0    0  502  503  0.00000000000E+00  0.00000000000E+00  0.38997005280E+03  0.38997005280E+03  0.00000000000E+00 0. -1.
         21   -1    0    0  503  504 -0.00000000000E+00 -0.00000000000E+00 -0.59672680529E+03  0.59672680529E+03  0.00000000000E+00 0. -1.
         -6    2    1    2    0  504 -0.84793002627E+01  0.16002160128E+03 -0.52944477396E+03  0.57943757699E+03  0.17250311751E+03 0.  0.
        -24    2    3    3    0    0 -0.62686036864E+02  0.11450516636E+03 -0.43552265923E+03  0.46173638849E+03  0.80495549010E+02 0.  0.
          6    2    1    2  502    0  0.84793002627E+01 -0.16002160128E+03  0.32268802146E+03  0.40725928110E+03  0.18987825425E+03 0.  0.
         24    2    5    5    0    0 -0.56844763246E+02 -0.75613079448E+02  0.10220396052E+03  0.16225449959E+03  0.83259883499E+02 0.  0.
          2    1    6    6  501    0  0.14778010159E+02 -0.11052931669E+02 -0.39205620433E+01  0.18866045942E+02  0.00000000000E+00 0. -1.
         -1    1    6    6    0  501 -0.71622773405E+02 -0.64560147778E+02  0.10612452256E+03  0.14338845365E+03  0.00000000000E+00 0.  1.
          5    1    5    5  502    0  0.65324063509E+02 -0.84408521831E+02  0.22048406095E+03  0.24500478151E+03  0.47000000000E+01 0. -1.
         13    1    4    4    0    0 -0.31053642062E+02  0.26337127589E+02 -0.25627089380E+03  0.25948553713E+03  0.00000000000E+00 0. -1.
        -14    1    4    4    0    0 -0.31632394802E+02  0.88168038776E+02 -0.17925176543E+03  0.20225085135E+03  0.00000000000E+00 0.  1.
         -5    1    3    3    0  504  0.54206736601E+02  0.45516434914E+02 -0.93922114728E+02  0.11770118850E+03  0.47000000000E+01 0.  1.
<mgrwt>
<rscale>  2 0.24514158E+03</rscale>
<asrwt>0</asrwt>
<pdfrwt beam="1">  1       21 0.59995393E-01 0.24846038E+03</pdfrwt>
<pdfrwt beam="2">  1       21 0.91804124E-01 0.24846038E+03</pdfrwt>
<totfact> 0.24880328E+03</totfact>
</mgrwt>
</event>
<event>
12    1  0.2743855E-001  0.2002580E+03  0.7546771E-02  0.1149636E+00
         21   -1    0    0  502  503  0.00000000000E+00  0.00000000000E+00  0.11047391166E+04  0.11047391166E+04  0.00000000000E+00 0.  1.
         21   -1    0    0  503  504 -0.00000000000E+00 -0.00000000000E+00 -0.36736708111E+02  0.36736708111E+02  0.00000000000E+00 0.  1.
         -6    2    1    2    0  504  0.92343501076E+02  0.38271188921E+02  0.46592612768E+03  0.50713943717E+03  0.17352592367E+03 0.  0.
        -24    2    3    3    0    0  0.58159893816E+02  0.69944672871E+02  0.17708345632E+03  0.21452380637E+03  0.79919224752E+02 0.  0.
          6    2    1    2  502    0 -0.92343501076E+02 -0.38271188921E+02  0.60207628085E+03  0.63433638758E+03  0.17290112364E+03 0.  0.
         24    2    5    5    0    0 -0.12714334482E+03 -0.72792713395E+01  0.49282215537E+03  0.51546636607E+03  0.81323304164E+02 0.  0.
          4    1    6    6  501    0 -0.64049882986E+02  0.95939126197E+01  0.11449161839E+03  0.13153996105E+03  0.00000000000E+00 0. -1.
         -3    1    6    6    0  501 -0.63093461838E+02 -0.16873183959E+02  0.37833053698E+03  0.38392640503E+03  0.00000000000E+00 0.  1.
          5    1    5    5  502    0  0.34799843748E+02 -0.30991917582E+02  0.10925412547E+03  0.11887002151E+03  0.47000000000E+01 0. -1.
         11    1    4    4    0    0  0.49740615457E+02  0.33038658590E+02  0.16390136444E+03  0.17444007296E+03  0.00000000000E+00 0. -1.
        -12    1    4    4    0    0  0.84192783586E+01  0.36906014281E+02  0.13182091884E+02  0.40083733417E+02  0.00000000000E+00 0.  1.
         -5    1    3    3    0  504  0.34183607261E+02 -0.31673483950E+02  0.28884267135E+03  0.29261563079E+03  0.47000000000E+01 0.  1.
<mgrwt>
<rscale>  2 0.20012254E+03</rscale>
<asrwt>0</asrwt>
<pdfrwt beam="1">  1       21 0.16995984E+00 0.20025796E+03</pdfrwt>
<pdfrwt beam="2">  1       21 0.56518021E-02 0.20025796E+03</pdfrwt>
<totfact> 0.46414340E+04</totfact>
</mgrwt>
</event>
<event>
12    1  0.2743855E-001  0.2536763E+03  0.7546771E-02  0.1111111E+00
         21   -1    0    0  502  503  0.00000000000E+00  0.00000000000E+00  0.62948931512E+03  0.62948931512E+03  0.00000000000E+00 0. -1.
         21   -1    0    0  503  504 -0.00000000000E+00 -0.00000000000E+00 -0.10618034498E+03  0.10618034498E+03  0.00000000000E+00 0.  1.
         -6    2    1    2    0  504  0.72331756097E+01  0.18474199307E+03  0.33543997055E+03  0.42056111838E+03  0.17369443750E+03 0.  0.
        -24    2    3    3    0    0  0.22680559500E+01  0.18119012929E+03  0.18921113280E+03  0.27412945808E+03  0.80691387274E+02 0.  0.
          6    2    1    2  502    0 -0.72331756097E+01 -0.18474199307E+03  0.18786899958E+03  0.31510854172E+03  0.17267515522E+03 0.  0.
         24    2    5    5    0    0 -0.43816178760E+02 -0.12297991092E+03  0.52248552686E+02  0.16159024794E+03  0.79608925120E+02 0.  0.
          2    1    6    6  501    0 -0.51550244461E+02 -0.30595340272E+02  0.25105807776E+02  0.64990800383E+02  0.00000000000E+00 0. -1.
         -1    1    6    6    0  501  0.77340657011E+01 -0.92384570648E+02  0.27142744910E+02  0.96599447552E+02  0.00000000000E+00 0.  1.
          5    1    5    5  502    0  0.36583003150E+02 -0.61762082148E+02  0.13562044690E+03  0.15351829379E+03  0.47000000000E+01 0. -1.
         13    1    4    4    0    0  0.69086041324E+01  0.10088725798E+03  0.15853689948E+03  0.18804232537E+03  0.00000000000E+00 0. -1.
        -14    1    4    4    0    0 -0.46405481824E+01  0.80302871310E+02  0.30674233322E+02  0.86087132708E+02  0.00000000000E+00 0.  1.
         -5    1    3    3    0  504  0.49651196597E+01  0.35518637765E+01  0.14622883775E+03  0.14643166030E+03  0.47000000000E+01 0.  1.
<mgrwt>
<rscale>  2 0.25350195E+03</rscale>
<asrwt>0</asrwt>
<pdfrwt beam="1">  1       21 0.96844508E-01 0.25367633E+03</pdfrwt>
<pdfrwt beam="2">  1       21 0.16335438E-01 0.25367633E+03</pdfrwt>
<totfact> 0.28796837E+04</totfact>
</mgrwt>
</event>
<event>
12    1  0.2743855E-001  0.1991995E+03  0.7546771E-02  0.1150455E+00
         21   -1    0    0  502  503  0.00000000000E+00  0.00000000000E+00  0.92177062760E+03  0.92177062760E+03  0.00000000000E+00 0. -1.
         21   -1    0    0  503  504 -0.00000000000E+00 -0.00000000000E+00 -0.54388832397E+02  0.54388832397E+02  0.00000000000E+00 0. -1.
         -6    2    1    2    0  504 -0.98034923854E+02  0.64469445751E+01  0.21026927046E+03  0.28951740399E+03  0.17307441094E+03 0.  0.
        -24    2    3    3    0    0 -0.10212368017E+03  0.51031622111E+02  0.10607752955E+03  0.17601621336E+03  0.81827822795E+02 0.  0.
          6    2    1    2  502    0  0.98034923854E+02 -0.64469445751E+01  0.65711252474E+03  0.68664205601E+03  0.17328598766E+03 0.  0.
         24    2    5    5    0    0  0.37454687076E+02 -0.14005081649E+02  0.14367135005E+03  0.16956273870E+03  0.80691199231E+02 0.  0.
          4    1    6    6  501    0  0.60250578755E+02 -0.12901561255E+02  0.74252194566E+02  0.96488190578E+02  0.00000000000E+00 0. -1.
         -3    1    6    6    0  501 -0.22795891679E+02 -0.11035203942E+01  0.69419155486E+02  0.73074548121E+02  0.00000000000E+00 0.  1.
          5    1    5    5  502    0  0.60580236778E+02  0.75581370740E+01  0.51344117469E+03  0.51707931731E+03  0.47000000000E+01 0. -1.
         11    1    4    4    0    0 -0.12960619453E+02 -0.20987832286E+02  0.10623559553E+02  0.26857527404E+02  0.00000000000E+00 0. -1.
        -12    1    4    4    0    0 -0.89163060716E+02  0.72019454397E+02  0.95453969993E+02  0.14915868595E+03  0.00000000000E+00 0.  1.
         -5    1    3    3    0  504  0.40887563151E+01 -0.44584677536E+02  0.10419174092E+03  0.11350119063E+03  0.47000000000E+01 0.  1.
<mgrwt>
<rscale>  2 0.19915348E+03</rscale>
<asrwt>0</asrwt>
<pdfrwt beam="1">  1       21 0.14181085E+00 0.19919951E+03</pdfrwt>
<pdfrwt beam="2">  1       21 0.83675134E-02 0.19919951E+03</pdfrwt>
<totfact> 0.38259380E+04</totfact>
</mgrwt>
</event>
<event>
12    1  0.2743855E-001  0.2356572E+03  0.7546771E-02  0.1122755E+00
         21   -1    0    0  502  503  0.00000000000E+00  0.00000000000E+00  0.26880401474E+03  0.26880401474E+03  0.00000000000E+00 0.  1.
         21   -1    0    0  503  504 -0.00000000000E+00 -0.00000000000E+00 -0.26264032167E+03  0.26264032167E+03  0.00000000000E+00 0.  1.
         -6    2    1    2    0  504 -0.15945884789E+03 -0.16512831100E+02  0.12602079837E+03  0.26705819149E+03  0.17245010368E+03 0.  0.
        -24    2    3    3    0    0 -0.59433979156E+02  0.26310788251E+02  0.12039484144E+03  0.15800509373E+03  0.79031869154E+02 0.  0.
          6    2    1    2  502    0  0.15945884789E+03  0.16512831100E+02 -0.11985710530E+03  0.26438614492E+03  0.17272669212E+03 0.  0.
         24    2    5    5    0    0  0.16266180133E+03  0.53926185986E+02 -0.12419169523E+03  0.22629550690E+03  0.80119811116E+02 0.  0.
          2    1    6    6  501    0  0.90694894310E+02  0.61480789256E+02 -0.43443306392E+02  0.11786760442E+03  0.00000000000E+00 0. -1.
         -1    1    6    6    0  501  0.71966907016E+02 -0.75546032708E+01 -0.80748388841E+02  0.10842790248E+03  0.00000000000E+00 0.  1.
          5    1    5    5  502    0 -0.32029534312E+01 -0.37413354886E+02  0.43345899342E+01  0.38090638015E+02  0.47000000000E+01 0. -1.
         13    1    4    4    0    0 -0.88966435590E+01  0.45669361538E+02  0.41586192933E+02  0.62403944528E+02  0.00000000000E+00 0. -1.
        -14    1    4    4    0    0 -0.50537335597E+02 -0.19358573288E+02  0.78808648504E+02  0.95601149199E+02  0.00000000000E+00 0.  1.
         -5    1    3    3    0  504 -0.10002486874E+03 -0.42823619351E+02  0.56259569292E+01  0.10905309776E+03  0.47000000000E+01 0.  1.
<mgrwt>
<rscale>  2 0.23560650E+03</rscale>
<asrwt>0</asrwt>
<pdfrwt beam="1">  1       21 0.41354464E-01 0.23565718E+03</pdfrwt>
<pdfrwt beam="2">  1       21 0.40406203E-01 0.23565718E+03</pdfrwt>
<totfact> 0.32514502E+04</totfact>
</mgrwt>
</event>
<event>
12    1  0.2743855E-001  0.1922063E+03  0.7546771E-02  0.1156601E+00
         21   -1    0    0  502  503  0.00000000000E+00  0.00000000000E+00  0.11364053917E+03  0.11364053917E+03  0.00000000000E+00 0. -1.
         21   -1    0    0  503  504 -0.00000000000E+00 -0.00000000000E+00 -0.45669211571E+03  0.45669211571E+03  0.00000000000E+00 0. -1.
         -6    2    1    2    0  504  0.35187209891E+02 -0.75228126911E+02 -0.32527327012E+03  0.37781738997E+03  0.17333744283E+03 0.  0.
        -24    2    3    3    0    0  0.56676763867E+01 -0.11209510399E+03 -0.28253334470E+03  0.31394745899E+03  0.78361222855E+02 0.  0.
          6    2    1    2  502    0 -0.35187209891E+02  0.75228126911E+02 -0.17778306417E+02  0.19251526491E+03  0.17276761336E+03 0.  0.
         24    2    5    5    0    0 -0.86619350293E+02  0.28446165258E+02 -0.12952004867E+02  0.12266399299E+03  0.81034588805E+02 0.  0.
          4    1    6    6  501    0 -0.44083480586E+02  0.45583852718E+02  0.19661151131E+02  0.66391277688E+02  0.00000000000E+00 0. -1.
         -3    1    6    6    0  501 -0.42535869707E+02 -0.17137687460E+02 -0.32613155998E+02  0.56272715301E+02  0.00000000000E+00 0.  1.
          5    1    5    5  502    0  0.51432140402E+02  0.46781961653E+02 -0.48263015502E+01  0.69851271922E+02  0.47000000000E+01 0. -1.
         11    1    4    4    0    0  0.82677438494E+01 -0.62918590551E+02 -0.24195208422E+03  0.25013579449E+03  0.00000000000E+00 0. -1.
        -12    1    4    4    0    0 -0.26000674627E+01 -0.49176513440E+02 -0.40581260476E+02  0.63811664503E+02  0.00000000000E+00 0.  1.
         -5    1    3    3    0  504  0.29519533504E+02  0.36866977080E+02 -0.42739925426E+02  0.63869930975E+02  0.47000000000E+01 0.  1.
<mgrwt>
<rscale>  2 0.19207779E+03</rscale>
<asrwt>0</asrwt>
<pdfrwt beam="1">  1       21 0.17483160E-01 0.19220635E+03</pdfrwt>
<pdfrwt beam="2">  1       21 0.70260325E-01 0.19220635E+03</pdfrwt>
<totfact> 0.54463630E+04</totfact>
</mgrwt>
</event>
<event>
12    1  0.2743855E-001  0.1774133E+03  0.7546771E-02  0.1170802E+00
         21   -1    0    0  502  503  0.00000000000E+00  0.00000000000E+00  0.37130364423E+03  0.37130364423E+03  0.00000000000E+00 0.  1.
         21   -1    0    0  503  504 -0.00000000000E+00 -0.00000000000E+00 -0.96820829007E+02  0.96820829007E+02  0.00000000000E+00 0. -1.
         -6    2    1    2    0  504  0.30078460386E+02  0.33080284702E+02  0.52257050638E+02  0.18494939982E+03  0.17168710533E+03 0.  0.
        -24    2    3    3    0    0 -0.54572080748E+00 -0.34061641087E+02  0.58396668218E+02  0.11074924095E+03  0.87719611871E+02 0.  0.
          6    2    1    2  502    0 -0.30078460386E+02 -0.33080284702E+02  0.22222576458E+03  0.28317507342E+03  0.16971980658E+03 0.  0.
         24    2    5    5    0    0 -0.23166291591E+01  0.84308007722E+01  0.33665729496E+02  0.88057502905E+02  0.80896831230E+02 0.  0.
          4    1    6    6  501    0 -0.28468882755E+02  0.34521901771E+01 -0.15165720224E+02  0.32440622254E+02  0.00000000000E+00 0. -1.
         -3    1    6    6    0  501  0.26152253596E+02  0.49786105951E+01  0.48831449720E+02  0.55616880651E+02  0.00000000000E+00 0.  1.
          5    1    5    5  502    0 -0.27761831226E+02 -0.41511085474E+02  0.18856003509E+03  0.19511757051E+03  0.47000000000E+01 0. -1.
         11    1    4    4    0    0 -0.24524920075E+02 -0.54421826824E+02  0.50812877477E+02  0.78391041944E+02  0.00000000000E+00 0. -1.
        -12    1    4    4    0    0  0.23979199268E+02  0.20360185737E+02  0.75837907411E+01  0.32358199004E+02  0.00000000000E+00 0.  1.
         -5    1    3    3    0  504  0.30624181193E+02  0.67141925789E+02 -0.61396175798E+01  0.74200158871E+02  0.47000000000E+01 0.  1.
<mgrwt>
<rscale>  2 0.17693560E+03</rscale>
<asrwt>0</asrwt>
<pdfrwt beam="1">  1       21 0.57123637E-01 0.17741331E+03</pdfrwt>
<pdfrwt beam="2">  1       21 0.14895512E-01 0.17741331E+03</pdfrwt>
<totfact> 0.11499233E+05</totfact>
</mgrwt>
</event>
<event>
12    1  0.2743855E-001  0.2592908E+03  0.7546771E-02  0.1107604E+00
         21   -1    0    0  502  503  0.00000000000E+00  0.00000000000E+00  0.32412434651E+03  0.32412434651E+03  0.00000000000E+00 0.  1.
         21   -1    0    0  503  504 -0.00000000000E+00 -0.00000000000E+00 -0.30859787773E+03  0.30859787773E+03  0.00000000000E+00 0. -1.
         -6    2    1    2    0  504  0.53701647513E+02  0.18511714786E+03 -0.17353903702E+03  0.31182118072E+03  0.17310235701E+03 0.  0.
        -24    2    3    3    0    0  0.64303785574E+02  0.86516825426E+02 -0.16378612799E+03  0.21206328305E+03  0.80776248821E+02 0.  0.
          6    2    1    2  502    0 -0.53701647513E+02 -0.18511714786E+03  0.18906550581E+03  0.32090104352E+03  0.17343439356E+03 0.  0.
         24    2    5    5    0    0 -0.23642059272E+02 -0.98974906888E+02  0.18899348438E+03  0.22954372465E+03  0.81343747322E+02 0.  0.
          2    1    6    6  501    0 -0.29684388137E+02 -0.11167225302E+03  0.16048190658E+03  0.19775312218E+03  0.00000000000E+00 0. -1.
         -1    1    6    6    0  501  0.60423288645E+01  0.12697346128E+02  0.28511577796E+02  0.31790602467E+02  0.00000000000E+00 0.  1.
          5    1    5    5  502    0 -0.30059588241E+02 -0.86142240968E+02  0.72021430807E-01  0.91357318870E+02  0.47000000000E+01 0. -1.
         13    1    4    4    0    0  0.25193880240E+02  0.91583584096E+02 -0.12182662279E+03  0.15447980612E+03  0.00000000000E+00 0. -1.
        -14    1    4    4    0    0  0.39109905334E+02 -0.50667586701E+01 -0.41959505195E+02  0.57583476926E+02  0.00000000000E+00 0.  1.
         -5    1    3    3    0  504 -0.10602138061E+02  0.98600322430E+02 -0.97529090339E+01  0.99757897679E+02  0.47000000000E+01 0.  1.
<mgrwt>
<rscale>  2 0.25923528E+03</rscale>
<asrwt>0</asrwt>
<pdfrwt beam="1">  1       21 0.49865284E-01 0.25929079E+03</pdfrwt>
<pdfrwt beam="2">  1       21 0.47476596E-01 0.25929079E+03</pdfrwt>
<totfact> 0.15663115E+04</totfact>
</mgrwt>
</event>
<event>
12    1  0.2743855E-001  0.1783539E+03  0.7546771E-02  0.1169566E+00
         21   -1    0    0  502  503  0.00000000000E+00  0.00000000000E+00  0.41081149070E+03  0.41081149070E+03  0.00000000000E+00 0. -1.
         21   -1    0    0  503  504 -0.00000000000E+00 -0.00000000000E+00 -0.21549207018E+03  0.21549207018E+03  0.00000000000E+00 0. -1.
         -6    2    1    2    0  504 -0.10765218689E+02  0.38294709696E+02 -0.15331402458E+03  0.23469740987E+03  0.17319153946E+03 0.  0.
        -24    2    3    3    0    0  0.19045706646E+01  0.66179338717E+02 -0.17078993320E+03  0.19912251029E+03  0.78084829245E+02 0.  0.
          6    2    1    2  502    0  0.10765218689E+02 -0.38294709696E+02  0.34863344510E+03  0.39160615101E+03  0.17386121977E+03 0.  0.
         24    2    5    5    0    0  0.31138280196E+02 -0.72923738549E+02  0.32590202273E+03  0.34520530147E+03  0.81652358257E+02 0.  0.
          2    1    6    6  501    0  0.48084619412E+02 -0.62059604689E+02  0.16145272829E+03  0.17952857329E+03  0.00000000000E+00 0. -1.
         -1    1    6    6    0  501 -0.16946339215E+02 -0.10864133860E+02  0.16444929444E+03  0.16567672818E+03  0.00000000000E+00 0.  1.
          5    1    5    5  502    0 -0.20373061507E+02  0.34629028853E+02  0.22731422375E+02  0.46400849536E+02  0.47000000000E+01 0. -1.
         11    1    4    4    0    0 -0.26180320173E+02  0.44313100789E+01 -0.18366508515E+02  0.32285822096E+02  0.00000000000E+00 0. -1.
        -12    1    4    4    0    0  0.28084890837E+02  0.61748028639E+02 -0.15242342469E+03  0.16683668820E+03  0.00000000000E+00 0.  1.
         -5    1    3    3    0  504 -0.12669789354E+02 -0.27884629022E+02  0.17475908620E+02  0.35574899579E+02  0.47000000000E+01 0.  1.
<mgrwt>
<rscale>  2 0.17819045E+03</rscale>
<asrwt>0</asrwt>
<pdfrwt beam="1">  1       21 0.63201768E-01 0.17835386E+03</pdfrwt>
<pdfrwt beam="2">  1       21 0.33152626E-01 0.17835386E+03</pdfrwt>
<totfact> 0.20466909E+04</totfact>
</mgrwt>
</event>
<event>
12    1  0.2743855E-001  0.2534317E+03  0.7546771E-02  0.1111245E+00
         21   -1    0    0  502  503  0.00000000000E+00  0.00000000000E+00  0.33996793191E+03  0.33996793191E+03  0.00000000000E+00 0. -1.
         21   -1    0    0  503  504 -0.00000000000E+00 -0.00000000000E+00 -0.22560847363E+03  0.22560847363E+03  0.00000000000E+00 0. -1.
         -6    2    1    2    0  504  0.31151045483E+02 -0.18303142865E+03 -0.57468900247E+02  0.25986594551E+03  0.17250143082E+03 0.  0.
        -24    2    3    3    0    0 -0.27288174744E+02 -0.17498919124E+03 -0.37644581888E+02  0.19745670227E+03  0.78779268813E+02 0.  0.
          6    2    1    2  502    0 -0.31151045483E+02  0.18303142865E+03  0.17182835852E+03  0.30571046003E+03  0.17164792184E+03 0.  0.
         24    2    5    5    0    0  0.21627920953E+02  0.10859207840E+03  0.16457178023E+03  0.21405030462E+03  0.80459030577E+02 0.  0.
          2    1    6    6  501    0  0.41051912702E+02  0.95437365575E+02  0.95547593220E+02  0.14114847804E+03  0.00000000000E+00 0. -1.
         -1    1    6    6    0  501 -0.19423991749E+02  0.13154712830E+02  0.69024187009E+02  0.72901826571E+02  0.00000000000E+00 0.  1.
          5    1    5    5  502    0 -0.52778966436E+02  0.74439350242E+02  0.72565782936E+01  0.91660155417E+02  0.47000000000E+01 0. -1.
         11    1    4    4    0    0 -0.25940645118E+02 -0.10104670856E+03 -0.59809368871E+02  0.12025188142E+03  0.00000000000E+00 0. -1.
        -12    1    4    4    0    0 -0.13475296259E+01 -0.73942482678E+02  0.22164786983E+02  0.77204820851E+02  0.00000000000E+00 0.  1.
         -5    1    3    3    0  504  0.58439220228E+02 -0.80422374036E+01 -0.19824318359E+02  0.62409243239E+02  0.47000000000E+01 0.  1.
<mgrwt>
<rscale>  2 0.25328655E+03</rscale>
<asrwt>0</asrwt>
<pdfrwt beam="1">  1       21 0.52302759E-01 0.25343172E+03</pdfrwt>
<pdfrwt beam="2">  1       21 0.34708996E-01 0.25343172E+03</pdfrwt>
<totfact> 0.26900818E+04</totfact>
</mgrwt>
</event>
<event>
12    1  0.2743855E-001  0.1889563E+03  0.7546771E-02  0.1160587E+00
         21   -1    0    0  502  503  0.00000000000E+00  0.00000000000E+00  0.11401820345E+04  0.11401820345E+04  0.00000000000E+00 0. -1.
         21   -1    0    0  503  504 -0.00000000000E+00 -0.00000000000E+00 -0.84281882397E+02  0.84281882397E+02  0.00000000000E+00 0. -1.
         -6    2    1    2    0  504 -0.19707648186E+01 -0.62591528369E+02  0.41394984031E+02  0.19343738929E+03  0.17827758001E+03 0.  0.
        -24    2    3    3    0    0 -0.68842052838E+02 -0.50873353716E+02  0.68400047872E+01  0.11711425145E+03  0.79634388742E+02 0.  0.
          6    2    1    2  502    0  0.19707648186E+01  0.62591528369E+02  0.10145051680E+04  0.10310265276E+04  0.17283917742E+03 0.  0.
         24    2    5    5    0    0 -0.41259463427E+02  0.88820243069E+02  0.65737412668E+03  0.67030299243E+03  0.87028617864E+02 0.  0.
          2    1    6    6  501    0 -0.68145934339E+02  0.72697148983E+02  0.49458814865E+03  0.50452569868E+03  0.00000000000E+00 0. -1.
         -1    1    6    6    0  501  0.26886470912E+02  0.16123094086E+02  0.16278597803E+03  0.16577729375E+03  0.00000000000E+00 0.  1.
          5    1    5    5  502    0  0.43230228246E+02 -0.26228714700E+02  0.35713104135E+03  0.36072353514E+03  0.47000000000E+01 0. -1.
         13    1    4    4    0    0 -0.34061639179E+02 -0.82023222698E+01 -0.33805117982E+02  0.48685309447E+02  0.00000000000E+00 0. -1.
        -14    1    4    4    0    0 -0.34780413659E+02 -0.42671031446E+02  0.40645122769E+02  0.68428942005E+02  0.00000000000E+00 0.  1.
         -5    1    3    3    0  504  0.66871288019E+02 -0.11718174653E+02  0.34554979244E+02  0.76323137836E+02  0.47000000000E+01 0.  1.
<mgrwt>
<rscale>  2 0.18766251E+03</rscale>
<asrwt>0</asrwt>
<pdfrwt beam="1">  1       21 0.17541261E+00 0.18895629E+03</pdfrwt>
<pdfrwt beam="2">  1       21 0.12966444E-01 0.18895629E+03</pdfrwt>
<totfact> 0.10020260E+04</totfact>
</mgrwt>
</event>
<event>
12    1  0.2743855E-001  0.1807404E+03  0.7546771E-02  0.1167113E+00
         21   -1    0    0  502  503  0.00000000000E+00  0.00000000000E+00  0.31251544985E+02  0.31251544985E+02  0.00000000000E+00 0.  1.
         21   -1    0    0  503  504 -0.00000000000E+00 -0.00000000000E+00 -0.10881866725E+04  0.10881866725E+04  0.00000000000E+00 0.  1.
         -6    2    1    2    0  504 -0.16509407283E+02 -0.50578420536E+02 -0.64049521572E+03  0.66550822597E+03  0.17273198988E+03 0.  0.
        -24    2    3    3    0    0 -0.92284778405E+01 -0.13666451079E+02 -0.61314416359E+03  0.61875701770E+03  0.81501809286E+02 0.  0.
          6    2    1    2  502    0  0.16509407283E+02  0.50578420536E+02 -0.41643991181E+03  0.45392999153E+03  0.17262531653E+03 0.  0.
         24    2    5    5    0    0  0.84939906898E+01 -0.33241067386E+02 -0.14470519060E+03  0.16940968967E+03  0.81135284113E+02 0.  0.
          2    1    6    6  501    0  0.44324334863E+02 -0.12892355544E+02 -0.65565164190E+02  0.80185099911E+02  0.00000000000E+00 0. -1.
         -1    1    6    6    0  501 -0.35830344173E+02 -0.20348711842E+02 -0.79140026412E+02  0.89224589759E+02  0.00000000000E+00 0.  1.
          5    1    5    5  502    0  0.80154165935E+01  0.83819487921E+02 -0.27173472121E+03  0.28452030186E+03  0.47000000000E+01 0. -1.
         13    1    4    4    0    0 -0.28055146079E+02 -0.33297520754E+02 -0.19838439143E+03  0.20310633390E+03  0.00000000000E+00 0. -1.
        -14    1    4    4    0    0  0.18826668238E+02  0.19631069675E+02 -0.41475977217E+03  0.41565068380E+03  0.00000000000E+00 0.  1.
         -5    1    3    3    0  504 -0.72809294428E+01 -0.36911969456E+02 -0.27351052128E+02  0.46751208275E+02  0.47000000000E+01 0.  1.
<mgrwt>
<rscale>  2 0.18071487E+03</rscale>
<asrwt>0</asrwt>
<pdfrwt beam="1">  1       21 0.48079300E-02 0.18074036E+03</pdfrwt>
<pdfrwt beam="2">  1       21 0.16741333E+00 0.18074036E+03</pdfrwt>
<totfact> 0.64399202E+04</totfact>
</mgrwt>
</event>
<event>
12    1  0.2743855E-001  0.1961772E+03  0.7546771E-02  0.1153028E+00
         21   -1    0    0  502  503  0.00000000000E+00  0.00000000000E+00  0.71929792989E+03  0.71929792989E+03  0.00000000000E+00 0.  1.
         21   -1    0    0  503  504 -0.00000000000E+00 -0.00000000000E+00 -0.58814016276E+02  0.58814016276E+02  0.00000000000E+00 0.  1.
         -6    2    1    2    0  504  0.50896604852E+02  0.77022810130E+02  0.44738140516E+03  0.48846013475E+03  0.17297457585E+03 0.  0.
        -24    2    3    3    0    0  0.23857577261E+02 -0.26783279236E+02  0.23238037936E+03  0.24813879925E+03  0.79282374721E+02 0.  0.
          6    2    1    2  502    0 -0.50896604852E+02 -0.77022810130E+02  0.21310250846E+03  0.28965181142E+03  0.17309683729E+03 0.  0.
         24    2    5    5    0    0 -0.25704243876E+02 -0.10695435436E+03  0.14954359759E+03  0.21486961071E+03  0.10819297555E+03 0.  0.
          2    1    6    6  501    0 -0.50314261720E+01 -0.86496692677E+02  0.16161887401E+03  0.18337844347E+03  0.00000000000E+00 0. -1.
         -1    1    6    6    0  501 -0.20672817704E+02 -0.20457661684E+02 -0.12075276424E+02  0.31491167240E+02  0.00000000000E+00 0.  1.
          5    1    5    5  502    0 -0.25192360976E+02  0.29931544230E+02  0.63558910868E+02  0.74782200705E+02  0.47000000000E+01 0. -1.
         13    1    4    4    0    0 -0.92813571060E+01  0.24288343326E+02  0.76047550454E+02  0.80369752652E+02  0.00000000000E+00 0. -1.
        -14    1    4    4    0    0  0.33138934367E+02 -0.51071622562E+02  0.15633282891E+03  0.16776904660E+03  0.00000000000E+00 0.  1.
         -5    1    3    3    0  504  0.27039027591E+02  0.10380608937E+03  0.21500102580E+03  0.24032133550E+03  0.47000000000E+01 0.  1.
<mgrwt>
<rscale>  2 0.19615022E+03</rscale>
<asrwt>0</asrwt>
<pdfrwt beam="1">  1       21 0.11066121E+00 0.19617720E+03</pdfrwt>
<pdfrwt beam="2">  1       21 0.90483107E-02 0.19617720E+03</pdfrwt>
<totfact> 0.62182158E+04</totfact>
</mgrwt>
</event>
<event>
12    1  0.2743855E-001  0.2387551E+03  0.7546771E-02  0.1120630E+00
         21   -1    0    0  502  503  0.00000000000E+00  0.00000000000E+00  0.28351576921E+03  0.28351576921E+03  0.00000000000E+00 0.  1.
         21   -1    0    0  503  504 -0.00000000000E+00 -0.00000000000E+00 -0.33561250610E+03  0.33561250610E+03  0.00000000000E+00 0. -1.
         -6    2    1    2    0  504 -0.24066583012E+02  0.16316519087E+03 -0.22207769634E+03  0.32607130048E+03  0.17263229669E+03 0.  0.
        -24    2    3    3    0    0 -0.45099479617E+02  0.17892094218E+03 -0.22191159431E+03  0.29937403416E+03  0.79582598793E+02 0.  0.
          6    2    1    2  502    0  0.24066583012E+02 -0.16316519087E+03  0.16998095945E+03  0.29305697483E+03  0.17258848164E+03 0.  0.
         24    2    5    5    0    0  0.71209980992E+02 -0.98533633427E+02  0.15256590825E+03  0.21105019341E+03  0.80536261841E+02 0.  0.
          2    1    6    6  501    0  0.14293977263E+02 -0.48223451440E+01  0.75602140720E+02  0.77092518963E+02  0.00000000000E+00 0. -1.
         -1    1    6    6    0  501  0.56916003729E+02 -0.93711288283E+02  0.76963767528E+02  0.13395767445E+03  0.00000000000E+00 0.  1.
          5    1    5    5  502    0 -0.47143397981E+02 -0.64631557438E+02  0.17415051200E+02  0.82006781417E+02  0.47000000000E+01 0. -1.
         11    1    4    4    0    0 -0.54377832161E+02  0.81659375416E+02 -0.14480189792E+03  0.17490795255E+03  0.00000000000E+00 0. -1.
        -12    1    4    4    0    0  0.92783525439E+01  0.97261566765E+02 -0.77109696390E+02  0.12446608162E+03  0.00000000000E+00 0.  1.
         -5    1    3    3    0  504  0.21032896605E+02 -0.15755751316E+02 -0.16610203529E+00  0.26697266322E+02  0.47000000000E+01 0.  1.
<mgrwt>
<rscale>  2 0.23874716E+03</rscale>
<asrwt>0</asrwt>
<pdfrwt beam="1">  1       21 0.43617811E-01 0.23875508E+03</pdfrwt>
<pdfrwt beam="2">  1       21 0.51632693E-01 0.23875508E+03</pdfrwt>
<totfact> 0.17527923E+04</totfact>
</mgrwt>
</event>
<event>
12    1  0.2743855E-001  0.2521965E+03  0.7546771E-02  0.1111936E+00
         21   -1    0    0  502  503  0.00000000000E+00  0.00000000000E+00  0.77905898540E+02  0.77905898540E+02  0.00000000000E+00 0. -1.
         21   -1    0    0  503  504 -0.00000000000E+00 -0.00000000000E+00 -0.84860534702E+03  0.84860534702E+03  0.00000000000E+00 0.  1.
         -6    2    1    2    0  504  0.22304092901E+02  0.18238329460E+03 -0.47585242467E+03  0.53851918113E+03  0.17264483681E+03 0.  0.
        -24    2    3    3    0    0 -0.20249214242E+02  0.34306424576E+02 -0.24247526858E+03  0.25883269528E+03  0.81321256934E+02 0.  0.
          6    2    1    2  502    0 -0.22304092901E+02 -0.18238329460E+03 -0.29484702381E+03  0.38799206443E+03  0.17274818639E+03 0.  0.
         24    2    5    5    0    0 -0.59719106477E+02 -0.54850110271E+02 -0.99302643002E+02  0.15150889122E+03  0.80740466529E+02 0.  0.
          2    1    6    6  501    0 -0.17131764167E+02  0.15636327531E+01 -0.74716348068E+02  0.76671213369E+02  0.00000000000E+00 0. -1.
         -1    1    6    6    0  501 -0.42587342310E+02 -0.56413743024E+02 -0.24586294934E+02  0.74837677847E+02  0.00000000000E+00 0.  1.
          5    1    5    5  502    0  0.37415013576E+02 -0.12753318433E+03 -0.19554438081E+03  0.23648317321E+03  0.47000000000E+01 0. -1.
         11    1    4    4    0    0  0.21783494033E+02  0.70371154933E+01 -0.16491720987E+03  0.16649843158E+03  0.00000000000E+00 0. -1.
        -12    1    4    4    0    0 -0.42032708276E+02  0.27269309082E+02 -0.77558058709E+02  0.92334263703E+02  0.00000000000E+00 0.  1.
         -5    1    3    3    0  504  0.42553307143E+02  0.14807687002E+03 -0.23337715609E+03  0.27968648585E+03  0.47000000000E+01 0.  1.
<mgrwt>
<rscale>  2 0.25217880E+03</rscale>
<asrwt>0</asrwt>
<pdfrwt beam="1">  1       21 0.11985523E-01 0.25219650E+03</pdfrwt>
<pdfrwt beam="2">  1       21 0.13055467E+00 0.25219650E+03</pdfrwt>
<totfact> 0.24314827E+04</totfact>
</mgrwt>
</event>
<event>
12    1  0.2743855E-001  0.1909244E+03  0.7546771E-02  0.1158900E+00
         21   -1    0    0  502  503  0.00000000000E+00  0.00000000000E+00  0.18514442444E+03  0.18514442444E+03  0.00000000000E+00 0.  1.
         21   -1    0    0  503  504 -0.00000000000E+00 -0.00000000000E+00 -0.25463104989E+03  0.25463104989E+03  0.00000000000E+00 0.  1.
         -6    2    1    2    0  504 -0.34327050727E+02 -0.46099417232E+02 -0.14488857679E+03  0.23967647872E+03  0.18206760307E+03 0.  0.
        -24    2    3    3    0    0  0.40195931233E+02 -0.63500642224E+02 -0.56272384235E+02  0.12249543480E+03  0.78679767847E+02 0.  0.
          6    2    1    2  502    0  0.34327050727E+02  0.46099417232E+02  0.75401951332E+02  0.20009899561E+03  0.17621194936E+03 0.  0.
         24    2    5    5    0    0 -0.20626478056E+01  0.85897766849E+02  0.79070708858E+02  0.14584340997E+03  0.87381018341E+02 0.  0.
          4    1    6    6  501    0 -0.40636315349E+02  0.31622864980E+02  0.15473278246E+02  0.53765584293E+02  0.00000000000E+00 0. -1.
         -3    1    6    6    0  501  0.38573667543E+02  0.54274901869E+02  0.63597430612E+02  0.92077825675E+02  0.00000000000E+00 0.  1.
          5    1    5    5  502    0  0.36389698533E+02 -0.39798349617E+02 -0.36687575259E+01  0.54255585642E+02  0.47000000000E+01 0. -1.
         13    1    4    4    0    0  0.52926810791E+01 -0.72202366918E+02 -0.32347661493E+02  0.79294170439E+02  0.00000000000E+00 0. -1.
        -14    1    4    4    0    0  0.34903250154E+02  0.87017246941E+01 -0.23924722742E+02  0.43201264359E+02  0.00000000000E+00 0.  1.
         -5    1    3    3    0  504 -0.74522981960E+02  0.17401224992E+02 -0.88616192557E+02  0.11718104392E+03  0.47000000000E+01 0.  1.
<mgrwt>
<rscale>  2 0.18951493E+03</rscale>
<asrwt>0</asrwt>
<pdfrwt beam="1">  1       21 0.28483758E-01 0.19092437E+03</pdfrwt>
<pdfrwt beam="2">  1       21 0.39174007E-01 0.19092437E+03</pdfrwt>
<totfact> 0.74102317E+04</totfact>
</mgrwt>
</event>
<event>
12    1  0.2743855E-001  0.1845254E+03  0.7546771E-02  0.1164208E+00
         21   -1    0    0  502  503  0.00000000000E+00  0.00000000000E+00  0.20189191310E+03  0.20189191310E+03  0.00000000000E+00 0. -1.
         21   -1    0    0  503  504 -0.00000000000E+00 -0.00000000000E+00 -0.22272337521E+03  0.22272337521E+03  0.00000000000E+00 0. -1.
         -6    2    1    2    0  504 -0.35815674718E+02 -0.44092409716E+02  0.96879215670E+02  0.20574223414E+03  0.17238730037E+03 0.  0.
        -24    2    3    3    0    0 -0.87240876272E+02 -0.51400623699E+01  0.52893888017E+02  0.12752052508E+03  0.76330401503E+02 0.  0.
          6    2    1    2  502    0  0.35815674718E+02  0.44092409716E+02 -0.11771067778E+03  0.21887305417E+03  0.17556396848E+03 0.  0.
         24    2    5    5    0    0  0.56288031284E+02 -0.81993943096E+00 -0.66663431939E+01  0.97262319725E+02  0.79034827387E+02 0.  0.
          2    1    6    6  501    0  0.59899706710E+02 -0.19036477909E+02  0.18928052697E+02  0.65640182312E+02  0.00000000000E+00 0. -1.
         -1    1    6    6    0  501 -0.36116754258E+01  0.18216538478E+02 -0.25594395891E+02  0.31622137412E+02  0.00000000000E+00 0.  1.
          5    1    5    5  502    0 -0.20472356566E+02  0.44912349147E+02 -0.11104433458E+03  0.12161073444E+03  0.47000000000E+01 0. -1.
         11    1    4    4    0    0 -0.70481049766E+02 -0.31358358884E+02  0.57297192717E+02  0.96093149294E+02  0.00000000000E+00 0. -1.
        -12    1    4    4    0    0 -0.16759826506E+02  0.26218296514E+02 -0.44033046991E+01  0.31427375788E+02  0.00000000000E+00 0.  1.
         -5    1    3    3    0  504  0.51425201554E+02 -0.38952347346E+02  0.43985327652E+02  0.78221709054E+02  0.47000000000E+01 0.  1.
<mgrwt>
<rscale>  2 0.18376575E+03</rscale>
<asrwt>0</asrwt>
<pdfrwt beam="1">  1       21 0.31060294E-01 0.18452536E+03</pdfrwt>
<pdfrwt beam="2">  1       21 0.34265135E-01 0.18452536E+03</pdfrwt>
<totfact> 0.81991004E+04</totfact>
</mgrwt>
</event>
<event>
12    1  0.2743855E-001  0.1767493E+03  0.7546771E-02  0.1171159E+00
         21   -1    0    0  502  503  0.00000000000E+00  0.00000000000E+00  0.10382683437E+04  0.10382683437E+04  0.00000000000E+00 0. -1.
         21   -1    0    0  503  504 -0.00000000000E+00 -0.00000000000E+00 -0.44411685838E+02  0.44411685838E+02  0.00000000000E+00 0. -1.
         -6    2    1    2    0  504  0.30637795106E+02  0.17070433816E+02  0.18890138814E+03  0.25869684122E+03  0.17323465881E+03 0.  0.
        -24    2    3    3    0    0  0.84268339167E+02  0.34046008311E+02  0.12076380143E+03  0.17021392700E+03  0.78285385225E+02 0.  0.
          6    2    1    2  502    0 -0.30637795106E+02 -0.17070433816E+02  0.80495526971E+03  0.82398318832E+03  0.17252603916E+03 0.  0.
         24    2    5    5    0    0 -0.28853333951E+02  0.53097437228E+02  0.56479606119E+03  0.57373281395E+03  0.80764462196E+02 0.  0.
          4    1    6    6  501    0 -0.24222952437E+02 -0.12960158301E+02  0.27976539231E+03  0.28111099563E+03  0.00000000000E+00 0. -1.
         -3    1    6    6    0  501 -0.46303815133E+01  0.66057595529E+02  0.28503066888E+03  0.29262181833E+03  0.00000000000E+00 0.  1.
          5    1    5    5  502    0 -0.17844611548E+01 -0.70167871044E+02  0.24015920853E+03  0.25025037436E+03  0.47000000000E+01 0. -1.
         13    1    4    4    0    0  0.30635797534E+02  0.46397722369E+02  0.93530086526E+02  0.10880798600E+03  0.00000000000E+00 0. -1.
        -14    1    4    4    0    0  0.53632541633E+02 -0.12351714059E+02  0.27233714903E+02  0.61405940996E+02  0.00000000000E+00 0.  1.
         -5    1    3    3    0  504 -0.53630544062E+02 -0.16975574495E+02  0.68137586716E+02  0.88482914222E+02  0.47000000000E+01 0.  1.
<mgrwt>
<rscale>  2 0.17657544E+03</rscale>
<asrwt>0</asrwt>
<pdfrwt beam="1">  1       21 0.15973357E+00 0.17674932E+03</pdfrwt>
<pdfrwt beam="2">  1       21 0.68325678E-02 0.17674932E+03</pdfrwt>
<totfact> 0.40264734E+04</totfact>
</mgrwt>
</event>
<event>
12    1  0.2743855E-001  0.1985593E+03  0.7546771E-02  0.1151359E+00
         21   -1    0    0  502  503  0.00000000000E+00  0.00000000000E+00  0.12267170205E+03  0.12267170205E+03  0.00000000000E+00 0. -1.
         21   -1    0    0  503  504 -0.00000000000E+00 -0.00000000000E+00 -0.56873219293E+03  0.56873219293E+03  0.00000000000E+00 0. -1.
         -6    2    1    2    0  504  0.10083889470E+03 -0.22303573590E+01 -0.45297886846E+03  0.49458633292E+03  0.17103312036E+03 0.  0.
        -24    2    3    3    0    0  0.94821895927E+02  0.81802773789E+01 -0.17081114756E+03  0.21212341800E+03  0.82230088444E+02 0.  0.
          6    2    1    2  502    0 -0.10083889470E+03  0.22303573590E+01  0.69183775807E+01  0.19681756205E+03  0.16886631282E+03 0.  0.
         24    2    5    5    0    0 -0.12454193744E+03 -0.35570790674E+02 -0.24716315391E+02  0.14192125228E+03  0.52485905462E+02 0.  0.
          2    1    6    6  501    0 -0.10692417567E+03 -0.82632345270E+01 -0.18183599592E+02  0.10877363505E+03  0.00000000000E+00 0. -1.
         -1    1    6    6    0  501 -0.17617761769E+02 -0.27307556147E+02 -0.65327157992E+01  0.33147617232E+02  0.00000000000E+00 0.  1.
          5    1    5    5  502    0  0.23703042733E+02  0.37801148033E+02  0.31634692972E+02  0.54896309774E+02  0.47000000000E+01 0. -1.
         13    1    4    4    0    0  0.48740177728E+02 -0.95100410427E+01 -0.15096430181E+03  0.15892220180E+03  0.00000000000E+00 0. -1.
        -14    1    4    4    0    0  0.46081718199E+02  0.17690318422E+02 -0.19846845756E+02  0.53201216194E+02  0.00000000000E+00 0.  1.
         -5    1    3    3    0  504  0.60169987749E+01 -0.10410634738E+02 -0.28216772090E+03  0.28246291492E+03  0.47000000000E+01 0.  1.
<mgrwt>
<rscale>  2 0.19809179E+03</rscale>
<asrwt>0</asrwt>
<pdfrwt beam="1">  1       21 0.18872569E-01 0.19855927E+03</pdfrwt>
<pdfrwt beam="2">  1       21 0.87497261E-01 0.19855927E+03</pdfrwt>
<totfact> 0.28738932E+04</totfact>
</mgrwt>
</event>
<event>
12    1  0.2743855E-001  0.2747624E+03  0.7546771E-02  0.1098680E+00
         21   -1    0    0  502  503  0.00000000000E+00  0.00000000000E+00  0.11115780754E+03  0.11115780754E+03  0.00000000000E+00 0. -1.
         21   -1    0    0  503  504 -0.00000000000E+00 -0.00000000000E+00 -0.88228362385E+03  0.88228362385E+03  0.00000000000E+00 0. -1.
         -6    2    1    2    0  504 -0.20140108435E+03  0.68023313212E+02 -0.62524891882E+03  0.68295724250E+03  0.17408278687E+03 0.  0.
        -24    2    3    3    0    0 -0.82038834531E+02 -0.10385325192E+02 -0.40510719676E+03  0.42050776346E+03  0.76659721578E+02 0.  0.
          6    2    1    2  502    0  0.20140108435E+03 -0.68023313212E+02 -0.14587689749E+03  0.31048418889E+03  0.17300518608E+03 0.  0.
         24    2    5    5    0    0  0.95701069035E+02 -0.71067481965E+00 -0.13673956844E+03  0.18475008330E+03  0.79219215028E+02 0.  0.
          4    1    6    6  501    0  0.49006743457E+02 -0.37375691338E+02 -0.90523603659E+02  0.10951313175E+03  0.00000000000E+00 0. -1.
         -3    1    6    6    0  501  0.46694325577E+02  0.36665016518E+02 -0.46215964780E+02  0.75236951546E+02  0.00000000000E+00 0.  1.
          5    1    5    5  502    0  0.10570001532E+03 -0.67312638393E+02 -0.91373290492E+01  0.12573410559E+03  0.47000000000E+01 0. -1.
         11    1    4    4    0    0 -0.35867456775E+02  0.33486477023E+02 -0.17600639432E+03  0.18271855253E+03  0.00000000000E+00 0. -1.
        -12    1    4    4    0    0 -0.46171377756E+02 -0.43871802215E+02 -0.22910080245E+03  0.23778921093E+03  0.00000000000E+00 0.  1.
         -5    1    3    3    0  504 -0.11936224982E+03  0.78408638404E+02 -0.22014172206E+03  0.26244947904E+03  0.47000000000E+01 0.  1.
<mgrwt>
<rscale>  2 0.27459189E+03</rscale>
<asrwt>0</asrwt>
<pdfrwt beam="1">  1       21 0.17101201E-01 0.27476241E+03</pdfrwt>
<pdfrwt beam="2">  1       21 0.13573594E+00 0.27476241E+03</pdfrwt>
<totfact> 0.11361113E+04</totfact>
</mgrwt>
</event>
<event>
12    1  0.2743855E-001  0.2397924E+03  0.7546771E-02  0.1120822E+00
         21   -1    0    0  502  503  0.00000000000E+00  0.00000000000E+00  0.17858766325E+04  0.17858766325E+04  0.00000000000E+00 0. -1.
         21   -1    0    0  503  504 -0.00000000000E+00 -0.00000000000E+00 -0.45771776353E+02  0.45771776353E+02  0.00000000000E+00 0. -1.
         -6    2    1    2    0  504 -0.13165023721E+03  0.10032510662E+03  0.35187639616E+03  0.42286217303E+03  0.16612798447E+03 0.  0.
        -24    2    3    3    0    0 -0.30470054228E+02  0.71630845068E+02  0.25638628503E+03  0.28073110184E+03  0.83765280493E+02 0.  0.
          6    2    1    2  502    0  0.13165023721E+03 -0.10032510662E+03  0.13882284600E+04  0.14087862359E+04  0.17350357106E+03 0.  0.
         24    2    5    5    0    0  0.53136486478E+02  0.14952101740E+02  0.73440082591E+03  0.74023114543E+03  0.74501839056E+02 0.  0.
          4    1    6    6  501    0  0.69464812234E+02  0.51692773515E+01  0.46851467548E+03  0.47366452549E+03  0.00000000000E+00 0. -1.
         -3    1    6    6    0  501 -0.16328325755E+02  0.97828243884E+01  0.26588615043E+03  0.26656661994E+03  0.00000000000E+00 0.  1.
          5    1    5    5  502    0  0.78513750729E+02 -0.11527720836E+03  0.65382763410E+03  0.66855509042E+03  0.47000000000E+01 0. -1.
         11    1    4    4    0    0 -0.37157390572E+02  0.17460826116E+02  0.39103350481E+02  0.56697655522E+02  0.00000000000E+00 0. -1.
        -12    1    4    4    0    0  0.66873363447E+01  0.54170018952E+02  0.21728293455E+03  0.22403344632E+03  0.00000000000E+00 0.  1.
         -5    1    3    3    0  504 -0.10118018298E+03  0.28694261548E+02  0.95490111129E+02  0.14213107119E+03  0.47000000000E+01 0.  1.
<mgrwt>
<rscale>  2 0.23846102E+03</rscale>
<asrwt>0</asrwt>
<pdfrwt beam="1">  1       21 0.27475020E+00 0.23979241E+03</pdfrwt>
<pdfrwt beam="2">  1       21 0.70418131E-02 0.23979241E+03</pdfrwt>
<totfact> 0.68266174E+03</totfact>
</mgrwt>
</event>
<event>
12    1  0.2743855E-001  0.1878780E+03  0.7546771E-02  0.1160503E+00
         21   -1    0    0  502  503  0.00000000000E+00  0.00000000000E+00  0.42862963004E+02  0.42862963004E+02  0.00000000000E+00 0. -1.
         21   -1    0    0  503  504 -0.00000000000E+00 -0.00000000000E+00 -0.93670781015E+03  0.93670781015E+03  0.00000000000E+00 0. -1.
         -6    2    1    2    0  504  0.71877774833E+02  0.10342100759E+02 -0.27451285387E+03  0.33236889227E+03  0.17273795196E+03 0.  0.
        -24    2    3    3    0    0  0.10772508717E+03  0.40559929154E+02 -0.20685023324E+03  0.24991607434E+03  0.80132533724E+02 0.  0.
          6    2    1    2  502    0 -0.71877774833E+02 -0.10342100759E+02 -0.61933199328E+03  0.64720188088E+03  0.17327660880E+03 0.  0.
         24    2    5    5    0    0 -0.58327444363E+02 -0.34826164843E+02 -0.18388045034E+03  0.21082679326E+03  0.77594872359E+02 0.  0.
          2    1    6    6  501    0 -0.17390529406E+02 -0.51044909721E+02 -0.13312873807E+03  0.14363590854E+03  0.00000000000E+00 0. -1.
         -1    1    6    6    0  501 -0.40936914957E+02  0.16218744879E+02 -0.50751712271E+02  0.67190884725E+02  0.00000000000E+00 0.  1.
          5    1    5    5  502    0 -0.13550330470E+02  0.24484064083E+02 -0.43545154294E+03  0.43637508762E+03  0.47000000000E+01 0. -1.
         13    1    4    4    0    0  0.20789114598E+02  0.18732963207E+02 -0.12644008354E+03  0.12949982982E+03  0.00000000000E+00 0. -1.
        -14    1    4    4    0    0  0.86935972574E+02  0.21826965947E+02 -0.80410149699E+02  0.12041624452E+03  0.00000000000E+00 0.  1.
         -5    1    3    3    0  504 -0.35847312340E+02 -0.30217828395E+02 -0.67662620624E+02  0.82452817930E+02  0.47000000000E+01 0.  1.
<mgrwt>
<rscale>  2 0.18775374E+03</rscale>
<asrwt>0</asrwt>
<pdfrwt beam="1">  1       21 0.65943019E-02 0.18787804E+03</pdfrwt>
<pdfrwt beam="2">  1       21 0.14410890E+00 0.18787804E+03</pdfrwt>
<totfact> 0.55801081E+04</totfact>
</mgrwt>
</event>
<event>
12    1  0.2743855E-001  0.1866942E+03  0.7546771E-02  0.1164392E+00
         21   -1    0    0  502  503  0.00000000000E+00  0.00000000000E+00  0.32280235702E+03  0.32280235702E+03  0.00000000000E+00 0.  1.
         21   -1    0    0  503  504 -0.00000000000E+00 -0.00000000000E+00 -0.11906796435E+03  0.11906796435E+03  0.00000000000E+00 0.  1.
         -6    2    1    2    0  504  0.34256227688E+02 -0.39761049489E+02  0.18487119976E+03  0.25422556721E+03  0.16642970989E+03 0.  0.
        -24    2    3    3    0    0  0.21150071397E+02  0.20353582002E+02  0.36914718768E+02  0.93917268869E+02  0.81216766186E+02 0.  0.
          6    2    1    2  502    0 -0.34256227688E+02  0.39761049489E+02  0.18863192916E+02  0.18764475415E+03  0.17916557572E+03 0.  0.
         24    2    5    5    0    0  0.57722029833E+00 -0.47286581928E+02  0.64989760305E+01  0.92957779898E+02  0.79765645114E+02 0.  0.
          2    1    6    6  501    0  0.29197875492E+02 -0.18492206633E+02  0.30243314604E+02  0.45925327627E+02  0.00000000000E+00 0. -1.
         -1    1    6    6    0  501 -0.28620655194E+02 -0.28794375295E+02 -0.23744338573E+02  0.47032452271E+02  0.00000000000E+00 0.  1.
          5    1    5    5  502    0 -0.34833447986E+02  0.87047631418E+02  0.12364216885E+02  0.94686974253E+02  0.47000000000E+01 0. -1.
         11    1    4    4    0    0  0.33649974811E+02  0.22666368124E+02 -0.12847100569E+02  0.42557408776E+02  0.00000000000E+00 0. -1.
        -12    1    4    4    0    0 -0.12499903414E+02 -0.23127861222E+01  0.49761819338E+02  0.51359860093E+02  0.00000000000E+00 0.  1.
         -5    1    3    3    0  504  0.13106156291E+02 -0.60114631491E+02  0.14795648099E+03  0.16030829835E+03  0.47000000000E+01 0.  1.
<mgrwt>
<rscale>  2 0.18357030E+03</rscale>
<asrwt>0</asrwt>
<pdfrwt beam="1">  1       21 0.49661901E-01 0.18669423E+03</pdfrwt>
<pdfrwt beam="2">  1       21 0.18318148E-01 0.18669423E+03</pdfrwt>
<totfact> 0.10527515E+05</totfact>
</mgrwt>
</event>
<event>
12    1  0.2743855E-001  0.2522279E+03  0.7546771E-02  0.1112000E+00
         21   -1    0    0  502  503  0.00000000000E+00  0.00000000000E+00  0.16164267231E+03  0.16164267231E+03  0.00000000000E+00 0. -1.
         21   -1    0    0  503  504 -0.00000000000E+00 -0.00000000000E+00 -0.50664285106E+03  0.50664285106E+03  0.00000000000E+00 0.  1.
         -6    2    1    2    0  504 -0.18149469474E+03  0.22223585785E+02 -0.14150558128E+02  0.25262450265E+03  0.17373741410E+03 0.  0.
        -24    2    3    3    0    0 -0.12092112241E+03  0.74354165236E+02 -0.39488745922E+02  0.16865505142E+03  0.82065251976E+02 0.  0.
          6    2    1    2  502    0  0.18149469474E+03 -0.22223585785E+02 -0.33084962062E+03  0.41566102073E+03  0.17285369740E+03 0.  0.
         24    2    5    5    0    0  0.11488170575E+03 -0.76967563515E+02 -0.16734640709E+03  0.23075676379E+03  0.78243542351E+02 0.  0.
          2    1    6    6  501    0  0.10505383851E+03 -0.75944581671E+02 -0.10276079112E+03  0.16541967435E+03  0.00000000000E+00 0. -1.
         -1    1    6    6    0  501  0.98278672419E+01 -0.10229818438E+01 -0.64585615970E+02  0.65337089441E+02  0.00000000000E+00 0.  1.
          5    1    5    5  502    0  0.66612988992E+02  0.54743977730E+02 -0.16350321352E+03  0.18490425694E+03  0.47000000000E+01 0. -1.
         13    1    4    4    0    0 -0.70382457473E+02  0.65779607562E+01  0.88920683367E+01  0.71246254406E+02  0.00000000000E+00 0. -1.
        -14    1    4    4    0    0 -0.50538664942E+02  0.67776204480E+02 -0.48380814259E+02  0.97408797016E+02  0.00000000000E+00 0.  1.
         -5    1    3    3    0  504 -0.60573572325E+02 -0.52130579451E+02  0.25338187794E+02  0.83969451223E+02  0.47000000000E+01 0.  1.
<mgrwt>
<rscale>  2 0.25207576E+03</rscale>
<asrwt>0</asrwt>
<pdfrwt beam="1">  1       21 0.24868104E-01 0.25222788E+03</pdfrwt>
<pdfrwt beam="2">  1       21 0.77945053E-01 0.25222788E+03</pdfrwt>
<totfact> 0.21607575E+04</totfact>
</mgrwt>
</event>
<event>
12    1  0.2743855E-001  0.1851646E+03  0.7546771E-02  0.1163208E+00
         21   -1    0    0  502  503  0.00000000000E+00  0.00000000000E+00  0.97106003636E+02  0.97106003636E+02  0.00000000000E+00 0.  1.
         21   -1    0    0  503  504 -0.00000000000E+00 -0.00000000000E+00 -0.37268158961E+03  0.37268158961E+03  0.00000000000E+00 0.  1.
         -6    2    1    2    0  504  0.57954007227E+02 -0.29951600969E+02 -0.19457384304E+03  0.26768064276E+03  0.17186675292E+03 0.  0.
        -24    2    3    3    0    0  0.25240693297E+02 -0.99491006557E+01 -0.20953946489E+03  0.22625214092E+03  0.80914564346E+02 0.  0.
          6    2    1    2  502    0 -0.57954007227E+02  0.29951600969E+02 -0.81001742940E+02  0.20210695049E+03  0.17329215713E+03 0.  0.
         24    2    5    5    0    0 -0.14708844988E+01 -0.32159140435E+02  0.13347148205E+02  0.75727005045E+02  0.67231384882E+02 0.  0.
          4    1    6    6  501    0  0.13108076067E+00 -0.52561706085E+02  0.16341899963E+02  0.55043690130E+02  0.00000000000E+00 0. -1.
         -3    1    6    6    0  501 -0.16019652595E+01  0.20402565650E+02 -0.29947517577E+01  0.20683314915E+02  0.00000000000E+00 0.  1.
          5    1    5    5  502    0 -0.56483122728E+02  0.62110741404E+02 -0.94348891145E+02  0.12637994545E+03  0.47000000000E+01 0. -1.
         13    1    4    4    0    0  0.39812816455E+02  0.17456595340E+02 -0.17266390421E+03  0.17805228696E+03  0.00000000000E+00 0. -1.
        -14    1    4    4    0    0 -0.14572123158E+02 -0.27405695996E+02 -0.36875560679E+02  0.48199853960E+02  0.00000000000E+00 0.  1.
         -5    1    3    3    0  504  0.32713313930E+02 -0.20002500313E+02  0.14965621851E+02  0.41428501837E+02  0.47000000000E+01 0.  1.
<mgrwt>
<rscale>  2 0.18483039E+03</rscale>
<asrwt>0</asrwt>
<pdfrwt beam="1">  1       21 0.14939385E-01 0.18516462E+03</pdfrwt>
<pdfrwt beam="2">  1       21 0.57335630E-01 0.18516462E+03</pdfrwt>
<totfact> 0.11315814E+05</totfact>
</mgrwt>
</event>
<event>
12    1  0.2743855E-001  0.2153221E+03  0.7546771E-02  0.1137933E+00
         21   -1    0    0  502  503  0.00000000000E+00  0.00000000000E+00  0.83288918815E+02  0.83288918815E+02  0.00000000000E+00 0. -1.
         21   -1    0    0  503  504 -0.00000000000E+00 -0.00000000000E+00 -0.15580469779E+04  0.15580469779E+04  0.00000000000E+00 0. -1.
         -6    2    1    2    0  504  0.21776800503E+02 -0.12325971009E+03 -0.13991682296E+04  0.14156395547E+04  0.17520396394E+03 0.  0.
        -24    2    3    3    0    0  0.39406002848E+02 -0.76194904570E+02 -0.45088405285E+03  0.46601286250E+03  0.80703546131E+02 0.  0.
          6    2    1    2  502    0 -0.21776800503E+02  0.12325971009E+03 -0.75589829515E+02  0.22569634203E+03  0.17192391139E+03 0.  0.
         24    2    5    5    0    0  0.68499720415E+01  0.83709665363E+02  0.19095428009E+02  0.11906104704E+03  0.82198949869E+02 0.  0.
          2    1    6    6  501    0  0.14127552050E+02  0.59029681145E+02  0.50148090089E+02  0.78733232644E+02  0.00000000000E+00 0. -1.
         -1    1    6    6    0  501 -0.72775800080E+01  0.24679984218E+02 -0.31052662080E+02  0.40327814397E+02  0.00000000000E+00 0.  1.
          5    1    5    5  502    0 -0.28626772544E+02  0.39550044732E+02 -0.94685257524E+02  0.10663529499E+03  0.47000000000E+01 0. -1.
         11    1    4    4    0    0  0.12243522718E+02  0.96608579538E+01 -0.17741323369E+03  0.17809742141E+03  0.00000000000E+00 0. -1.
        -12    1    4    4    0    0  0.27162480131E+02 -0.85855762524E+02 -0.27347081916E+03  0.28791544109E+03  0.00000000000E+00 0.  1.
         -5    1    3    3    0  504 -0.17629202346E+02 -0.47064805524E+02 -0.94828417671E+03  0.94962669217E+03  0.47000000000E+01 0.  1.
<mgrwt>
<rscale>  2 0.21465392E+03</rscale>
<asrwt>0</asrwt>
<pdfrwt beam="1">  1       21 0.12813680E-01 0.21532212E+03</pdfrwt>
<pdfrwt beam="2">  1       21 0.23969953E+00 0.21532212E+03</pdfrwt>
<totfact> 0.39013246E+03</totfact>
</mgrwt>
</event>
<event>
12    1  0.2743855E-001  0.2101431E+03  0.7546771E-02  0.1142588E+00
         21   -1    0    0  502  503  0.00000000000E+00  0.00000000000E+00  0.14186935715E+03  0.14186935715E+03  0.00000000000E+00 0.  1.
         21   -1    0    0  503  504 -0.00000000000E+00 -0.00000000000E+00 -0.11023850163E+04  0.11023850163E+04  0.00000000000E+00 0. -1.
         -6    2    1    2    0  504  0.11688395665E+03 -0.15199863592E+02 -0.10082340912E+04  0.10287615648E+04  0.16709721533E+03 0.  0.
        -24    2    3    3    0    0 -0.64016424165E+01 -0.20435163512E+01 -0.42317117669E+03  0.43068704407E+03  0.79826863662E+02 0.  0.
          6    2    1    2  502    0 -0.11688395665E+03  0.15199863592E+02  0.47718432053E+02  0.21549280866E+03  0.17397472992E+03 0.  0.
         24    2    5    5    0    0 -0.50020086991E+01 -0.20573755101E+02 -0.14429603846E+02  0.82519915037E+02  0.78441209963E+02 0.  0.
          4    1    6    6  501    0  0.31450079094E+02  0.69538523620E+01 -0.17649102402E+02  0.36728113936E+02  0.00000000000E+00 0. -1.
         -3    1    6    6    0  501 -0.36452087793E+02 -0.27527607463E+02  0.32194985555E+01  0.45791801101E+02  0.00000000000E+00 0.  1.
          5    1    5    5  502    0 -0.11188194795E+03  0.35773618694E+02  0.62148035900E+02  0.13297289362E+03  0.47000000000E+01 0. -1.
         11    1    4    4    0    0  0.36709131981E+02 -0.40784817401E+01 -0.19936394664E+03  0.20275644898E+03  0.00000000000E+00 0. -1.
        -12    1    4    4    0    0 -0.43110774398E+02  0.20349653889E+01 -0.22380723005E+03  0.22793059509E+03  0.00000000000E+00 0.  1.
         -5    1    3    3    0  504  0.12328559907E+03 -0.13156347241E+02 -0.58506291451E+03  0.59807452073E+03  0.47000000000E+01 0.  1.
<mgrwt>
<rscale>  2 0.20871419E+03</rscale>
<asrwt>0</asrwt>
<pdfrwt beam="1">  1       21 0.21826055E-01 0.21014305E+03</pdfrwt>
<pdfrwt beam="2">  1       21 0.16959769E+00 0.21014305E+03</pdfrwt>
<totfact> 0.41442891E+03</totfact>
</mgrwt>
</event>
<event>
12    1  0.2743855E-001  0.2843348E+03  0.7546771E-02  0.1093382E+00
         21   -1    0    0  502  503  0.00000000000E+00  0.00000000000E+00  0.32872031867E+03  0.32872031867E+03  0.00000000000E+00 0.  1.
         21   -1    0    0  503  504 -0.00000000000E+00 -0.00000000000E+00 -0.88854352964E+03  0.88854352964E+03  0.00000000000E+00 0. -1.
         -6    2    1    2    0  504  0.19676082889E+03  0.10977884312E+03 -0.79756049425E+03  0.84663560473E+03  0.17298233153E+03 0.  0.
        -24    2    3    3    0    0  0.10418217514E+03  0.32572484453E+02 -0.60333365637E+03  0.61799225035E+03  0.77382350836E+02 0.  0.
          6    2    1    2  502    0 -0.19676082889E+03 -0.10977884312E+03  0.23773728329E+03  0.37062824358E+03  0.17343604265E+03 0.  0.
         24    2    5    5    0    0 -0.85939848401E+02 -0.60038301891E+02  0.20612654303E+03  0.24502274984E+03  0.80979879966E+02 0.  0.
          2    1    6    6  501    0 -0.55381253331E+02 -0.70912107802E+02  0.10225447866E+03  0.13620421674E+03  0.00000000000E+00 0. -1.
         -1    1    6    6    0  501 -0.30558595070E+02  0.10873805911E+02  0.10387206437E+03  0.10881853309E+03  0.00000000000E+00 0.  1.
          5    1    5    5  502    0 -0.11082098049E+03 -0.49740541234E+02  0.31610740258E+02  0.12560549374E+03  0.47000000000E+01 0. -1.
         13    1    4    4    0    0 -0.71587215598E+01  0.10043754655E+02 -0.15503823971E+03  0.15552806845E+03  0.00000000000E+00 0. -1.
        -14    1    4    4    0    0  0.11134089670E+03  0.22528729798E+02 -0.44829541665E+03  0.46246418190E+03  0.00000000000E+00 0.  1.
         -5    1    3    3    0  504  0.92578653747E+02  0.77206358672E+02 -0.19422683789E+03  0.22864335438E+03  0.47000000000E+01 0.  1.
<mgrwt>
<rscale>  2 0.28426564E+03</rscale>
<asrwt>0</asrwt>
<pdfrwt beam="1">  1       21 0.50572357E-01 0.28433480E+03</pdfrwt>
<pdfrwt beam="2">  1       21 0.13669900E+00 0.28433480E+03</pdfrwt>
<totfact> 0.13125219E+03</totfact>
</mgrwt>
</event>
<event>
12    1  0.2743855E-001  0.1733759E+03  0.7546771E-02  0.1174637E+00
         21   -1    0    0  502  503  0.00000000000E+00  0.00000000000E+00  0.84743175077E+02  0.84743175077E+02  0.00000000000E+00 0.  1.
         21   -1    0    0  503  504 -0.00000000000E+00 -0.00000000000E+00 -0.36608040356E+03  0.36608040356E+03  0.00000000000E+00 0.  1.
         -6    2    1    2    0  504 -0.10483282449E+02  0.20405238026E+01 -0.18435039755E+03  0.25306971762E+03  0.17304666987E+03 0.  0.
        -24    2    3    3    0    0  0.47707264810E+02  0.24928318352E+02 -0.60262827920E+02  0.11403804545E+03  0.80471505577E+02 0.  0.
          6    2    1    2  502    0  0.10483282449E+02 -0.20405238026E+01 -0.96986830931E+02  0.19775386102E+03  0.17200604996E+03 0.  0.
         24    2    5    5    0    0 -0.59728156395E+02 -0.10648348874E+02 -0.67475638833E+02  0.12096361908E+03  0.79989970030E+02 0.  0.
          2    1    6    6  501    0 -0.66456253327E+02 -0.34990806557E+02 -0.51871224686E+02  0.91276580240E+02  0.00000000000E+00 0. -1.
         -1    1    6    6    0  501  0.67280969321E+01  0.24342457683E+02 -0.15604414146E+02  0.29687038842E+02  0.00000000000E+00 0.  1.
          5    1    5    5  502    0  0.70211438844E+02  0.86078250715E+01 -0.29511192099E+02  0.76790241933E+02  0.47000000000E+01 0. -1.
         13    1    4    4    0    0  0.12739611773E+02  0.49589746502E+02 -0.19050053298E+02  0.54629160683E+02  0.00000000000E+00 0. -1.
        -14    1    4    4    0    0  0.34967653037E+02 -0.24661428150E+02 -0.41212774623E+02  0.59408884768E+02  0.00000000000E+00 0.  1.
         -5    1    3    3    0  504 -0.58190547260E+02 -0.22887794549E+02 -0.12408756963E+03  0.13903167217E+03  0.47000000000E+01 0.  1.
<mgrwt>
<rscale>  2 0.17311569E+03</rscale>
<asrwt>0</asrwt>
<pdfrwt beam="1">  1       21 0.13037412E-01 0.17337593E+03</pdfrwt>
<pdfrwt beam="2">  1       21 0.56320062E-01 0.17337593E+03</pdfrwt>
<totfact> 0.15096116E+05</totfact>
</mgrwt>
</event>
<event>
12    1  0.2743855E-001  0.2021904E+03  0.7546771E-02  0.1148157E+00
         21   -1    0    0  502  503  0.00000000000E+00  0.00000000000E+00  0.17375149461E+03  0.17375149461E+03  0.00000000000E+00 0.  1.
         21   -1    0    0  503  504 -0.00000000000E+00 -0.00000000000E+00 -0.24375823567E+03  0.24375823567E+03  0.00000000000E+00 0.  1.
         -6    2    1    2    0  504 -0.46717228940E+02  0.92018122332E+02 -0.77140669612E+02  0.21640615613E+03  0.17387094980E+03 0.  0.
        -24    2    3    3    0    0 -0.88045229703E+02  0.23780437551E+02 -0.39834895269E+02  0.12821207429E+03  0.80833442523E+02 0.  0.
          6    2    1    2  502    0  0.46717228940E+02 -0.92018122332E+02  0.71339285446E+01  0.20110357415E+03  0.17245845959E+03 0.  0.
         24    2    5    5    0    0  0.80966712235E+02 -0.11241160061E+03  0.11525285092E+01  0.16052293581E+03  0.81082107503E+02 0.  0.
          4    1    6    6  501    0  0.33872759146E+02  0.43716933197E+01  0.51410316169E+01  0.34538467261E+02  0.00000000000E+00 0. -1.
         -3    1    6    6    0  501  0.47093953089E+02 -0.11678329393E+03 -0.39885031077E+01  0.12598446855E+03  0.00000000000E+00 0.  1.
          5    1    5    5  502    0 -0.34249483295E+02  0.20393478276E+02  0.59814000354E+01  0.40580638345E+02  0.47000000000E+01 0. -1.
         13    1    4    4    0    0 -0.47423855787E+02 -0.26404969753E+02 -0.41405190935E+01  0.54437013361E+02  0.00000000000E+00 0. -1.
        -14    1    4    4    0    0 -0.40621373916E+02  0.50185407304E+02 -0.35694376176E+02  0.73775060933E+02  0.00000000000E+00 0.  1.
         -5    1    3    3    0  504  0.41328000763E+02  0.68237684781E+02 -0.37305774343E+02  0.88194081835E+02  0.47000000000E+01 0.  1.
<mgrwt>
<rscale>  2 0.20188633E+03</rscale>
<asrwt>0</asrwt>
<pdfrwt beam="1">  1       21 0.26730999E-01 0.20219036E+03</pdfrwt>
<pdfrwt beam="2">  1       21 0.37501267E-01 0.20219036E+03</pdfrwt>
<totfact> 0.91008684E+04</totfact>
</mgrwt>
</event>
<event>
12    1  0.2743855E-001  0.1964410E+03  0.7546771E-02  0.1152796E+00
         21   -1    0    0  502  503  0.00000000000E+00  0.00000000000E+00  0.19150443895E+03  0.19150443895E+03  0.00000000000E+00 0.  1.
         21   -1    0    0  503  504 -0.00000000000E+00 -0.00000000000E+00 -0.52025919814E+03  0.52025919814E+03  0.00000000000E+00 0.  1.
         -6    2    1    2    0  504 -0.92917056910E+02 -0.67204627465E+01 -0.44296621216E+03  0.48453400312E+03  0.17284499121E+03 0.  0.
        -24    2    3    3    0    0  0.13507998337E+02  0.77510182588E+01 -0.24980632803E+03  0.26347168842E+03  0.82289639513E+02 0.  0.
          6    2    1    2  502    0  0.92917056910E+02  0.67204627465E+01  0.11421145296E+03  0.22722963397E+03  0.17294596405E+03 0.  0.
         24    2    5    5    0    0  0.13369191112E+03  0.83103768929E+00  0.93851301055E+02  0.18103548013E+03  0.78048450546E+02 0.  0.
          2    1    6    6  501    0  0.75356650170E+02 -0.38288723604E+02  0.53426931566E+02  0.99995440379E+02  0.00000000000E+00 0. -1.
         -1    1    6    6    0  501  0.58335260952E+02  0.39119761293E+02  0.40424369489E+02  0.81040039750E+02  0.00000000000E+00 0.  1.
          5    1    5    5  502    0 -0.40774854212E+02  0.58894250572E+01  0.20360151907E+02  0.46194153842E+02  0.47000000000E+01 0. -1.
         13    1    4    4    0    0  0.17321405123E+02 -0.15896616199E+01 -0.45118777662E+01  0.17969839745E+02  0.00000000000E+00 0. -1.
        -14    1    4    4    0    0 -0.38134067858E+01  0.93406798787E+01 -0.24529445026E+03  0.24550184867E+03  0.00000000000E+00 0.  1.
         -5    1    3    3    0  504 -0.10642505525E+03 -0.14471481005E+02 -0.19315988413E+03  0.22106231471E+03  0.47000000000E+01 0.  1.
<mgrwt>
<rscale>  2 0.19641873E+03</rscale>
<asrwt>0</asrwt>
<pdfrwt beam="1">  1       21 0.29462221E-01 0.19644096E+03</pdfrwt>
<pdfrwt beam="2">  1       21 0.80039876E-01 0.19644096E+03</pdfrwt>
<totfact> 0.15127618E+04</totfact>
</mgrwt>
</event>
<event>
12    1  0.2743855E-001  0.2104107E+03  0.7546771E-02  0.1141659E+00
         21   -1    0    0  502  503  0.00000000000E+00  0.00000000000E+00  0.10244452471E+03  0.10244452471E+03  0.00000000000E+00 0.  1.
         21   -1    0    0  503  504 -0.00000000000E+00 -0.00000000000E+00 -0.82409471424E+03  0.82409471424E+03  0.00000000000E+00 0.  1.
         -6    2    1    2    0  504 -0.11340208322E+03  0.21811289768E+02 -0.68300552886E+03  0.71468120355E+03  0.17588890079E+03 0.  0.
        -24    2    3    3    0    0 -0.70478056944E+02  0.38480187799E+02 -0.20321665372E+03  0.23266483568E+03  0.79925190321E+02 0.  0.
          6    2    1    2  502    0  0.11340208322E+03 -0.21811289768E+02 -0.38644660678E+02  0.21185803540E+03  0.17336277721E+03 0.  0.
         24    2    5    5    0    0  0.57259928958E+02  0.44630799521E+02  0.15083209160E+02  0.10950928498E+03  0.80586429183E+02 0.  0.
          2    1    6    6  501    0  0.16854313339E+02  0.58121319602E+02 -0.80273516292E+01  0.61045835604E+02  0.00000000000E+00 0. -1.
         -1    1    6    6    0  501  0.40405615619E+02 -0.13490520081E+02  0.23110560789E+02  0.48463449378E+02  0.00000000000E+00 0.  1.
          5    1    5    5  502    0  0.56142154263E+02 -0.66442089289E+02 -0.53727869838E+02  0.10234875042E+03  0.47000000000E+01 0. -1.
         13    1    4    4    0    0  0.32350468553E+01  0.11703313591E+02  0.25956192988E+01  0.12416534005E+02  0.00000000000E+00 0. -1.
        -14    1    4    4    0    0 -0.73713103799E+02  0.26776874208E+02 -0.20581227302E+03  0.22024830167E+03  0.00000000000E+00 0.  1.
         -5    1    3    3    0  504 -0.42924026277E+02 -0.16668898030E+02 -0.47978887514E+03  0.48201636787E+03  0.47000000000E+01 0.  1.
<mgrwt>
<rscale>  2 0.20988197E+03</rscale>
<asrwt>0</asrwt>
<pdfrwt beam="1">  1       21 0.15760696E-01 0.21041072E+03</pdfrwt>
<pdfrwt beam="2">  1       21 0.12678380E+00 0.21041072E+03</pdfrwt>
<totfact> 0.16308736E+04</totfact>
</mgrwt>
</event>
<event>
12    1  0.2743855E-001  0.2056702E+03  0.7546771E-02  0.1145261E+00
         21   -1    0    0  502  503  0.00000000000E+00  0.00000000000E+00  0.42596134064E+02  0.42596134064E+02  0.00000000000E+00 0.  1.
         21   -1    0    0  503  504 -0.00000000000E+00 -0.00000000000E+00 -0.10067270784E+04  0.10067270784E+04  0.00000000000E+00 0. -1.
         -6    2    1    2    0  504 -0.10739115260E+03  0.94951776196E+01 -0.55264485364E+03  0.58930034281E+03  0.17388370172E+03 0.  0.
        -24    2    3    3    0    0 -0.59070927694E+02  0.61824068179E+02 -0.44324171830E+03  0.45866997519E+03  0.81260909386E+02 0.  0.
          6    2    1    2  502    0  0.10739115260E+03 -0.94951776196E+01 -0.41148609071E+03  0.46002286967E+03  0.17514913564E+03 0.  0.
         24    2    5    5    0    0 -0.14009516850E+02  0.81870608024E+01 -0.17348227374E+03  0.19221941377E+03  0.81172096203E+02 0.  0.
          4    1    6    6  501    0 -0.34617633058E+02  0.25479130501E+02 -0.15149676072E+03  0.15747645893E+03  0.00000000000E+00 0. -1.
         -3    1    6    6    0  501  0.20608116208E+02 -0.17292069699E+02 -0.21985513016E+02  0.34742954835E+02  0.00000000000E+00 0.  1.
          5    1    5    5  502    0  0.12140066945E+03 -0.17682238422E+02 -0.23800381697E+03  0.26780345590E+03  0.47000000000E+01 0. -1.
         13    1    4    4    0    0 -0.16777352521E+02  0.42322753361E+02 -0.36337565250E+03  0.36621654774E+03  0.00000000000E+00 0. -1.
        -14    1    4    4    0    0 -0.42293575174E+02  0.19501314819E+02 -0.79866065799E+02  0.92453427448E+02  0.00000000000E+00 0.  1.
         -5    1    3    3    0  504 -0.48320224903E+02 -0.52328890560E+02 -0.10940313534E+03  0.13063036762E+03  0.47000000000E+01 0.  1.
<mgrwt>
<rscale>  2 0.20540054E+03</rscale>
<asrwt>0</asrwt>
<pdfrwt beam="1">  1       21 0.65532519E-02 0.20567022E+03</pdfrwt>
<pdfrwt beam="2">  1       21 0.15488108E+00 0.20567022E+03</pdfrwt>
<totfact> 0.46193525E+04</totfact>
</mgrwt>
</event>
<event>
12    1  0.2743855E-001  0.1869886E+03  0.7546771E-02  0.1161549E+00
         21   -1    0    0  502  503  0.00000000000E+00  0.00000000000E+00  0.81979586843E+02  0.81979586843E+02  0.00000000000E+00 0. -1.
         21   -1    0    0  503  504 -0.00000000000E+00 -0.00000000000E+00 -0.56662631931E+03  0.56662631931E+03  0.00000000000E+00 0. -1.
         -6    2    1    2    0  504  0.18013603055E+02  0.68458581247E+02 -0.78402305733E+02  0.20139313166E+03  0.17146779492E+03 0.  0.
        -24    2    3    3    0    0  0.17376751302E+01  0.11051086717E+03 -0.77943935746E+02  0.15605439895E+03  0.77859148696E+02 0.  0.
          6    2    1    2  502    0 -0.18013603055E+02 -0.68458581247E+02 -0.40624442673E+03  0.44721277449E+03  0.17307126906E+03 0.  0.
         24    2    5    5    0    0 -0.66423967325E+02 -0.36646144532E+02 -0.16398743064E+03  0.19808201233E+03  0.81175876079E+02 0.  0.
          2    1    6    6  501    0  0.70097483316E+01  0.16979504721E+02 -0.15844964010E+02  0.24259081531E+02  0.00000000000E+00 0. -1.
         -1    1    6    6    0  501 -0.73433715656E+02 -0.53625649253E+02 -0.14814246663E+03  0.17382293080E+03  0.00000000000E+00 0.  1.
          5    1    5    5  502    0  0.48410364270E+02 -0.31812436715E+02 -0.24225699609E+03  0.24913076215E+03  0.47000000000E+01 0. -1.
         11    1    4    4    0    0 -0.13312192332E+02  0.43550642081E+02  0.78246686930E+01  0.46207124240E+02  0.00000000000E+00 0. -1.
        -12    1    4    4    0    0  0.15049867462E+02  0.66960225085E+02 -0.85768604439E+02  0.10984727471E+03  0.00000000000E+00 0.  1.
         -5    1    3    3    0  504  0.16275927925E+02 -0.42052285919E+02 -0.45836998769E+00  0.45338732711E+02  0.47000000000E+01 0.  1.
<mgrwt>
<rscale>  2 0.18661669E+03</rscale>
<asrwt>0</asrwt>
<pdfrwt beam="1">  1       21 0.12612244E-01 0.18698859E+03</pdfrwt>
<pdfrwt beam="2">  1       21 0.87173282E-01 0.18698859E+03</pdfrwt>
<totfact> 0.60856576E+04</totfact>
</mgrwt>
</event>
<event>
12    1  0.2743855E-001  0.1764849E+03  0.7546771E-02  0.1174277E+00
         21   -1    0    0  502  503  0.00000000000E+00  0.00000000000E+00  0.16840448716E+04  0.16840448716E+04  0.00000000000E+00 0.  1.
         21   -1    0    0  503  504 -0.00000000000E+00 -0.00000000000E+00 -0.23174159386E+02  0.23174159386E+02  0.00000000000E+00 0.  1.
         -6    2    1    2    0  504 -0.16450390423E+02 -0.32790409642E+02  0.42160803391E+03  0.45705607133E+03  0.17262992722E+03 0.  0.
        -24    2    3    3    0    0  0.22713748078E+02  0.32560564977E+02  0.30346473942E+03  0.31639865894E+03  0.80256828754E+02 0.  0.
          6    2    1    2  502    0  0.16450390423E+02  0.32790409642E+02  0.12392626783E+04  0.12501629596E+04  0.16059144918E+03 0.  0.
         24    2    5    5    0    0 -0.23133303163E+02  0.62236198183E+02  0.10379264878E+04  0.10428171740E+04  0.75945836219E+02 0.  0.
          4    1    6    6  501    0 -0.22192736406E+02  0.53384414556E+02  0.34332746628E+03  0.34816111553E+03  0.00000000000E+00 0. -1.
         -3    1    6    6    0  501 -0.94056675644E+00  0.88517836264E+01  0.69459902157E+03  0.69465605842E+03  0.00000000000E+00 0.  1.
          5    1    5    5  502    0  0.39583693585E+02 -0.29445788541E+02  0.20133619043E+03  0.20734578567E+03  0.47000000000E+01 0. -1.
         11    1    4    4    0    0  0.46176208319E+02  0.39141173011E+02  0.16386955347E+03  0.17469259914E+03  0.00000000000E+00 0. -1.
        -12    1    4    4    0    0 -0.23462460241E+02 -0.65806080341E+01  0.13959518596E+03  0.14170605980E+03  0.00000000000E+00 0.  1.
         -5    1    3    3    0  504 -0.39164138500E+02 -0.65350974619E+02  0.11814329448E+03  0.14065741239E+03  0.47000000000E+01 0.  1.
<mgrwt>
<rscale>  2 0.17346935E+03</rscale>
<asrwt>0</asrwt>
<pdfrwt beam="1">  1       21 0.25908373E+00 0.17648489E+03</pdfrwt>
<pdfrwt beam="2">  1       21 0.35652566E-02 0.17648489E+03</pdfrwt>
<totfact> 0.28343909E+04</totfact>
</mgrwt>
</event>
<event>
12    1  0.2743855E-001  0.1934528E+03  0.7546771E-02  0.1155648E+00
         21   -1    0    0  502  503  0.00000000000E+00  0.00000000000E+00  0.11198065464E+04  0.11198065464E+04  0.00000000000E+00 0. -1.
         21   -1    0    0  503  504 -0.00000000000E+00 -0.00000000000E+00 -0.36174399981E+02  0.36174399981E+02  0.00000000000E+00 0. -1.
         -6    2    1    2    0  504 -0.33968811877E+02  0.78232177974E+02  0.37490964754E+03  0.42133029597E+03  0.17230153983E+03 0.  0.
        -24    2    3    3    0    0 -0.20884076877E+02  0.36323731101E+02  0.72804230140E+02  0.11601521047E+03  0.80021965894E+02 0.  0.
          6    2    1    2  502    0  0.33968811877E+02 -0.78232177974E+02  0.70872249891E+03  0.73465065045E+03  0.17363710402E+03 0.  0.
         24    2    5    5    0    0  0.26295459564E+02  0.30040970189E+01  0.54737514321E+03  0.55378254408E+03  0.79718774006E+02 0.  0.
          2    1    6    6  501    0  0.20581415555E+02 -0.22042157441E+02  0.48990023927E+03  0.49082756219E+03  0.00000000000E+00 0. -1.
         -1    1    6    6    0  501  0.57140440095E+01  0.25046254459E+02  0.57474903944E+02  0.62954981890E+02  0.00000000000E+00 0.  1.
          5    1    5    5  502    0  0.76733523130E+01 -0.81236274993E+02  0.16134735570E+03  0.18086810637E+03  0.47000000000E+01 0. -1.
         13    1    4    4    0    0 -0.12433969915E+02  0.19900398121E+02  0.88635537574E+02  0.91689083179E+02  0.00000000000E+00 0. -1.
        -14    1    4    4    0    0 -0.84501069617E+01  0.16423332980E+02 -0.15831307433E+02  0.24326127289E+02  0.00000000000E+00 0.  1.
         -5    1    3    3    0  504 -0.13084735000E+02  0.41908446873E+02  0.30210541740E+03  0.30531508550E+03  0.47000000000E+01 0.  1.
<mgrwt>
<rscale>  2 0.19315267E+03</rscale>
<asrwt>0</asrwt>
<pdfrwt beam="1">  1       21 0.17227790E+00 0.19345283E+03</pdfrwt>
<pdfrwt beam="2">  1       21 0.55652932E-02 0.19345283E+03</pdfrwt>
<totfact> 0.46096540E+04</totfact>
</mgrwt>
</event>
<event>
12    1  0.2743855E-001  0.1948579E+03  0.7546771E-02  0.1154180E+00
         21   -1    0    0  502  503  0.00000000000E+00  0.00000000000E+00  0.45135446256E+02  0.45135446256E+02  0.00000000000E+00 0.  1.
         21   -1    0    0  503  504 -0.00000000000E+00 -0.00000000000E+00 -0.84067840805E+03  0.84067840805E+03  0.00000000000E+00 0.  1.
         -6    2    1    2    0  504  0.59769214065E+02  0.66012120789E+02 -0.39768327820E+03  0.44285616709E+03  0.17331946206E+03 0.  0.
        -24    2    3    3    0    0 -0.65432876295E+00  0.70516330883E+02 -0.13073949916E+03  0.16908187391E+03  0.80764363291E+02 0.  0.
          6    2    1    2  502    0 -0.59769214065E+02 -0.66012120789E+02 -0.39785968359E+03  0.44295768721E+03  0.17317397551E+03 0.  0.
         24    2    5    5    0    0 -0.95814540685E+01 -0.14430311091E+02 -0.77836893786E+02  0.11490865073E+03  0.82736798567E+02 0.  0.
          4    1    6    6  501    0  0.31806761916E+02  0.99566662758E+01 -0.17066777521E+02  0.37444361416E+02  0.00000000000E+00 0. -1.
         -3    1    6    6    0  501 -0.41388215984E+02 -0.24386977367E+02 -0.60770116265E+02  0.77464289310E+02  0.00000000000E+00 0.  1.
          5    1    5    5  502    0 -0.50187759997E+02 -0.51581809698E+02 -0.32002278981E+03  0.32804903649E+03  0.47000000000E+01 0. -1.
         11    1    4    4    0    0 -0.15923115993E+02 -0.12022630047E+02 -0.10800291211E+02  0.22687784079E+02  0.00000000000E+00 0. -1.
        -12    1    4    4    0    0  0.15268787230E+02  0.82538960930E+02 -0.11993920795E+03  0.14639408983E+03  0.00000000000E+00 0.  1.
         -5    1    3    3    0  504  0.60423542828E+02 -0.45042100938E+01 -0.26694377904E+03  0.27377429318E+03  0.47000000000E+01 0.  1.
<mgrwt>
<rscale>  2 0.19482553E+03</rscale>
<asrwt>0</asrwt>
<pdfrwt beam="1">  1       21 0.69439153E-02 0.19485788E+03</pdfrwt>
<pdfrwt beam="2">  1       21 0.12933513E+00 0.19485788E+03</pdfrwt>
<totfact> 0.67089601E+04</totfact>
</mgrwt>
</event>
<event>
12    1  0.2743855E-001  0.1786963E+03  0.7546771E-02  0.1169100E+00
         21   -1    0    0  502  503  0.00000000000E+00  0.00000000000E+00  0.35511943659E+03  0.35511943659E+03  0.00000000000E+00 0. -1.
         21   -1    0    0  503  504 -0.00000000000E+00 -0.00000000000E+00 -0.24158495471E+03  0.24158495471E+03  0.00000000000E+00 0. -1.
         -6    2    1    2    0  504 -0.24969664568E+02 -0.35448892518E+02 -0.17968013051E+03  0.25332826261E+03  0.17323438228E+03 0.  0.
        -24    2    3    3    0    0  0.18524653767E+02  0.19162817583E+02 -0.23045284672E+02  0.81774307421E+02  0.73794144983E+02 0.  0.
          6    2    1    2  502    0  0.24969664568E+02  0.35448892518E+02  0.29321461240E+03  0.34337612870E+03  0.17335584418E+03 0.  0.
         24    2    5    5    0    0  0.15524169603E+02 -0.58821779660E+01  0.28920414097E+03  0.30053165830E+03  0.80029011177E+02 0.  0.
          2    1    6    6  501    0  0.29438865716E+02  0.17864881640E+02  0.25152100583E+03  0.25386732201E+03  0.00000000000E+00 0. -1.
         -1    1    6    6    0  501 -0.13914696113E+02 -0.23747059606E+02  0.37683135135E+02  0.46664336291E+02  0.00000000000E+00 0.  1.
          5    1    5    5  502    0  0.94454949647E+01  0.41331070484E+02  0.40104714259E+01  0.42844470396E+02  0.47000000000E+01 0. -1.
         13    1    4    4    0    0 -0.17335955541E+02 -0.13206205863E+02 -0.25325969761E+02  0.33411734048E+02  0.00000000000E+00 0. -1.
        -14    1    4    4    0    0  0.35860609308E+02  0.32369023445E+02  0.22806850890E+01  0.48362573373E+02  0.00000000000E+00 0.  1.
         -5    1    3    3    0  504 -0.43494318335E+02 -0.54611710101E+02 -0.15663484584E+03  0.17155395518E+03  0.47000000000E+01 0.  1.
<mgrwt>
<rscale>  2 0.17866681E+03</rscale>
<asrwt>0</asrwt>
<pdfrwt beam="1">  1       21 0.54633760E-01 0.17869627E+03</pdfrwt>
<pdfrwt beam="2">  1       21 0.37166916E-01 0.17869627E+03</pdfrwt>
<totfact> 0.22267834E+04</totfact>
</mgrwt>
</event>
<event>
12    1  0.2743855E-001  0.1787631E+03  0.7546771E-02  0.1169155E+00
         21   -1    0    0  502  503  0.00000000000E+00  0.00000000000E+00  0.50361913836E+03  0.50361913836E+03  0.00000000000E+00 0. -1.
         21   -1    0    0  503  504 -0.00000000000E+00 -0.00000000000E+00 -0.14105257795E+03  0.14105257795E+03  0.00000000000E+00 0. -1.
         -6    2    1    2    0  504  0.47213257831E+02 -0.17590351386E+00 -0.58270463555E+02  0.18744087545E+03  0.17178332925E+03 0.  0.
        -24    2    3    3    0    0  0.22246609770E+02 -0.65080171706E+02 -0.47089703630E+02  0.11685052952E+03  0.81891792425E+02 0.  0.
          6    2    1    2  502    0 -0.47213257831E+02  0.17590351386E+00  0.42083702396E+03  0.45723084087E+03  0.17241554003E+03 0.  0.
         24    2    5    5    0    0 -0.32914802330E+02  0.56567469292E+02  0.34646355530E+03  0.36269006997E+03  0.84993110958E+02 0.  0.
          4    1    6    6  501    0  0.43491477230E+01  0.57440254206E+02  0.28534974083E+03  0.29110611893E+03  0.00000000000E+00 0. -1.
         -3    1    6    6    0  501 -0.37263950053E+02 -0.87278491438E+00  0.61113814470E+02  0.71583951038E+02  0.00000000000E+00 0.  1.
          5    1    5    5  502    0 -0.14298455501E+02 -0.56391565778E+02  0.74373468665E+02  0.94540770897E+02  0.47000000000E+01 0. -1.
         13    1    4    4    0    0  0.12508556467E+01 -0.33374665324E+02  0.20578817371E+02  0.39229079135E+02  0.00000000000E+00 0. -1.
        -14    1    4    4    0    0  0.20995754124E+02 -0.31705506382E+02 -0.67668521001E+02  0.77621450390E+02  0.00000000000E+00 0.  1.
         -5    1    3    3    0  504  0.24966648060E+02  0.64904268193E+02 -0.11180759925E+02  0.70590345923E+02  0.47000000000E+01 0.  1.
<mgrwt>
<rscale>  2 0.17861047E+03</rscale>
<asrwt>0</asrwt>
<pdfrwt beam="1">  1       21 0.77479867E-01 0.17876309E+03</pdfrwt>
<pdfrwt beam="2">  1       21 0.21700397E-01 0.17876309E+03</pdfrwt>
<totfact> 0.29506768E+04</totfact>
</mgrwt>
</event>
<event>
12    1  0.2743855E-001  0.1782249E+03  0.7546771E-02  0.1169954E+00
         21   -1    0    0  502  503  0.00000000000E+00  0.00000000000E+00  0.19002365049E+03  0.19002365049E+03  0.00000000000E+00 0. -1.
         21   -1    0    0  503  504 -0.00000000000E+00 -0.00000000000E+00 -0.16667244323E+03  0.16667244323E+03  0.00000000000E+00 0. -1.
         -6    2    1    2    0  504  0.41251946109E+02 -0.45249287718E+01 -0.29834407939E+01  0.17653607555E+03  0.17156307007E+03 0.  0.
        -24    2    3    3    0    0  0.35763866817E+02  0.52997553150E+01  0.63719108313E+02  0.10872779074E+03  0.80339692169E+02 0.  0.
          6    2    1    2  502    0 -0.41251946109E+02  0.45249287718E+01  0.26334648055E+02  0.18016001818E+03  0.17332605235E+03 0.  0.
         24    2    5    5    0    0  0.27273859471E+02  0.11676158803E+02  0.61599401367E+02  0.10261893908E+03  0.76524272715E+02 0.  0.
          2    1    6    6  501    0 -0.21379434636E+02  0.16564396133E+02  0.41966778876E+02  0.49926645930E+02  0.00000000000E+00 0. -1.
         -1    1    6    6    0  501  0.48653294107E+02 -0.48882373304E+01  0.19632622491E+02  0.52692293151E+02  0.00000000000E+00 0.  1.
          5    1    5    5  502    0 -0.68525805580E+02 -0.71512300312E+01 -0.35264753313E+02  0.77541079097E+02  0.47000000000E+01 0. -1.
         11    1    4    4    0    0  0.10132337497E+02  0.20645897575E+01  0.78355543126E+02  0.79034915908E+02  0.00000000000E+00 0. -1.
        -12    1    4    4    0    0  0.25631529320E+02  0.32351655574E+01 -0.14636434813E+02  0.29692874827E+02  0.00000000000E+00 0.  1.
         -5    1    3    3    0  504  0.54880792912E+01 -0.98246840867E+01 -0.66702549107E+02  0.67808284811E+02  0.47000000000E+01 0.  1.
<mgrwt>
<rscale>  2 0.17779484E+03</rscale>
<asrwt>0</asrwt>
<pdfrwt beam="1">  1       21 0.29234408E-01 0.17822491E+03</pdfrwt>
<pdfrwt beam="2">  1       21 0.25641914E-01 0.17822491E+03</pdfrwt>
<totfact> 0.16243123E+05</totfact>
</mgrwt>
</event>
<event>
12    1  0.2743855E-001  0.1759729E+03  0.7546771E-02  0.1171916E+00
         21   -1    0    0  502  503  0.00000000000E+00  0.00000000000E+00  0.17509813092E+02  0.17509813092E+02  0.00000000000E+00 0. -1.
         21   -1    0    0  503  504 -0.00000000000E+00 -0.00000000000E+00 -0.18078090775E+04  0.18078090775E+04  0.00000000000E+00 0. -1.
         -6    2    1    2    0  504  0.52407375918E-01 -0.27860260966E+02 -0.10417240782E+04  0.10564826147E+04  0.17375345502E+03 0.  0.
        -24    2    3    3    0    0  0.37366101182E+02 -0.74121412445E+02 -0.62787621857E+03  0.63836236068E+03  0.79923390769E+02 0.  0.
          6    2    1    2  502    0 -0.52407375918E-01  0.27860260966E+02 -0.74857518618E+03  0.76883627588E+03  0.17311329487E+03 0.  0.
         24    2    5    5    0    0  0.37763437795E+02  0.90803447231E+01 -0.69358325007E+03  0.69934579857E+03  0.80735935652E+02 0.  0.
          4    1    6    6  501    0  0.26423379899E+02  0.11371122971E+02 -0.70335180751E+02  0.75990361851E+02  0.00000000000E+00 0. -1.
         -3    1    6    6    0  501  0.11340057896E+02 -0.22907782477E+01 -0.62324806931E+03  0.62335543671E+03  0.00000000000E+00 0.  1.
          5    1    5    5  502    0 -0.37815845171E+02  0.18779916243E+02 -0.54991936111E+02  0.69490477314E+02  0.47000000000E+01 0. -1.
         11    1    4    4    0    0  0.54162452760E+01 -0.64361130241E+02 -0.54783268518E+03  0.55162699512E+03  0.00000000000E+00 0. -1.
        -12    1    4    4    0    0  0.31949855906E+02 -0.97602822042E+01 -0.80043533386E+02  0.86735365556E+02  0.00000000000E+00 0.  1.
         -5    1    3    3    0  504 -0.37313693806E+02  0.46261151479E+02 -0.41384785964E+03  0.41812025401E+03  0.47000000000E+01 0.  1.
<mgrwt>
<rscale>  2 0.17581467E+03</rscale>
<asrwt>0</asrwt>
<pdfrwt beam="1">  1       21 0.26938178E-02 0.17597290E+03</pdfrwt>
<pdfrwt beam="2">  1       21 0.27812443E+00 0.17597290E+03</pdfrwt>
<totfact> 0.35011575E+04</totfact>
</mgrwt>
</event>
<event>
12    1  0.2743855E-001  0.1789006E+03  0.7546771E-02  0.1169785E+00
         21   -1    0    0  502  503  0.00000000000E+00  0.00000000000E+00  0.25151299647E+03  0.25151299647E+03  0.00000000000E+00 0. -1.
         21   -1    0    0  503  504 -0.00000000000E+00 -0.00000000000E+00 -0.13437095845E+03  0.13437095845E+03  0.00000000000E+00 0. -1.
         -6    2    1    2    0  504  0.96866181535E+01  0.45952345731E+02  0.71942369008E+01  0.17904515432E+03  0.17262665377E+03 0.  0.
        -24    2    3    3    0    0 -0.60218923094E+01 -0.22461466018E+02  0.50028399117E+02  0.96679734446E+02  0.79393637602E+02 0.  0.
          6    2    1    2  502    0 -0.96866181535E+01 -0.45952345731E+02  0.10994780112E+03  0.20683880060E+03  0.16878483882E+03 0.  0.
         24    2    5    5    0    0 -0.52717367194E+02 -0.24960755425E+02  0.96465288592E+01  0.95597048356E+02  0.75123764683E+02 0.  0.
          4    1    6    6  501    0 -0.64525937195E+02  0.23062653148E+01  0.12430202536E+02  0.65752759377E+02  0.00000000000E+00 0. -1.
         -3    1    6    6    0  501  0.11808570001E+02 -0.27267020740E+02 -0.27836736771E+01  0.29844288979E+02  0.00000000000E+00 0.  1.
          5    1    5    5  502    0  0.43030749040E+02 -0.20991590306E+02  0.10030127226E+03  0.11124175225E+03  0.47000000000E+01 0. -1.
         11    1    4    4    0    0 -0.97518065066E+01  0.15611228052E+02 -0.13289416279E+02  0.22702791821E+02  0.00000000000E+00 0. -1.
        -12    1    4    4    0    0  0.37299141971E+01 -0.38072694070E+02  0.63317815395E+02  0.73976942625E+02  0.00000000000E+00 0.  1.
         -5    1    3    3    0  504  0.15708510463E+02  0.68413811749E+02 -0.42834162216E+02  0.82365419878E+02  0.47000000000E+01 0.  1.
<mgrwt>
<rscale>  2 0.17796724E+03</rscale>
<asrwt>0</asrwt>
<pdfrwt beam="1">  1       21 0.38694307E-01 0.17890056E+03</pdfrwt>
<pdfrwt beam="2">  1       21 0.20672455E-01 0.17890056E+03</pdfrwt>
<totfact> 0.14037840E+05</totfact>
</mgrwt>
</event>
<event>
12    1  0.2743855E-001  0.1928257E+03  0.7546771E-02  0.1156349E+00
         21   -1    0    0  502  503  0.00000000000E+00  0.00000000000E+00  0.91680127420E+03  0.91680127420E+03  0.00000000000E+00 0. -1.
         21   -1    0    0  503  504 -0.00000000000E+00 -0.00000000000E+00 -0.54264396824E+02  0.54264396824E+02  0.00000000000E+00 0.  1.
         -6    2    1    2    0  504  0.62172196687E+02 -0.55912082285E+02  0.18225213418E+03  0.26398075664E+03  0.17169291330E+03 0.  0.
        -24    2    3    3    0    0 -0.78510276464E+01 -0.50698110008E+02  0.43968753974E+02  0.10882012796E+03  0.85303176546E+02 0.  0.
          6    2    1    2  502    0 -0.62172196687E+02  0.55912082285E+02  0.68028474319E+03  0.70708491438E+03  0.17375327719E+03 0.  0.
         24    2    5    5    0    0 -0.25567607610E+01  0.65783195945E+02  0.38357695205E+03  0.40424990581E+03  0.10932859788E+03 0.  0.
          2    1    6    6  501    0 -0.23979091083E+02  0.78759487813E+02  0.36183633355E+03  0.37108433813E+03  0.00000000000E+00 0. -1.
         -1    1    6    6    0  501  0.21422330322E+02 -0.12976291868E+02  0.21740618497E+02  0.33165567682E+02  0.00000000000E+00 0.  1.
          5    1    5    5  502    0 -0.59615435926E+02 -0.98711136596E+01  0.29670779115E+03  0.30283500857E+03  0.47000000000E+01 0. -1.
         11    1    4    4    0    0  0.27964046713E+02 -0.11162496464E+02  0.46519289777E+02  0.55413297657E+02  0.00000000000E+00 0. -1.
        -12    1    4    4    0    0 -0.35815074359E+02 -0.39535613544E+02 -0.25505358033E+01  0.53406830299E+02  0.00000000000E+00 0.  1.
         -5    1    3    3    0  504  0.70023224334E+02 -0.52139722771E+01  0.13828338021E+03  0.15516062869E+03  0.47000000000E+01 0.  1.
<mgrwt>
<rscale>  2 0.19236038E+03</rscale>
<asrwt>0</asrwt>
<pdfrwt beam="1">  1       21 0.14104634E+00 0.19282568E+03</pdfrwt>
<pdfrwt beam="2">  1       21 0.83483695E-02 0.19282568E+03</pdfrwt>
<totfact> 0.39103130E+04</totfact>
</mgrwt>
</event>
<event>
12    1  0.2743855E-001  0.1890112E+03  0.7546771E-02  0.1159431E+00
         21   -1    0    0  502  503  0.00000000000E+00  0.00000000000E+00  0.16525123624E+03  0.16525123624E+03  0.00000000000E+00 0. -1.
         21   -1    0    0  503  504 -0.00000000000E+00 -0.00000000000E+00 -0.43620992765E+03  0.43620992765E+03  0.00000000000E+00 0. -1.
         -6    2    1    2    0  504 -0.59478520036E+02 -0.48247382048E+02 -0.34918561457E+03  0.39690144606E+03  0.17243740963E+03 0.  0.
        -24    2    3    3    0    0 -0.39490768411E+02 -0.43825730246E+02 -0.35925413267E+03  0.37360925260E+03  0.83905460883E+02 0.  0.
          6    2    1    2  502    0  0.59478520036E+02  0.48247382048E+02  0.78226923167E+02  0.20455971784E+03  0.17279965982E+03 0.  0.
         24    2    5    5    0    0 -0.33086248457E+02  0.41824252297E+02  0.47447904309E+02  0.10668770466E+03  0.79290571850E+02 0.  0.
          2    1    6    6  501    0 -0.36128972309E+02  0.22046680469E+02  0.66650951227E+02  0.78953834988E+02  0.00000000000E+00 0. -1.
         -1    1    6    6    0  501  0.30427238521E+01  0.19777571828E+02 -0.19203046918E+02  0.27733869668E+02  0.00000000000E+00 0.  1.
          5    1    5    5  502    0  0.92564768492E+02  0.64231297506E+01  0.30779018858E+02  0.97872013179E+02  0.47000000000E+01 0. -1.
         13    1    4    4    0    0 -0.46265811154E+02 -0.64493349513E+02 -0.30498290584E+03  0.31514201603E+03  0.00000000000E+00 0. -1.
        -14    1    4    4    0    0  0.67750427437E+01  0.20667619267E+02 -0.54271226831E+02  0.58467236569E+02  0.00000000000E+00 0.  1.
         -5    1    3    3    0  504 -0.19987751625E+02 -0.44216518020E+01  0.10068518095E+02  0.23292193463E+02  0.47000000000E+01 0.  1.
<mgrwt>
<rscale>  2 0.18892835E+03</rscale>
<asrwt>0</asrwt>
<pdfrwt beam="1">  1       21 0.25423267E-01 0.18901118E+03</pdfrwt>
<pdfrwt beam="2">  1       21 0.67109221E-01 0.18901118E+03</pdfrwt>
<totfact> 0.29877062E+04</totfact>
</mgrwt>
</event>
<event>
12    1  0.2743855E-001  0.1864717E+03  0.7546771E-02  0.1162549E+00
         21   -1    0    0  502  503  0.00000000000E+00  0.00000000000E+00  0.73783684650E+03  0.73783684650E+03  0.00000000000E+00 0. -1.
         21   -1    0    0  503  504 -0.00000000000E+00 -0.00000000000E+00 -0.11435228562E+03  0.11435228562E+03  0.00000000000E+00 0.  1.
         -6    2    1    2    0  504 -0.14197684578E+02 -0.57172623032E+02 -0.15946626563E+02  0.18715235683E+03  0.17692209216E+03 0.  0.
        -24    2    3    3    0    0 -0.56006802176E+02  0.13378614552E+02 -0.36196160298E+02  0.10254967924E+03  0.76749758786E+02 0.  0.
          6    2    1    2  502    0  0.14197684578E+02  0.57172623032E+02  0.63943118744E+03  0.66503677529E+03  0.17300689566E+03 0.  0.
         24    2    5    5    0    0  0.55577766372E+02 -0.13935625047E+02  0.37598671323E+03  0.38900457589E+03  0.81703499172E+02 0.  0.
          2    1    6    6  501    0 -0.91466695664E+01 -0.20741446642E+02  0.20158139981E+03  0.20285199018E+03  0.00000000000E+00 0. -1.
         -1    1    6    6    0  501  0.64724435939E+02  0.68058215947E+01  0.17440531343E+03  0.18615258571E+03  0.00000000000E+00 0.  1.
          5    1    5    5  502    0 -0.41380081794E+02  0.71108248079E+02  0.26344447421E+03  0.27603219940E+03  0.47000000000E+01 0. -1.
         11    1    4    4    0    0  0.17668383731E+02 -0.74142115027E+01 -0.44233380356E+01  0.19664898556E+02  0.00000000000E+00 0. -1.
        -12    1    4    4    0    0 -0.73675185907E+02  0.20792826055E+02 -0.31772822262E+02  0.82884780679E+02  0.00000000000E+00 0.  1.
         -5    1    3    3    0  504  0.41809117598E+02 -0.70551237584E+02  0.20249533735E+02  0.84602677591E+02  0.47000000000E+01 0.  1.
<mgrwt>
<rscale>  2 0.18553711E+03</rscale>
<asrwt>0</asrwt>
<pdfrwt beam="1">  1       21 0.11351336E+00 0.18647174E+03</pdfrwt>
<pdfrwt beam="2">  1       21 0.17592660E-01 0.18647174E+03</pdfrwt>
<totfact> 0.17793670E+04</totfact>
</mgrwt>
</event>
<event>
12    1  0.2743855E-001  0.2697829E+03  0.7546771E-02  0.1101622E+00
         21   -1    0    0  502  503  0.00000000000E+00  0.00000000000E+00  0.93930818575E+03  0.93930818575E+03  0.00000000000E+00 0. -1.
         21   -1    0    0  503  504 -0.00000000000E+00 -0.00000000000E+00 -0.11945889960E+03  0.11945889960E+03  0.00000000000E+00 0.  1.
         -6    2    1    2    0  504 -0.17892980333E+03 -0.10295643309E+03  0.93757676956E+02  0.28417568729E+03  0.17131671730E+03 0.  0.
        -24    2    3    3    0    0 -0.12704065335E+03 -0.13394981002E+03  0.97233102469E+02  0.22345302364E+03  0.79969358823E+02 0.  0.
          6    2    1    2  502    0  0.17892980333E+03  0.10295643309E+03  0.72609160919E+03  0.77459139806E+03  0.17368623254E+03 0.  0.
         24    2    5    5    0    0  0.65712007977E+02  0.91238743672E+02  0.53101576951E+03  0.54868821823E+03  0.80239871738E+02 0.  0.
          4    1    6    6  501    0  0.82078066553E+01  0.39502110300E+02  0.34325527089E+03  0.34561823707E+03  0.00000000000E+00 0. -1.
         -3    1    6    6    0  501  0.57504201322E+02  0.51736633372E+02  0.18776049862E+03  0.20306998115E+03  0.00000000000E+00 0.  1.
          5    1    5    5  502    0  0.11321779535E+03  0.11717689418E+02  0.19507583969E+03  0.22590317983E+03  0.47000000000E+01 0. -1.
         13    1    4    4    0    0 -0.52543853000E+02 -0.55025089890E+02  0.85248862771E+02  0.11426279188E+03  0.00000000000E+00 0. -1.
        -14    1    4    4    0    0 -0.74496800354E+02 -0.78924720125E+02  0.11984239698E+02  0.10919023176E+03  0.00000000000E+00 0.  1.
         -5    1    3    3    0  504 -0.51889149974E+02  0.30993376925E+02 -0.34754255129E+01  0.60722663651E+02  0.47000000000E+01 0.  1.
<mgrwt>
<rscale>  2 0.26940225E+03</rscale>
<asrwt>0</asrwt>
<pdfrwt beam="1">  1       21 0.14450895E+00 0.26978289E+03</pdfrwt>
<pdfrwt beam="2">  1       21 0.18378293E-01 0.26978289E+03</pdfrwt>
<totfact> 0.84575379E+03</totfact>
</mgrwt>
</event>
<event>
12    1  0.2743855E-001  0.2955628E+03  0.7546771E-02  0.1089496E+00
         21   -1    0    0  502  503  0.00000000000E+00  0.00000000000E+00  0.71521725970E+03  0.71521725970E+03  0.00000000000E+00 0.  1.
         21   -1    0    0  503  504 -0.00000000000E+00 -0.00000000000E+00 -0.12449645849E+03  0.12449645849E+03  0.00000000000E+00 0.  1.
         -6    2    1    2    0  504 -0.21664642521E+03 -0.73847941894E+02  0.39851485339E+03  0.48715099270E+03  0.16159458293E+03 0.  0.
        -24    2    3    3    0    0 -0.62964895607E+02 -0.37434323819E+02  0.23881237107E+03  0.26249361583E+03  0.80657566886E+02 0.  0.
          6    2    1    2  502    0  0.21664642521E+03  0.73847941894E+02  0.19220594782E+03  0.35256272549E+03  0.18699774584E+03 0.  0.
         24    2    5    5    0    0  0.12402536209E+03 -0.31069786638E+02  0.68563541380E+02  0.16575821333E+03  0.80169844675E+02 0.  0.
          2    1    6    6  501    0  0.47584911010E+02 -0.49821386941E+02  0.49332514691E+02  0.84736009809E+02  0.00000000000E+00 0. -1.
         -1    1    6    6    0  501  0.76440451083E+02  0.18751600303E+02  0.19231026689E+02  0.81022203520E+02  0.00000000000E+00 0.  1.
          5    1    5    5  502    0  0.92621063115E+02  0.10491772853E+03  0.12364240644E+03  0.18680451216E+03  0.47000000000E+01 0. -1.
         13    1    4    4    0    0 -0.62504411282E+02 -0.11387365977E+02  0.22332543846E+03  0.23218683210E+03  0.00000000000E+00 0. -1.
        -14    1    4    4    0    0 -0.46048432529E+00 -0.26046957842E+02  0.15486932605E+02  0.30306783732E+02  0.00000000000E+00 0.  1.
         -5    1    3    3    0  504 -0.15368152960E+03 -0.36413618074E+02  0.15970248233E+03  0.22465737687E+03  0.47000000000E+01 0.  1.
<mgrwt>
<rscale>  2 0.29164020E+03</rscale>
<asrwt>0</asrwt>
<pdfrwt beam="1">  1       21 0.11003342E+00 0.29556277E+03</pdfrwt>
<pdfrwt beam="2">  1       21 0.19153302E-01 0.29556277E+03</pdfrwt>
<totfact> 0.15437983E+04</totfact>
</mgrwt>
</event>
<event>
12    1  0.2743855E-001  0.2731405E+03  0.7546771E-02  0.1099541E+00
         21   -1    0    0  502  503  0.00000000000E+00  0.00000000000E+00  0.40737755217E+03  0.40737755217E+03  0.00000000000E+00 0. -1.
         21   -1    0    0  503  504 -0.00000000000E+00 -0.00000000000E+00 -0.26218996401E+03  0.26218996401E+03  0.00000000000E+00 0.  1.
         -6    2    1    2    0  504  0.16663913474E+03  0.13002627069E+03 -0.11145915869E+03  0.29500656582E+03  0.17300375003E+03 0.  0.
        -24    2    3    3    0    0  0.12314931662E+03  0.28033101809E+02 -0.20049076037E+02  0.15122943277E+03  0.80726494443E+02 0.  0.
          6    2    1    2  502    0 -0.16663913474E+03 -0.13002627069E+03  0.25664674684E+03  0.37456095035E+03  0.17249034920E+03 0.  0.
         24    2    5    5    0    0 -0.61512043457E+02 -0.12000514497E+03  0.10784413963E+03  0.19203305058E+03  0.84031944838E+02 0.  0.
          4    1    6    6  501    0 -0.75516314450E+02 -0.57923681070E+02  0.67541758042E+02  0.11670370884E+03  0.00000000000E+00 0. -1.
         -3    1    6    6    0  501  0.14004270993E+02 -0.62081463897E+02  0.40302381591E+02  0.75329341744E+02  0.00000000000E+00 0.  1.
          5    1    5    5  502    0 -0.10512709129E+03 -0.10021125725E+02  0.14880260721E+03  0.18252789977E+03  0.47000000000E+01 0. -1.
         13    1    4    4    0    0  0.78129625973E+02  0.56688417982E+02 -0.12922757825E+02  0.97390003890E+02  0.00000000000E+00 0. -1.
        -14    1    4    4    0    0  0.45019690644E+02 -0.28655316172E+02 -0.71263182119E+01  0.53839428877E+02  0.00000000000E+00 0.  1.
         -5    1    3    3    0  504  0.43489818126E+02  0.10199316888E+03 -0.91410082651E+02  0.14377713305E+03  0.47000000000E+01 0.  1.
<mgrwt>
<rscale>  2 0.27305924E+03</rscale>
<asrwt>0</asrwt>
<pdfrwt beam="1">  1       21 0.62673469E-01 0.27314049E+03</pdfrwt>
<pdfrwt beam="2">  1       21 0.40336918E-01 0.27314049E+03</pdfrwt>
<totfact> 0.13350618E+04</totfact>
</mgrwt>
</event>
<event>
12    1  0.2743855E-001  0.1937974E+03  0.7546771E-02  0.1155294E+00
         21   -1    0    0  502  503  0.00000000000E+00  0.00000000000E+00  0.46815230055E+02  0.46815230055E+02  0.00000000000E+00 0. -1.
         21   -1    0    0  503  504 -0.00000000000E+00 -0.00000000000E+00 -0.80538375417E+03  0.80538375417E+03  0.00000000000E+00 0. -1.
         -6    2    1    2    0  504 -0.77784188294E+02 -0.36711005513E+02 -0.34006808524E+03  0.39141249932E+03  0.17366451611E+03 0.  0.
        -24    2    3    3    0    0 -0.60798348265E+02 -0.52838199149E+02 -0.34810384637E+03  0.36620796416E+03  0.80272477924E+02 0.  0.
          6    2    1    2  502    0  0.77784188294E+02  0.36711005513E+02 -0.41850043888E+03  0.46078648490E+03  0.17257893687E+03 0.  0.
         24    2    5    5    0    0 -0.25910140368E+02  0.16258000331E+02 -0.21291038113E+03  0.22957186369E+03  0.80229372767E+02 0.  0.
          2    1    6    6  501    0  0.65107754758E+01 -0.28197600099E+02 -0.97720149113E+02  0.10191527065E+03  0.00000000000E+00 0. -1.
         -1    1    6    6    0  501 -0.32420915844E+02  0.44455600430E+02 -0.11519023202E+03  0.12765659304E+03  0.00000000000E+00 0.  1.
          5    1    5    5  502    0  0.10369432866E+03  0.20453005183E+02 -0.20559005774E+03  0.23121462121E+03  0.47000000000E+01 0. -1.
         11    1    4    4    0    0 -0.61109913586E+02 -0.12284641857E+02 -0.12766060077E+03  0.14206534748E+03  0.00000000000E+00 0. -1.
        -12    1    4    4    0    0  0.31156532129E+00 -0.40553557292E+02 -0.22044324560E+03  0.22414261668E+03  0.00000000000E+00 0.  1.
         -5    1    3    3    0  504 -0.16985840030E+02  0.16127193636E+02  0.80357611343E+01  0.25204535169E+02  0.47000000000E+01 0.  1.
<mgrwt>
<rscale>  2 0.19355392E+03</rscale>
<asrwt>0</asrwt>
<pdfrwt beam="1">  1       21 0.72023439E-02 0.19379743E+03</pdfrwt>
<pdfrwt beam="2">  1       21 0.12390518E+00 0.19379743E+03</pdfrwt>
<totfact> 0.70180674E+04</totfact>
</mgrwt>
</event>
<event>
12    1  0.2743855E-001  0.1990033E+03  0.7546771E-02  0.1150757E+00
         21   -1    0    0  502  503  0.00000000000E+00  0.00000000000E+00  0.53863749392E+03  0.53863749392E+03  0.00000000000E+00 0.  1.
         21   -1    0    0  503  504 -0.00000000000E+00 -0.00000000000E+00 -0.10224210811E+03  0.10224210811E+03  0.00000000000E+00 0.  1.
         -6    2    1    2    0  504  0.96506693856E+02  0.97568177186E+01  0.47150687095E+02  0.20371400213E+03  0.17282207590E+03 0.  0.
        -24    2    3    3    0    0  0.76643641247E+02  0.54579125784E+00  0.96901071947E+02  0.14915600858E+03  0.83565253057E+02 0.  0.
          6    2    1    2  502    0 -0.96506693856E+02 -0.97568177186E+01  0.38924469871E+03  0.43716559989E+03  0.17376302485E+03 0.  0.
         24    2    5    5    0    0 -0.10496412304E+03 -0.57066391296E+02  0.23394513571E+03  0.27453175309E+03  0.79770400439E+02 0.  0.
          4    1    6    6  501    0 -0.56725140136E+02 -0.51073634687E+02  0.70126235591E+02  0.10365301058E+03  0.00000000000E+00 0. -1.
         -3    1    6    6    0  501 -0.48238982907E+02 -0.59927566088E+01  0.16381890012E+03  0.17087874251E+03  0.00000000000E+00 0.  1.
          5    1    5    5  502    0  0.84574291874E+01  0.47309573577E+02  0.15529956300E+03  0.16263384681E+03  0.47000000000E+01 0. -1.
         13    1    4    4    0    0  0.52818355706E+02 -0.36940158890E+02  0.36150679485E+02  0.73900105992E+02  0.00000000000E+00 0. -1.
        -14    1    4    4    0    0  0.23825285541E+02  0.37485950148E+02  0.60750392462E+02  0.75255902585E+02  0.00000000000E+00 0.  1.
         -5    1    3    3    0  504  0.19863052609E+02  0.92110264607E+01 -0.49750384852E+02  0.54557993551E+02  0.47000000000E+01 0.  1.
<mgrwt>
<rscale>  2 0.19879775E+03</rscale>
<asrwt>0</asrwt>
<pdfrwt beam="1">  1       21 0.82867305E-01 0.19900333E+03</pdfrwt>
<pdfrwt beam="2">  1       21 0.15729555E-01 0.19900333E+03</pdfrwt>
<totfact> 0.45529092E+04</totfact>
</mgrwt>
</event>
<event>
12    1  0.2743855E-001  0.1870367E+03  0.7546771E-02  0.1162751E+00
         21   -1    0    0  502  503  0.00000000000E+00  0.00000000000E+00  0.36273208631E+02  0.36273208631E+02  0.00000000000E+00 0.  1.
         21   -1    0    0  503  504 -0.00000000000E+00 -0.00000000000E+00 -0.94385226934E+03  0.94385226934E+03  0.00000000000E+00 0.  1.
         -6    2    1    2    0  504 -0.47411829941E+02  0.41357409696E+01 -0.38581567559E+03  0.42585138480E+03  0.17386972258E+03 0.  0.
        -24    2    3    3    0    0 -0.10058858077E+03  0.36388667311E+01 -0.26120542857E+03  0.29028657603E+03  0.76855164939E+02 0.  0.
          6    2    1    2  502    0  0.47411829941E+02 -0.41357409696E+01 -0.52176338511E+03  0.55427409317E+03  0.18088049741E+03 0.  0.
         24    2    5    5    0    0  0.10282512300E+03  0.37789642608E+01 -0.39140031453E+03  0.41232376461E+03  0.78926511102E+02 0.  0.
          2    1    6    6  501    0  0.10559053960E+03 -0.57286319331E+00 -0.25729565422E+03  0.27812001709E+03  0.00000000000E+00 0. -1.
         -1    1    6    6    0  501 -0.27654165975E+01  0.43518274541E+01 -0.13410466031E+03  0.13420374752E+03  0.00000000000E+00 0.  1.
          5    1    5    5  502    0 -0.55413293062E+02 -0.79147052304E+01 -0.13036307058E+03  0.14195032856E+03  0.47000000000E+01 0. -1.
         11    1    4    4    0    0 -0.49832196795E+02 -0.26007949255E+02 -0.18899212414E+03  0.19717424845E+03  0.00000000000E+00 0. -1.
        -12    1    4    4    0    0 -0.50756383974E+02  0.29646815986E+02 -0.72213304422E+02  0.93112327583E+02  0.00000000000E+00 0.  1.
         -5    1    3    3    0  504  0.53176750828E+02  0.49687423848E+00 -0.12461024703E+03  0.13556480877E+03  0.47000000000E+01 0.  1.
<mgrwt>
<rscale>  2 0.18532046E+03</rscale>
<asrwt>0</asrwt>
<pdfrwt beam="1">  1       21 0.55804935E-02 0.18703674E+03</pdfrwt>
<pdfrwt beam="2">  1       21 0.14520804E+00 0.18703674E+03</pdfrwt>
<totfact> 0.72835752E+04</totfact>
</mgrwt>
</event>
<event>
12    1  0.2743855E-001  0.2398740E+03  0.7546771E-02  0.1119982E+00
         21   -1    0    0  502  503  0.00000000000E+00  0.00000000000E+00  0.92713828627E+03  0.92713828627E+03  0.00000000000E+00 0.  1.
         21   -1    0    0  503  504 -0.00000000000E+00 -0.00000000000E+00 -0.14808296757E+03  0.14808296757E+03  0.00000000000E+00 0.  1.
         -6    2    1    2    0  504  0.13882867106E+03 -0.91415680767E+02 -0.20824227357E+02  0.24014830064E+03  0.17206781005E+03 0.  0.
        -24    2    3    3    0    0  0.72278162890E+02 -0.25423698742E+02  0.50703144937E+02  0.12215606862E+03  0.80503409279E+02 0.  0.
          6    2    1    2  502    0 -0.13882867106E+03  0.91415680767E+02  0.79987954605E+03  0.83507295320E+03  0.17294311891E+03 0.  0.
         24    2    5    5    0    0 -0.88572818558E+02 -0.50919591158E+01  0.29247694140E+03  0.31611354393E+03  0.80708978242E+02 0.  0.
          4    1    6    6  501    0 -0.12980235904E+02 -0.15707029975E+02  0.85382409830E+01  0.22092959825E+02  0.00000000000E+00 0. -1.
         -3    1    6    6    0  501 -0.75592582654E+02  0.10615070859E+02  0.28393870042E+03  0.29402058410E+03  0.00000000000E+00 0.  1.
          5    1    5    5  502    0 -0.50255852500E+02  0.96507639883E+02  0.50740260465E+03  0.51895940927E+03  0.47000000000E+01 0. -1.
         13    1    4    4    0    0 -0.15503357741E+02  0.55090987486E+01  0.62113072370E+00  0.16464813198E+02  0.00000000000E+00 0. -1.
        -14    1    4    4    0    0  0.87781520631E+02 -0.30932797490E+02  0.50082014214E+02  0.10569125542E+03  0.00000000000E+00 0.  1.
         -5    1    3    3    0  504  0.66550508168E+02 -0.65991982025E+02 -0.71527372294E+02  0.11799223202E+03  0.47000000000E+01 0.  1.
<mgrwt>
<rscale>  2 0.23971630E+03</rscale>
<asrwt>0</asrwt>
<pdfrwt beam="1">  1       21 0.14263666E+00 0.23987403E+03</pdfrwt>
<pdfrwt beam="2">  1       21 0.22781996E-01 0.23987403E+03</pdfrwt>
<totfact> 0.59475224E+03</totfact>
</mgrwt>
</event>
<event>
12    1  0.2743855E-001  0.2535344E+03  0.7546771E-02  0.1111107E+00
         21   -1    0    0  502  503  0.00000000000E+00  0.00000000000E+00  0.56939151880E+03  0.56939151880E+03  0.00000000000E+00 0.  1.
         21   -1    0    0  503  504 -0.00000000000E+00 -0.00000000000E+00 -0.11628071370E+03  0.11628071370E+03  0.00000000000E+00 0. -1.
         -6    2    1    2    0  504 -0.13813256974E+03 -0.12452500120E+03  0.16760350096E+03  0.30384224792E+03  0.17216879897E+03 0.  0.
        -24    2    3    3    0    0 -0.67920469381E+02 -0.90532934584E+02  0.23602119308E+02  0.14000181473E+03  0.78955973088E+02 0.  0.
          6    2    1    2  502    0  0.13813256974E+03  0.12452500120E+03  0.28550730413E+03  0.38182998458E+03  0.17231550617E+03 0.  0.
         24    2    5    5    0    0  0.75291203408E+02  0.97028564151E+01  0.10285771263E+03  0.15707205807E+03  0.91263418986E+02 0.  0.
          2    1    6    6  501    0 -0.15161443320E+02 -0.12828897622E+02  0.23631819971E+01  0.20000865153E+02  0.00000000000E+00 0. -1.
         -1    1    6    6    0  501  0.90452646727E+02  0.22531754037E+02  0.10049453063E+03  0.13707119291E+03  0.00000000000E+00 0.  1.
          5    1    5    5  502    0  0.62841366332E+02  0.11482214479E+03  0.18264959151E+03  0.22475792652E+03  0.47000000000E+01 0. -1.
         13    1    4    4    0    0 -0.84542075593E+02 -0.83910220765E+02  0.26086765407E+02  0.12193771781E+03  0.00000000000E+00 0. -1.
        -14    1    4    4    0    0  0.16621606212E+02 -0.66227138192E+01 -0.24846460993E+01  0.18064096923E+02  0.00000000000E+00 0.  1.
         -5    1    3    3    0  504 -0.70212100358E+02 -0.33992066617E+02  0.14400138165E+03  0.16384043319E+03  0.47000000000E+01 0.  1.
<mgrwt>
<rscale>  2 0.25350952E+03</rscale>
<asrwt>0</asrwt>
<pdfrwt beam="1">  1       21 0.87598694E-01 0.25353445E+03</pdfrwt>
<pdfrwt beam="2">  1       21 0.17889341E-01 0.25353445E+03</pdfrwt>
<totfact> 0.30791103E+04</totfact>
</mgrwt>
</event>
<event>
12    1  0.2743855E-001  0.2526561E+03  0.7546771E-02  0.1111717E+00
         21   -1    0    0  502  503  0.00000000000E+00  0.00000000000E+00  0.18089735932E+04  0.18089735932E+04  0.00000000000E+00 0. -1.
         21   -1    0    0  503  504 -0.00000000000E+00 -0.00000000000E+00 -0.26658934288E+03  0.26658934288E+03  0.00000000000E+00 0. -1.
         -6    2    1    2    0  504  0.47483081152E+02  0.17670604704E+03 -0.19571853824E+03  0.31919270319E+03  0.17348938153E+03 0.  0.
        -24    2    3    3    0    0  0.76519493369E+02  0.42769392493E+02 -0.91192704780E+02  0.14676915339E+03  0.74435349005E+02 0.  0.
          6    2    1    2  502    0 -0.47483081152E+02 -0.17670604704E+03  0.17381027886E+04  0.17563702329E+04  0.17422807280E+03 0.  0.
         24    2    5    5    0    0 -0.89782485014E+02 -0.16843283887E+03  0.13038840942E+04  0.13199923576E+04  0.76390949189E+02 0.  0.
          2    1    6    6  501    0 -0.88401524864E+02 -0.13204584361E+03  0.11864038186E+04  0.11969983104E+04  0.00000000000E+00 0. -1.
         -1    1    6    6    0  501 -0.13809601501E+01 -0.36386995264E+02  0.11748027568E+03  0.12299404721E+03  0.00000000000E+00 0.  1.
          5    1    5    5  502    0  0.42299403861E+02 -0.82732081669E+01  0.43421869434E+03  0.43637787530E+03  0.47000000000E+01 0. -1.
         11    1    4    4    0    0  0.70370162027E+02 -0.14205991832E+01 -0.55765348679E+02  0.89798395972E+02  0.00000000000E+00 0. -1.
        -12    1    4    4    0    0  0.61493313417E+01  0.44189991676E+02 -0.35427356101E+02  0.56970757416E+02  0.00000000000E+00 0.  1.
         -5    1    3    3    0  504 -0.29036412217E+02  0.13393665455E+03 -0.10452583346E+03  0.17242354980E+03  0.47000000000E+01 0.  1.
<mgrwt>
<rscale>  2 0.25252877E+03</rscale>
<asrwt>0</asrwt>
<pdfrwt beam="1">  1       21 0.27830362E+00 0.25265607E+03</pdfrwt>
<pdfrwt beam="2">  1       21 0.41013746E-01 0.25265607E+03</pdfrwt>
<totfact> 0.24118873E+02</totfact>
</mgrwt>
</event>
<event>
12    1  0.2743855E-001  0.2048283E+03  0.7546771E-02  0.1145973E+00
         21   -1    0    0  502  503  0.00000000000E+00  0.00000000000E+00  0.67086097726E+03  0.67086097726E+03  0.00000000000E+00 0. -1.
         21   -1    0    0  503  504 -0.00000000000E+00 -0.00000000000E+00 -0.11004545879E+03  0.11004545879E+03  0.00000000000E+00 0. -1.
         -6    2    1    2    0  504 -0.10157456552E+03  0.62294942145E+01  0.22418416122E+02  0.20486298847E+03  0.17638044026E+03 0.  0.
        -24    2    3    3    0    0 -0.26873188980E+01  0.50124039558E+02  0.91490182775E+01  0.95759434109E+02  0.81034089499E+02 0.  0.
          6    2    1    2  502    0  0.10157456552E+03 -0.62294942145E+01  0.53839710235E+03  0.57604344758E+03  0.17775942934E+03 0.  0.
         24    2    5    5    0    0 -0.79389630901E+01  0.32475907179E+02  0.26076229751E+03  0.27505425192E+03  0.80871218694E+02 0.  0.
          4    1    6    6  501    0 -0.26476361130E+02  0.97994432184E+01  0.25710028424E+02  0.38184189760E+02  0.00000000000E+00 0. -1.
         -3    1    6    6    0  501  0.18537398040E+02  0.22676463961E+02  0.23505226909E+03  0.23687006216E+03  0.00000000000E+00 0.  1.
          5    1    5    5  502    0  0.10951352861E+03 -0.38705401394E+02  0.27763480484E+03  0.30098919566E+03  0.47000000000E+01 0. -1.
         11    1    4    4    0    0 -0.12423590826E+02 -0.30199048892E+00 -0.29153567458E+02  0.31691754493E+02  0.00000000000E+00 0. -1.
        -12    1    4    4    0    0  0.97362719281E+01  0.50426030047E+02  0.38302585736E+02  0.64067679616E+02  0.00000000000E+00 0.  1.
         -5    1    3    3    0  504 -0.98887246620E+02 -0.43894545343E+02  0.13269397845E+02  0.10910355436E+03  0.47000000000E+01 0.  1.
<mgrwt>
<rscale>  2 0.20452870E+03</rscale>
<asrwt>0</asrwt>
<pdfrwt beam="1">  1       21 0.10320938E+00 0.20482825E+03</pdfrwt>
<pdfrwt beam="2">  1       21 0.16930071E-01 0.20482825E+03</pdfrwt>
<totfact> 0.23758369E+04</totfact>
</mgrwt>
</event>
<event>
12    1  0.2743855E-001  0.1825677E+03  0.7546771E-02  0.1165484E+00
         21   -1    0    0  502  503  0.00000000000E+00  0.00000000000E+00  0.32430779064E+03  0.32430779064E+03  0.00000000000E+00 0.  1.
         21   -1    0    0  503  504 -0.00000000000E+00 -0.00000000000E+00 -0.10986440822E+03  0.10986440822E+03  0.00000000000E+00 0.  1.
         -6    2    1    2    0  504  0.19135695700E+02 -0.54374335197E+02  0.50616147297E+02  0.18887578440E+03  0.17259584116E+03 0.  0.
        -24    2    3    3    0    0  0.28321938200E+02 -0.45950415870E+02 -0.33883762017E+02  0.10333237938E+03  0.81338173068E+02 0.  0.
          6    2    1    2  502    0 -0.19135695700E+02  0.54374335197E+02  0.16382723513E+03  0.24529641446E+03  0.17322882208E+03 0.  0.
         24    2    5    5    0    0 -0.49451712346E+02  0.65907498625E+02  0.47155732513E+02  0.12410893884E+03  0.79938072052E+02 0.  0.
          4    1    6    6  501    0  0.48090009137E+01  0.41185374248E+02  0.49329702528E+02  0.64442075488E+02  0.00000000000E+00 0. -1.
         -3    1    6    6    0  501 -0.54260713260E+02  0.24722124377E+02 -0.21739700152E+01  0.59666863356E+02  0.00000000000E+00 0.  1.
          5    1    5    5  502    0  0.30316016646E+02 -0.11533163427E+02  0.11667150261E+03  0.12118747562E+03  0.47000000000E+01 0. -1.
         11    1    4    4    0    0 -0.41512810395E+01  0.41555459929E+01 -0.42589330127E+02  0.42992473033E+02  0.00000000000E+00 0. -1.
        -12    1    4    4    0    0  0.32473219239E+02 -0.50105961863E+02  0.87055681104E+01  0.60339906348E+02  0.00000000000E+00 0.  1.
         -5    1    3    3    0  504 -0.91862424993E+01 -0.84239193275E+01  0.84499909314E+02  0.85543405018E+02  0.47000000000E+01 0.  1.
<mgrwt>
<rscale>  2 0.18241740E+03</rscale>
<asrwt>0</asrwt>
<pdfrwt beam="1">  1       21 0.49893506E-01 0.18256771E+03</pdfrwt>
<pdfrwt beam="2">  1       21 0.16902217E-01 0.18256771E+03</pdfrwt>
<totfact> 0.12110675E+05</totfact>
</mgrwt>
</event>
<event>
12    1  0.2743855E-001  0.1776908E+03  0.7546771E-02  0.1171017E+00
         21   -1    0    0  502  503  0.00000000000E+00  0.00000000000E+00  0.71496997643E+03  0.71496997643E+03  0.00000000000E+00 0.  1.
         21   -1    0    0  503  504 -0.00000000000E+00 -0.00000000000E+00 -0.49585517484E+02  0.49585517484E+02  0.00000000000E+00 0.  1.
         -6    2    1    2    0  504  0.32095517083E+02  0.24815565751E+02  0.47295529396E+03  0.50523332800E+03  0.17299731535E+03 0.  0.
        -24    2    3    3    0    0  0.54253564293E+02 -0.24273036934E+02  0.16660854169E+03  0.19415280371E+03  0.80026717175E+02 0.  0.
          6    2    1    2  502    0 -0.32095517083E+02 -0.24815565751E+02  0.19242916499E+03  0.25932216592E+03  0.16903569942E+03 0.  0.
         24    2    5    5    0    0 -0.39246268948E+01 -0.63663047135E+02  0.67624730819E+02  0.12552768676E+03  0.84354665898E+02 0.  0.
          2    1    6    6  501    0  0.91898916655E+00 -0.58083531040E+02  0.59691283508E+00  0.58093867354E+02  0.00000000000E+00 0. -1.
         -1    1    6    6    0  501 -0.48436160614E+01 -0.55795160946E+01  0.67027817983E+02  0.67433819409E+02  0.00000000000E+00 0.  1.
          5    1    5    5  502    0 -0.28170890189E+02  0.38847481383E+02  0.12480443417E+03  0.13379447915E+03  0.47000000000E+01 0. -1.
         11    1    4    4    0    0 -0.12826467854E+02 -0.27089737003E+02  0.32716619723E+02  0.44370590875E+02  0.00000000000E+00 0. -1.
        -12    1    4    4    0    0  0.67080032146E+02  0.28167000692E+01  0.13389192197E+03  0.14978221283E+03  0.00000000000E+00 0.  1.
         -5    1    3    3    0  504 -0.22158047209E+02  0.49088602685E+02  0.30634675227E+03  0.31108052430E+03  0.47000000000E+01 0.  1.
<mgrwt>
<rscale>  2 0.17671916E+03</rscale>
<asrwt>0</asrwt>
<pdfrwt beam="1">  1       21 0.10999537E+00 0.17769076E+03</pdfrwt>
<pdfrwt beam="2">  1       21 0.76285417E-02 0.17769076E+03</pdfrwt>
<totfact> 0.85701259E+04</totfact>
</mgrwt>
</event>
<event>
12    1  0.2743855E-001  0.1756246E+03  0.7546771E-02  0.1172111E+00
         21   -1    0    0  502  503  0.00000000000E+00  0.00000000000E+00  0.89873834423E+02  0.89873834423E+02  0.00000000000E+00 0.  1.
         21   -1    0    0  503  504 -0.00000000000E+00 -0.00000000000E+00 -0.48480378269E+03  0.48480378269E+03  0.00000000000E+00 0.  1.
         -6    2    1    2    0  504  0.13326668282E+01  0.30259692810E+02 -0.35278850658E+03  0.39408595660E+03  0.17299302241E+03 0.  0.
        -24    2    3    3    0    0  0.28025233046E+02 -0.28719601605E+02 -0.29366810721E+03  0.30628867940E+03  0.77211195669E+02 0.  0.
          6    2    1    2  502    0 -0.13326668282E+01 -0.30259692810E+02 -0.42141441682E+02  0.18059166051E+03  0.17297404929E+03 0.  0.
         24    2    5    5    0    0  0.66118480395E+02 -0.18680311354E+02 -0.13267343341E+02  0.10616355499E+03  0.79837776310E+02 0.  0.
          2    1    6    6  501    0  0.65865194384E+02 -0.43494779810E+02 -0.17861247417E+02  0.80926163021E+02  0.00000000000E+00 0. -1.
         -1    1    6    6    0  501  0.25328601104E+00  0.24814468456E+02  0.45939040760E+01  0.25237391966E+02  0.00000000000E+00 0.  1.
          5    1    5    5  502    0 -0.67451147223E+02 -0.11579381456E+02 -0.28874098340E+02  0.74428105522E+02  0.47000000000E+01 0. -1.
         13    1    4    4    0    0 -0.12133246209E+02  0.20077900815E+02 -0.67684183614E+02  0.71634394506E+02  0.00000000000E+00 0. -1.
        -14    1    4    4    0    0  0.40158479255E+02 -0.48797502420E+02 -0.22598392359E+03  0.23465428490E+03  0.00000000000E+00 0.  1.
         -5    1    3    3    0  504 -0.26692566218E+02  0.58979294415E+02 -0.59120399377E+02  0.87797277199E+02  0.47000000000E+01 0.  1.
<mgrwt>
<rscale>  2 0.17561996E+03</rscale>
<asrwt>0</asrwt>
<pdfrwt beam="1">  1       21 0.13826744E-01 0.17562463E+03</pdfrwt>
<pdfrwt beam="2">  1       21 0.74585196E-01 0.17562463E+03</pdfrwt>
<totfact> 0.73749400E+04</totfact>
</mgrwt>
</event>
<event>
12    1  0.2743855E-001  0.2145243E+03  0.7546771E-02  0.1138295E+00
         21   -1    0    0  502  503  0.00000000000E+00  0.00000000000E+00  0.78743320497E+02  0.78743320497E+02  0.00000000000E+00 0. -1.
         21   -1    0    0  503  504 -0.00000000000E+00 -0.00000000000E+00 -0.61737290906E+03  0.61737290906E+03  0.00000000000E+00 0. -1.
         -6    2    1    2    0  504 -0.84004087799E+02 -0.93133380162E+02 -0.18534192714E+03  0.28350008862E+03  0.17404067635E+03 0.  0.
        -24    2    3    3    0    0 -0.36554031145E+02 -0.12933960825E+02 -0.21226844267E+02  0.94716336233E+02  0.83768257093E+02 0.  0.
          6    2    1    2  502    0  0.84004087799E+02  0.93133380162E+02 -0.35328766141E+03  0.41261614093E+03  0.17236413427E+03 0.  0.
         24    2    5    5    0    0  0.75409160024E+02  0.96717032946E+02 -0.36761888789E+03  0.39489075227E+03  0.75857324092E+02 0.  0.
          4    1    6    6  501    0  0.83038223892E+02  0.99034427150E+02 -0.36375179621E+03  0.38602918754E+03  0.00000000000E+00 0. -1.
         -3    1    6    6    0  501 -0.76290638679E+01 -0.23173942045E+01 -0.38670916809E+01  0.88615647303E+01  0.00000000000E+00 0.  1.
          5    1    5    5  502    0  0.85949277744E+01 -0.35836527832E+01  0.14331226477E+02  0.17725388658E+02  0.47000000000E+01 0. -1.
         13    1    4    4    0    0 -0.34528623540E+02 -0.32540897618E+02  0.18055849312E+02  0.50765633609E+02  0.00000000000E+00 0. -1.
        -14    1    4    4    0    0 -0.20254076045E+01  0.19606936793E+02 -0.39282693579E+02  0.43950702624E+02  0.00000000000E+00 0.  1.
         -5    1    3    3    0  504 -0.47450056654E+02 -0.80199419338E+02 -0.16411508288E+03  0.18878375239E+03  0.47000000000E+01 0.  1.
<mgrwt>
<rscale>  2 0.21418400E+03</rscale>
<asrwt>0</asrwt>
<pdfrwt beam="1">  1       21 0.12114357E-01 0.21452429E+03</pdfrwt>
<pdfrwt beam="2">  1       21 0.94980448E-01 0.21452429E+03</pdfrwt>
<totfact> 0.52896390E+04</totfact>
</mgrwt>
</event>
<event>
12    1  0.2743855E-001  0.1822784E+03  0.7546771E-02  0.1165640E+00
         21   -1    0    0  502  503  0.00000000000E+00  0.00000000000E+00  0.95545485257E+03  0.95545485257E+03  0.00000000000E+00 0. -1.
         21   -1    0    0  503  504 -0.00000000000E+00 -0.00000000000E+00 -0.39340212880E+02  0.39340212880E+02  0.00000000000E+00 0. -1.
         -6    2    1    2    0  504  0.49157762032E+02  0.28927098649E+02  0.28836693695E+03  0.34114646962E+03  0.17312469727E+03 0.  0.
        -24    2    3    3    0    0  0.61774261686E+02  0.30662596201E+02  0.81578638007E+02  0.13391307802E+03  0.80755086976E+02 0.  0.
          6    2    1    2  502    0 -0.49157762032E+02 -0.28927098649E+02  0.62774770275E+03  0.65364859584E+03  0.17302036277E+03 0.  0.
         24    2    5    5    0    0  0.36803747444E+02 -0.12984718486E+02  0.24008175352E+03  0.25621870417E+03  0.80533578436E+02 0.  0.
          2    1    6    6  501    0 -0.51637685076E+01  0.27523757075E+02  0.49057487362E+02  0.56487686933E+02  0.00000000000E+00 0. -1.
         -1    1    6    6    0  501  0.41967515952E+02 -0.40508475561E+02  0.19102426615E+03  0.19973101724E+03  0.00000000000E+00 0.  1.
          5    1    5    5  502    0 -0.85961509476E+02 -0.15942380164E+02  0.38766594923E+03  0.39742989167E+03  0.47000000000E+01 0. -1.
         13    1    4    4    0    0 -0.17219590187E+01  0.38526790549E+02  0.14465855592E+02  0.41189072712E+02  0.00000000000E+00 0. -1.
        -14    1    4    4    0    0  0.63496220705E+02 -0.78641943477E+01  0.67112782415E+02  0.92724005307E+02  0.00000000000E+00 0.  1.
         -5    1    3    3    0  504 -0.12616499654E+02 -0.17354975516E+01  0.20678829894E+03  0.20723339160E+03  0.47000000000E+01 0.  1.
<mgrwt>
<rscale>  2 0.18225364E+03</rscale>
<asrwt>0</asrwt>
<pdfrwt beam="1">  1       21 0.14699304E+00 0.18227842E+03</pdfrwt>
<pdfrwt beam="2">  1       21 0.60523412E-02 0.18227842E+03</pdfrwt>
<totfact> 0.61574471E+04</totfact>
</mgrwt>
</event>
<event>
12    1  0.2743855E-001  0.2933682E+03  0.7546771E-02  0.1088627E+00
         21   -1    0    0  502  503  0.00000000000E+00  0.00000000000E+00  0.82427084606E+03  0.82427084606E+03  0.00000000000E+00 0.  1.
         21   -1    0    0  503  504 -0.00000000000E+00 -0.00000000000E+00 -0.18109815888E+03  0.18109815888E+03  0.00000000000E+00 0. -1.
         -6    2    1    2    0  504  0.13781480708E+03  0.19126209311E+03 -0.56051623615E+01  0.29342170679E+03  0.17461606701E+03 0.  0.
        -24    2    3    3    0    0  0.77028383317E+02  0.16456301345E+03  0.52232422994E+02  0.20524514273E+03  0.79893587808E+02 0.  0.
          6    2    1    2  502    0 -0.13781480708E+03 -0.19126209311E+03  0.64877784955E+03  0.71194729815E+03  0.17430475602E+03 0.  0.
         24    2    5    5    0    0 -0.90889985256E+02 -0.35278334443E+02  0.20895585188E+03  0.24290747947E+03  0.76393358674E+02 0.  0.
          4    1    6    6  501    0 -0.81543994862E+02  0.37655128831E+01  0.11798202478E+03  0.14346902229E+03  0.00000000000E+00 0. -1.
         -3    1    6    6    0  501 -0.93459903939E+01 -0.39043847326E+02  0.90973827102E+02  0.99438457189E+02  0.00000000000E+00 0.  1.
          5    1    5    5  502    0 -0.46924821827E+02 -0.15598375867E+03  0.43982199767E+03  0.46903981868E+03  0.47000000000E+01 0. -1.
         11    1    4    4    0    0  0.18978073810E+02  0.94617762791E+00 -0.91678072083E+01  0.21097659269E+02  0.00000000000E+00 0. -1.
        -12    1    4    4    0    0  0.58050309507E+02  0.16361683582E+03  0.61400230202E+02  0.18414748347E+03  0.00000000000E+00 0.  1.
         -5    1    3    3    0  504  0.60786423766E+02  0.26699079663E+02 -0.57837585355E+02  0.88176564057E+02  0.47000000000E+01 0.  1.
<mgrwt>
<rscale>  2 0.29332186E+03</rscale>
<asrwt>0</asrwt>
<pdfrwt beam="1">  1       21 0.12681090E+00 0.29336816E+03</pdfrwt>
<pdfrwt beam="2">  1       21 0.27861256E-01 0.29336816E+03</pdfrwt>
<totfact> 0.52939269E+03</totfact>
</mgrwt>
</event>
<event>
12    1  0.2743855E-001  0.2091781E+03  0.7546771E-02  0.1142395E+00
         21   -1    0    0  502  503  0.00000000000E+00  0.00000000000E+00  0.33787007890E+03  0.33787007890E+03  0.00000000000E+00 0.  1.
         21   -1    0    0  503  504 -0.00000000000E+00 -0.00000000000E+00 -0.16140883723E+03  0.16140883723E+03  0.00000000000E+00 0. -1.
         -6    2    1    2    0  504 -0.65434218746E+02 -0.95275858406E+02 -0.23858371795E+02  0.20965253620E+03  0.17327965215E+03 0.  0.
        -24    2    3    3    0    0 -0.31881012717E+02 -0.26954387804E+02 -0.74129215626E+02  0.11831312127E+03  0.82218708703E+02 0.  0.
          6    2    1    2  502    0  0.65434218746E+02  0.95275858406E+02  0.20031961347E+03  0.28962637993E+03  0.17434553689E+03 0.  0.
         24    2    5    5    0    0 -0.37894790330E+01  0.95997000006E+02  0.17473771091E+03  0.21567393495E+03  0.82171737501E+02 0.  0.
          2    1    6    6  501    0  0.62302213173E+00 -0.14160680464E+02  0.96068384104E+01  0.17123211499E+02  0.00000000000E+00 0. -1.
         -1    1    6    6    0  501 -0.44125011647E+01  0.11015768047E+03  0.16513087250E+03  0.19855072345E+03  0.00000000000E+00 0.  1.
          5    1    5    5  502    0  0.69223697779E+02 -0.72114160005E+00  0.25581902561E+02  0.73952444977E+02  0.47000000000E+01 0. -1.
         13    1    4    4    0    0 -0.19489746678E+02 -0.56394830648E+02 -0.54569617759E+02  0.80858334956E+02  0.00000000000E+00 0. -1.
        -14    1    4    4    0    0 -0.12391266038E+02  0.29440442844E+02 -0.19559597867E+02  0.37454786311E+02  0.00000000000E+00 0.  1.
         -5    1    3    3    0  504 -0.33553206029E+02 -0.68321470603E+02  0.50270843831E+02  0.91339414929E+02  0.47000000000E+01 0.  1.
<mgrwt>
<rscale>  2 0.20895589E+03</rscale>
<asrwt>0</asrwt>
<pdfrwt beam="1">  1       21 0.51980012E-01 0.20917814E+03</pdfrwt>
<pdfrwt beam="2">  1       21 0.24832129E-01 0.20917814E+03</pdfrwt>
<totfact> 0.53478891E+04</totfact>
</mgrwt>
</event>
<event>
12    1  0.2743855E-001  0.2011767E+03  0.7546771E-02  0.1148769E+00
         21   -1    0    0  502  503  0.00000000000E+00  0.00000000000E+00  0.20534381593E+02  0.20534381593E+02  0.00000000000E+00 0.  1.
         21   -1    0    0  503  504 -0.00000000000E+00 -0.00000000000E+00 -0.22460593757E+04  0.22460593757E+04  0.00000000000E+00 0.  1.
         -6    2    1    2    0  504  0.54787862205E+02  0.86932448493E+02 -0.15102748628E+04  0.15236148491E+04  0.17295400218E+03 0.  0.
        -24    2    3    3    0    0  0.24820517627E+02  0.12218873500E+03 -0.95771672337E+03  0.96910277990E+03  0.79954554190E+02 0.  0.
          6    2    1    2  502    0 -0.54787862205E+02 -0.86932448493E+02 -0.71525013132E+03  0.74297890817E+03  0.17284660014E+03 0.  0.
         24    2    5    5    0    0  0.20080832456E+02 -0.41254745150E+01 -0.39885747401E+03  0.40743648167E+03  0.80603614371E+02 0.  0.
          4    1    6    6  501    0  0.32692448110E+02  0.23239668601E+02 -0.32793175026E+03  0.33037571216E+03  0.00000000000E+00 0. -1.
         -3    1    6    6    0  501 -0.12611615655E+02 -0.27365143116E+02 -0.70925723750E+02  0.77060769504E+02  0.00000000000E+00 0.  1.
          5    1    5    5  502    0 -0.74868694661E+02 -0.82806973978E+02 -0.31639265731E+03  0.33554242650E+03  0.47000000000E+01 0. -1.
         13    1    4    4    0    0 -0.22829566797E+02  0.76938690790E+02 -0.44330306146E+03  0.45050899610E+03  0.00000000000E+00 0. -1.
        -14    1    4    4    0    0  0.47650084424E+02  0.45250044214E+02 -0.51441366191E+03  0.51859378381E+03  0.00000000000E+00 0.  1.
         -5    1    3    3    0  504  0.29967344579E+02 -0.35256286510E+02 -0.55255813942E+03  0.55451206923E+03  0.47000000000E+01 0.  1.
<mgrwt>
<rscale>  2 0.20115357E+03</rscale>
<asrwt>0</asrwt>
<pdfrwt beam="1">  1       21 0.31591365E-02 0.20117666E+03</pdfrwt>
<pdfrwt beam="2">  1       21 0.34554750E+00 0.20117666E+03</pdfrwt>
<totfact> 0.10683413E+04</totfact>
</mgrwt>
</event>
<event>
12    1  0.2743855E-001  0.2029461E+03  0.7546771E-02  0.1147329E+00
         21   -1    0    0  502  503  0.00000000000E+00  0.00000000000E+00  0.52638859580E+03  0.52638859580E+03  0.00000000000E+00 0.  1.
         21   -1    0    0  503  504 -0.00000000000E+00 -0.00000000000E+00 -0.12699849394E+03  0.12699849394E+03  0.00000000000E+00 0.  1.
         -6    2    1    2    0  504  0.10256791286E+03  0.21864194282E+02 -0.29965187763E+01  0.20271856701E+03  0.17345782930E+03 0.  0.
        -24    2    3    3    0    0  0.87045921114E+02  0.19775022061E+02  0.62422390923E+02  0.13528696748E+03  0.80236929169E+02 0.  0.
          6    2    1    2  502    0 -0.10256791286E+03 -0.21864194282E+02  0.40238662064E+03  0.45066852274E+03  0.17374954727E+03 0.  0.
         24    2    5    5    0    0 -0.10673065175E+03 -0.51560521491E+02  0.39402512669E+03  0.41918511717E+03  0.80065239640E+02 0.  0.
          2    1    6    6  501    0 -0.76853020414E+02  0.98306919535E+00  0.27708598918E+03  0.28754825434E+03  0.00000000000E+00 0. -1.
         -1    1    6    6    0  501 -0.29877631331E+02 -0.52543590686E+02  0.11693913751E+03  0.13163686284E+03  0.00000000000E+00 0.  1.
          5    1    5    5  502    0  0.41627388826E+01  0.29696327209E+02  0.83614939448E+01  0.31483405561E+02  0.47000000000E+01 0. -1.
         11    1    4    4    0    0  0.15914935148E+02 -0.11197526576E+02  0.53819905524E+02  0.57229817340E+02  0.00000000000E+00 0. -1.
        -12    1    4    4    0    0  0.71130985966E+02  0.30972548636E+02  0.86024853985E+01  0.78057150144E+02  0.00000000000E+00 0.  1.
         -5    1    3    3    0  504  0.15521991748E+02  0.20891722214E+01 -0.65418909699E+02  0.67431599526E+02  0.47000000000E+01 0.  1.
<mgrwt>
<rscale>  2 0.20288366E+03</rscale>
<asrwt>0</asrwt>
<pdfrwt beam="1">  1       21 0.80982860E-01 0.20294611E+03</pdfrwt>
<pdfrwt beam="2">  1       21 0.19538230E-01 0.20294611E+03</pdfrwt>
<totfact> 0.32074846E+04</totfact>
</mgrwt>
</event>
<event>
12    1  0.2743855E-001  0.2124044E+03  0.7546771E-02  0.1143786E+00
         21   -1    0    0  502  503  0.00000000000E+00  0.00000000000E+00  0.39641445687E+03  0.39641445687E+03  0.00000000000E+00 0. -1.
         21   -1    0    0  503  504 -0.00000000000E+00 -0.00000000000E+00 -0.10483882602E+03  0.10483882602E+03  0.00000000000E+00 0. -1.
         -6    2    1    2    0  504  0.72652358186E+02  0.55561793539E+02  0.10887753476E+03  0.22108509237E+03  0.16928916812E+03 0.  0.
        -24    2    3    3    0    0  0.37108656304E+02  0.93249952243E+02  0.40216452922E+02  0.13494458965E+03  0.80746970371E+02 0.  0.
          6    2    1    2  502    0 -0.72652358186E+02 -0.55561793539E+02  0.18269809610E+03  0.28016819052E+03  0.19170326708E+03 0.  0.
         24    2    5    5    0    0 -0.92025809630E+02 -0.10191987736E+03  0.11790709985E+03  0.19804410300E+03  0.80392608479E+02 0.  0.
          2    1    6    6  501    0 -0.85109615986E+02 -0.10350913463E+03  0.12825833418E+03  0.18549390279E+03  0.00000000000E+00 0. -1.
         -1    1    6    6    0  501 -0.69161936438E+01  0.15892572746E+01 -0.10351234326E+02  0.12550200209E+02  0.00000000000E+00 0.  1.
          5    1    5    5  502    0  0.19373451444E+02  0.46358083820E+02  0.64790996250E+02  0.82124087522E+02  0.47000000000E+01 0. -1.
         13    1    4    4    0    0  0.59992771512E+02  0.44017250878E+02  0.20459554543E+02  0.77170229886E+02  0.00000000000E+00 0. -1.
        -14    1    4    4    0    0 -0.22884115208E+02  0.49232701365E+02  0.19756898379E+02  0.57774359764E+02  0.00000000000E+00 0.  1.
         -5    1    3    3    0  504  0.35543701883E+02 -0.37688158705E+02  0.68661081834E+02  0.86140502719E+02  0.47000000000E+01 0.  1.
<mgrwt>
<rscale>  2 0.20722085E+03</rscale>
<asrwt>0</asrwt>
<pdfrwt beam="1">  1       21 0.60986839E-01 0.21240438E+03</pdfrwt>
<pdfrwt beam="2">  1       21 0.16129050E-01 0.21240438E+03</pdfrwt>
<totfact> 0.85248027E+04</totfact>
</mgrwt>
</event>
<event>
12    1  0.2743855E-001  0.2870592E+03  0.7546771E-02  0.1093135E+00
         21   -1    0    0  502  503  0.00000000000E+00  0.00000000000E+00  0.45057527151E+03  0.45057527151E+03  0.00000000000E+00 0. -1.
         21   -1    0    0  503  504 -0.00000000000E+00 -0.00000000000E+00 -0.32545029932E+03  0.32545029932E+03  0.00000000000E+00 0. -1.
         -6    2    1    2    0  504  0.69372922425E+01  0.22723565468E+03 -0.19886653066E+03  0.34921465813E+03  0.17526782836E+03 0.  0.
        -24    2    3    3    0    0 -0.53181860140E+02  0.20786638777E+03 -0.17561430615E+03  0.28174439114E+03  0.50027712335E+02 0.  0.
          6    2    1    2  502    0 -0.69372922425E+01 -0.22723565468E+03  0.32399150285E+03  0.42681091270E+03  0.15972755711E+03 0.  0.
         24    2    5    5    0    0 -0.34908622898E+02 -0.70718771279E+02  0.17782525295E+03  0.21078639387E+03  0.81174667778E+02 0.  0.
          2    1    6    6  501    0 -0.34137273637E+02 -0.85974755514E+02  0.17019915646E+03  0.19371309945E+03  0.00000000000E+00 0. -1.
         -1    1    6    6    0  501 -0.77134926096E+00  0.15255984235E+02  0.76260964866E+01  0.17073294418E+02  0.00000000000E+00 0.  1.
          5    1    5    5  502    0  0.27971330656E+02 -0.15651688340E+03  0.14616624990E+03  0.21602451884E+03  0.47000000000E+01 0. -1.
         13    1    4    4    0    0 -0.51533683302E+02  0.13498768777E+03 -0.94307726262E+02  0.17254374401E+03  0.00000000000E+00 0. -1.
        -14    1    4    4    0    0 -0.16481768383E+01  0.72878700000E+02 -0.81306579884E+02  0.10920064713E+03  0.00000000000E+00 0.  1.
         -5    1    3    3    0  504  0.60119152383E+02  0.19369266911E+02 -0.23252224512E+02  0.67470266997E+02  0.47000000000E+01 0.  1.
<mgrwt>
<rscale>  2 0.28472703E+03</rscale>
<asrwt>0</asrwt>
<pdfrwt beam="1">  1       21 0.69319273E-01 0.28705919E+03</pdfrwt>
<pdfrwt beam="2">  1       21 0.50069277E-01 0.28705919E+03</pdfrwt>
<totfact> 0.67854858E+03</totfact>
</mgrwt>
</event>
<event>
12    1  0.2743855E-001  0.1791096E+03  0.7546771E-02  0.1168862E+00
         21   -1    0    0  502  503  0.00000000000E+00  0.00000000000E+00  0.19250926163E+03  0.19250926163E+03  0.00000000000E+00 0. -1.
         21   -1    0    0  503  504 -0.00000000000E+00 -0.00000000000E+00 -0.16643020882E+03  0.16643020882E+03  0.00000000000E+00 0. -1.
         -6    2    1    2    0  504  0.17002700186E+02  0.43392093337E+02  0.23110819458E+02  0.17980527521E+03  0.17211583727E+03 0.  0.
        -24    2    3    3    0    0  0.47587282747E+02  0.36386490262E+01 -0.38120594967E+02  0.10051385614E+03  0.79825223265E+02 0.  0.
          6    2    1    2  502    0 -0.17002700186E+02 -0.43392093337E+02  0.29682333575E+01  0.17913419524E+03  0.17294011657E+03 0.  0.
         24    2    5    5    0    0 -0.46492910233E+02  0.61904367785E+01 -0.44489324112E+02  0.10428494981E+03  0.81829936985E+02 0.  0.
          4    1    6    6  501    0 -0.34121956888E+02 -0.11358288472E+01  0.19079545025E+02  0.39110447292E+02  0.00000000000E+00 0. -1.
         -3    1    6    6    0  501 -0.12370953345E+02  0.73262656257E+01 -0.63568869138E+02  0.65174502516E+02  0.00000000000E+00 0.  1.
          5    1    5    5  502    0  0.29490210047E+02 -0.49582530116E+02  0.47457557470E+02  0.74849245436E+02  0.47000000000E+01 0. -1.
         11    1    4    4    0    0  0.19967042617E+02 -0.26044049900E+00 -0.61158641284E+02  0.64336070938E+02  0.00000000000E+00 0. -1.
        -12    1    4    4    0    0  0.27620240130E+02  0.38990895252E+01  0.23038046316E+02  0.36177785201E+02  0.00000000000E+00 0.  1.
         -5    1    3    3    0  504 -0.30584582562E+02  0.39753444311E+02  0.61231414426E+02  0.79291419067E+02  0.47000000000E+01 0.  1.
<mgrwt>
<rscale>  2 0.17891033E+03</rscale>
<asrwt>0</asrwt>
<pdfrwt beam="1">  1       21 0.29616809E-01 0.17910960E+03</pdfrwt>
<pdfrwt beam="2">  1       21 0.25604648E-01 0.17910960E+03</pdfrwt>
<totfact> 0.15878108E+05</totfact>
</mgrwt>
</event>
<event>
12    1  0.2743855E-001  0.2883752E+03  0.7546771E-02  0.1091358E+00
         21   -1    0    0  502  503  0.00000000000E+00  0.00000000000E+00  0.23618118928E+03  0.23618118928E+03  0.00000000000E+00 0.  1.
         21   -1    0    0  503  504 -0.00000000000E+00 -0.00000000000E+00 -0.35071574742E+03  0.35071574742E+03  0.00000000000E+00 0. -1.
         -6    2    1    2    0  504  0.21692444739E+03 -0.75095058570E+02 -0.52878589256E+02  0.29200423662E+03  0.17255389101E+03 0.  0.
        -24    2    3    3    0    0  0.11289597068E+03 -0.54405076628E+00  0.22203115140E+02  0.14354842142E+03  0.85833412977E+02 0.  0.
          6    2    1    2  502    0 -0.21692444739E+03  0.75095058570E+02 -0.61655968884E+02  0.29489270008E+03  0.17454157776E+03 0.  0.
         24    2    5    5    0    0 -0.16596121112E+03  0.48698713873E+02  0.22556104019E+02  0.19287416409E+03  0.82322396803E+02 0.  0.
          2    1    6    6  501    0 -0.61608406769E+02  0.58545898010E+02  0.23038208082E+02  0.88056669197E+02  0.00000000000E+00 0. -1.
         -1    1    6    6    0  501 -0.10435280435E+03 -0.98471841369E+01 -0.48210406365E+00  0.10481749489E+03  0.00000000000E+00 0.  1.
          5    1    5    5  502    0 -0.50963236270E+02  0.26396344697E+02 -0.84212072902E+02  0.10201853600E+03  0.47000000000E+01 0. -1.
         11    1    4    4    0    0  0.27403518584E+02 -0.16129915305E+02 -0.28700993129E+02  0.42835429321E+02  0.00000000000E+00 0. -1.
        -12    1    4    4    0    0  0.85492452094E+02  0.15585864539E+02  0.50904108269E+02  0.10071299210E+03  0.00000000000E+00 0.  1.
         -5    1    3    3    0  504  0.10402847671E+03 -0.74551007803E+02 -0.75081704396E+02  0.14845581520E+03  0.47000000000E+01 0.  1.
<mgrwt>
<rscale>  2 0.28807504E+03</rscale>
<asrwt>0</asrwt>
<pdfrwt beam="1">  1       21 0.36335568E-01 0.28837518E+03</pdfrwt>
<pdfrwt beam="2">  1       21 0.53956269E-01 0.28837518E+03</pdfrwt>
<totfact> 0.22633787E+04</totfact>
</mgrwt>
</event>
<event>
12    1  0.2743855E-001  0.4210041E+03  0.7546771E-02  0.1036853E+00
         21   -1    0    0  502  503  0.00000000000E+00  0.00000000000E+00  0.34297191510E+03  0.34297191510E+03  0.00000000000E+00 0.  1.
         21   -1    0    0  503  504 -0.00000000000E+00 -0.00000000000E+00 -0.51534249418E+03  0.51534249418E+03  0.00000000000E+00 0.  1.
         -6    2    1    2    0  504  0.14747387676E+02 -0.38235484425E+03 -0.76475735287E+02  0.42652706097E+03  0.17223264292E+03 0.  0.
        -24    2    3    3    0    0  0.42591775165E+02 -0.37836319828E+03 -0.81736412772E+02  0.39752692511E+03  0.79837622050E+02 0.  0.
          6    2    1    2  502    0 -0.14747387676E+02  0.38235484425E+03 -0.95894843788E+02  0.43178734831E+03  0.17558980815E+03 0.  0.
         24    2    5    5    0    0 -0.25494070994E+01  0.34098846218E+03 -0.27972378664E+02  0.35119256210E+03  0.79209411607E+02 0.  0.
          2    1    6    6  501    0  0.13520212475E+02  0.30881225774E+03 -0.43244788085E+02  0.31211843645E+03  0.00000000000E+00 0. -1.
         -1    1    6    6    0  501 -0.16069619575E+02  0.32176204439E+02  0.15272409421E+02  0.39074125644E+02  0.00000000000E+00 0.  1.
          5    1    5    5  502    0 -0.12197980577E+02  0.41366382070E+02 -0.67922465124E+02  0.80594786210E+02  0.47000000000E+01 0. -1.
         11    1    4    4    0    0  0.24943063751E+02 -0.11916452959E+03  0.96375287906E+01  0.12212789813E+03  0.00000000000E+00 0. -1.
        -12    1    4    4    0    0  0.17648711414E+02 -0.25919866869E+03 -0.91373941562E+02  0.27539902698E+03  0.00000000000E+00 0.  1.
         -5    1    3    3    0  504 -0.27844387489E+02 -0.39916459760E+01  0.52606774842E+01  0.29000135859E+02  0.47000000000E+01 0.  1.
<mgrwt>
<rscale>  2 0.42065645E+03</rscale>
<asrwt>0</asrwt>
<pdfrwt beam="1">  1       21 0.52764910E-01 0.42100415E+03</pdfrwt>
<pdfrwt beam="2">  1       21 0.79283461E-01 0.42100415E+03</pdfrwt>
<totfact> 0.42313258E+03</totfact>
</mgrwt>
</event>
<event>
12    1  0.2743855E-001  0.2503828E+03  0.7546771E-02  0.1113434E+00
         21   -1    0    0  502  503  0.00000000000E+00  0.00000000000E+00  0.59684363685E+03  0.59684363685E+03  0.00000000000E+00 0.  1.
         21   -1    0    0  503  504 -0.00000000000E+00 -0.00000000000E+00 -0.14797450599E+03  0.14797450599E+03  0.00000000000E+00 0. -1.
         -6    2    1    2    0  504  0.10187220391E+03  0.14629520977E+03  0.20819228563E+02  0.24891665288E+03  0.17246978132E+03 0.  0.
        -24    2    3    3    0    0  0.30203371871E+02  0.12807800879E+02 -0.26704401836E+02  0.90058554990E+02  0.79505564671E+02 0.  0.
          6    2    1    2  502    0 -0.10187220391E+03 -0.14629520977E+03  0.42804990231E+03  0.49590148996E+03  0.17581619537E+03 0.  0.
         24    2    5    5    0    0 -0.79091117703E+01 -0.12661263060E+02  0.19212052730E+03  0.20889651720E+03  0.80651077237E+02 0.  0.
          4    1    6    6  501    0 -0.41480839748E+02 -0.16400283768E+02  0.13866393434E+03  0.14566164924E+03  0.00000000000E+00 0. -1.
         -3    1    6    6    0  501  0.33571727978E+02  0.37390207083E+01  0.53456592960E+02  0.63234867962E+02  0.00000000000E+00 0.  1.
          5    1    5    5  502    0 -0.93963092142E+02 -0.13363394671E+03  0.23592937501E+03  0.28700497276E+03  0.47000000000E+01 0. -1.
         11    1    4    4    0    0  0.89724689944E+01  0.40839981983E+02 -0.34300668032E+02  0.54082762093E+02  0.00000000000E+00 0. -1.
        -12    1    4    4    0    0  0.21230902877E+02 -0.28032181104E+02  0.75962661961E+01  0.35975792896E+02  0.00000000000E+00 0.  1.
         -5    1    3    3    0  504  0.71668832041E+02  0.13348740889E+03  0.47523630399E+02  0.15885809789E+03  0.47000000000E+01 0.  1.
<mgrwt>
<rscale>  2 0.24979619E+03</rscale>
<asrwt>0</asrwt>
<pdfrwt beam="1">  1       21 0.91822096E-01 0.25038284E+03</pdfrwt>
<pdfrwt beam="2">  1       21 0.22765309E-01 0.25038284E+03</pdfrwt>
<totfact> 0.17558473E+04</totfact>
</mgrwt>
</event>
<event>
12    1  0.2743855E-001  0.1880521E+03  0.7546771E-02  0.1163340E+00
         21   -1    0    0  502  503  0.00000000000E+00  0.00000000000E+00  0.35296449927E+02  0.35296449927E+02  0.00000000000E+00 0.  1.
         21   -1    0    0  503  504 -0.00000000000E+00 -0.00000000000E+00 -0.15359251317E+04  0.15359251317E+04  0.00000000000E+00 0.  1.
         -6    2    1    2    0  504  0.23624886401E+01  0.10202448884E+02 -0.12586399630E+04  0.12726107674E+04  0.18776031920E+03 0.  0.
        -24    2    3    3    0    0 -0.58207343337E+02 -0.40560029635E+02 -0.61980042441E+03  0.62888444366E+03  0.79434668533E+02 0.  0.
          6    2    1    2  502    0 -0.23624886401E+01 -0.10202448884E+02 -0.24198871870E+03  0.29861081418E+03  0.17464308475E+03 0.  0.
         24    2    5    5    0    0 -0.11039051596E+02 -0.75062963414E+02 -0.17927845460E+03  0.20785379619E+03  0.72843168331E+02 0.  0.
          4    1    6    6  501    0  0.27604387322E+02 -0.39385968211E+02 -0.11597479931E+03  0.12555242239E+03  0.00000000000E+00 0. -1.
         -3    1    6    6    0  501 -0.38643438918E+02 -0.35676995203E+02 -0.63303655281E+02  0.82301373804E+02  0.00000000000E+00 0.  1.
          5    1    5    5  502    0  0.86765629557E+01  0.64860514530E+02 -0.62710264107E+02  0.90757017988E+02  0.47000000000E+01 0. -1.
         11    1    4    4    0    0 -0.51825499894E+02  0.11793413560E+02 -0.27741089309E+03  0.28245667039E+03  0.00000000000E+00 0. -1.
        -12    1    4    4    0    0 -0.63818434428E+01 -0.52353443196E+02 -0.34238953132E+03  0.34642777328E+03  0.00000000000E+00 0.  1.
         -5    1    3    3    0  504  0.60569831977E+02  0.50762478519E+02 -0.63883953863E+03  0.64372632375E+03  0.47000000000E+01 0.  1.
<mgrwt>
<rscale>  2 0.18468916E+03</rscale>
<asrwt>0</asrwt>
<pdfrwt beam="1">  1       21 0.54302222E-02 0.18805214E+03</pdfrwt>
<pdfrwt beam="2">  1       21 0.23629621E+00 0.18805214E+03</pdfrwt>
<totfact> 0.18814904E+04</totfact>
</mgrwt>
</event>
<event>
12    1  0.2743855E-001  0.2291113E+03  0.7546771E-02  0.1127432E+00
         21   -1    0    0  502  503  0.00000000000E+00  0.00000000000E+00  0.31545402731E+03  0.31545402731E+03  0.00000000000E+00 0.  1.
         21   -1    0    0  503  504 -0.00000000000E+00 -0.00000000000E+00 -0.26023147047E+03  0.26023147047E+03  0.00000000000E+00 0. -1.
         -6    2    1    2    0  504 -0.10348077009E+03  0.10791558361E+03 -0.14588784390E+03  0.27082915923E+03  0.17236916061E+03 0.  0.
        -24    2    3    3    0    0 -0.97903915831E+02  0.68895030931E+02 -0.34221440678E+02  0.15231679514E+03  0.87735950766E+02 0.  0.
          6    2    1    2  502    0  0.10348077009E+03 -0.10791558361E+03  0.20111040074E+03  0.30485633856E+03  0.17360285398E+03 0.  0.
         24    2    5    5    0    0  0.11422419926E+03 -0.68543637671E+02  0.21009222308E+03  0.26280476867E+03  0.84747898359E+02 0.  0.
          2    1    6    6  501    0  0.11864557413E+03 -0.59285587979E+02  0.21404741505E+03  0.25180915212E+03  0.00000000000E+00 0. -1.
         -1    1    6    6    0  501 -0.44213748692E+01 -0.92580496918E+01 -0.39551919691E+01  0.10995616551E+02  0.00000000000E+00 0.  1.
          5    1    5    5  502    0 -0.10743429173E+02 -0.39371945934E+02 -0.89818223461E+01  0.42051569884E+02  0.47000000000E+01 0. -1.
         13    1    4    4    0    0 -0.53512270034E+02  0.79011108405E+02 -0.45035878953E+02  0.10552037097E+03  0.00000000000E+00 0. -1.
        -14    1    4    4    0    0 -0.44391645797E+02 -0.10116077474E+02  0.10814438276E+02  0.46796424172E+02  0.00000000000E+00 0.  1.
         -5    1    3    3    0  504 -0.55768542560E+01  0.39020552675E+02 -0.11166640322E+03  0.11851236409E+03  0.47000000000E+01 0.  1.
<mgrwt>
<rscale>  2 0.22887761E+03</rscale>
<asrwt>0</asrwt>
<pdfrwt beam="1">  1       21 0.48531389E-01 0.22911131E+03</pdfrwt>
<pdfrwt beam="2">  1       21 0.40035611E-01 0.22911131E+03</pdfrwt>
<totfact> 0.23892814E+04</totfact>
</mgrwt>
</event>
<event>
12    1  0.2743855E-001  0.1819718E+03  0.7546771E-02  0.1166058E+00
         21   -1    0    0  502  503  0.00000000000E+00  0.00000000000E+00  0.49698057275E+02  0.49698057275E+02  0.00000000000E+00 0. -1.
         21   -1    0    0  503  504 -0.00000000000E+00 -0.00000000000E+00 -0.66674103536E+03  0.66674103536E+03  0.00000000000E+00 0. -1.
         -6    2    1    2    0  504  0.59291398514E+02  0.16450094447E+02 -0.28505886885E+03  0.33785332832E+03  0.17058791634E+03 0.  0.
        -24    2    3    3    0    0  0.33298620958E+02  0.26073799090E+02 -0.29443880628E+03  0.30821697561E+03  0.80714634690E+02 0.  0.
          6    2    1    2  502    0 -0.59291398514E+02 -0.16450094447E+02 -0.33198410924E+03  0.37858576431E+03  0.17125319446E+03 0.  0.
         24    2    5    5    0    0 -0.22042172857E+02  0.14785110094E+02 -0.79766132766E+02  0.12168278561E+03  0.87975039140E+02 0.  0.
          2    1    6    6  501    0 -0.54992292067E+02  0.19773165208E+02 -0.47692676366E+02  0.75430243457E+02  0.00000000000E+00 0. -1.
         -1    1    6    6    0  501  0.32950119210E+02 -0.49880551143E+01 -0.32073456400E+02  0.46252542149E+02  0.00000000000E+00 0.  1.
          5    1    5    5  502    0 -0.37249225657E+02 -0.31235204540E+02 -0.25221797647E+03  0.25690297871E+03  0.47000000000E+01 0. -1.
         13    1    4    4    0    0  0.19905125884E+02  0.52730116398E+02 -0.13992833551E+03  0.15085296911E+03  0.00000000000E+00 0. -1.
        -14    1    4    4    0    0  0.13393495074E+02 -0.26656317307E+02 -0.15451047077E+03  0.15736400650E+03  0.00000000000E+00 0.  1.
         -5    1    3    3    0  504  0.25992777556E+02 -0.96237046436E+01  0.93799374269E+01  0.29636352715E+02  0.47000000000E+01 0.  1.
<mgrwt>
<rscale>  2 0.18181510E+03</rscale>
<asrwt>0</asrwt>
<pdfrwt beam="1">  1       21 0.76458550E-02 0.18197179E+03</pdfrwt>
<pdfrwt beam="2">  1       21 0.10257554E+00 0.18197179E+03</pdfrwt>
<totfact> 0.10075751E+05</totfact>
</mgrwt>
</event>
<event>
12    1  0.2743855E-001  0.1889378E+03  0.7546771E-02  0.1159963E+00
         21   -1    0    0  502  503  0.00000000000E+00  0.00000000000E+00  0.69007963552E+02  0.69007963552E+02  0.00000000000E+00 0. -1.
         21   -1    0    0  503  504 -0.00000000000E+00 -0.00000000000E+00 -0.51322164604E+03  0.51322164604E+03  0.00000000000E+00 0. -1.
         -6    2    1    2    0  504 -0.76512207353E+01  0.72562639647E+02 -0.24327214926E+03  0.30802405017E+03  0.17428023130E+03 0.  0.
        -24    2    3    3    0    0  0.11467935289E+02 -0.28963915015E+02 -0.11499480662E+03  0.14325041737E+03  0.79539013164E+02 0.  0.
          6    2    1    2  502    0  0.76512207353E+01 -0.72562639647E+02 -0.20094153322E+03  0.27420555942E+03  0.17171869786E+03 0.  0.
         24    2    5    5    0    0  0.49668161710E+02 -0.27821153203E+02 -0.44946614057E+02  0.10650425131E+03  0.77987271900E+02 0.  0.
          2    1    6    6  501    0 -0.33563825542E+01 -0.41300033407E+02 -0.24242729866E+02  0.48006957981E+02  0.00000000000E+00 0. -1.
         -1    1    6    6    0  501  0.53024544264E+02  0.13478880204E+02 -0.20703884191E+02  0.58497293327E+02  0.00000000000E+00 0.  1.
          5    1    5    5  502    0 -0.42016940975E+02 -0.44741486444E+02 -0.15599491916E+03  0.16770130811E+03  0.47000000000E+01 0. -1.
         13    1    4    4    0    0 -0.29009684197E+02  0.51969961726E+00 -0.18147303186E+02  0.34222163547E+02  0.00000000000E+00 0. -1.
        -14    1    4    4    0    0  0.40477619486E+02 -0.29483614632E+02 -0.96847503431E+02  0.10902825382E+03  0.00000000000E+00 0.  1.
         -5    1    3    3    0  504 -0.19119156024E+02  0.10152655466E+03 -0.12827734265E+03  0.16477363280E+03  0.47000000000E+01 0.  1.
<mgrwt>
<rscale>  2 0.18834493E+03</rscale>
<asrwt>0</asrwt>
<pdfrwt beam="1">  1       21 0.10616610E-01 0.18893776E+03</pdfrwt>
<pdfrwt beam="2">  1       21 0.78957177E-01 0.18893776E+03</pdfrwt>
<totfact> 0.10355522E+05</totfact>
</mgrwt>
</event>
<event>
12    1  0.2743855E-001  0.3443760E+03  0.7546771E-02  0.1064967E+00
         21   -1    0    0  502  503  0.00000000000E+00  0.00000000000E+00  0.73443225990E+03  0.73443225990E+03  0.00000000000E+00 0.  1.
         21   -1    0    0  503  504 -0.00000000000E+00 -0.00000000000E+00 -0.24588932678E+03  0.24588932678E+03  0.00000000000E+00 0. -1.
         -6    2    1    2    0  504  0.46115790545E+02 -0.29334651132E+03 -0.43107616157E+02  0.34688087835E+03  0.17403802847E+03 0.  0.
        -24    2    3    3    0    0 -0.39943445184E+01 -0.25304457755E+03  0.41041055712E+01  0.26696649811E+03  0.84892605164E+02 0.  0.
          6    2    1    2  502    0 -0.46115790545E+02  0.29334651132E+03  0.53165054927E+03  0.63344070833E+03  0.17440178492E+03 0.  0.
         24    2    5    5    0    0 -0.13935043654E+02  0.29864933701E+03  0.46134194156E+03  0.55579335970E+03  0.81757322013E+02 0.  0.
          2    1    6    6  501    0  0.29184463121E+02  0.13025934628E+03  0.16502645166E+03  0.21225682540E+03  0.00000000000E+00 0. -1.
         -1    1    6    6    0  501 -0.43119506774E+02  0.16838999073E+03  0.29631548991E+03  0.34353653430E+03  0.00000000000E+00 0.  1.
          5    1    5    5  502    0 -0.32180746891E+02 -0.53028256924E+01  0.70308607706E+02  0.77647348624E+02  0.47000000000E+01 0. -1.
         11    1    4    4    0    0  0.39158231932E+02 -0.13667064839E+03  0.11465854878E+02  0.14263133978E+03  0.00000000000E+00 0. -1.
        -12    1    4    4    0    0 -0.43152576450E+02 -0.11637392916E+03 -0.73617493067E+01  0.12433515832E+03  0.00000000000E+00 0.  1.
         -5    1    3    3    0  504  0.50110135063E+02 -0.40301933769E+02 -0.47211721728E+02  0.79914380246E+02  0.47000000000E+01 0.  1.
<mgrwt>
<rscale>  2 0.34432997E+03</rscale>
<asrwt>0</asrwt>
<pdfrwt beam="1">  1       21 0.11298958E+00 0.34437599E+03</pdfrwt>
<pdfrwt beam="2">  1       21 0.37829128E-01 0.34437599E+03</pdfrwt>
<totfact> 0.37502821E+03</totfact>
</mgrwt>
</event>
<event>
12    1  0.2743855E-001  0.2042972E+03  0.7546771E-02  0.1146298E+00
         21   -1    0    0  502  503  0.00000000000E+00  0.00000000000E+00  0.16831266916E+03  0.16831266916E+03  0.00000000000E+00 0. -1.
         21   -1    0    0  503  504 -0.00000000000E+00 -0.00000000000E+00 -0.34113912693E+03  0.34113912693E+03  0.00000000000E+00 0. -1.
         -6    2    1    2    0  504  0.10744850711E+03  0.54436594995E+01 -0.22019457868E+03  0.30037144593E+03  0.17367365356E+03 0.  0.
        -24    2    3    3    0    0  0.13249279846E+03  0.33856280102E+02 -0.14130964178E+03  0.21273916415E+03  0.81172333698E+02 0.  0.
          6    2    1    2  502    0 -0.10744850711E+03 -0.54436594995E+01  0.47368120911E+02  0.20908035017E+03  0.17290471029E+03 0.  0.
         24    2    5    5    0    0 -0.12189522472E+03 -0.38740398643E+02  0.69578243659E+02  0.16626960339E+03  0.80281907831E+02 0.  0.
          2    1    6    6  501    0 -0.11851130040E+03 -0.56289342695E+02  0.69338938465E+02  0.14839577761E+03  0.00000000000E+00 0. -1.
         -1    1    6    6    0  501 -0.33839243124E+01  0.17548944052E+02  0.23930519382E+00  0.17873825781E+02  0.00000000000E+00 0.  1.
          5    1    5    5  502    0  0.14446717608E+02  0.33296739144E+02 -0.22210122747E+02  0.42810746778E+02  0.47000000000E+01 0. -1.
         11    1    4    4    0    0  0.10997674508E+03  0.34410100742E+02 -0.14951443345E+03  0.18876839063E+03  0.00000000000E+00 0. -1.
        -12    1    4    4    0    0  0.22516053377E+02 -0.55382064001E+00  0.82047916662E+01  0.23970773523E+02  0.00000000000E+00 0.  1.
         -5    1    3    3    0  504 -0.25044291355E+02 -0.28412620602E+02 -0.78884936900E+02  0.87632281772E+02  0.47000000000E+01 0.  1.
<mgrwt>
<rscale>  2 0.20413370E+03</rscale>
<asrwt>0</asrwt>
<pdfrwt beam="1">  1       21 0.25894257E-01 0.20429722E+03</pdfrwt>
<pdfrwt beam="2">  1       21 0.52482942E-01 0.20429722E+03</pdfrwt>
<totfact> 0.48479889E+04</totfact>
</mgrwt>
</event>
<event>
12    1  0.2743855E-001  0.1834718E+03  0.7546771E-02  0.1164489E+00
         21   -1    0    0  502  503  0.00000000000E+00  0.00000000000E+00  0.17829346489E+04  0.17829346489E+04  0.00000000000E+00 0.  1.
         21   -1    0    0  503  504 -0.00000000000E+00 -0.00000000000E+00 -0.97917671362E+02  0.97917671362E+02  0.00000000000E+00 0.  1.
         -6    2    1    2    0  504  0.37886685616E+02 -0.47735364095E+02 -0.24049021955E+01  0.18348755087E+03  0.17305441872E+03 0.  0.
        -24    2    3    3    0    0  0.47316801706E+02 -0.19478261051E+02  0.59603630492E+02  0.11453438497E+03  0.83350166137E+02 0.  0.
          6    2    1    2  502    0 -0.37886685616E+02  0.47735364095E+02  0.16874218798E+04  0.16973647694E+04  0.17303321713E+03 0.  0.
         24    2    5    5    0    0 -0.45627454232E+02  0.76338038786E+02  0.16080960099E+04  0.16125548872E+04  0.80318903881E+02 0.  0.
          4    1    6    6  501    0 -0.88665471649E+00  0.64363982336E+02  0.12214121435E+04  0.12231071632E+04  0.00000000000E+00 0. -1.
         -3    1    6    6    0  501 -0.44740799516E+02  0.11974056450E+02  0.38668386642E+03  0.38944772399E+03  0.00000000000E+00 0.  1.
          5    1    5    5  502    0  0.77407686165E+01 -0.28602674691E+02  0.79325869850E+02  0.84809882241E+02  0.47000000000E+01 0. -1.
         13    1    4    4    0    0  0.12815490991E+02 -0.45859859339E+02  0.51882915780E+02  0.70421590850E+02  0.00000000000E+00 0. -1.
        -14    1    4    4    0    0  0.34501310715E+02  0.26381598289E+02  0.77207147119E+01  0.44112794119E+02  0.00000000000E+00 0.  1.
         -5    1    3    3    0  504 -0.94301160907E+01 -0.28257103045E+02 -0.62008532687E+02  0.68953165903E+02  0.47000000000E+01 0.  1.
<mgrwt>
<rscale>  2 0.18346679E+03</rscale>
<asrwt>0</asrwt>
<pdfrwt beam="1">  1       21 0.27429761E+00 0.18347179E+03</pdfrwt>
<pdfrwt beam="2">  1       21 0.15064258E-01 0.18347179E+03</pdfrwt>
<totfact> 0.18900689E+03</totfact>
</mgrwt>
</event>
<event>
12    1  0.2743855E-001  0.1944373E+03  0.7546771E-02  0.1155123E+00
         21   -1    0    0  502  503  0.00000000000E+00  0.00000000000E+00  0.44598104670E+02  0.44598104670E+02  0.00000000000E+00 0.  1.
         21   -1    0    0  503  504 -0.00000000000E+00 -0.00000000000E+00 -0.11401088365E+04  0.11401088365E+04  0.00000000000E+00 0.  1.
         -6    2    1    2    0  504  0.67809429312E+02  0.54400150569E+02 -0.85092930851E+03  0.87225542159E+03  0.17085472581E+03 0.  0.
        -24    2    3    3    0    0 -0.28557043977E+02  0.18061318270E+02 -0.35297577726E+03  0.36374109811E+03  0.81080029240E+02 0.  0.
          6    2    1    2  502    0 -0.67809429312E+02 -0.54400150569E+02 -0.24458142334E+03  0.31245151960E+03  0.17392062664E+03 0.  0.
         24    2    5    5    0    0 -0.10003354043E+03 -0.28924838598E+01 -0.18775064643E+03  0.22912529160E+03  0.85047153657E+02 0.  0.
          2    1    6    6  501    0 -0.65957432574E+02  0.23581482764E+02 -0.16730227230E+03  0.18137397707E+03  0.00000000000E+00 0. -1.
         -1    1    6    6    0  501 -0.34076107853E+02 -0.26473966624E+02 -0.20448374126E+02  0.47751314533E+02  0.00000000000E+00 0.  1.
          5    1    5    5  502    0  0.32224111115E+02 -0.51507666710E+02 -0.56830776911E+02  0.83326227992E+02  0.47000000000E+01 0. -1.
         13    1    4    4    0    0 -0.34414059884E+02 -0.16328892203E+02 -0.28299535524E+03  0.28554742395E+03  0.00000000000E+00 0. -1.
        -14    1    4    4    0    0  0.58570159075E+01  0.34390210473E+02 -0.69980422017E+02  0.78193674152E+02  0.00000000000E+00 0.  1.
         -5    1    3    3    0  504  0.96366473289E+02  0.36338832299E+02 -0.49795353125E+03  0.50851432348E+03  0.47000000000E+01 0.  1.
<mgrwt>
<rscale>  2 0.19374932E+03</rscale>
<asrwt>0</asrwt>
<pdfrwt beam="1">  1       21 0.68612478E-02 0.19443734E+03</pdfrwt>
<pdfrwt beam="2">  1       21 0.17540134E+00 0.19443734E+03</pdfrwt>
<totfact> 0.30603152E+04</totfact>
</mgrwt>
</event>
<event>
12    1  0.2743855E-001  0.2088923E+03  0.7546771E-02  0.1142702E+00
         21   -1    0    0  502  503  0.00000000000E+00  0.00000000000E+00  0.24201776131E+03  0.24201776131E+03  0.00000000000E+00 0.  1.
         21   -1    0    0  503  504 -0.00000000000E+00 -0.00000000000E+00 -0.18159492797E+03  0.18159492797E+03  0.00000000000E+00 0. -1.
         -6    2    1    2    0  504  0.23120431804E+01  0.11745498406E+03  0.57775716043E+01  0.20769116666E+03  0.17117599584E+03 0.  0.
        -24    2    3    3    0    0  0.15560139904E+02  0.64184845744E+02  0.68317839962E+02  0.12434493178E+03  0.80203007576E+02 0.  0.
          6    2    1    2  502    0 -0.23120431804E+01 -0.11745498406E+03  0.54645261737E+02  0.21592152261E+03  0.17272805352E+03 0.  0.
         24    2    5    5    0    0  0.31656301374E+02 -0.15101083961E+01  0.89170966591E+01  0.86653515330E+02  0.80155569128E+02 0.  0.
          4    1    6    6  501    0  0.57977541974E+02 -0.12196780928E+01 -0.23100736036E+01  0.58036362981E+02  0.00000000000E+00 0. -1.
         -3    1    6    6    0  501 -0.26321240600E+02 -0.29043030324E+00  0.11227170263E+02  0.28617152350E+02  0.00000000000E+00 0.  1.
          5    1    5    5  502    0 -0.33968344554E+02 -0.11594487567E+03  0.45728165078E+02  0.12926800728E+03  0.47000000000E+01 0. -1.
         11    1    4    4    0    0 -0.33520171015E+01  0.19298121469E+02 -0.17109294354E+02  0.26007334814E+02  0.00000000000E+00 0. -1.
        -12    1    4    4    0    0  0.18912157006E+02  0.44886724275E+02  0.85427134316E+02  0.98337596961E+02  0.00000000000E+00 0.  1.
         -5    1    3    3    0  504 -0.13248096724E+02  0.53270138319E+02 -0.62540268358E+02  0.83346234885E+02  0.47000000000E+01 0.  1.
<mgrwt>
<rscale>  2 0.20857119E+03</rscale>
<asrwt>0</asrwt>
<pdfrwt beam="1">  1       21 0.37233502E-01 0.20889232E+03</pdfrwt>
<pdfrwt beam="2">  1       21 0.27937681E-01 0.20889232E+03</pdfrwt>
<totfact> 0.84545607E+04</totfact>
</mgrwt>
</event>
<event>
12    1  0.2743855E-001  0.1761068E+03  0.7546771E-02  0.1171770E+00
         21   -1    0    0  502  503  0.00000000000E+00  0.00000000000E+00  0.86790338727E+03  0.86790338727E+03  0.00000000000E+00 0.  1.
         21   -1    0    0  503  504 -0.00000000000E+00 -0.00000000000E+00 -0.35617015794E+02  0.35617015794E+02  0.00000000000E+00 0. -1.
         -6    2    1    2    0  504 -0.31696133645E+02 -0.12437330538E+01  0.41329673548E+03  0.44902515836E+03  0.17263606089E+03 0.  0.
        -24    2    3    3    0    0  0.46468781637E+01 -0.25815461804E+01  0.92093764790E+02  0.12573574834E+03  0.85439797749E+02 0.  0.
          6    2    1    2  502    0  0.31696133645E+02  0.12437330538E+01  0.41898963599E+03  0.45449524470E+03  0.17322650094E+03 0.  0.
         24    2    5    5    0    0  0.44171348181E+02  0.59272452171E+02  0.33041771207E+03  0.34777111938E+03  0.79401230683E+02 0.  0.
          4    1    6    6  501    0  0.45747219556E+02  0.37007149849E+02  0.98174411648E+02  0.11445764430E+03  0.00000000000E+00 0. -1.
         -3    1    6    6    0  501 -0.15758713750E+01  0.22265302322E+02  0.23224330043E+03  0.23331347507E+03  0.00000000000E+00 0.  1.
          5    1    5    5  502    0 -0.12475214536E+02 -0.58028719118E+02  0.88571923919E+02  0.10672412533E+03  0.47000000000E+01 0. -1.
         13    1    4    4    0    0  0.72617736975E+01  0.40840939516E+02  0.52533235997E+02  0.66936212786E+02  0.00000000000E+00 0. -1.
        -14    1    4    4    0    0 -0.26148955338E+01 -0.43422485696E+02  0.39560528793E+02  0.58799535552E+02  0.00000000000E+00 0.  1.
         -5    1    3    3    0  504 -0.36343011809E+02  0.13378131266E+01  0.32120297069E+03  0.32328941002E+03  0.47000000000E+01 0.  1.
<mgrwt>
<rscale>  2 0.17596145E+03</rscale>
<asrwt>0</asrwt>
<pdfrwt beam="1">  1       21 0.13352358E+00 0.17610682E+03</pdfrwt>
<pdfrwt beam="2">  1       21 0.54795416E-02 0.17610682E+03</pdfrwt>
<totfact> 0.93716354E+04</totfact>
</mgrwt>
</event>
<event>
12    1  0.2743855E-001  0.2046848E+03  0.7546771E-02  0.1147191E+00
         21   -1    0    0  502  503  0.00000000000E+00  0.00000000000E+00  0.36340339373E+02  0.36340339373E+02  0.00000000000E+00 0.  1.
         21   -1    0    0  503  504 -0.00000000000E+00 -0.00000000000E+00 -0.11362084576E+04  0.11362084576E+04  0.00000000000E+00 0. -1.
         -6    2    1    2    0  504 -0.85193516054E+02 -0.65215081370E+02 -0.46459920785E+03  0.50511904811E+03  0.16667899330E+03 0.  0.
        -24    2    3    3    0    0  0.13853601453E+02 -0.36512058294E+02 -0.15164274042E+03  0.17557688764E+03  0.79414545742E+02 0.  0.
          6    2    1    2  502    0  0.85193516054E+02  0.65215081370E+02 -0.63526891034E+03  0.66742974883E+03  0.17431276249E+03 0.  0.
         24    2    5    5    0    0  0.10856838185E+03  0.64026878898E+02 -0.34673861368E+03  0.37791356920E+03  0.81880796363E+02 0.  0.
          2    1    6    6  501    0  0.85894409079E+02  0.75920426294E+02 -0.32395519507E+03  0.34364040661E+03  0.00000000000E+00 0. -1.
         -1    1    6    6    0  501  0.22673972769E+02 -0.11893547396E+02 -0.22783418605E+02  0.34273162593E+02  0.00000000000E+00 0.  1.
          5    1    5    5  502    0 -0.23374865793E+02  0.11882024720E+01 -0.28853029667E+03  0.28951617963E+03  0.47000000000E+01 0. -1.
         13    1    4    4    0    0 -0.26727915303E+02  0.83451931346E+01 -0.46985664304E+02  0.54696218837E+02  0.00000000000E+00 0. -1.
        -14    1    4    4    0    0  0.40581516756E+02 -0.44857251428E+02 -0.10465707612E+03  0.12088066880E+03  0.00000000000E+00 0.  1.
         -5    1    3    3    0  504 -0.99047117507E+02 -0.28703023076E+02 -0.31295646743E+03  0.32954216047E+03  0.47000000000E+01 0.  1.
<mgrwt>
<rscale>  2 0.20305019E+03</rscale>
<asrwt>0</asrwt>
<pdfrwt beam="1">  1       21 0.55908210E-02 0.20468483E+03</pdfrwt>
<pdfrwt beam="2">  1       21 0.17480132E+00 0.20468483E+03</pdfrwt>
<totfact> 0.43620694E+04</totfact>
</mgrwt>
</event>
<event>
12    1  0.2743855E-001  0.1845561E+03  0.7546771E-02  0.1163479E+00
         21   -1    0    0  502  503  0.00000000000E+00  0.00000000000E+00  0.17443277833E+04  0.17443277833E+04  0.00000000000E+00 0.  1.
         21   -1    0    0  503  504 -0.00000000000E+00 -0.00000000000E+00 -0.20220298775E+02  0.20220298775E+02  0.00000000000E+00 0.  1.
         -6    2    1    2    0  504 -0.44042847499E+02  0.46979073787E+02  0.69774367032E+03  0.72172324168E+03  0.17289130206E+03 0.  0.
        -24    2    3    3    0    0 -0.30948884603E+02  0.27362064021E+02  0.16165710202E+03  0.18509750837E+03  0.80134592833E+02 0.  0.
          6    2    1    2  502    0  0.44042847499E+02 -0.46979073787E+02  0.10263638142E+04  0.10428248404E+04  0.17295711270E+03 0.  0.
         24    2    5    5    0    0  0.48764762754E+02 -0.81806018396E+02  0.95530717435E+03  0.96341231857E+03  0.80506344291E+02 0.  0.
          4    1    6    6  501    0  0.35510895991E+02 -0.95424593812E+02  0.69578442930E+03  0.70319474464E+03  0.00000000000E+00 0. -1.
         -3    1    6    6    0  501  0.13253866762E+02  0.13618575416E+02  0.25952274506E+03  0.26021757393E+03  0.00000000000E+00 0.  1.
          5    1    5    5  502    0 -0.47219152546E+01  0.34826944609E+02  0.71056639850E+02  0.79412521817E+02  0.47000000000E+01 0. -1.
         11    1    4    4    0    0 -0.43982519981E+01  0.43380241321E+02  0.14161585023E+03  0.14817637799E+03  0.00000000000E+00 0. -1.
        -12    1    4    4    0    0 -0.26550632605E+02 -0.16018177301E+02  0.20041251786E+02  0.36921130385E+02  0.00000000000E+00 0.  1.
         -5    1    3    3    0  504 -0.13093962896E+02  0.19617009767E+02  0.53608656830E+03  0.53662573331E+03  0.47000000000E+01 0.  1.
<mgrwt>
<rscale>  2 0.18454072E+03</rscale>
<asrwt>0</asrwt>
<pdfrwt beam="1">  1       21 0.26835800E+00 0.18455614E+03</pdfrwt>
<pdfrwt beam="2">  1       21 0.31108166E-02 0.18455614E+03</pdfrwt>
<totfact> 0.31182470E+04</totfact>
</mgrwt>
</event>
<event>
12    1  0.2743855E-001  0.2013311E+03  0.7546771E-02  0.1149130E+00
         21   -1    0    0  502  503  0.00000000000E+00  0.00000000000E+00  0.45282093211E+02  0.45282093211E+02  0.00000000000E+00 0.  1.
         21   -1    0    0  503  504 -0.00000000000E+00 -0.00000000000E+00 -0.88452715548E+03  0.88452715548E+03  0.00000000000E+00 0.  1.
         -6    2    1    2    0  504  0.31165185999E+01  0.10156856302E+03 -0.41212524138E+03  0.45761697692E+03  0.17099765290E+03 0.  0.
        -24    2    3    3    0    0 -0.14724749753E+02  0.30048471089E+02 -0.84793554867E+02  0.12205542161E+03  0.81165572300E+02 0.  0.
          6    2    1    2  502    0 -0.31165185999E+01 -0.10156856302E+03 -0.42711982088E+03  0.47219227177E+03  0.17380539245E+03 0.  0.
         24    2    5    5    0    0 -0.11195571830E+02 -0.70832584232E+02 -0.42642947429E+03  0.44005914134E+03  0.81653876272E+02 0.  0.
          2    1    6    6  501    0 -0.35819478176E+02 -0.24647007140E+01 -0.15013900155E+03  0.15437237302E+03  0.00000000000E+00 0. -1.
         -1    1    6    6    0  501  0.24623906347E+02 -0.68367883518E+02 -0.27629047275E+03  0.28568676832E+03  0.00000000000E+00 0.  1.
          5    1    5    5  502    0  0.80790532299E+01 -0.30735978783E+02 -0.69034658751E+00  0.32133130430E+02  0.47000000000E+01 0. -1.
         11    1    4    4    0    0 -0.46753155139E+02  0.48550435187E+01 -0.47222968101E+02  0.66629105347E+02  0.00000000000E+00 0. -1.
        -12    1    4    4    0    0  0.32028405386E+02  0.25193427570E+02 -0.37570586765E+02  0.55426316261E+02  0.00000000000E+00 0.  1.
         -5    1    3    3    0  504  0.17841268353E+02  0.71520091926E+02 -0.32733168652E+03  0.33556155531E+03  0.47000000000E+01 0.  1.
<mgrwt>
<rscale>  2 0.20072362E+03</rscale>
<asrwt>0</asrwt>
<pdfrwt beam="1">  1       21 0.69664764E-02 0.20133107E+03</pdfrwt>
<pdfrwt beam="2">  1       21 0.13608109E+00 0.20133107E+03</pdfrwt>
<totfact> 0.58441873E+04</totfact>
</mgrwt>
</event>
<event>
12    1  0.2743855E-001  0.1956923E+03  0.7546771E-02  0.1155330E+00
         21   -1    0    0  502  503  0.00000000000E+00  0.00000000000E+00  0.23090820224E+03  0.23090820224E+03  0.00000000000E+00 0. -1.
         21   -1    0    0  503  504 -0.00000000000E+00 -0.00000000000E+00 -0.20986060140E+03  0.20986060140E+03  0.00000000000E+00 0. -1.
         -6    2    1    2    0  504  0.58690560613E+02 -0.69734508259E+02 -0.98486058447E+02  0.21145724802E+03  0.16342331683E+03 0.  0.
        -24    2    3    3    0    0  0.64613140326E+02  0.10149632569E+02 -0.75494282220E+02  0.12798710557E+03  0.80021494613E+02 0.  0.
          6    2    1    2  502    0 -0.58690560613E+02  0.69734508259E+02  0.11953365929E+03  0.22931155562E+03  0.17317046599E+03 0.  0.
         24    2    5    5    0    0 -0.38236704281E+02 -0.28194344102E+02  0.38161344587E+02  0.10026906663E+03  0.79628078648E+02 0.  0.
          4    1    6    6  501    0 -0.44192237935E+02  0.10017523017E+02  0.41508528322E+02  0.61451302545E+02  0.00000000000E+00 0. -1.
         -3    1    6    6    0  501  0.59555336535E+01 -0.38211867119E+02 -0.33471837351E+01  0.38817764088E+02  0.00000000000E+00 0.  1.
          5    1    5    5  502    0 -0.20453856332E+02  0.97928852361E+02  0.81372314704E+02  0.12904248899E+03  0.47000000000E+01 0. -1.
         11    1    4    4    0    0  0.18684654808E+02 -0.23503631057E+02  0.39091442391E+01  0.30279009344E+02  0.00000000000E+00 0. -1.
        -12    1    4    4    0    0  0.45928485517E+02  0.33653263626E+02 -0.79403426459E+02  0.97708096226E+02  0.00000000000E+00 0.  1.
         -5    1    3    3    0  504 -0.59225797129E+01 -0.79884140828E+02 -0.22991776227E+02  0.83470142448E+02  0.47000000000E+01 0.  1.
<mgrwt>
<rscale>  2 0.19351366E+03</rscale>
<asrwt>0</asrwt>
<pdfrwt beam="1">  1       21 0.35524339E-01 0.19569234E+03</pdfrwt>
<pdfrwt beam="2">  1       21 0.32286247E-01 0.19569234E+03</pdfrwt>
<totfact> 0.70422676E+04</totfact>
</mgrwt>
</event>
<event>
12    1  0.2743855E-001  0.1912339E+03  0.7546771E-02  0.1157774E+00
         21   -1    0    0  502  503  0.00000000000E+00  0.00000000000E+00  0.78316275967E+03  0.78316275967E+03  0.00000000000E+00 0.  1.
         21   -1    0    0  503  504 -0.00000000000E+00 -0.00000000000E+00 -0.54070204189E+02  0.54070204189E+02  0.00000000000E+00 0. -1.
         -6    2    1    2    0  504 -0.57126142818E+02 -0.55772170515E+02  0.20371041005E+03  0.27812938997E+03  0.17170933348E+03 0.  0.
        -24    2    3    3    0    0 -0.13868908047E+02 -0.71470232469E+02  0.55660699481E+02  0.12302160709E+03  0.82072294989E+02 0.  0.
          6    2    1    2  502    0  0.57126142818E+02  0.55772170515E+02  0.52538214543E+03  0.55910357389E+03  0.17377133367E+03 0.  0.
         24    2    5    5    0    0  0.40013755186E+02 -0.20814529534E+02  0.15189886099E+03  0.17743590407E+03  0.79849175561E+02 0.  0.
          2    1    6    6  501    0  0.48602995064E+02 -0.19347479626E+02  0.41715651874E+02  0.66908681861E+02  0.00000000000E+00 0. -1.
         -1    1    6    6    0  501 -0.85892398782E+01 -0.14670499075E+01  0.11018320912E+03  0.11052722221E+03  0.00000000000E+00 0.  1.
          5    1    5    5  502    0  0.17112387632E+02  0.76586700049E+02  0.37348328444E+03  0.38166766982E+03  0.47000000000E+01 0. -1.
         11    1    4    4    0    0  0.56873477931E+01  0.13631002777E+02 -0.61916027043E+01  0.16015183598E+02  0.00000000000E+00 0. -1.
        -12    1    4    4    0    0 -0.19556255840E+02 -0.85101235247E+02  0.61852302185E+02  0.10700642349E+03  0.00000000000E+00 0.  1.
         -5    1    3    3    0  504 -0.43257234771E+02  0.15698061954E+02  0.14804971057E+03  0.15510778288E+03  0.47000000000E+01 0.  1.
<mgrwt>
<rscale>  2 0.19076424E+03</rscale>
<asrwt>0</asrwt>
<pdfrwt beam="1">  1       21 0.12048657E+00 0.19123391E+03</pdfrwt>
<pdfrwt beam="2">  1       21 0.83184935E-02 0.19123391E+03</pdfrwt>
<totfact> 0.58656263E+04</totfact>
</mgrwt>
</event>
<event>
12    1  0.2743855E-001  0.1920546E+03  0.7546771E-02  0.1156697E+00
         21   -1    0    0  502  503  0.00000000000E+00  0.00000000000E+00  0.16456648498E+03  0.16456648498E+03  0.00000000000E+00 0.  1.
         21   -1    0    0  503  504 -0.00000000000E+00 -0.00000000000E+00 -0.27336756149E+03  0.27336756149E+03  0.00000000000E+00 0.  1.
         -6    2    1    2    0  504  0.42159398489E+02  0.71418146282E+02 -0.14766295696E+03  0.24198711016E+03  0.17284515072E+03 0.  0.
        -24    2    3    3    0    0 -0.30832396829E+02  0.15965452048E+02 -0.29897579378E+02  0.92676770141E+02  0.80557967438E+02 0.  0.
          6    2    1    2  502    0 -0.42159398489E+02 -0.71418146282E+02  0.38861880451E+02  0.19594693630E+03  0.17322525681E+03 0.  0.
         24    2    5    5    0    0 -0.25470824370E+01 -0.98951129907E+02  0.65169499200E+02  0.14079821398E+03  0.76021442330E+02 0.  0.
          2    1    6    6  501    0  0.31340499165E+02 -0.62193890489E+02  0.57303255894E+02  0.90188524980E+02  0.00000000000E+00 0. -1.
         -1    1    6    6    0  501 -0.33887581602E+02 -0.36757239418E+02  0.78662433055E+01  0.50609688995E+02  0.00000000000E+00 0.  1.
          5    1    5    5  502    0 -0.39612316052E+02  0.27532983625E+02 -0.26307618748E+02  0.55148722328E+02  0.47000000000E+01 0. -1.
         13    1    4    4    0    0 -0.89063270221E+01 -0.15824089807E+02 -0.47041635445E+02  0.50424596623E+02  0.00000000000E+00 0. -1.
        -14    1    4    4    0    0 -0.21926069807E+02  0.31789541855E+02  0.17144056067E+02  0.42252173518E+02  0.00000000000E+00 0.  1.
         -5    1    3    3    0  504  0.72991795318E+02  0.55452694234E+02 -0.11776537758E+03  0.14931034002E+03  0.47000000000E+01 0.  1.
<mgrwt>
<rscale>  2 0.19196882E+03</rscale>
<asrwt>0</asrwt>
<pdfrwt beam="1">  1       21 0.25317921E-01 0.19205457E+03</pdfrwt>
<pdfrwt beam="2">  1       21 0.42056547E-01 0.19205457E+03</pdfrwt>
<totfact> 0.80476402E+04</totfact>
</mgrwt>
</event>
<event>
12    1  0.2743855E-001  0.2663958E+03  0.7546771E-02  0.1103705E+00
         21   -1    0    0  502  503  0.00000000000E+00  0.00000000000E+00  0.33051423644E+03  0.33051423644E+03  0.00000000000E+00 0. -1.
         21   -1    0    0  503  504 -0.00000000000E+00 -0.00000000000E+00 -0.21805742048E+03  0.21805742048E+03  0.00000000000E+00 0.  1.
         -6    2    1    2    0  504  0.20249474237E+03  0.20344281531E+02  0.13973089090E+02  0.26676204652E+03  0.17189744549E+03 0.  0.
        -24    2    3    3    0    0  0.38714474298E+02  0.22900561023E+02 -0.30958768241E+02  0.96845971420E+02  0.79984064875E+02 0.  0.
          6    2    1    2  502    0 -0.20249474237E+03 -0.20344281531E+02  0.98483726865E+02  0.28180961040E+03  0.16822485422E+03 0.  0.
         24    2    5    5    0    0 -0.74781631931E+02  0.32684551763E+02  0.44234737361E+01  0.11450116185E+03  0.80189628672E+02 0.  0.
          2    1    6    6  501    0  0.37699526286E+01 -0.18968759776E+02  0.66809290824E+01  0.20461212175E+02  0.00000000000E+00 0. -1.
         -1    1    6    6    0  501 -0.78551584559E+02  0.51653311540E+02 -0.22574553464E+01  0.94039949673E+02  0.00000000000E+00 0.  1.
          5    1    5    5  502    0 -0.12771311044E+03 -0.53028833294E+02  0.94060253129E+02  0.16730844855E+03  0.47000000000E+01 0. -1.
         11    1    4    4    0    0  0.26569057085E+02  0.15813133429E+02  0.24615140510E+02  0.39520565856E+02  0.00000000000E+00 0. -1.
        -12    1    4    4    0    0  0.12145417213E+02  0.70874275939E+01 -0.55573908751E+02  0.57325405564E+02  0.00000000000E+00 0.  1.
         -5    1    3    3    0  504  0.16378026807E+03 -0.25562794918E+01  0.44931857330E+02  0.16991607510E+03  0.47000000000E+01 0.  1.
<mgrwt>
<rscale>  2 0.26580515E+03</rscale>
<asrwt>0</asrwt>
<pdfrwt beam="1">  1       21 0.50848344E-01 0.26639584E+03</pdfrwt>
<pdfrwt beam="2">  1       21 0.33547295E-01 0.26639584E+03</pdfrwt>
<totfact> 0.30384935E+04</totfact>
</mgrwt>
</event>
<event>
12    1  0.2743855E-001  0.1940669E+03  0.7546771E-02  0.1155240E+00
         21   -1    0    0  502  503  0.00000000000E+00  0.00000000000E+00  0.16221737511E+03  0.16221737511E+03  0.00000000000E+00 0. -1.
         21   -1    0    0  503  504 -0.00000000000E+00 -0.00000000000E+00 -0.25228064139E+03  0.25228064139E+03  0.00000000000E+00 0. -1.
         -6    2    1    2    0  504 -0.23797021254E+01  0.86462072745E+02  0.16720252023E+02  0.19299255200E+03  0.17171256591E+03 0.  0.
        -24    2    3    3    0    0  0.42054663142E+02  0.35547345129E+01 -0.18045822771E+02  0.92599277790E+02  0.80422283593E+02 0.  0.
          6    2    1    2  502    0  0.23797021254E+01 -0.86462072745E+02 -0.10678351830E+03  0.22150546450E+03  0.17372564006E+03 0.  0.
         24    2    5    5    0    0 -0.64901959625E+02 -0.50683448611E+02 -0.47164196855E+02  0.12463707211E+03  0.80801373466E+02 0.  0.
          2    1    6    6  501    0 -0.10843456389E+02 -0.30559992519E+02  0.18421713968E+02  0.37294144778E+02  0.00000000000E+00 0. -1.
         -1    1    6    6    0  501 -0.54058503236E+02 -0.20123456092E+02 -0.65585910822E+02  0.87342927336E+02  0.00000000000E+00 0.  1.
          5    1    5    5  502    0  0.67281661751E+02 -0.35778624134E+02 -0.59619321448E+02  0.96868392382E+02  0.47000000000E+01 0. -1.
         13    1    4    4    0    0  0.68225176212E+01  0.39735241435E+02 -0.85550046019E+01  0.41214369610E+02  0.00000000000E+00 0. -1.
        -14    1    4    4    0    0  0.35232145520E+02 -0.36180506922E+02 -0.94908181693E+01  0.51384908180E+02  0.00000000000E+00 0.  1.
         -5    1    3    3    0  504 -0.44434365267E+02  0.82907338232E+02  0.34766074794E+02  0.10039327421E+03  0.47000000000E+01 0.  1.
<mgrwt>
<rscale>  2 0.19361530E+03</rscale>
<asrwt>0</asrwt>
<pdfrwt beam="1">  1       21 0.24956519E-01 0.19406687E+03</pdfrwt>
<pdfrwt beam="2">  1       21 0.38812406E-01 0.19406687E+03</pdfrwt>
<totfact> 0.97224873E+04</totfact>
</mgrwt>
</event>
<event>
12    1  0.2743855E-001  0.5195277E+03  0.7546771E-02  0.1008851E+00
         21   -1    0    0  502  503  0.00000000000E+00  0.00000000000E+00  0.12726394764E+04  0.12726394764E+04  0.00000000000E+00 0.  1.
         21   -1    0    0  503  504 -0.00000000000E+00 -0.00000000000E+00 -0.61242341148E+03  0.61242341148E+03  0.00000000000E+00 0. -1.
         -6    2    1    2    0  504 -0.40382893541E+03  0.27767269087E+03 -0.43231414072E+03  0.67529792210E+03  0.17015238756E+03 0.  0.
        -24    2    3    3    0    0 -0.18175678370E+03  0.60106809561E+02 -0.15369506558E+03  0.25780345231E+03  0.78689833265E+02 0.  0.
          6    2    1    2  502    0  0.40382893541E+03 -0.27767269087E+03  0.10925302056E+04  0.12097649658E+04  0.17242125701E+03 0.  0.
         24    2    5    5    0    0  0.20969963492E+03 -0.20003033234E+03  0.52475253878E+03  0.60469630015E+03  0.79412327219E+02 0.  0.
          2    1    6    6  501    0  0.43316589348E+02 -0.50683964482E+02  0.19676331901E+03  0.20775224397E+03  0.00000000000E+00 0. -1.
         -1    1    6    6    0  501  0.16638304557E+03 -0.14934636786E+03  0.32798921977E+03  0.39694405617E+03  0.00000000000E+00 0.  1.
          5    1    5    5  502    0  0.19412930049E+03 -0.77642358530E+02  0.56777766687E+03  0.60506866564E+03  0.47000000000E+01 0. -1.
         13    1    4    4    0    0 -0.14440646955E+03  0.78704769736E+02 -0.13132061296E+03  0.21045848193E+03  0.00000000000E+00 0. -1.
        -14    1    4    4    0    0 -0.37350314155E+02 -0.18597960175E+02 -0.22374452617E+02  0.47344970378E+02  0.00000000000E+00 0.  1.
         -5    1    3    3    0  504 -0.22207215171E+03  0.21756588131E+03 -0.27861907514E+03  0.41749446979E+03  0.47000000000E+01 0.  1.
<mgrwt>
<rscale>  2 0.51934045E+03</rscale>
<asrwt>0</asrwt>
<pdfrwt beam="1">  1       21 0.19579069E+00 0.51952769E+03</pdfrwt>
<pdfrwt beam="2">  1       21 0.94218987E-01 0.51952769E+03</pdfrwt>
<totfact> 0.10387178E+02</totfact>
</mgrwt>
</event>
<event>
12    1  0.2743855E-001  0.1951611E+03  0.7546771E-02  0.1154160E+00
         21   -1    0    0  502  503  0.00000000000E+00  0.00000000000E+00  0.13116481876E+04  0.13116481876E+04  0.00000000000E+00 0. -1.
         21   -1    0    0  503  504 -0.00000000000E+00 -0.00000000000E+00 -0.56822425643E+02  0.56822425643E+02  0.00000000000E+00 0.  1.
         -6    2    1    2    0  504 -0.72659797428E+02 -0.52018711361E+02  0.14633423791E+03  0.24293016210E+03  0.17209288765E+03 0.  0.
        -24    2    3    3    0    0 -0.70823633157E+01  0.29573744603E+02  0.43426421733E+02  0.96063428752E+02  0.80109687298E+02 0.  0.
          6    2    1    2  502    0  0.72659797428E+02  0.52018711361E+02  0.11084915241E+04  0.11255404511E+04  0.17350059300E+03 0.  0.
         24    2    5    5    0    0  0.59529004985E+02 -0.24587774008E+02  0.41345416142E+03  0.42615500894E+03  0.80718566544E+02 0.  0.
          4    1    6    6  501    0  0.25018771834E+02  0.38462096261E+01  0.33419673952E+03  0.33515398398E+03  0.00000000000E+00 0. -1.
         -3    1    6    6    0  501  0.34510233151E+02 -0.28433983634E+02  0.79257421895E+02  0.91001024955E+02  0.00000000000E+00 0.  1.
          5    1    5    5  502    0  0.13130792443E+02  0.76606485369E+02  0.69503736264E+03  0.69938544221E+03  0.47000000000E+01 0. -1.
         13    1    4    4    0    0  0.14596655210E+02  0.16254031338E+02  0.61229156517E+02  0.65009733778E+02  0.00000000000E+00 0. -1.
        -14    1    4    4    0    0 -0.21679018526E+02  0.13319713264E+02 -0.17802734784E+02  0.31053694973E+02  0.00000000000E+00 0.  1.
         -5    1    3    3    0  504 -0.65577434112E+02 -0.81592455963E+02  0.10290781617E+03  0.14686673335E+03  0.47000000000E+01 0.  1.
<mgrwt>
<rscale>  2 0.19484773E+03</rscale>
<asrwt>0</asrwt>
<pdfrwt beam="1">  1       21 0.20179201E+00 0.19516108E+03</pdfrwt>
<pdfrwt beam="2">  1       21 0.87419126E-02 0.19516108E+03</pdfrwt>
<totfact> 0.13414635E+04</totfact>
</mgrwt>
</event>
<event>
12    1  0.2743855E-001  0.1966474E+03  0.7546771E-02  0.1152727E+00
         21   -1    0    0  502  503  0.00000000000E+00  0.00000000000E+00  0.21866096937E+03  0.21866096937E+03  0.00000000000E+00 0. -1.
         21   -1    0    0  503  504 -0.00000000000E+00 -0.00000000000E+00 -0.39312952421E+03  0.39312952421E+03  0.00000000000E+00 0. -1.
         -6    2    1    2    0  504  0.47493093185E+02 -0.75439913897E+02 -0.31446024679E+03  0.37088466847E+03  0.17528096298E+03 0.  0.
        -24    2    3    3    0    0  0.22802954908E+02 -0.33230554700E+02 -0.30828637458E+03  0.32137265346E+03  0.81336640729E+02 0.  0.
          6    2    1    2  502    0 -0.47493093185E+02  0.75439913897E+02  0.13999169195E+03  0.24090582512E+03  0.17461720491E+03 0.  0.
         24    2    5    5    0    0  0.63485944917E+01 -0.11034685146E+02  0.10716722378E+03  0.13377824080E+03  0.79055265036E+02 0.  0.
          2    1    6    6  501    0 -0.10748845769E+02 -0.32619833916E+02  0.99401870672E+02  0.10516807093E+03  0.00000000000E+00 0. -1.
         -1    1    6    6    0  501  0.17097440260E+02  0.21585148771E+02  0.77653531070E+01  0.28610169866E+02  0.00000000000E+00 0.  1.
          5    1    5    5  502    0 -0.53841687677E+02  0.86474599043E+02  0.32824468173E+02  0.10712758432E+03  0.47000000000E+01 0. -1.
         11    1    4    4    0    0  0.42387325625E+02 -0.47016941787E+01 -0.81719768201E+02  0.92178695025E+02  0.00000000000E+00 0. -1.
        -12    1    4    4    0    0 -0.19584370716E+02 -0.28528860522E+02 -0.22656660638E+03  0.22919395844E+03  0.00000000000E+00 0.  1.
         -5    1    3    3    0  504  0.24690138277E+02 -0.42209359197E+02 -0.61738722168E+01  0.49512015007E+02  0.47000000000E+01 0.  1.
<mgrwt>
<rscale>  2 0.19649936E+03</rscale>
<asrwt>0</asrwt>
<pdfrwt beam="1">  1       21 0.33640149E-01 0.19664738E+03</pdfrwt>
<pdfrwt beam="2">  1       21 0.60481465E-01 0.19664738E+03</pdfrwt>
<totfact> 0.21629140E+04</totfact>
</mgrwt>
</event>
<event>
12    1  0.2743855E-001  0.2025864E+03  0.7546771E-02  0.1147659E+00
         21   -1    0    0  502  503  0.00000000000E+00  0.00000000000E+00  0.38532532483E+03  0.38532532483E+03  0.00000000000E+00 0. -1.
         21   -1    0    0  503  504 -0.00000000000E+00 -0.00000000000E+00 -0.11312023446E+03  0.11312023446E+03  0.00000000000E+00 0.  1.
         -6    2    1    2    0  504  0.48501651895E+02  0.87918503186E+02  0.75028833076E+02  0.21603375014E+03  0.17595221501E+03 0.  0.
        -24    2    3    3    0    0 -0.27806169818E+01  0.53785255859E+02  0.10842218414E+03  0.14580444308E+03  0.81258722801E+02 0.  0.
          6    2    1    2  502    0 -0.48501651895E+02 -0.87918503186E+02  0.19717625730E+03  0.28241180916E+03  0.17548754961E+03 0.  0.
         24    2    5    5    0    0  0.15311365349E+02 -0.26918213042E+02  0.25917380851E+02  0.89681870305E+02  0.80075583851E+02 0.  0.
          4    1    6    6  501    0 -0.28876189696E+02 -0.50242598213E+00 -0.54597270980E+01  0.29392097291E+02  0.00000000000E+00 0. -1.
         -3    1    6    6    0  501  0.44187555045E+02 -0.26415787060E+02  0.31377107949E+02  0.60289773014E+02  0.00000000000E+00 0.  1.
          5    1    5    5  502    0 -0.63813017244E+02 -0.61000290144E+02  0.17125887645E+03  0.19272993885E+03  0.47000000000E+01 0. -1.
         13    1    4    4    0    0 -0.20374629209E+02 -0.15266393651E+02  0.37010738107E+02  0.44921965961E+02  0.00000000000E+00 0. -1.
        -14    1    4    4    0    0  0.17594012227E+02  0.69051649511E+02  0.71411446031E+02  0.10088247712E+03  0.00000000000E+00 0.  1.
         -5    1    3    3    0  504  0.51282268877E+02  0.34133247327E+02 -0.33393351062E+02  0.70229307055E+02  0.47000000000E+01 0.  1.
<mgrwt>
<rscale>  2 0.20248548E+03</rscale>
<asrwt>0</asrwt>
<pdfrwt beam="1">  1       21 0.59280819E-01 0.20258641E+03</pdfrwt>
<pdfrwt beam="2">  1       21 0.17403113E-01 0.20258641E+03</pdfrwt>
<totfact> 0.79108145E+04</totfact>
</mgrwt>
</event>
<event>
12    1  0.2743855E-001  0.2654681E+03  0.7546771E-02  0.1104094E+00
         21   -1    0    0  502  503  0.00000000000E+00  0.00000000000E+00  0.65240433827E+03  0.65240433827E+03  0.00000000000E+00 0.  1.
         21   -1    0    0  503  504 -0.00000000000E+00 -0.00000000000E+00 -0.45266262906E+03  0.45266262906E+03  0.00000000000E+00 0.  1.
         -6    2    1    2    0  504  0.15544720130E+03 -0.12876149984E+03 -0.38256309351E+03  0.46564778010E+03  0.17242383350E+03 0.  0.
        -24    2    3    3    0    0  0.10544340030E+03 -0.91215651103E+02 -0.13462224170E+03  0.20990019581E+03  0.80599867043E+02 0.  0.
          6    2    1    2  502    0 -0.15544720130E+03  0.12876149984E+03  0.58230480272E+03  0.63941918723E+03  0.17039559117E+03 0.  0.
         24    2    5    5    0    0 -0.11430558651E+03  0.15471676863E+03  0.51982138066E+03  0.56009342548E+03  0.80543974741E+02 0.  0.
          2    1    6    6  501    0 -0.14573905721E+02  0.68378725299E+02  0.25244899129E+03  0.26195141154E+03  0.00000000000E+00 0. -1.
         -1    1    6    6    0  501 -0.99731680794E+02  0.86338043328E+02  0.26737238937E+03  0.29814201394E+03  0.00000000000E+00 0.  1.
          5    1    5    5  502    0 -0.41141614788E+02 -0.25955268785E+02  0.62483422059E+02  0.79325761750E+02  0.47000000000E+01 0. -1.
         11    1    4    4    0    0  0.29786674213E+02  0.87880281084E+01 -0.49163284192E+02  0.58150700007E+02  0.00000000000E+00 0. -1.
        -12    1    4    4    0    0  0.75656726091E+02 -0.10000367921E+03 -0.85458957509E+02  0.15174949581E+03  0.00000000000E+00 0.  1.
         -5    1    3    3    0  504  0.50003800999E+02 -0.37545848739E+02 -0.24794085181E+03  0.25574758429E+03  0.47000000000E+01 0.  1.
<mgrwt>
<rscale>  2 0.26513932E+03</rscale>
<asrwt>0</asrwt>
<pdfrwt beam="1">  1       21 0.10036990E+00 0.26546814E+03</pdfrwt>
<pdfrwt beam="2">  1       21 0.69640405E-01 0.26546814E+03</pdfrwt>
<totfact> 0.14360483E+03</totfact>
</mgrwt>
</event>
<event>
12    1  0.2743855E-001  0.1845615E+03  0.7546771E-02  0.1163944E+00
         21   -1    0    0  502  503  0.00000000000E+00  0.00000000000E+00  0.31645988964E+03  0.31645988964E+03  0.00000000000E+00 0. -1.
         21   -1    0    0  503  504 -0.00000000000E+00 -0.00000000000E+00 -0.11760866779E+03  0.11760866779E+03  0.00000000000E+00 0. -1.
         -6    2    1    2    0  504  0.24845885226E+02  0.61371803412E+02  0.32049288619E+02  0.18529993282E+03  0.17007378379E+03 0.  0.
        -24    2    3    3    0    0 -0.54649328526E+01  0.96847846259E+02 -0.49997266117E+01  0.12553359749E+03  0.79525568321E+02 0.  0.
          6    2    1    2  502    0 -0.24845885226E+02 -0.61371803412E+02  0.16680193323E+03  0.24876862461E+03  0.17227631119E+03 0.  0.
         24    2    5    5    0    0 -0.59509666506E+02  0.44345693797E+01  0.59997006016E+02  0.11853253549E+03  0.83001538694E+02 0.  0.
          2    1    6    6  501    0 -0.64335719338E+02 -0.33043936477E+01  0.70493085557E+01  0.64805065784E+02  0.00000000000E+00 0. -1.
         -1    1    6    6    0  501  0.48260528322E+01  0.77389630274E+01  0.52947697461E+02  0.53727469706E+02  0.00000000000E+00 0.  1.
          5    1    5    5  502    0  0.34663781280E+02 -0.65806372792E+02  0.10680492722E+03  0.13023608912E+03  0.47000000000E+01 0. -1.
         11    1    4    4    0    0  0.27000389430E+02  0.19261126487E+02  0.18802133691E+02  0.38125218088E+02  0.00000000000E+00 0. -1.
        -12    1    4    4    0    0 -0.32465322283E+02  0.77586719772E+02 -0.23801860303E+02  0.87408379403E+02  0.00000000000E+00 0.  1.
         -5    1    3    3    0  504  0.30310818078E+02 -0.35476042847E+02  0.37049015231E+02  0.59766335325E+02  0.47000000000E+01 0.  1.
<mgrwt>
<rscale>  2 0.18404578E+03</rscale>
<asrwt>0</asrwt>
<pdfrwt beam="1">  1       21 0.48686136E-01 0.18456149E+03</pdfrwt>
<pdfrwt beam="2">  1       21 0.18093641E-01 0.18456149E+03</pdfrwt>
<totfact> 0.11232420E+05</totfact>
</mgrwt>
</event>
<event>
12    1  0.2743855E-001  0.2452005E+03  0.7546771E-02  0.1116600E+00
         21   -1    0    0  502  503  0.00000000000E+00  0.00000000000E+00  0.48543876552E+03  0.48543876552E+03  0.00000000000E+00 0. -1.
         21   -1    0    0  503  504 -0.00000000000E+00 -0.00000000000E+00 -0.12344247107E+03  0.12344247107E+03  0.00000000000E+00 0.  1.
         -6    2    1    2    0  504  0.11873906222E+03  0.12673815302E+03  0.19612308667E+03  0.31398653965E+03  0.17309464933E+03 0.  0.
        -24    2    3    3    0    0  0.61584073112E+02  0.10963427697E+03  0.20474564768E+03  0.25352437037E+03  0.80879870058E+02 0.  0.
          6    2    1    2  502    0 -0.11873906222E+03 -0.12673815302E+03  0.16587320779E+03  0.29489469694E+03  0.17113572653E+03 0.  0.
         24    2    5    5    0    0 -0.64895866494E+02 -0.14911475084E+03  0.14721981260E+03  0.23349566594E+03  0.79999189902E+02 0.  0.
          4    1    6    6  501    0 -0.34748750725E+02 -0.83682082714E+02  0.13160181250E+03  0.15977860839E+03  0.00000000000E+00 0. -1.
         -3    1    6    6    0  501 -0.30147115769E+02 -0.65432668130E+02  0.15618000101E+02  0.73717057557E+02  0.00000000000E+00 0.  1.
          5    1    5    5  502    0 -0.53843195724E+02  0.22376597821E+02  0.18653395184E+02  0.61399030999E+02  0.47000000000E+01 0. -1.
         11    1    4    4    0    0  0.40811228544E+02  0.33789743180E+02  0.14614552303E+03  0.15545358478E+03  0.00000000000E+00 0. -1.
        -12    1    4    4    0    0  0.20772844568E+02  0.75844533788E+02  0.58600124644E+02  0.98070785585E+02  0.00000000000E+00 0.  1.
         -5    1    3    3    0  504  0.57154989106E+02  0.17103876055E+02 -0.86225610072E+01  0.60462169281E+02  0.47000000000E+01 0.  1.
<mgrwt>
<rscale>  2 0.24485503E+03</rscale>
<asrwt>0</asrwt>
<pdfrwt beam="1">  1       21 0.74682886E-01 0.24520049E+03</pdfrwt>
<pdfrwt beam="2">  1       21 0.18991150E-01 0.24520049E+03</pdfrwt>
<totfact> 0.39780236E+04</totfact>
</mgrwt>
</event>
<event>
12    1  0.2743855E-001  0.1940866E+03  0.7546771E-02  0.1155269E+00
         21   -1    0    0  502  503  0.00000000000E+00  0.00000000000E+00  0.26671194311E+03  0.26671194311E+03  0.00000000000E+00 0.  1.
         21   -1    0    0  503  504 -0.00000000000E+00 -0.00000000000E+00 -0.26346403558E+03  0.26346403558E+03  0.00000000000E+00 0.  1.
         -6    2    1    2    0  504 -0.25735732791E+02  0.81797618768E+02 -0.18000063621E+03  0.26470710664E+03  0.17411618216E+03 0.  0.
        -24    2    3    3    0    0  0.28399703586E+01 -0.15056467357E+02 -0.40620279003E+02  0.92526216915E+02  0.81708819043E+02 0.  0.
          6    2    1    2  502    0  0.25735732791E+02 -0.81797618768E+02  0.18324854375E+03  0.26546887205E+03  0.17187354323E+03 0.  0.
         24    2    5    5    0    0 -0.13029320379E+02 -0.66401841048E+02  0.19528165213E+03  0.22180372558E+03  0.80517087242E+02 0.  0.
          4    1    6    6  501    0 -0.45175222297E+02 -0.21914715212E+02  0.97620250418E+02  0.10977599348E+03  0.00000000000E+00 0. -1.
         -3    1    6    6    0  501  0.32145901918E+02 -0.44487125836E+02  0.97661401714E+02  0.11202773210E+03  0.00000000000E+00 0.  1.
          5    1    5    5  502    0  0.38765053170E+02 -0.15395777720E+02 -0.12033108385E+02  0.43665146470E+02  0.47000000000E+01 0. -1.
         13    1    4    4    0    0 -0.10857791032E+02  0.46733545986E+01  0.22265977519E+02  0.25209236882E+02  0.00000000000E+00 0. -1.
        -14    1    4    4    0    0  0.13697761391E+02 -0.19729821955E+02 -0.62886256521E+02  0.67316980033E+02  0.00000000000E+00 0.  1.
         -5    1    3    3    0  504 -0.28575703149E+02  0.96854086125E+02 -0.13938035721E+03  0.17218088972E+03  0.47000000000E+01 0.  1.
<mgrwt>
<rscale>  2 0.19358234E+03</rscale>
<asrwt>0</asrwt>
<pdfrwt beam="1">  1       21 0.41032606E-01 0.19408664E+03</pdfrwt>
<pdfrwt beam="2">  1       21 0.40532929E-01 0.19408664E+03</pdfrwt>
<totfact> 0.33524517E+04</totfact>
</mgrwt>
</event>
<event>
12    1  0.2743855E-001  0.1919140E+03  0.7546771E-02  0.1159824E+00
         21   -1    0    0  502  503  0.00000000000E+00  0.00000000000E+00  0.18588785753E+02  0.18588785753E+02  0.00000000000E+00 0. -1.
         21   -1    0    0  503  504 -0.00000000000E+00 -0.00000000000E+00 -0.21665864164E+04  0.21665864164E+04  0.00000000000E+00 0. -1.
         -6    2    1    2    0  504  0.41864205248E+02  0.17639990035E+02 -0.15266961206E+04  0.15387111563E+04  0.18645963861E+03 0.  0.
        -24    2    3    3    0    0  0.45257313197E+01 -0.54313561245E+02 -0.55751200279E+03  0.56613138093E+03  0.81943041427E+02 0.  0.
          6    2    1    2  502    0 -0.41864205248E+02 -0.17639990035E+02 -0.62130151001E+03  0.64646404586E+03  0.17273220692E+03 0.  0.
         24    2    5    5    0    0 -0.16029865906E+02 -0.75849659322E+02 -0.34359896503E+03  0.36151392360E+03  0.81375308053E+02 0.  0.
          2    1    6    6  501    0  0.49557744706E+01 -0.87466632178E+02 -0.28609335830E+03  0.29920625179E+03  0.00000000000E+00 0. -1.
         -1    1    6    6    0  501 -0.20985640377E+02  0.11616972856E+02 -0.57505606736E+02  0.62307671811E+02  0.00000000000E+00 0.  1.
          5    1    5    5  502    0 -0.25834339342E+02  0.58209669287E+02 -0.27770254498E+03  0.28495012226E+03  0.47000000000E+01 0. -1.
         13    1    4    4    0    0 -0.35742488506E+02 -0.30382078088E+02 -0.36500851216E+03  0.36801061140E+03  0.00000000000E+00 0. -1.
        -14    1    4    4    0    0  0.40268219826E+02 -0.23931483157E+02 -0.19250349063E+03  0.19812076953E+03  0.00000000000E+00 0.  1.
         -5    1    3    3    0  504  0.37338473928E+02  0.71953551280E+02 -0.96918411785E+03  0.97257977538E+03  0.47000000000E+01 0.  1.
<mgrwt>
<rscale>  2 0.18849687E+03</rscale>
<asrwt>0</asrwt>
<pdfrwt beam="1">  1       21 0.28598125E-02 0.19191399E+03</pdfrwt>
<pdfrwt beam="2">  1       21 0.33332106E+00 0.19191399E+03</pdfrwt>
<totfact> 0.15011777E+04</totfact>
</mgrwt>
</event>
<event>
12    1  0.2743855E-001  0.1917131E+03  0.7546771E-02  0.1158033E+00
         21   -1    0    0  502  503  0.00000000000E+00  0.00000000000E+00  0.10491182949E+03  0.10491182949E+03  0.00000000000E+00 0. -1.
         21   -1    0    0  503  504 -0.00000000000E+00 -0.00000000000E+00 -0.99167124121E+03  0.99167124121E+03  0.00000000000E+00 0. -1.
         -6    2    1    2    0  504  0.16457157189E+02  0.83303016427E+02 -0.88537148964E+03  0.90486490712E+03  0.16639589810E+03 0.  0.
        -24    2    3    3    0    0 -0.53458781058E+02  0.51398371228E+02 -0.47252202483E+03  0.48489715193E+03  0.79677789652E+02 0.  0.
          6    2    1    2  502    0 -0.16457157189E+02 -0.83303016427E+02 -0.13879220800E+01  0.19171816358E+03  0.17188280121E+03 0.  0.
         24    2    5    5    0    0 -0.71567732768E+02 -0.56342098380E+02 -0.25866407743E+02  0.12549616646E+03  0.82364096079E+02 0.  0.
          2    1    6    6  501    0 -0.48565205850E+02 -0.29426551165E+02  0.26195650768E+02  0.62535695821E+02  0.00000000000E+00 0. -1.
         -1    1    6    6    0  501 -0.23002526918E+02 -0.26915547215E+02 -0.52062058511E+02  0.62960470637E+02  0.00000000000E+00 0.  1.
          5    1    5    5  502    0  0.55110575579E+02 -0.26960918047E+02  0.24478485663E+02  0.66221997123E+02  0.47000000000E+01 0. -1.
         13    1    4    4    0    0 -0.40105235738E+01  0.30613552158E+02 -0.34731063257E+03  0.34868029679E+03  0.00000000000E+00 0. -1.
        -14    1    4    4    0    0 -0.49448257484E+02  0.20784819071E+02 -0.12521139226E+03  0.13621685513E+03  0.00000000000E+00 0.  1.
         -5    1    3    3    0  504  0.69915938246E+02  0.31904645199E+02 -0.41284946481E+03  0.41996775519E+03  0.47000000000E+01 0.  1.
<mgrwt>
<rscale>  2 0.19047532E+03</rscale>
<asrwt>0</asrwt>
<pdfrwt beam="1">  1       21 0.16140282E-01 0.19171314E+03</pdfrwt>
<pdfrwt beam="2">  1       21 0.15256480E+00 0.19171314E+03</pdfrwt>
<totfact> 0.98155681E+03</totfact>
</mgrwt>
</event>
<event>
12    1  0.2743855E-001  0.2084804E+03  0.7546771E-02  0.1142953E+00
         21   -1    0    0  502  503  0.00000000000E+00  0.00000000000E+00  0.99629541365E+02  0.99629541365E+02  0.00000000000E+00 0.  1.
         21   -1    0    0  503  504 -0.00000000000E+00 -0.00000000000E+00 -0.59252509838E+03  0.59252509838E+03  0.00000000000E+00 0.  1.
         -6    2    1    2    0  504 -0.54489893517E+02  0.10363581496E+03 -0.42484055709E+03  0.47284762627E+03  0.17142300920E+03 0.  0.
        -24    2    3    3    0    0 -0.63181513505E+02  0.66226060125E+02 -0.14541220975E+03  0.19075309369E+03  0.82850692929E+02 0.  0.
          6    2    1    2  502    0  0.54489893517E+02 -0.10363581496E+03 -0.68054999927E+02  0.21930701348E+03  0.17249507966E+03 0.  0.
         24    2    5    5    0    0  0.33166698014E+02  0.75742855175E+01 -0.20757956122E+01  0.88166971856E+02  0.81312399673E+02 0.  0.
          2    1    6    6  501    0  0.39710809961E+02 -0.91511812623E+01  0.30545339561E+02  0.50928482357E+02  0.00000000000E+00 0. -1.
         -1    1    6    6    0  501 -0.65441119465E+01  0.16725466780E+02 -0.32621135174E+02  0.37238489499E+02  0.00000000000E+00 0.  1.
          5    1    5    5  502    0  0.21323195503E+02 -0.11121010048E+03 -0.65979204315E+02  0.13114004162E+03  0.47000000000E+01 0. -1.
         13    1    4    4    0    0 -0.73896255734E+02  0.22446946338E+02 -0.78889832141E+02  0.11039985338E+03  0.00000000000E+00 0. -1.
        -14    1    4    4    0    0  0.10714742230E+02  0.43779113786E+02 -0.66522377608E+02  0.80353240305E+02  0.00000000000E+00 0.  1.
         -5    1    3    3    0  504  0.86916199879E+01  0.37409754834E+02 -0.27942834734E+03  0.28209453258E+03  0.47000000000E+01 0.  1.
<mgrwt>
<rscale>  2 0.20825852E+03</rscale>
<asrwt>0</asrwt>
<pdfrwt beam="1">  1       21 0.15327622E-01 0.20848041E+03</pdfrwt>
<pdfrwt beam="2">  1       21 0.91157706E-01 0.20848041E+03</pdfrwt>
<totfact> 0.38140875E+04</totfact>
</mgrwt>
</event>
<event>
12    1  0.2743855E-001  0.1967857E+03  0.7546771E-02  0.1156176E+00
         21   -1    0    0  502  503  0.00000000000E+00  0.00000000000E+00  0.73138061928E+03  0.73138061928E+03  0.00000000000E+00 0. -1.
         21   -1    0    0  503  504 -0.00000000000E+00 -0.00000000000E+00 -0.10303313553E+03  0.10303313553E+03  0.00000000000E+00 0.  1.
         -6    2    1    2    0  504 -0.32394884333E+02  0.35177853000E+02  0.47093359685E+01  0.18046487860E+03  0.17394966137E+03 0.  0.
        -24    2    3    3    0    0 -0.62821517036E+02  0.73885814147E+02  0.15042239361E+02  0.12993820123E+03  0.85158737888E+02 0.  0.
          6    2    1    2  502    0  0.32394884333E+02 -0.35177853000E+02  0.62363814777E+03  0.65394887621E+03  0.19088657225E+03 0.  0.
         24    2    5    5    0    0  0.82600221496E+00  0.35410090807E+01  0.58583158045E+03  0.59112236006E+03  0.78827551557E+02 0.  0.
          4    1    6    6  501    0 -0.17649868184E+01 -0.37530537979E+02  0.25938507535E+03  0.26209210933E+03  0.00000000000E+00 0. -1.
         -3    1    6    6    0  501  0.25909890334E+01  0.41071547059E+02  0.32644650510E+03  0.32903025073E+03  0.00000000000E+00 0.  1.
          5    1    5    5  502    0  0.31568882118E+02 -0.38718862081E+02  0.37806567324E+02  0.62826516153E+02  0.47000000000E+01 0. -1.
         13    1    4    4    0    0  0.15007482487E+02  0.29966136876E+02  0.22335699572E+02  0.40275021605E+02  0.00000000000E+00 0. -1.
        -14    1    4    4    0    0 -0.77828999523E+02  0.43919677271E+02 -0.72934602111E+01  0.89663179624E+02  0.00000000000E+00 0.  1.
         -5    1    3    3    0  504  0.30426632703E+02 -0.38707961146E+02 -0.10332903393E+02  0.50526677372E+02  0.47000000000E+01 0.  1.
<mgrwt>
<rscale>  2 0.19255565E+03</rscale>
<asrwt>0</asrwt>
<pdfrwt beam="1">  1       21 0.11252009E+00 0.19678565E+03</pdfrwt>
<pdfrwt beam="2">  1       21 0.15851252E-01 0.19678565E+03</pdfrwt>
<totfact> 0.21871099E+04</totfact>
</mgrwt>
</event>
<event>
12    1  0.2743855E-001  0.1940782E+03  0.7546771E-02  0.1155506E+00
         21   -1    0    0  502  503  0.00000000000E+00  0.00000000000E+00  0.10176956500E+04  0.10176956500E+04  0.00000000000E+00 0. -1.
         21   -1    0    0  503  504 -0.00000000000E+00 -0.00000000000E+00 -0.47586295563E+02  0.47586295563E+02  0.00000000000E+00 0. -1.
         -6    2    1    2    0  504  0.83226339109E+01  0.84812277061E+02  0.23013801521E+03  0.30104790983E+03  0.17436728304E+03 0.  0.
        -24    2    3    3    0    0  0.52952629050E+02  0.19497031858E+02  0.18396670868E+03  0.20933205914E+03  0.82413869618E+02 0.  0.
          6    2    1    2  502    0 -0.83226339109E+01 -0.84812277061E+02  0.73997133928E+03  0.76423403578E+03  0.17097862415E+03 0.  0.
         24    2    5    5    0    0 -0.20479337459E+01 -0.12371491188E+03  0.63773798567E+03  0.65456847396E+03  0.80253194868E+02 0.  0.
          2    1    6    6  501    0 -0.62215671989E+01 -0.12053412843E+03  0.42605772408E+03  0.44282317946E+03  0.00000000000E+00 0. -1.
         -1    1    6    6    0  501  0.41736334530E+01 -0.31807834516E+01  0.21168026159E+03  0.21174529451E+03  0.00000000000E+00 0.  1.
          5    1    5    5  502    0 -0.62747001650E+01  0.38902634824E+02  0.10223335361E+03  0.10966556182E+03  0.47000000000E+01 0. -1.
         11    1    4    4    0    0  0.52865727983E+02 -0.20698934423E+02  0.13154282192E+03  0.14327157806E+03  0.00000000000E+00 0. -1.
        -12    1    4    4    0    0  0.86901066814E-01  0.40195966280E+02  0.52423886764E+02  0.66060481080E+02  0.00000000000E+00 0.  1.
         -5    1    3    3    0  504 -0.44629995139E+02  0.65315245203E+02  0.46171306525E+02  0.91715850693E+02  0.47000000000E+01 0.  1.
<mgrwt>
<rscale>  2 0.19331400E+03</rscale>
<asrwt>0</asrwt>
<pdfrwt beam="1">  1       21 0.15656855E+00 0.19407817E+03</pdfrwt>
<pdfrwt beam="2">  1       21 0.73209693E-02 0.19407817E+03</pdfrwt>
<totfact> 0.37315337E+04</totfact>
</mgrwt>
</event>
<event>
12    1  0.2743855E-001  0.3402326E+03  0.7546771E-02  0.1066744E+00
         21   -1    0    0  502  503  0.00000000000E+00  0.00000000000E+00  0.29388399783E+03  0.29388399783E+03  0.00000000000E+00 0.  1.
         21   -1    0    0  503  504 -0.00000000000E+00 -0.00000000000E+00 -0.44269892130E+03  0.44269892130E+03  0.00000000000E+00 0. -1.
         -6    2    1    2    0  504 -0.15855621089E+03  0.24620776682E+03 -0.19729241619E+03  0.39291405560E+03  0.17233345916E+03 0.  0.
        -24    2    3    3    0    0 -0.16834493958E+03  0.16608609421E+03 -0.18927238165E+03  0.31166313200E+03  0.73384358156E+02 0.  0.
          6    2    1    2  502    0  0.15855621089E+03 -0.24620776682E+03  0.48477492714E+02  0.34366886353E+03  0.17320474591E+03 0.  0.
         24    2    5    5    0    0  0.62070865427E+02 -0.16727682054E+03  0.86908543223E+02  0.21313705969E+03  0.77717335926E+02 0.  0.
          4    1    6    6  501    0  0.14933336634E+02 -0.95096329283E+02  0.85545716188E+01  0.96641073472E+02  0.00000000000E+00 0. -1.
         -3    1    6    6    0  501  0.47137528792E+02 -0.72180491254E+02  0.78353971604E+02  0.11649598622E+03  0.00000000000E+00 0.  1.
          5    1    5    5  502    0  0.96485345468E+02 -0.78930946287E+02 -0.38431050509E+02  0.13053180385E+03  0.47000000000E+01 0. -1.
         11    1    4    4    0    0 -0.73870790123E+02  0.12366129756E+03 -0.11040536962E+03  0.18148927183E+03  0.00000000000E+00 0. -1.
        -12    1    4    4    0    0 -0.94474149454E+02  0.42424796649E+02 -0.78867012034E+02  0.13017386017E+03  0.00000000000E+00 0.  1.
         -5    1    3    3    0  504  0.97887286823E+01  0.80121672618E+02 -0.80200345351E+01  0.81250923602E+02  0.47000000000E+01 0.  1.
<mgrwt>
<rscale>  2 0.34012186E+03</rscale>
<asrwt>0</asrwt>
<pdfrwt beam="1">  1       21 0.45212923E-01 0.34023260E+03</pdfrwt>
<pdfrwt beam="2">  1       21 0.68107527E-01 0.34023260E+03</pdfrwt>
<totfact> 0.85300298E+03</totfact>
</mgrwt>
</event>
<event>
12    1  0.2743855E-001  0.2039833E+03  0.7546771E-02  0.1146564E+00
         21   -1    0    0  502  503  0.00000000000E+00  0.00000000000E+00  0.16431754587E+03  0.16431754587E+03  0.00000000000E+00 0.  1.
         21   -1    0    0  503  504 -0.00000000000E+00 -0.00000000000E+00 -0.26363215998E+03  0.26363215998E+03  0.00000000000E+00 0. -1.
         -6    2    1    2    0  504  0.10782410555E+03  0.43473648234E+01 -0.55043925883E+01  0.20405754895E+03  0.17310184178E+03 0.  0.
        -24    2    3    3    0    0  0.46398554941E+02  0.39191666771E+02  0.51352118560E+02  0.11327221695E+03  0.80651983287E+02 0.  0.
          6    2    1    2  502    0 -0.10782410555E+03 -0.43473648234E+01 -0.93810221523E+02  0.22389215691E+03  0.17228581760E+03 0.  0.
         24    2    5    5    0    0 -0.66250902923E+02  0.60124214851E+02 -0.83004057483E+02  0.14627914934E+03  0.80646218906E+02 0.  0.
          2    1    6    6  501    0 -0.72339959161E+02  0.14844512048E+02 -0.42386405706E+02  0.85147146858E+02  0.00000000000E+00 0. -1.
         -1    1    6    6    0  501  0.60890562378E+01  0.45279702803E+02 -0.40617651777E+02  0.61132002484E+02  0.00000000000E+00 0.  1.
          5    1    5    5  502    0 -0.41573202624E+02 -0.64471579674E+02 -0.10806164040E+02  0.77613007566E+02  0.47000000000E+01 0. -1.
         13    1    4    4    0    0  0.10913814399E+02  0.41269518106E+02 -0.86272516514E+01  0.43551279435E+02  0.00000000000E+00 0. -1.
        -14    1    4    4    0    0  0.35484740542E+02 -0.20778513344E+01  0.59979370211E+02  0.69720937518E+02  0.00000000000E+00 0.  1.
         -5    1    3    3    0  504  0.61425550606E+02 -0.34844301948E+02 -0.56856511148E+02  0.90785331995E+02  0.47000000000E+01 0.  1.
<mgrwt>
<rscale>  2 0.20381007E+03</rscale>
<asrwt>0</asrwt>
<pdfrwt beam="1">  1       21 0.25279623E-01 0.20398330E+03</pdfrwt>
<pdfrwt beam="2">  1       21 0.40558793E-01 0.20398330E+03</pdfrwt>
<totfact> 0.86434500E+04</totfact>
</mgrwt>
</event>
<event>
12    1  0.2743855E-001  0.1953291E+03  0.7546771E-02  0.1153923E+00
         21   -1    0    0  502  503  0.00000000000E+00  0.00000000000E+00  0.43798898391E+03  0.43798898391E+03  0.00000000000E+00 0.  1.
         21   -1    0    0  503  504 -0.00000000000E+00 -0.00000000000E+00 -0.88545130808E+02  0.88545130808E+02  0.00000000000E+00 0.  1.
         -6    2    1    2    0  504 -0.10104804332E+01 -0.88379116632E+02  0.13747417188E+03  0.23885690970E+03  0.17418836370E+03 0.  0.
        -24    2    3    3    0    0  0.48968786741E+02 -0.57654256508E+02  0.13813260628E+03  0.17999718057E+03  0.87157402016E+02 0.  0.
          6    2    1    2  502    0  0.10104804332E+01  0.88379116632E+02  0.21196968122E+03  0.28767720502E+03  0.17324877836E+03 0.  0.
         24    2    5    5    0    0  0.42471060858E+02  0.75182388941E+02  0.65153134799E+02  0.13447693853E+03  0.79893262569E+02 0.  0.
          2    1    6    6  501    0 -0.38122058467E+01  0.25573079016E+00 -0.14948448973E+02  0.15429012877E+02  0.00000000000E+00 0. -1.
         -1    1    6    6    0  501  0.46283266705E+02  0.74926658151E+02  0.80101583772E+02  0.11904792565E+03  0.00000000000E+00 0.  1.
          5    1    5    5  502    0 -0.41460580425E+02  0.13196727691E+02  0.14681654642E+03  0.15320026650E+03  0.47000000000E+01 0. -1.
         11    1    4    4    0    0  0.46971334040E+02 -0.30338302909E+02  0.21040753705E+02  0.59744724967E+02  0.00000000000E+00 0. -1.
        -12    1    4    4    0    0  0.19974527009E+01 -0.27315953598E+02  0.11709185258E+03  0.12025245560E+03  0.00000000000E+00 0.  1.
         -5    1    3    3    0  504 -0.49979267174E+02 -0.30724860125E+02 -0.65843440115E+00  0.58859729126E+02  0.47000000000E+01 0.  1.
<mgrwt>
<rscale>  2 0.19511945E+03</rscale>
<asrwt>0</asrwt>
<pdfrwt beam="1">  1       21 0.67382919E-01 0.19532915E+03</pdfrwt>
<pdfrwt beam="2">  1       21 0.13622328E-01 0.19532915E+03</pdfrwt>
<totfact> 0.94025171E+04</totfact>
</mgrwt>
</event>
<event>
12    1  0.2743855E-001  0.2034239E+03  0.7546771E-02  0.1147261E+00
         21   -1    0    0  502  503  0.00000000000E+00  0.00000000000E+00  0.29098941400E+03  0.29098941400E+03  0.00000000000E+00 0. -1.
         21   -1    0    0  503  504 -0.00000000000E+00 -0.00000000000E+00 -0.18798824594E+03  0.18798824594E+03  0.00000000000E+00 0. -1.
         -6    2    1    2    0  504  0.37935062873E+02  0.96795139645E+02 -0.68141237872E+02  0.21453323568E+03  0.17485111627E+03 0.  0.
        -24    2    3    3    0    0 -0.36314068831E+02  0.10006701244E+02 -0.27648256510E+02  0.93261070128E+02  0.80711557095E+02 0.  0.
          6    2    1    2  502    0 -0.37935062873E+02 -0.96795139645E+02  0.17114240594E+03  0.26444442425E+03  0.17272163256E+03 0.  0.
         24    2    5    5    0    0 -0.59917518527E+02 -0.34706958234E+01  0.81234121928E+02  0.13292153763E+03  0.86411792285E+02 0.  0.
          4    1    6    6  501    0 -0.19644048217E+02 -0.23492124130E+02  0.82425329262E+02  0.87930105371E+02  0.00000000000E+00 0. -1.
         -3    1    6    6    0  501 -0.40273470310E+02  0.20021428307E+02 -0.11912073346E+01  0.44991432264E+02  0.00000000000E+00 0.  1.
          5    1    5    5  502    0  0.21982455654E+02 -0.93324443821E+02  0.89908284009E+02  0.13152288662E+03  0.47000000000E+01 0. -1.
         11    1    4    4    0    0 -0.44322162282E+02 -0.75059854251E+01 -0.47641684221E+02  0.65502091280E+02  0.00000000000E+00 0. -1.
        -12    1    4    4    0    0  0.80080934516E+01  0.17512686669E+02  0.19993427711E+02  0.27758978849E+02  0.00000000000E+00 0.  1.
         -5    1    3    3    0  504  0.74249131704E+02  0.86788438401E+02 -0.40492981362E+02  0.12127216556E+03  0.47000000000E+01 0.  1.
<mgrwt>
<rscale>  2 0.20296549E+03</rscale>
<asrwt>0</asrwt>
<pdfrwt beam="1">  1       21 0.44767602E-01 0.20342389E+03</pdfrwt>
<pdfrwt beam="2">  1       21 0.28921269E-01 0.20342389E+03</pdfrwt>
<totfact> 0.54522146E+04</totfact>
</mgrwt>
</event>
<event>
12    1  0.2743855E-001  0.1740726E+03  0.7546771E-02  0.1173806E+00
         21   -1    0    0  502  503  0.00000000000E+00  0.00000000000E+00  0.15819075749E+03  0.15819075749E+03  0.00000000000E+00 0.  1.
         21   -1    0    0  503  504 -0.00000000000E+00 -0.00000000000E+00 -0.19618832150E+03  0.19618832150E+03  0.00000000000E+00 0.  1.
         -6    2    1    2    0  504  0.15362332942E+02 -0.12781285444E+02  0.10009314372E+02  0.17380792303E+03  0.17236486070E+03 0.  0.
        -24    2    3    3    0    0 -0.33913826958E+01  0.89242495230E+01  0.70153565826E+02  0.10700782512E+03  0.80237199179E+02 0.  0.
          6    2    1    2  502    0 -0.15362332942E+02  0.12781285444E+02 -0.48006878383E+02  0.18057115597E+03  0.17292171484E+03 0.  0.
         24    2    5    5    0    0  0.24560660218E+02 -0.12622038858E+02  0.28945889067E+02  0.90111260504E+02  0.80744243637E+02 0.  0.
          4    1    6    6  501    0  0.30482968711E+02 -0.17042349131E+02  0.53822560549E+02  0.64160120553E+02  0.00000000000E+00 0. -1.
         -3    1    6    6    0  501 -0.59223084923E+01  0.44203102731E+01 -0.24876671481E+02  0.25951139952E+02  0.00000000000E+00 0.  1.
          5    1    5    5  502    0 -0.39922993161E+02  0.25403324302E+02 -0.76952767451E+02  0.90459895461E+02  0.47000000000E+01 0. -1.
         13    1    4    4    0    0 -0.12673829498E+02  0.34643537707E+02  0.61366669668E+01  0.37395980271E+02  0.00000000000E+00 0. -1.
        -14    1    4    4    0    0  0.92824468024E+01 -0.25719288184E+02  0.64016898860E+02  0.69611844846E+02  0.00000000000E+00 0.  1.
         -5    1    3    3    0  504  0.18753715638E+02 -0.21705534967E+02 -0.60144251455E+02  0.66800097915E+02  0.47000000000E+01 0.  1.
<mgrwt>
<rscale>  2 0.17393418E+03</rscale>
<asrwt>0</asrwt>
<pdfrwt beam="1">  1       21 0.24337040E-01 0.17407263E+03</pdfrwt>
<pdfrwt beam="2">  1       21 0.30182819E-01 0.17407263E+03</pdfrwt>
<totfact> 0.16885628E+05</totfact>
</mgrwt>
</event>
<event>
12    1  0.2743855E-001  0.2200694E+03  0.7546771E-02  0.1134562E+00
         21   -1    0    0  502  503  0.00000000000E+00  0.00000000000E+00  0.26296545751E+04  0.26296545751E+04  0.00000000000E+00 0. -1.
         21   -1    0    0  503  504 -0.00000000000E+00 -0.00000000000E+00 -0.18210300136E+02  0.18210300136E+02  0.00000000000E+00 0. -1.
         -6    2    1    2    0  504  0.22185553038E+02 -0.12729277386E+03  0.14002104884E+04  0.14168011852E+04  0.17332206243E+03 0.  0.
        -24    2    3    3    0    0  0.59063323095E+01 -0.15665495445E+03  0.10110530685E+04  0.10261699804E+04  0.78872439804E+02 0.  0.
          6    2    1    2  502    0 -0.22185553038E+02  0.12729277386E+03  0.12112337866E+04  0.12310636901E+04  0.17814284812E+03 0.  0.
         24    2    5    5    0    0 -0.55971510210E+02  0.11173720593E+03  0.11456306014E+04  0.11555035518E+04  0.84267254847E+02 0.  0.
          2    1    6    6  501    0 -0.51763475246E+02  0.98472183274E+02  0.63418513450E+03  0.64386878560E+03  0.00000000000E+00 0. -1.
         -1    1    6    6    0  501 -0.42080349642E+01  0.13265022656E+02  0.51144546686E+03  0.51163476617E+03  0.00000000000E+00 0.  1.
          5    1    5    5  502    0  0.33785957172E+02  0.15555567934E+02  0.65603185198E+02  0.75560138326E+02  0.47000000000E+01 0. -1.
         11    1    4    4    0    0  0.16178987941E+02 -0.15292904516E+03  0.99460119978E+03  0.10064196933E+04  0.00000000000E+00 0. -1.
        -12    1    4    4    0    0 -0.10272655632E+02 -0.37259092878E+01  0.16451868714E+02  0.19750287034E+02  0.00000000000E+00 0.  1.
         -5    1    3    3    0  504  0.16279220729E+02  0.29362180585E+02  0.38915741992E+03  0.39063120479E+03  0.47000000000E+01 0.  1.
<mgrwt>
<rscale>  2 0.21909191E+03</rscale>
<asrwt>0</asrwt>
<pdfrwt beam="1">  1       21 0.40456194E+00 0.22006936E+03</pdfrwt>
<pdfrwt beam="2">  1       21 0.28015867E-02 0.22006936E+03</pdfrwt>
<totfact> 0.55828116E+03</totfact>
</mgrwt>
</event>
<event>
12    1  0.2743855E-001  0.1910644E+03  0.7546771E-02  0.1158257E+00
         21   -1    0    0  502  503  0.00000000000E+00  0.00000000000E+00  0.65068682743E+03  0.65068682743E+03  0.00000000000E+00 0.  1.
         21   -1    0    0  503  504 -0.00000000000E+00 -0.00000000000E+00 -0.10703047669E+03  0.10703047669E+03  0.00000000000E+00 0.  1.
         -6    2    1    2    0  504 -0.27420579058E+02  0.72457013212E+02  0.67840559428E+01  0.18785989671E+03  0.17100704798E+03 0.  0.
        -24    2    3    3    0    0  0.39001507493E+02  0.80524556258E+02  0.10465714476E+02  0.12068383370E+03  0.80310240872E+02 0.  0.
          6    2    1    2  502    0  0.27420579058E+02 -0.72457013212E+02  0.53687229480E+03  0.56985740741E+03  0.17465307593E+03 0.  0.
         24    2    5    5    0    0  0.83123553813E+02 -0.43718249582E+02  0.29284903161E+03  0.31786895348E+03  0.80369806087E+02 0.  0.
          2    1    6    6  501    0  0.35305251948E+02 -0.61810698553E+02  0.14721949906E+03  0.16352554594E+03  0.00000000000E+00 0. -1.
         -1    1    6    6    0  501  0.47818301865E+02  0.18092448971E+02  0.14562953255E+03  0.15434340755E+03  0.00000000000E+00 0.  1.
          5    1    5    5  502    0 -0.55702974755E+02 -0.28738763629E+02  0.24402326319E+03  0.25198845392E+03  0.47000000000E+01 0. -1.
         13    1    4    4    0    0  0.95433141549E+01 -0.15267584271E+02 -0.62930631093E+01  0.19072928927E+02  0.00000000000E+00 0. -1.
        -14    1    4    4    0    0  0.29458193338E+02  0.95792140530E+02  0.16758777585E+02  0.10161090477E+03  0.00000000000E+00 0.  1.
         -5    1    3    3    0  504 -0.66422086551E+02 -0.80675430465E+01 -0.36816585333E+01  0.67176063014E+02  0.47000000000E+01 0.  1.
<mgrwt>
<rscale>  2 0.19022715E+03</rscale>
<asrwt>0</asrwt>
<pdfrwt beam="1">  1       21 0.10010566E+00 0.19106440E+03</pdfrwt>
<pdfrwt beam="2">  1       21 0.16466228E-01 0.19106440E+03</pdfrwt>
<totfact> 0.27115448E+04</totfact>
</mgrwt>
</event>
<event>
12    1  0.2743855E-001  0.1768552E+03  0.7546771E-02  0.1171564E+00
         21   -1    0    0  502  503  0.00000000000E+00  0.00000000000E+00  0.16684024214E+03  0.16684024214E+03  0.00000000000E+00 0. -1.
         21   -1    0    0  503  504 -0.00000000000E+00 -0.00000000000E+00 -0.22101913708E+03  0.22101913708E+03  0.00000000000E+00 0. -1.
         -6    2    1    2    0  504 -0.66301807521E+01  0.34695228081E+02 -0.10564824768E+03  0.20366697763E+03  0.17050210377E+03 0.  0.
        -24    2    3    3    0    0 -0.36174986979E+02  0.40044712268E+01 -0.12743315689E+03  0.15558901594E+03  0.81511146066E+02 0.  0.
          6    2    1    2  502    0  0.66301807521E+01 -0.34695228081E+02  0.51469352737E+02  0.18419240159E+03  0.17329174355E+03 0.  0.
         24    2    5    5    0    0 -0.31949759618E+02  0.34164517359E+02  0.63729414081E+01  0.93165742551E+02  0.80319610413E+02 0.  0.
          4    1    6    6  501    0 -0.38034614594E+02  0.27082794050E+02  0.37992895068E+02  0.60196093864E+02  0.00000000000E+00 0. -1.
         -3    1    6    6    0  501  0.60848549758E+01  0.70817233087E+01 -0.31619953660E+02  0.32969648687E+02  0.00000000000E+00 0.  1.
          5    1    5    5  502    0  0.38579940370E+02 -0.68859745440E+02  0.45096411329E+02  0.91026659039E+02  0.47000000000E+01 0. -1.
         13    1    4    4    0    0 -0.35376998756E+01  0.20226918256E+02  0.24587545278E+01  0.20680643519E+02  0.00000000000E+00 0. -1.
        -14    1    4    4    0    0 -0.32637287103E+02 -0.16222447029E+02 -0.12989191142E+03  0.13490837242E+03  0.00000000000E+00 0.  1.
         -5    1    3    3    0  504  0.29544806227E+02  0.30690756854E+02  0.21784909211E+02  0.48077961693E+02  0.47000000000E+01 0.  1.
<mgrwt>
<rscale>  2 0.17616803E+03</rscale>
<asrwt>0</asrwt>
<pdfrwt beam="1">  1       21 0.25667730E-01 0.17685516E+03</pdfrwt>
<pdfrwt beam="2">  1       21 0.34002944E-01 0.17685516E+03</pdfrwt>
<totfact> 0.12068717E+05</totfact>
</mgrwt>
</event>
<event>
12    1  0.2743855E-001  0.2174996E+03  0.7546771E-02  0.1135987E+00
         21   -1    0    0  502  503  0.00000000000E+00  0.00000000000E+00  0.25551152090E+03  0.25551152090E+03  0.00000000000E+00 0. -1.
         21   -1    0    0  503  504 -0.00000000000E+00 -0.00000000000E+00 -0.27324382276E+03  0.27324382276E+03  0.00000000000E+00 0.  1.
         -6    2    1    2    0  504 -0.11912127952E+03  0.46524597155E+02 -0.15986144784E+03  0.26992913978E+03  0.17593078360E+03 0.  0.
        -24    2    3    3    0    0 -0.63367312304E+02  0.12364155862E+02 -0.67043261520E+01  0.10333191731E+03  0.80400550535E+02 0.  0.
          6    2    1    2  502    0  0.11912127952E+03 -0.46524597155E+02  0.14212914598E+03  0.25882620389E+03  0.17445885563E+03 0.  0.
         24    2    5    5    0    0  0.57381418779E+02 -0.93087258377E+02  0.11208316002E+03  0.17573142008E+03  0.79756080326E+02 0.  0.
          2    1    6    6  501    0  0.55465882949E+02 -0.10512507918E+03  0.11232758142E+03  0.16353969547E+03  0.00000000000E+00 0. -1.
         -1    1    6    6    0  501  0.19155358298E+01  0.12037820804E+02 -0.24442140225E+00  0.12191724613E+02  0.00000000000E+00 0.  1.
          5    1    5    5  502    0  0.61739860737E+02  0.46562661223E+02  0.30045985956E+02  0.83094783808E+02  0.47000000000E+01 0. -1.
         13    1    4    4    0    0 -0.13639545876E+02 -0.29100983054E+02 -0.19132526830E+02  0.37402647090E+02  0.00000000000E+00 0. -1.
        -14    1    4    4    0    0 -0.49727766428E+02  0.41465138916E+02  0.12428200678E+02  0.65929270217E+02  0.00000000000E+00 0.  1.
         -5    1    3    3    0  504 -0.55753967212E+02  0.34160441293E+02 -0.15315712169E+03  0.16659722247E+03  0.47000000000E+01 0.  1.
<mgrwt>
<rscale>  2 0.21720173E+03</rscale>
<asrwt>0</asrwt>
<pdfrwt beam="1">  1       21 0.39309465E-01 0.21749956E+03</pdfrwt>
<pdfrwt beam="2">  1       21 0.42037511E-01 0.21749956E+03</pdfrwt>
<totfact> 0.33540798E+04</totfact>
</mgrwt>
</event>
<event>
12    1  0.2743855E-001  0.2437576E+03  0.7546771E-02  0.1118561E+00
         21   -1    0    0  502  503  0.00000000000E+00  0.00000000000E+00  0.33294395137E+03  0.33294395137E+03  0.00000000000E+00 0.  1.
         21   -1    0    0  503  504 -0.00000000000E+00 -0.00000000000E+00 -0.17335110888E+03  0.17335110888E+03  0.00000000000E+00 0. -1.
         -6    2    1    2    0  504  0.11366311933E+03  0.11326243381E+03  0.69784257368E+02  0.25354996919E+03  0.18349403448E+03 0.  0.
        -24    2    3    3    0    0  0.47542491166E+01  0.73828575625E+01  0.60726397524E+02  0.10131409462E+03  0.80620970863E+02 0.  0.
          6    2    1    2  502    0 -0.11366311933E+03 -0.11326243381E+03  0.89808585129E+02  0.25274509106E+03  0.17339785317E+03 0.  0.
         24    2    5    5    0    0 -0.35510535926E+02 -0.86441428413E+01  0.92652182117E+02  0.12204318158E+03  0.70529369428E+02 0.  0.
          2    1    6    6  501    0 -0.36068719387E+02  0.21304160911E+02  0.78360481492E+02  0.88854852709E+02  0.00000000000E+00 0. -1.
         -1    1    6    6    0  501  0.55818346133E+00 -0.29948303753E+02  0.14291700625E+02  0.33188328870E+02  0.00000000000E+00 0.  1.
          5    1    5    5  502    0 -0.78152583409E+02 -0.10461829097E+03 -0.28435969880E+01  0.13070190948E+03  0.47000000000E+01 0. -1.
         13    1    4    4    0    0 -0.10308682853E+02 -0.23464943645E+02 -0.59573250483E+01  0.26312777203E+02  0.00000000000E+00 0. -1.
        -14    1    4    4    0    0  0.15062931969E+02  0.30847801207E+02  0.66683722572E+02  0.75001317421E+02  0.00000000000E+00 0.  1.
         -5    1    3    3    0  504  0.10890887022E+03  0.10587957625E+03  0.90578598447E+01  0.15223587456E+03  0.47000000000E+01 0.  1.
<mgrwt>
<rscale>  2 0.24185883E+03</rscale>
<asrwt>0</asrwt>
<pdfrwt beam="1">  1       21 0.51222146E-01 0.24375755E+03</pdfrwt>
<pdfrwt beam="2">  1       21 0.26669401E-01 0.24375755E+03</pdfrwt>
<totfact> 0.47365695E+04</totfact>
</mgrwt>
</event>
<event>
12    1  0.2743855E-001  0.2014460E+03  0.7546771E-02  0.1148906E+00
         21   -1    0    0  502  503  0.00000000000E+00  0.00000000000E+00  0.75351478591E+03  0.75351478591E+03  0.00000000000E+00 0.  1.
         21   -1    0    0  503  504 -0.00000000000E+00 -0.00000000000E+00 -0.63529137420E+02  0.63529137420E+02  0.00000000000E+00 0.  1.
         -6    2    1    2    0  504  0.68918175485E+02  0.77536980463E+02  0.18032263827E+03  0.26901392803E+03  0.17055949504E+03 0.  0.
        -24    2    3    3    0    0 -0.24353615444E+02  0.28534306790E+02  0.11326778721E+03  0.14403660184E+03  0.80682376027E+02 0.  0.
          6    2    1    2  502    0 -0.68918175485E+02 -0.77536980463E+02  0.50966301022E+03  0.54802999530E+03  0.17268119039E+03 0.  0.
         24    2    5    5    0    0 -0.12963172721E+02 -0.47478985165E+02  0.45366430149E+03  0.46322203108E+03  0.79630733739E+02 0.  0.
          4    1    6    6  501    0  0.15519479988E+02 -0.60381449569E+02  0.30228701736E+03  0.30864901519E+03  0.00000000000E+00 0. -1.
         -3    1    6    6    0  501 -0.28482652709E+02  0.12902464404E+02  0.15137728412E+03  0.15457301589E+03  0.00000000000E+00 0.  1.
          5    1    5    5  502    0 -0.55955002764E+02 -0.30057995298E+02  0.55998708731E+02  0.84807964220E+02  0.47000000000E+01 0. -1.
         11    1    4    4    0    0  0.19028927390E+02  0.92687351653E+01 -0.63128674459E-01  0.21166329734E+02  0.00000000000E+00 0. -1.
        -12    1    4    4    0    0 -0.43382542834E+02  0.19265571624E+02  0.11333091588E+03  0.12287027211E+03  0.00000000000E+00 0.  1.
         -5    1    3    3    0  504  0.93271790929E+02  0.49002673673E+02  0.67054851067E+02  0.12497732619E+03  0.47000000000E+01 0.  1.
<mgrwt>
<rscale>  2 0.20099052E+03</rscale>
<asrwt>0</asrwt>
<pdfrwt beam="1">  1       21 0.11592535E+00 0.20144600E+03</pdfrwt>
<pdfrwt beam="2">  1       21 0.97737140E-02 0.20144600E+03</pdfrwt>
<totfact> 0.48347729E+04</totfact>
</mgrwt>
</event>
<event>
12    1  0.2743855E-001  0.1859084E+03  0.7546771E-02  0.1162424E+00
         21   -1    0    0  502  503  0.00000000000E+00  0.00000000000E+00  0.36837399210E+02  0.36837399210E+02  0.00000000000E+00 0. -1.
         21   -1    0    0  503  504 -0.00000000000E+00 -0.00000000000E+00 -0.93880322650E+03  0.93880322650E+03  0.00000000000E+00 0. -1.
         -6    2    1    2    0  504 -0.55668500667E+02 -0.33734188828E+02 -0.48659290779E+03  0.52056195251E+03  0.17313321757E+03 0.  0.
        -24    2    3    3    0    0  0.12672633231E+02 -0.68589196070E+02 -0.31686473357E+03  0.33424199857E+03  0.80308036814E+02 0.  0.
          6    2    1    2  502    0  0.55668500667E+02  0.33734188828E+02 -0.41537291950E+03  0.45507867320E+03  0.17414063019E+03 0.  0.
         24    2    5    5    0    0 -0.54786970360E+01 -0.36440349012E+02 -0.25986842462E+03  0.27378558598E+03  0.77904003844E+02 0.  0.
          4    1    6    6  501    0 -0.27795155403E+02  0.12363044828E+02 -0.66850992329E+02  0.73447060641E+02  0.00000000000E+00 0. -1.
         -3    1    6    6    0  501  0.22316458367E+02 -0.48803393840E+02 -0.19301743229E+03  0.20033852534E+03  0.00000000000E+00 0.  1.
          5    1    5    5  502    0  0.61147197703E+02  0.70174537840E+02 -0.15550449487E+03  0.18129308722E+03  0.47000000000E+01 0. -1.
         13    1    4    4    0    0  0.32609649391E+02 -0.66825018945E+01 -0.53869833433E+02  0.63324592530E+02  0.00000000000E+00 0. -1.
        -14    1    4    4    0    0 -0.19937016160E+02 -0.61906694175E+02 -0.26299490014E+03  0.27091740604E+03  0.00000000000E+00 0.  1.
         -5    1    3    3    0  504 -0.68341133898E+02  0.34855007242E+02 -0.16972817422E+03  0.18631995394E+03  0.47000000000E+01 0.  1.
<mgrwt>
<rscale>  2 0.18567213E+03</rscale>
<asrwt>0</asrwt>
<pdfrwt beam="1">  1       21 0.56672919E-02 0.18590841E+03</pdfrwt>
<pdfrwt beam="2">  1       21 0.14443127E+00 0.18590841E+03</pdfrwt>
<totfact> 0.71983568E+04</totfact>
</mgrwt>
</event>
<event>
12    1  0.2743855E-001  0.2455775E+03  0.7546771E-02  0.1116139E+00
         21   -1    0    0  502  503  0.00000000000E+00  0.00000000000E+00  0.15234085914E+03  0.15234085914E+03  0.00000000000E+00 0. -1.
         21   -1    0    0  503  504 -0.00000000000E+00 -0.00000000000E+00 -0.48193747469E+03  0.48193747469E+03  0.00000000000E+00 0. -1.
         -6    2    1    2    0  504 -0.99096193823E+02 -0.14457944145E+03 -0.29885672851E+03  0.38678438020E+03  0.17194051897E+03 0.  0.
        -24    2    3    3    0    0 -0.11346661803E+03 -0.89159742028E+02 -0.13858609374E+03  0.21652981037E+03  0.82794446646E+02 0.  0.
          6    2    1    2  502    0  0.99096193823E+02  0.14457944145E+03 -0.30739887029E+02  0.24749395364E+03  0.17200304041E+03 0.  0.
         24    2    5    5    0    0 -0.35735292097E+01  0.64583691356E+02  0.22527462856E+02  0.10678186238E+03  0.81921036684E+02 0.  0.
          4    1    6    6  501    0 -0.12897847151E+02  0.42338734385E+02 -0.26892951765E+02  0.51789513852E+02  0.00000000000E+00 0. -1.
         -3    1    6    6    0  501  0.93243179416E+01  0.22244956971E+02  0.49420414621E+02  0.54992348532E+02  0.00000000000E+00 0.  1.
          5    1    5    5  502    0  0.10266972303E+03  0.79995750093E+02 -0.53267349886E+02  0.14071209125E+03  0.47000000000E+01 0. -1.
         13    1    4    4    0    0 -0.64795827257E+02 -0.87620852882E+02 -0.12528877191E+03  0.16605176740E+03  0.00000000000E+00 0. -1.
        -14    1    4    4    0    0 -0.48670790768E+02 -0.15388891465E+01 -0.13297321823E+02  0.50478042964E+02  0.00000000000E+00 0.  1.
         -5    1    3    3    0  504  0.14370424202E+02 -0.55419699420E+02 -0.16027063478E+03  0.17025456983E+03  0.47000000000E+01 0.  1.
<mgrwt>
<rscale>  2 0.24556657E+03</rscale>
<asrwt>0</asrwt>
<pdfrwt beam="1">  1       21 0.23437055E-01 0.24557752E+03</pdfrwt>
<pdfrwt beam="2">  1       21 0.74144227E-01 0.24557752E+03</pdfrwt>
<totfact> 0.27174058E+04</totfact>
</mgrwt>
</event>
<event>
12    1  0.2743855E-001  0.1927840E+03  0.7546771E-02  0.1156200E+00
         21   -1    0    0  502  503  0.00000000000E+00  0.00000000000E+00  0.66783976591E+03  0.66783976591E+03  0.00000000000E+00 0. -1.
         21   -1    0    0  503  504 -0.00000000000E+00 -0.00000000000E+00 -0.56334489309E+02  0.56334489309E+02  0.00000000000E+00 0.  1.
         -6    2    1    2    0  504  0.12290002597E+02  0.83256380196E+02  0.25725847472E+03  0.32086732064E+03  0.17231147852E+03 0.  0.
        -24    2    3    3    0    0  0.64154911174E+02  0.61185743419E+02  0.22588011459E+03  0.25618522702E+03  0.82155319697E+02 0.  0.
          6    2    1    2  502    0 -0.12290002597E+02 -0.83256380196E+02  0.35424680188E+03  0.40330693458E+03  0.17344456703E+03 0.  0.
         24    2    5    5    0    0 -0.77456952106E+01 -0.10480743769E+02  0.11376118553E+03  0.15196580055E+03  0.99910737254E+02 0.  0.
          2    1    6    6  501    0  0.46113678479E+02 -0.20484868952E+01  0.49103327265E+02  0.67392910531E+02  0.00000000000E+00 0. -1.
         -1    1    6    6    0  501 -0.53859373690E+02 -0.84322568740E+01  0.64657858265E+02  0.84572890016E+02  0.00000000000E+00 0.  1.
          5    1    5    5  502    0 -0.45443073868E+01 -0.72775636427E+02  0.24048561635E+03  0.25134113404E+03  0.47000000000E+01 0. -1.
         13    1    4    4    0    0  0.18219119612E+01  0.27994565772E+02  0.14970839925E+03  0.15231421431E+03  0.00000000000E+00 0. -1.
        -14    1    4    4    0    0  0.62332999213E+02  0.33191177647E+02  0.76171715339E+02  0.10387101271E+03  0.00000000000E+00 0.  1.
         -5    1    3    3    0  504 -0.51864908576E+02  0.22070636777E+02  0.31378360135E+02  0.64682093613E+02  0.47000000000E+01 0.  1.
<mgrwt>
<rscale>  2 0.19252884E+03</rscale>
<asrwt>0</asrwt>
<pdfrwt beam="1">  1       21 0.10274457E+00 0.19278404E+03</pdfrwt>
<pdfrwt beam="2">  1       21 0.86668450E-02 0.19278404E+03</pdfrwt>
<totfact> 0.80314952E+04</totfact>
</mgrwt>
</event>
<event>
12    1  0.2743855E-001  0.1844579E+03  0.7546771E-02  0.1163683E+00
         21   -1    0    0  502  503  0.00000000000E+00  0.00000000000E+00  0.25614652707E+03  0.25614652707E+03  0.00000000000E+00 0. -1.
         21   -1    0    0  503  504 -0.00000000000E+00 -0.00000000000E+00 -0.13647018210E+03  0.13647018210E+03  0.00000000000E+00 0. -1.
         -6    2    1    2    0  504  0.62419380688E+02  0.44834963053E+01  0.93462034600E+02  0.20630535775E+03  0.17294643073E+03 0.  0.
        -24    2    3    3    0    0  0.48662332482E+01  0.41518575728E+02 -0.17512455008E+01  0.88952809438E+02  0.78498809478E+02 0.  0.
          6    2    1    2  502    0 -0.62419380688E+02 -0.44834963053E+01  0.26214310361E+02  0.18631135142E+03  0.17351786299E+03 0.  0.
         24    2    5    5    0    0 -0.10674541826E+03  0.15761845198E+02  0.27748375689E+02  0.13733059177E+03  0.80291338245E+02 0.  0.
          2    1    6    6  501    0 -0.67812019607E+02 -0.11625703978E+02  0.49736611744E+02  0.84896157416E+02  0.00000000000E+00 0. -1.
         -1    1    6    6    0  501 -0.38933398656E+02  0.27387549176E+02 -0.21988236055E+02  0.52434434350E+02  0.00000000000E+00 0.  1.
          5    1    5    5  502    0  0.44326037575E+02 -0.20245341503E+02 -0.15340653284E+01  0.48980759653E+02  0.47000000000E+01 0. -1.
         13    1    4    4    0    0  0.23186442766E+02  0.36425406595E+02  0.29554378073E+02  0.52324780335E+02  0.00000000000E+00 0. -1.
        -14    1    4    4    0    0 -0.18320209518E+02  0.50931691324E+01 -0.31305623574E+02  0.36628029103E+02  0.00000000000E+00 0.  1.
         -5    1    3    3    0  504  0.57553147440E+02 -0.37035079423E+02  0.95213280101E+02  0.11735254831E+03  0.47000000000E+01 0.  1.
<mgrwt>
<rscale>  2 0.18432343E+03</rscale>
<asrwt>0</asrwt>
<pdfrwt beam="1">  1       21 0.39407158E-01 0.18445793E+03</pdfrwt>
<pdfrwt beam="2">  1       21 0.20995413E-01 0.18445793E+03</pdfrwt>
<totfact> 0.13120393E+05</totfact>
</mgrwt>
</event>
<event>
12    1  0.2743855E-001  0.1806572E+03  0.7546771E-02  0.1167197E+00
         21   -1    0    0  502  503  0.00000000000E+00  0.00000000000E+00  0.21110896977E+03  0.21110896977E+03  0.00000000000E+00 0. -1.
         21   -1    0    0  503  504 -0.00000000000E+00 -0.00000000000E+00 -0.24594393864E+03  0.24594393864E+03  0.00000000000E+00 0. -1.
         -6    2    1    2    0  504 -0.46121947555E+02  0.23050499560E+02 -0.15676387896E+03  0.23909949765E+03  0.17301761891E+03 0.  0.
        -24    2    3    3    0    0 -0.38017117457E+02  0.79272105546E+02 -0.47065617898E+02  0.11547767219E+03  0.58228450511E+02 0.  0.
          6    2    1    2  502    0  0.46121947555E+02 -0.23050499560E+02  0.12192891008E+03  0.21795341076E+03  0.17314291950E+03 0.  0.
         24    2    5    5    0    0 -0.20152204360E+02 -0.28661227831E+02  0.12384364507E+03  0.15124884050E+03  0.79444232048E+02 0.  0.
          4    1    6    6  501    0 -0.28551653049E+02 -0.52877232093E+02  0.97213562681E+02  0.11428768672E+03  0.00000000000E+00 0. -1.
         -3    1    6    6    0  501  0.83994486895E+01  0.24216004262E+02  0.26630082391E+02  0.36961153782E+02  0.00000000000E+00 0.  1.
          5    1    5    5  502    0  0.66274151915E+02  0.56107282714E+01 -0.19147349893E+01  0.66704570262E+02  0.47000000000E+01 0. -1.
         11    1    4    4    0    0 -0.26377120053E+01  0.43379339481E+02  0.41082180378E+01  0.43653202333E+02  0.00000000000E+00 0. -1.
        -12    1    4    4    0    0 -0.35379405451E+02  0.35892766065E+02 -0.51173835936E+02  0.71824469857E+02  0.00000000000E+00 0.  1.
         -5    1    3    3    0  504 -0.81048300981E+01 -0.56221605986E+02 -0.10969826106E+03  0.12362182546E+03  0.47000000000E+01 0.  1.
<mgrwt>
<rscale>  2 0.18062719E+03</rscale>
<asrwt>0</asrwt>
<pdfrwt beam="1">  1       21 0.32478303E-01 0.18065722E+03</pdfrwt>
<pdfrwt beam="2">  1       21 0.37837529E-01 0.18065722E+03</pdfrwt>
<totfact> 0.61775686E+04</totfact>
</mgrwt>
</event>
<event>
12    1  0.2743855E-001  0.1853709E+03  0.7546771E-02  0.1163929E+00
         21   -1    0    0  502  503  0.00000000000E+00  0.00000000000E+00  0.10366803919E+04  0.10366803919E+04  0.00000000000E+00 0. -1.
         21   -1    0    0  503  504 -0.00000000000E+00 -0.00000000000E+00 -0.35234084560E+02  0.35234084560E+02  0.00000000000E+00 0. -1.
         -6    2    1    2    0  504 -0.55952424560E+02  0.85731649702E+00  0.66379582208E+03  0.68919318916E+03  0.17672280491E+03 0.  0.
        -24    2    3    3    0    0 -0.85892591349E+02 -0.31341457316E+02  0.58861711268E+03  0.60197448148E+03  0.86852442813E+02 0.  0.
          6    2    1    2  502    0  0.55952424560E+02 -0.85731649702E+00  0.33765048525E+03  0.38272128728E+03  0.17127850054E+03 0.  0.
         24    2    5    5    0    0 -0.24356700854E+02 -0.83894053622E+01  0.24648223511E+03  0.26090163444E+03  0.81563102111E+02 0.  0.
          2    1    6    6  501    0  0.18511517391E+02 -0.29172115516E+02  0.14081321259E+03  0.14498982530E+03  0.00000000000E+00 0. -1.
         -1    1    6    6    0  501 -0.42868218244E+02  0.20782710154E+02  0.10566902253E+03  0.11591180914E+03  0.00000000000E+00 0.  1.
          5    1    5    5  502    0  0.80309125413E+02  0.75320888652E+01  0.91168250133E+02  0.12181965285E+03  0.47000000000E+01 0. -1.
         11    1    4    4    0    0 -0.73807926198E+02 -0.23391120789E+02  0.22277047175E+03  0.23584197587E+03  0.00000000000E+00 0. -1.
        -12    1    4    4    0    0 -0.12084665151E+02 -0.79503365266E+01  0.36584664094E+03  0.36613250561E+03  0.00000000000E+00 0.  1.
         -5    1    3    3    0  504  0.29940166789E+02  0.32198773813E+02  0.75178709399E+02  0.87218707680E+02  0.47000000000E+01 0.  1.
<mgrwt>
<rscale>  2 0.18406135E+03</rscale>
<asrwt>0</asrwt>
<pdfrwt beam="1">  1       21 0.15948927E+00 0.18537087E+03</pdfrwt>
<pdfrwt beam="2">  1       21 0.54206292E-02 0.18537087E+03</pdfrwt>
<totfact> 0.59772683E+04</totfact>
</mgrwt>
</event>
<event>
12    1  0.2743855E-001  0.3028894E+03  0.7546771E-02  0.1083819E+00
         21   -1    0    0  502  503  0.00000000000E+00  0.00000000000E+00  0.11828827423E+04  0.11828827423E+04  0.00000000000E+00 0. -1.
         21   -1    0    0  503  504 -0.00000000000E+00 -0.00000000000E+00 -0.13440034639E+03  0.13440034639E+03  0.00000000000E+00 0. -1.
         -6    2    1    2    0  504 -0.24798225452E+03 -0.16469138846E+02  0.95737178258E+02  0.31755041314E+03  0.17293416809E+03 0.  0.
        -24    2    3    3    0    0 -0.12899027944E+03 -0.74634948059E+02  0.43020812620E+02  0.17491992306E+03  0.80853704320E+02 0.  0.
          6    2    1    2  502    0  0.24798225452E+03  0.16469138846E+02  0.95274521762E+03  0.99973267553E+03  0.17313446143E+03 0.  0.
         24    2    5    5    0    0  0.93786978684E+02 -0.31915947699E+02  0.56036175784E+03  0.57534586000E+03  0.84870100019E+02 0.  0.
          4    1    6    6  501    0  0.96673738975E+02 -0.31240233256E+02  0.56255665124E+03  0.57165702115E+03  0.00000000000E+00 0. -1.
         -3    1    6    6    0  501 -0.28867602910E+01 -0.67571444272E+00 -0.21948933979E+01  0.36888388436E+01  0.00000000000E+00 0.  1.
          5    1    5    5  502    0  0.15419527583E+03  0.48385086545E+02  0.39238345978E+03  0.42438681554E+03  0.47000000000E+01 0. -1.
         11    1    4    4    0    0 -0.61372023175E+02 -0.33608475867E+02 -0.21119697922E+02  0.73089647139E+02  0.00000000000E+00 0. -1.
        -12    1    4    4    0    0 -0.67618256264E+02 -0.41026472193E+02  0.64140510542E+02  0.10183027592E+03  0.00000000000E+00 0.  1.
         -5    1    3    3    0  504 -0.11899197508E+03  0.58165809213E+02  0.52716365638E+02  0.14263049008E+03  0.47000000000E+01 0.  1.
<mgrwt>
<rscale>  2 0.30286076E+03</rscale>
<asrwt>0</asrwt>
<pdfrwt beam="1">  1       21 0.18198195E+00 0.30288937E+03</pdfrwt>
<pdfrwt beam="2">  1       21 0.20676977E-01 0.30288937E+03</pdfrwt>
<totfact> 0.35226147E+03</totfact>
</mgrwt>
</event>
<event>
12    1  0.2743855E-001  0.2359635E+03  0.7546771E-02  0.1122577E+00
         21   -1    0    0  502  503  0.00000000000E+00  0.00000000000E+00  0.19755973421E+03  0.19755973421E+03  0.00000000000E+00 0. -1.
         21   -1    0    0  503  504 -0.00000000000E+00 -0.00000000000E+00 -0.28154089221E+03  0.28154089221E+03  0.00000000000E+00 0. -1.
         -6    2    1    2    0  504 -0.12223595550E+03 -0.10325521761E+03 -0.47838203100E+02  0.24038512151E+03  0.17289662861E+03 0.  0.
        -24    2    3    3    0    0 -0.13959038087E+03 -0.65804545572E+02  0.41220233914E+01  0.17385930657E+03  0.79964709431E+02 0.  0.
          6    2    1    2  502    0  0.12223595550E+03  0.10325521761E+03 -0.36142954902E+02  0.23871550492E+03  0.17342292328E+03 0.  0.
         24    2    5    5    0    0  0.65267051998E+01  0.87081268743E+02 -0.92543798875E+00  0.11659838604E+03  0.77256598065E+02 0.  0.
          4    1    6    6  501    0 -0.81873422195E+01  0.52225921244E+02  0.35820614530E+02  0.63856838692E+02  0.00000000000E+00 0. -1.
         -3    1    6    6    0  501  0.14714047419E+02  0.34855347500E+02 -0.36746052519E+02  0.52741547347E+02  0.00000000000E+00 0.  1.
          5    1    5    5  502    0  0.11570925030E+03  0.16173948869E+02 -0.35217516913E+02  0.12211711888E+03  0.47000000000E+01 0. -1.
         13    1    4    4    0    0 -0.14806104868E+03 -0.70326145481E+02  0.15604118469E+01  0.16392155367E+03  0.00000000000E+00 0. -1.
        -14    1    4    4    0    0  0.84706678092E+01  0.45215999090E+01  0.25616115445E+01  0.99377528937E+01  0.00000000000E+00 0.  1.
         -5    1    3    3    0  504  0.17354425369E+02 -0.37450672041E+02 -0.51960226491E+02  0.66525814938E+02  0.47000000000E+01 0.  1.
<mgrwt>
<rscale>  2 0.23586682E+03</rscale>
<asrwt>0</asrwt>
<pdfrwt beam="1">  1       21 0.30393805E-01 0.23596351E+03</pdfrwt>
<pdfrwt beam="2">  1       21 0.43313983E-01 0.23596351E+03</pdfrwt>
<totfact> 0.52198908E+04</totfact>
</mgrwt>
</event>
<event>
12    1  0.2743855E-001  0.4596908E+03  0.7546771E-02  0.1024950E+00
         21   -1    0    0  502  503  0.00000000000E+00  0.00000000000E+00  0.45341870345E+03  0.45341870345E+03  0.00000000000E+00 0.  1.
         21   -1    0    0  503  504 -0.00000000000E+00 -0.00000000000E+00 -0.86865937221E+03  0.86865937221E+03  0.00000000000E+00 0. -1.
         -6    2    1    2    0  504  0.32203606437E+03  0.27866235581E+03 -0.65840422613E+03  0.80300169573E+03  0.17307704371E+03 0.  0.
        -24    2    3    3    0    0  0.23191298419E+03  0.15941992866E+03 -0.53200144648E+03  0.60719393613E+03  0.80377802495E+02 0.  0.
          6    2    1    2  502    0 -0.32203606437E+03 -0.27866235581E+03  0.24316355736E+03  0.51907637993E+03  0.17015239427E+03 0.  0.
         24    2    5    5    0    0 -0.27504493327E+03 -0.16838872487E+03  0.21534683752E+03  0.39593296766E+03  0.79901041717E+02 0.  0.
          2    1    6    6  501    0 -0.14108457924E+03 -0.48341255834E+02  0.70382415472E+02  0.16491033904E+03  0.00000000000E+00 0. -1.
         -1    1    6    6    0  501 -0.13396035404E+03 -0.12004746903E+03  0.14496442205E+03  0.23102262862E+03  0.00000000000E+00 0.  1.
          5    1    5    5  502    0 -0.46991131095E+02 -0.11027363094E+03  0.27816719837E+02  0.12314341227E+03  0.47000000000E+01 0. -1.
         11    1    4    4    0    0  0.14586678568E+03  0.12418419496E+03 -0.42000268600E+03  0.46162873577E+03  0.00000000000E+00 0. -1.
        -12    1    4    4    0    0  0.86046198517E+02  0.35235733700E+02 -0.11199876047E+03  0.14556520036E+03  0.00000000000E+00 0.  1.
         -5    1    3    3    0  504  0.90123080175E+02  0.11924242715E+03 -0.12640277965E+03  0.19580775959E+03  0.47000000000E+01 0.  1.
<mgrwt>
<rscale>  2 0.45941723E+03</rscale>
<asrwt>0</asrwt>
<pdfrwt beam="1">  1       21 0.69756725E-01 0.45969076E+03</pdfrwt>
<pdfrwt beam="2">  1       21 0.13363990E+00 0.45969076E+03</pdfrwt>
<totfact> 0.62888300E+02</totfact>
</mgrwt>
</event>
<event>
12    1  0.2743855E-001  0.2656247E+03  0.7546771E-02  0.1103870E+00
         21   -1    0    0  502  503  0.00000000000E+00  0.00000000000E+00  0.27795906957E+03  0.27795906957E+03  0.00000000000E+00 0.  1.
         21   -1    0    0  503  504 -0.00000000000E+00 -0.00000000000E+00 -0.26312202619E+03  0.26312202619E+03  0.00000000000E+00 0.  1.
         -6    2    1    2    0  504 -0.18970887107E+03  0.66541664200E+02 -0.44462931781E+02  0.26891763544E+03  0.17298119410E+03 0.  0.
        -24    2    3    3    0    0 -0.24845706880E+02 -0.24674230254E+01 -0.29509730603E+02  0.89508033549E+02  0.80730827710E+02 0.  0.
          6    2    1    2  502    0  0.18970887107E+03 -0.66541664200E+02  0.59299975165E+02  0.27216346032E+03  0.17360648964E+03 0.  0.
         24    2    5    5    0    0  0.13471585463E+03 -0.77499098976E+02  0.10103677585E+03  0.20210385880E+03  0.80517500194E+02 0.  0.
          4    1    6    6  501    0  0.46862512779E+02 -0.51396865799E+02  0.83703498257E+02  0.10883018211E+03  0.00000000000E+00 0. -1.
         -3    1    6    6    0  501  0.87853341852E+02 -0.26102233178E+02  0.17333277594E+02  0.93273676692E+02  0.00000000000E+00 0.  1.
          5    1    5    5  502    0  0.54993016435E+02  0.10957434776E+02 -0.41736800685E+02  0.70059601519E+02  0.47000000000E+01 0. -1.
         13    1    4    4    0    0 -0.10892326064E+02 -0.28481186898E+02  0.16630155555E+02  0.34733022442E+02  0.00000000000E+00 0. -1.
        -14    1    4    4    0    0 -0.13953380817E+02  0.26013763872E+02 -0.46139886159E+02  0.54775011107E+02  0.00000000000E+00 0.  1.
         -5    1    3    3    0  504 -0.16486316419E+03  0.69009087226E+02 -0.14953201177E+02  0.17940960189E+03  0.47000000000E+01 0.  1.
<mgrwt>
<rscale>  2 0.26552254E+03</rscale>
<asrwt>0</asrwt>
<pdfrwt beam="1">  1       21 0.42762934E-01 0.26562466E+03</pdfrwt>
<pdfrwt beam="2">  1       21 0.40480312E-01 0.26562466E+03</pdfrwt>
<totfact> 0.29853336E+04</totfact>
</mgrwt>
</event>
<event>
12    1  0.2743855E-001  0.2306575E+03  0.7546771E-02  0.1126560E+00
         21   -1    0    0  502  503  0.00000000000E+00  0.00000000000E+00  0.15140822110E+04  0.15140822110E+04  0.00000000000E+00 0.  1.
         21   -1    0    0  503  504 -0.00000000000E+00 -0.00000000000E+00 -0.13045486631E+03  0.13045486631E+03  0.00000000000E+00 0.  1.
         -6    2    1    2    0  504  0.41867881494E+02  0.14288169054E+03 -0.11383434185E+02  0.23093821590E+03  0.17616690949E+03 0.  0.
        -24    2    3    3    0    0 -0.42342541063E+02  0.65792358918E+02 -0.29528971730E+02  0.11524244740E+03  0.79292724986E+02 0.  0.
          6    2    1    2  502    0 -0.41867881494E+02 -0.14288169054E+03  0.13950107789E+04  0.14135988614E+04  0.17331638931E+03 0.  0.
         24    2    5    5    0    0 -0.18315733577E+02 -0.79663839661E+01  0.36107939096E+03  0.37062568412E+03  0.81155047814E+02 0.  0.
          2    1    6    6  501    0  0.26637188736E+02  0.14908258281E+02  0.18352244768E+03  0.18604377117E+03  0.00000000000E+00 0. -1.
         -1    1    6    6    0  501 -0.44952922313E+02 -0.22874642247E+02  0.17755694328E+03  0.18458191295E+03  0.00000000000E+00 0.  1.
          5    1    5    5  502    0 -0.23552147916E+02 -0.13491530657E+03  0.10339313879E+04  0.10429731773E+04  0.47000000000E+01 0. -1.
         11    1    4    4    0    0 -0.12075196933E+02 -0.18231859905E+02 -0.29782918034E+01  0.22069918863E+02  0.00000000000E+00 0. -1.
        -12    1    4    4    0    0 -0.30267344130E+02  0.84024218822E+02 -0.26550679926E+02  0.93172528537E+02  0.00000000000E+00 0.  1.
         -5    1    3    3    0  504  0.84210422557E+02  0.77089331619E+02  0.18145537545E+02  0.11569576850E+03  0.47000000000E+01 0.  1.
<mgrwt>
<rscale>  2 0.23011314E+03</rscale>
<asrwt>0</asrwt>
<pdfrwt beam="1">  1       21 0.23293571E+00 0.23065749E+03</pdfrwt>
<pdfrwt beam="2">  1       21 0.20069981E-01 0.23065749E+03</pdfrwt>
<totfact> 0.18508191E+03</totfact>
</mgrwt>
</event>
<event>
12    1  0.2743855E-001  0.2002330E+03  0.7546771E-02  0.1149630E+00
         21   -1    0    0  502  503  0.00000000000E+00  0.00000000000E+00  0.53591111623E+03  0.53591111623E+03  0.00000000000E+00 0. -1.
         21   -1    0    0  503  504 -0.00000000000E+00 -0.00000000000E+00 -0.96169851685E+02  0.96169851685E+02  0.00000000000E+00 0.  1.
         -6    2    1    2    0  504 -0.75297630004E+02  0.64092534810E+02  0.70222200922E+02  0.21179820250E+03  0.17363679039E+03 0.  0.
        -24    2    3    3    0    0 -0.11655429451E+03  0.27893138231E+02  0.55405665752E+02  0.15475323433E+03  0.80720784250E+02 0.  0.
          6    2    1    2  502    0  0.75297630004E+02 -0.64092534810E+02  0.36951906362E+03  0.42028276541E+03  0.17411398111E+03 0.  0.
         24    2    5    5    0    0  0.56716843088E+01  0.25951203835E+01  0.67371363434E+02  0.10309143766E+03  0.77782011133E+02 0.  0.
          2    1    6    6  501    0 -0.33683293697E+02  0.10397185098E+02  0.18339086538E+02  0.39736479805E+02  0.00000000000E+00 0. -1.
         -1    1    6    6    0  501  0.39354978006E+02 -0.78020647147E+01  0.49032276896E+02  0.63354957859E+02  0.00000000000E+00 0.  1.
          5    1    5    5  502    0  0.69625945695E+02 -0.66687655194E+02  0.30214770019E+03  0.31719132775E+03  0.47000000000E+01 0. -1.
         13    1    4    4    0    0 -0.18334247645E+02  0.35877468402E+02  0.36596597392E+02  0.54430215105E+02  0.00000000000E+00 0. -1.
        -14    1    4    4    0    0 -0.98220046866E+02 -0.79843301713E+01  0.18809068360E+02  0.10032301923E+03  0.00000000000E+00 0.  1.
         -5    1    3    3    0  504  0.41256664507E+02  0.36199396580E+02  0.14816535170E+02  0.57044968169E+02  0.47000000000E+01 0.  1.
<mgrwt>
<rscale>  2 0.20012924E+03</rscale>
<asrwt>0</asrwt>
<pdfrwt beam="1">  1       21 0.82447862E-01 0.20023303E+03</pdfrwt>
<pdfrwt beam="2">  1       21 0.14795362E-01 0.20023303E+03</pdfrwt>
<totfact> 0.51470697E+04</totfact>
</mgrwt>
</event>
<event>
12    1  0.2743855E-001  0.2890978E+03  0.7546771E-02  0.1090860E+00
         21   -1    0    0  502  503  0.00000000000E+00  0.00000000000E+00  0.14512593199E+03  0.14512593199E+03  0.00000000000E+00 0. -1.
         21   -1    0    0  503  504 -0.00000000000E+00 -0.00000000000E+00 -0.68575944592E+03  0.68575944592E+03  0.00000000000E+00 0. -1.
         -6    2    1    2    0  504  0.83900633956E+02  0.21580250419E+03 -0.10370416489E+03  0.30713527410E+03  0.17311119429E+03 0.  0.
        -24    2    3    3    0    0  0.85340361673E+02  0.23811755657E+03 -0.10162357089E+03  0.28419070503E+03  0.80337155719E+02 0.  0.
          6    2    1    2  502    0 -0.83900633956E+02 -0.21580250419E+03 -0.43692934903E+03  0.52375010380E+03  0.17261772213E+03 0.  0.
         24    2    5    5    0    0 -0.60309634551E+02 -0.18823927585E+03 -0.23039281709E+03  0.31399859406E+03  0.80268237276E+02 0.  0.
          4    1    6    6  501    0 -0.55608581095E+02 -0.11149182178E+03 -0.18982950199E+03  0.22706382460E+03  0.00000000000E+00 0. -1.
         -3    1    6    6    0  501 -0.47010534556E+01 -0.76747454072E+02 -0.40563315094E+02  0.86934769463E+02  0.00000000000E+00 0.  1.
          5    1    5    5  502    0 -0.23590999405E+02 -0.27563228340E+02 -0.20653653195E+03  0.20975150974E+03  0.47000000000E+01 0. -1.
         13    1    4    4    0    0  0.68586019811E+02  0.93765229691E+02 -0.21170605908E+02  0.11808537152E+03  0.00000000000E+00 0. -1.
        -14    1    4    4    0    0  0.16754341862E+02  0.14435232688E+03 -0.80452964987E+02  0.16610533351E+03  0.00000000000E+00 0.  1.
         -5    1    3    3    0  504 -0.14397277173E+01 -0.22315052377E+02 -0.20805939968E+01  0.22944569072E+02  0.47000000000E+01 0.  1.
<mgrwt>
<rscale>  2 0.28902394E+03</rscale>
<asrwt>0</asrwt>
<pdfrwt beam="1">  1       21 0.22327066E-01 0.28909777E+03</pdfrwt>
<pdfrwt beam="2">  1       21 0.10550145E+00 0.28909777E+03</pdfrwt>
<totfact> 0.12837490E+04</totfact>
</mgrwt>
</event>
<event>
12    1  0.2743855E-001  0.2510265E+03  0.7546771E-02  0.1112812E+00
         21   -1    0    0  502  503  0.00000000000E+00  0.00000000000E+00  0.42106789767E+03  0.42106789767E+03  0.00000000000E+00 0. -1.
         21   -1    0    0  503  504 -0.00000000000E+00 -0.00000000000E+00 -0.16430305202E+03  0.16430305202E+03  0.00000000000E+00 0. -1.
         -6    2    1    2    0  504  0.17462929088E+03  0.48796683022E+02  0.39496493913E+02  0.25411470334E+03  0.17360243061E+03 0.  0.
        -24    2    3    3    0    0  0.18557034879E+02  0.23822570612E+02  0.44397240780E+02  0.95911155011E+02  0.79472990711E+02 0.  0.
          6    2    1    2  502    0 -0.17462929088E+03 -0.48796683022E+02  0.21726835174E+03  0.33125624634E+03  0.17218785836E+03 0.  0.
         24    2    5    5    0    0 -0.10855281665E+03  0.21259824649E+02  0.18296364191E+03  0.22891897146E+03  0.81807744664E+02 0.  0.
          2    1    6    6  501    0 -0.78982609811E+02 -0.21656178553E+02  0.13604477749E+03  0.15879365291E+03  0.00000000000E+00 0. -1.
         -1    1    6    6    0  501 -0.29570206839E+02  0.42916003201E+02  0.46918864413E+02  0.70125318545E+02  0.00000000000E+00 0.  1.
          5    1    5    5  502    0 -0.66076474232E+02 -0.70056507671E+02  0.34304709830E+02  0.10233727488E+03  0.47000000000E+01 0. -1.
         11    1    4    4    0    0  0.35416630972E+02  0.45341016584E+02  0.27441854482E+02  0.63743242086E+02  0.00000000000E+00 0. -1.
        -12    1    4    4    0    0 -0.16859596092E+02 -0.21518445971E+02  0.16955386298E+02  0.32167912925E+02  0.00000000000E+00 0.  1.
         -5    1    3    3    0  504  0.15607225600E+03  0.24974112410E+02 -0.49007468668E+01  0.15820354833E+03  0.47000000000E+01 0.  1.
<mgrwt>
<rscale>  2 0.25078211E+03</rscale>
<asrwt>0</asrwt>
<pdfrwt beam="1">  1       21 0.64779676E-01 0.25102651E+03</pdfrwt>
<pdfrwt beam="2">  1       21 0.25277393E-01 0.25102651E+03</pdfrwt>
<totfact> 0.31632690E+04</totfact>
</mgrwt>
</event>
<event>
12    1  0.2743855E-001  0.1765974E+03  0.7546771E-02  0.1171396E+00
         21   -1    0    0  502  503  0.00000000000E+00  0.00000000000E+00  0.68029049921E+02  0.68029049921E+02  0.00000000000E+00 0. -1.
         21   -1    0    0  503  504 -0.00000000000E+00 -0.00000000000E+00 -0.45678774000E+03  0.45678774000E+03  0.00000000000E+00 0. -1.
         -6    2    1    2    0  504 -0.30503706847E+02 -0.37212267291E+01 -0.20754558740E+03  0.27251019739E+03  0.17390317182E+03 0.  0.
        -24    2    3    3    0    0  0.50347658947E+02 -0.39792755653E+01 -0.12164956794E+03  0.15445416789E+03  0.80664435806E+02 0.  0.
          6    2    1    2  502    0  0.30503706847E+02  0.37212267291E+01 -0.18121310268E+03  0.25230659254E+03  0.17284705492E+03 0.  0.
         24    2    5    5    0    0 -0.24384421423E+02 -0.45358178842E+02 -0.69602780287E+02  0.11851403392E+03  0.80926292497E+02 0.  0.
          2    1    6    6  501    0 -0.11316022068E+02 -0.68271893476E+02 -0.54745439901E+02  0.88239259880E+02  0.00000000000E+00 0. -1.
         -1    1    6    6    0  501 -0.13068399355E+02  0.22913714634E+02 -0.14857340386E+02  0.30274774044E+02  0.00000000000E+00 0.  1.
          5    1    5    5  502    0  0.54888128270E+02  0.49079405571E+02 -0.11161032239E+03  0.13379255861E+03  0.47000000000E+01 0. -1.
         11    1    4    4    0    0 -0.11504195097E+02  0.60118113540E+01  0.43887301268E+01  0.13702165256E+02  0.00000000000E+00 0. -1.
        -12    1    4    4    0    0  0.61851854044E+02 -0.99910869193E+01 -0.12603829807E+03  0.14075200264E+03  0.00000000000E+00 0.  1.
         -5    1    3    3    0  504 -0.80851365794E+02  0.25804883617E+00 -0.85896019462E+02  0.11805602949E+03  0.47000000000E+01 0.  1.
<mgrwt>
<rscale>  2 0.17633683E+03</rscale>
<asrwt>0</asrwt>
<pdfrwt beam="1">  1       21 0.10466007E-01 0.17659739E+03</pdfrwt>
<pdfrwt beam="2">  1       21 0.70275039E-01 0.17659739E+03</pdfrwt>
<totfact> 0.13829013E+05</totfact>
</mgrwt>
</event>
<event>
12    1  0.2743855E-001  0.2523673E+03  0.7546771E-02  0.1111819E+00
         21   -1    0    0  502  503  0.00000000000E+00  0.00000000000E+00  0.21079577263E+03  0.21079577263E+03  0.00000000000E+00 0.  1.
         21   -1    0    0  503  504 -0.00000000000E+00 -0.00000000000E+00 -0.89854089665E+03  0.89854089665E+03  0.00000000000E+00 0.  1.
         -6    2    1    2    0  504  0.15789684245E+03 -0.93220453274E+02 -0.79576939504E+03  0.83482823239E+03  0.17340063940E+03 0.  0.
        -24    2    3    3    0    0  0.13723692696E+03 -0.12259305127E+03 -0.52976302264E+03  0.56636769194E+03  0.79123144366E+02 0.  0.
          6    2    1    2  502    0 -0.15789684245E+03  0.93220453274E+02  0.10802427102E+03  0.27450843689E+03  0.17339023338E+03 0.  0.
         24    2    5    5    0    0 -0.16467062510E+03  0.28115727157E+02  0.92600511852E+02  0.20709559063E+03  0.80042613513E+02 0.  0.
          2    1    6    6  501    0 -0.32303774716E+02 -0.26754152832E+02  0.20238732142E+02  0.46571717097E+02  0.00000000000E+00 0. -1.
         -1    1    6    6    0  501 -0.13236685038E+03  0.54869879989E+02  0.72361779711E+02  0.16052387353E+03  0.00000000000E+00 0.  1.
          5    1    5    5  502    0  0.67737826514E+01  0.65104726117E+02  0.15423759164E+02  0.67412846260E+02  0.47000000000E+01 0. -1.
         13    1    4    4    0    0  0.13340595641E+03 -0.76001363987E+02 -0.40974083640E+03  0.43756246359E+03  0.00000000000E+00 0. -1.
        -14    1    4    4    0    0  0.38309705525E+01 -0.46591687280E+02 -0.12002218625E+03  0.12880522835E+03  0.00000000000E+00 0.  1.
         -5    1    3    3    0  504  0.20659915490E+02  0.29372597993E+02 -0.26600637240E+03  0.26846054045E+03  0.47000000000E+01 0.  1.
<mgrwt>
<rscale>  2 0.25236550E+03</rscale>
<asrwt>0</asrwt>
<pdfrwt beam="1">  1       21 0.32430119E-01 0.25236729E+03</pdfrwt>
<pdfrwt beam="2">  1       21 0.13823706E+00 0.25236729E+03</pdfrwt>
<totfact> 0.32273380E+03</totfact>
</mgrwt>
</event>
<event>
12    1  0.2743855E-001  0.1989012E+03  0.7546771E-02  0.1150764E+00
         21   -1    0    0  502  503  0.00000000000E+00  0.00000000000E+00  0.10556724376E+04  0.10556724376E+04  0.00000000000E+00 0. -1.
         21   -1    0    0  503  504 -0.00000000000E+00 -0.00000000000E+00 -0.42659986573E+02  0.42659986573E+02  0.00000000000E+00 0. -1.
         -6    2    1    2    0  504  0.97290974329E+02  0.13540184921E+02  0.31300972827E+03  0.37061991707E+03  0.17243886639E+03 0.  0.
        -24    2    3    3    0    0  0.10145086492E+03 -0.46947996818E+02  0.21080863860E+03  0.25169440446E+03  0.80083698274E+02 0.  0.
          6    2    1    2  502    0 -0.97290974329E+02 -0.13540184921E+02  0.70000272276E+03  0.72771250711E+03  0.17295320417E+03 0.  0.
         24    2    5    5    0    0 -0.62092179234E+02 -0.37147562149E+02  0.25526006911E+03  0.28093025431E+03  0.92351095338E+02 0.  0.
          2    1    6    6  501    0  0.47612345753E+01  0.14819046417E+02  0.44150622946E+01  0.16179192392E+02  0.00000000000E+00 0. -1.
         -1    1    6    6    0  501 -0.66853413809E+02 -0.51966608566E+02  0.25084500681E+03  0.26475106192E+03  0.00000000000E+00 0.  1.
          5    1    5    5  502    0 -0.35198795095E+02  0.23607377228E+02  0.44474265365E+03  0.44678225280E+03  0.47000000000E+01 0. -1.
         13    1    4    4    0    0  0.51878969081E+02  0.14161639472E+02  0.12023719764E+03  0.13171546288E+03  0.00000000000E+00 0. -1.
        -14    1    4    4    0    0  0.49571895842E+02 -0.61109636290E+02  0.90571440953E+02  0.11997894157E+03  0.00000000000E+00 0.  1.
         -5    1    3    3    0  504 -0.41598905942E+01  0.60488181738E+02  0.10220108967E+03  0.11892551261E+03  0.47000000000E+01 0.  1.
<mgrwt>
<rscale>  2 0.19878932E+03</rscale>
<asrwt>0</asrwt>
<pdfrwt beam="1">  1       21 0.16241112E+00 0.19890118E+03</pdfrwt>
<pdfrwt beam="2">  1       21 0.65630756E-02 0.19890118E+03</pdfrwt>
<totfact> 0.40704908E+04</totfact>
</mgrwt>
</event>
<event>
12    1  0.2743855E-001  0.1914308E+03  0.7546771E-02  0.1157349E+00
         21   -1    0    0  502  503  0.00000000000E+00  0.00000000000E+00  0.44339375730E+03  0.44339375730E+03  0.00000000000E+00 0.  1.
         21   -1    0    0  503  504 -0.00000000000E+00 -0.00000000000E+00 -0.86579686135E+02  0.86579686135E+02  0.00000000000E+00 0.  1.
         -6    2    1    2    0  504 -0.27801823710E+01 -0.79380240467E+02  0.11994937961E+03  0.22590622707E+03  0.17417467603E+03 0.  0.
        -24    2    3    3    0    0 -0.60542088746E+02 -0.70135425963E+02  0.43508228643E+02  0.12953587902E+03  0.79386746427E+02 0.  0.
          6    2    1    2  502    0  0.27801823710E+01  0.79380240467E+02  0.23686469156E+03  0.30406721637E+03  0.17332927615E+03 0.  0.
         24    2    5    5    0    0 -0.28279430706E+02  0.39696872583E+02  0.23570425655E+03  0.25344206589E+03  0.79377681458E+02 0.  0.
          2    1    6    6  501    0  0.67088093527E+01 -0.18955489285E+02  0.25821343508E+02  0.32727060326E+02  0.00000000000E+00 0. -1.
         -1    1    6    6    0  501 -0.34988240059E+02  0.58652361868E+02  0.20988291304E+03  0.22071500557E+03  0.00000000000E+00 0.  1.
          5    1    5    5  502    0  0.31059613077E+02  0.39683367884E+02  0.11604350077E+01  0.50625150474E+02  0.47000000000E+01 0. -1.
         13    1    4    4    0    0 -0.67002265490E+02 -0.25393599962E+02  0.44449631844E+02  0.84320272005E+02  0.00000000000E+00 0. -1.
        -14    1    4    4    0    0  0.64601767445E+01 -0.44741826001E+02 -0.94140320130E+00  0.45215607012E+02  0.00000000000E+00 0.  1.
         -5    1    3    3    0  504  0.57761906375E+02 -0.92448145039E+01  0.76441150969E+02  0.96370348058E+02  0.47000000000E+01 0.  1.
<mgrwt>
<rscale>  2 0.19123834E+03</rscale>
<asrwt>0</asrwt>
<pdfrwt beam="1">  1       21 0.68214423E-01 0.19143085E+03</pdfrwt>
<pdfrwt beam="2">  1       21 0.13319952E-01 0.19143085E+03</pdfrwt>
<totfact> 0.95469250E+04</totfact>
</mgrwt>
</event>
<event>
12    1  0.2743855E-001  0.3281258E+03  0.7546771E-02  0.1071997E+00
         21   -1    0    0  502  503  0.00000000000E+00  0.00000000000E+00  0.14040697504E+03  0.14040697504E+03  0.00000000000E+00 0. -1.
         21   -1    0    0  503  504 -0.00000000000E+00 -0.00000000000E+00 -0.89959157985E+03  0.89959157985E+03  0.00000000000E+00 0. -1.
         -6    2    1    2    0  504 -0.15667205975E+03 -0.23031582004E+03 -0.57967927848E+03  0.66598157853E+03  0.17295052987E+03 0.  0.
        -24    2    3    3    0    0 -0.16339432331E+03 -0.14737350638E+03 -0.49191690495E+03  0.54494877129E+03  0.81057181538E+02 0.  0.
          6    2    1    2  502    0  0.15667205975E+03  0.23031582004E+03 -0.17950532634E+03  0.37401697636E+03  0.17342152450E+03 0.  0.
         24    2    5    5    0    0  0.17060626288E+02  0.12945051402E+03 -0.11044571042E+03  0.18839240132E+03  0.79024941461E+02 0.  0.
          2    1    6    6  501    0 -0.20548628896E+02  0.98521323372E+02 -0.55331551615E+02  0.11484893518E+03  0.00000000000E+00 0. -1.
         -1    1    6    6    0  501  0.37609255185E+02  0.30929190650E+02 -0.55114158808E+02  0.73543466134E+02  0.00000000000E+00 0.  1.
          5    1    5    5  502    0  0.13961143347E+03  0.10086530602E+03 -0.69059615913E+02  0.18562457505E+03  0.47000000000E+01 0. -1.
         13    1    4    4    0    0 -0.58965921047E+02 -0.10347062261E+03 -0.21547001364E+03  0.24619195025E+03  0.00000000000E+00 0. -1.
        -14    1    4    4    0    0 -0.10442840227E+03 -0.43902883767E+02 -0.27644689131E+03  0.29875682104E+03  0.00000000000E+00 0.  1.
         -5    1    3    3    0  504  0.67222635589E+01 -0.82942313657E+02 -0.87762373524E+02  0.12103280724E+03  0.47000000000E+01 0.  1.
<mgrwt>
<rscale>  2 0.32806360E+03</rscale>
<asrwt>0</asrwt>
<pdfrwt beam="1">  1       21 0.21601073E-01 0.32812579E+03</pdfrwt>
<pdfrwt beam="2">  1       21 0.13839870E+00 0.32812579E+03</pdfrwt>
<totfact> 0.67810034E+03</totfact>
</mgrwt>
</event>
<event>
12    1  0.2743855E-001  0.2390498E+03  0.7546771E-02  0.1120481E+00
         21   -1    0    0  502  503  0.00000000000E+00  0.00000000000E+00  0.58716275281E+03  0.58716275281E+03  0.00000000000E+00 0.  1.
         21   -1    0    0  503  504 -0.00000000000E+00 -0.00000000000E+00 -0.98582068598E+02  0.98582068598E+02  0.00000000000E+00 0. -1.
         -6    2    1    2    0  504 -0.16314407411E+03  0.30021636114E+02  0.20376964513E+03  0.31411285180E+03  0.17212648789E+03 0.  0.
        -24    2    3    3    0    0 -0.96034498531E+02 -0.11753476455E+02  0.19950572833E+03  0.23480884086E+03  0.77277985161E+02 0.  0.
          6    2    1    2  502    0  0.16314407411E+03 -0.30021636114E+02  0.28481103908E+03  0.37163196961E+03  0.17168490120E+03 0.  0.
         24    2    5    5    0    0  0.15839379802E+03 -0.69894148892E+02  0.19423261533E+03  0.27244062298E+03  0.80770024695E+02 0.  0.
          4    1    6    6  501    0  0.10474377884E+03 -0.69050504922E+02  0.87425415331E+02  0.15291316059E+03  0.00000000000E+00 0. -1.
         -3    1    6    6    0  501  0.53650019185E+02 -0.84364396941E+00  0.10680720000E+03  0.11952746239E+03  0.00000000000E+00 0.  1.
          5    1    5    5  502    0  0.47502760916E+01  0.39872512777E+02  0.90578423744E+02  0.99191346629E+02  0.47000000000E+01 0. -1.
         13    1    4    4    0    0  0.91191115207E+01 -0.11904406948E+02  0.98156133892E+01  0.17922593728E+02  0.00000000000E+00 0. -1.
        -14    1    4    4    0    0 -0.10515361005E+03  0.15093049384E+00  0.18969011494E+03  0.21688624713E+03  0.00000000000E+00 0.  1.
         -5    1    3    3    0  504 -0.67109575582E+02  0.41775112569E+02  0.42639168020E+01  0.79304010941E+02  0.47000000000E+01 0.  1.
<mgrwt>
<rscale>  2 0.23897034E+03</rscale>
<asrwt>0</asrwt>
<pdfrwt beam="1">  1       21 0.90332729E-01 0.23904982E+03</pdfrwt>
<pdfrwt beam="2">  1       21 0.15166472E-01 0.23904982E+03</pdfrwt>
<totfact> 0.39132679E+04</totfact>
</mgrwt>
</event>
<event>
12    1  0.2743855E-001  0.1745582E+03  0.7546771E-02  0.1173424E+00
         21   -1    0    0  502  503  0.00000000000E+00  0.00000000000E+00  0.55332543316E+03  0.55332543316E+03  0.00000000000E+00 0.  1.
         21   -1    0    0  503  504 -0.00000000000E+00 -0.00000000000E+00 -0.63761542284E+02  0.63761542284E+02  0.00000000000E+00 0.  1.
         -6    2    1    2    0  504  0.14585568755E+02  0.20268142268E+02  0.36131124448E+03  0.40126847128E+03  0.17276294234E+03 0.  0.
        -24    2    3    3    0    0 -0.33159454116E+02 -0.64915005039E+01  0.32416039197E+03  0.33495149357E+03  0.77271303503E+02 0.  0.
          6    2    1    2  502    0 -0.14585568755E+02 -0.20268142268E+02  0.12825264640E+03  0.21581850417E+03  0.17177121129E+03 0.  0.
         24    2    5    5    0    0  0.40461900227E+02 -0.39475865819E+02  0.33304542046E+02  0.10429992722E+03  0.81078807000E+02 0.  0.
          4    1    6    6  501    0  0.57059839524E+02 -0.13231045653E+01  0.22162771453E+02  0.61227153541E+02  0.00000000000E+00 0. -1.
         -3    1    6    6    0  501 -0.16597939298E+02 -0.38152761254E+02  0.11141770593E+02  0.43072773677E+02  0.00000000000E+00 0.  1.
          5    1    5    5  502    0 -0.55047468982E+02  0.19207723551E+02  0.94948104354E+02  0.11151857695E+03  0.47000000000E+01 0. -1.
         13    1    4    4    0    0 -0.65933343785E+01 -0.27935676160E+02  0.42839086471E+02  0.51566087600E+02  0.00000000000E+00 0. -1.
        -14    1    4    4    0    0 -0.26566119738E+02  0.21444175657E+02  0.28132130550E+03  0.28338540597E+03  0.00000000000E+00 0.  1.
         -5    1    3    3    0  504  0.47745022871E+02  0.26759642772E+02  0.37150852510E+02  0.66316977709E+02  0.47000000000E+01 0.  1.
<mgrwt>
<rscale>  2 0.17431233E+03</rscale>
<asrwt>0</asrwt>
<pdfrwt beam="1">  1       21 0.85126986E-01 0.17455822E+03</pdfrwt>
<pdfrwt beam="2">  1       21 0.98094684E-02 0.17455822E+03</pdfrwt>
<totfact> 0.10097837E+05</totfact>
</mgrwt>
</event>
<event>
12    1  0.2743855E-001  0.1846756E+03  0.7546771E-02  0.1163849E+00
         21   -1    0    0  502  503  0.00000000000E+00  0.00000000000E+00  0.30424716892E+03  0.30424716892E+03  0.00000000000E+00 0. -1.
         21   -1    0    0  503  504 -0.00000000000E+00 -0.00000000000E+00 -0.25697438229E+03  0.25697438229E+03  0.00000000000E+00 0. -1.
         -6    2    1    2    0  504 -0.33494668383E+02 -0.55811483075E+02 -0.18792599985E+03  0.26347910886E+03  0.17282431812E+03 0.  0.
        -24    2    3    3    0    0 -0.18920192783E+02 -0.84455838546E+02 -0.60147177896E+02  0.13163665826E+03  0.78865483136E+02 0.  0.
          6    2    1    2  502    0  0.33494668383E+02  0.55811483075E+02  0.23519878648E+03  0.29774244234E+03  0.17057338115E+03 0.  0.
         24    2    5    5    0    0 -0.16857255039E+02  0.87644199355E+02  0.18321600576E+03  0.21854056415E+03  0.78906277851E+02 0.  0.
          2    1    6    6  501    0  0.25379676214E+02  0.37756795025E+02  0.11682909883E+03  0.12537440675E+03  0.00000000000E+00 0. -1.
         -1    1    6    6    0  501 -0.42236931253E+02  0.49887404329E+02  0.66386906932E+02  0.93166157398E+02  0.00000000000E+00 0.  1.
          5    1    5    5  502    0  0.50351923423E+02 -0.31832716279E+02  0.51982780723E+02  0.79201878196E+02  0.47000000000E+01 0. -1.
         13    1    4    4    0    0  0.79371048784E+01  0.77206466178E+00 -0.39002769694E+02  0.39809669196E+02  0.00000000000E+00 0. -1.
        -14    1    4    4    0    0 -0.26857297662E+02 -0.85227903208E+02 -0.21144408202E+02  0.91826989067E+02  0.00000000000E+00 0.  1.
         -5    1    3    3    0  504 -0.14574475600E+02  0.28644355470E+02 -0.12777882196E+03  0.13184245060E+03  0.47000000000E+01 0.  1.
<mgrwt>
<rscale>  2 0.18414710E+03</rscale>
<asrwt>0</asrwt>
<pdfrwt beam="1">  1       21 0.46807257E-01 0.18467555E+03</pdfrwt>
<pdfrwt beam="2">  1       21 0.39534520E-01 0.18467555E+03</pdfrwt>
<totfact> 0.27068190E+04</totfact>
</mgrwt>
</event>
<event>
12    1  0.2743855E-001  0.2031858E+03  0.7546771E-02  0.1147265E+00
         21   -1    0    0  502  503  0.00000000000E+00  0.00000000000E+00  0.17879714849E+03  0.17879714849E+03  0.00000000000E+00 0. -1.
         21   -1    0    0  503  504 -0.00000000000E+00 -0.00000000000E+00 -0.25388573738E+03  0.25388573738E+03  0.00000000000E+00 0. -1.
         -6    2    1    2    0  504  0.65371397095E+02  0.83234645669E+02 -0.10414153936E+03  0.22831977677E+03  0.17344461492E+03 0.  0.
        -24    2    3    3    0    0  0.99666873695E+02  0.92877615858E+02 -0.54349360586E+02  0.16691523576E+03  0.79668724678E+02 0.  0.
          6    2    1    2  502    0 -0.65371397095E+02 -0.83234645669E+02  0.29052950472E+02  0.20436310910E+03  0.17239135892E+03 0.  0.
         24    2    5    5    0    0 -0.57628496328E+02  0.62315334125E+01  0.51636523384E+02  0.11164710467E+03  0.80242568730E+02 0.  0.
          4    1    6    6  501    0 -0.73306028900E+02  0.16084590760E+02  0.24797850281E+02  0.79040630764E+02  0.00000000000E+00 0. -1.
         -3    1    6    6    0  501  0.15677532573E+02 -0.98530573470E+01  0.26838673103E+02  0.32606473906E+02  0.00000000000E+00 0.  1.
          5    1    5    5  502    0 -0.77429007669E+01 -0.89466179081E+02 -0.22583572912E+02  0.92716004428E+02  0.47000000000E+01 0. -1.
         13    1    4    4    0    0  0.35135106089E+02  0.29694323423E+02 -0.60949182763E+02  0.76361190424E+02  0.00000000000E+00 0. -1.
        -14    1    4    4    0    0  0.64531767606E+02  0.63183292435E+02  0.65998221773E+01  0.90554045332E+02  0.00000000000E+00 0.  1.
         -5    1    3    3    0  504 -0.34295476601E+02 -0.96429701890E+01 -0.49792178778E+02  0.61404541011E+02  0.47000000000E+01 0.  1.
<mgrwt>
<rscale>  2 0.20296082E+03</rscale>
<asrwt>0</asrwt>
<pdfrwt beam="1">  1       21 0.27507254E-01 0.20318578E+03</pdfrwt>
<pdfrwt beam="2">  1       21 0.39059344E-01 0.20318578E+03</pdfrwt>
<totfact> 0.79321835E+04</totfact>
</mgrwt>
</event>
<event>
12    1  0.2743855E-001  0.2118558E+03  0.7546771E-02  0.1140290E+00
         21   -1    0    0  502  503  0.00000000000E+00  0.00000000000E+00  0.56392089030E+03  0.56392089030E+03  0.00000000000E+00 0. -1.
         21   -1    0    0  503  504 -0.00000000000E+00 -0.00000000000E+00 -0.81353119188E+02  0.81353119188E+02  0.00000000000E+00 0. -1.
         -6    2    1    2    0  504  0.10493213627E+03  0.59879458284E+02  0.18976923788E+03  0.28442086804E+03  0.17403035305E+03 0.  0.
        -24    2    3    3    0    0  0.26095776510E+02  0.13976592283E+02  0.17271953115E+03  0.19149602084E+03  0.77216286329E+02 0.  0.
          6    2    1    2  502    0 -0.10493213627E+03 -0.59879458284E+02  0.29279853323E+03  0.36085314145E+03  0.17288061165E+03 0.  0.
         24    2    5    5    0    0 -0.13573735149E+03 -0.41788079158E+02  0.27703453313E+03  0.32152308955E+03  0.80362257413E+02 0.  0.
          2    1    6    6  501    0 -0.73627340757E+02  0.36341345542E+00  0.71177518636E+02  0.10240779529E+03  0.00000000000E+00 0. -1.
         -1    1    6    6    0  501 -0.62110010734E+02 -0.42151492614E+02  0.20585701449E+03  0.21911529426E+03  0.00000000000E+00 0.  1.
          5    1    5    5  502    0  0.30805215221E+02 -0.18091379125E+02  0.15764000104E+02  0.39330051904E+02  0.47000000000E+01 0. -1.
         13    1    4    4    0    0  0.52066752832E+02  0.11771809686E+02  0.88674133741E+02  0.10350180795E+03  0.00000000000E+00 0. -1.
        -14    1    4    4    0    0 -0.25970976322E+02  0.22047825964E+01  0.84045397406E+02  0.87994212892E+02  0.00000000000E+00 0.  1.
         -5    1    3    3    0  504  0.78836359760E+02  0.45902866001E+02  0.17049706736E+02  0.92924847200E+02  0.47000000000E+01 0.  1.
<mgrwt>
<rscale>  2 0.21161951E+03</rscale>
<asrwt>0</asrwt>
<pdfrwt beam="1">  1       21 0.86757058E-01 0.21185577E+03</pdfrwt>
<pdfrwt beam="2">  1       21 0.12515865E-01 0.21185577E+03</pdfrwt>
<totfact> 0.61657550E+04</totfact>
</mgrwt>
</event>
<event>
12    1  0.2743855E-001  0.1973881E+03  0.7546771E-02  0.1152201E+00
         21   -1    0    0  502  503  0.00000000000E+00  0.00000000000E+00  0.11490537901E+03  0.11490537901E+03  0.00000000000E+00 0.  1.
         21   -1    0    0  503  504 -0.00000000000E+00 -0.00000000000E+00 -0.45566394028E+03  0.45566394028E+03  0.00000000000E+00 0.  1.
         -6    2    1    2    0  504 -0.70694159563E+02 -0.58681498584E+02 -0.31550360653E+03  0.37157210944E+03  0.17344199120E+03 0.  0.
        -24    2    3    3    0    0  0.20746997910E+00  0.18042981255E+02 -0.86852037031E+02  0.12014156812E+03  0.81025476468E+02 0.  0.
          6    2    1    2  502    0  0.70694159563E+02  0.58681498584E+02 -0.25254954745E+02  0.19899720984E+03  0.17470230197E+03 0.  0.
         24    2    5    5    0    0  0.43717261701E+02 -0.18322721969E+02 -0.58952319422E+02  0.11059469072E+03  0.80677683025E+02 0.  0.
          4    1    6    6  501    0  0.87100781362E+01 -0.81836028714E+01 -0.71161503784E+02  0.72158134939E+02  0.00000000000E+00 0. -1.
         -3    1    6    6    0  501  0.35007183565E+02 -0.10139119098E+02  0.12209184361E+02  0.38436555777E+02  0.00000000000E+00 0.  1.
          5    1    5    5  502    0  0.26976897862E+02  0.77004220553E+02  0.33697364677E+02  0.88402519124E+02  0.47000000000E+01 0. -1.
         11    1    4    4    0    0 -0.15494417554E+02 -0.17827852537E+02 -0.75887556816E+02  0.79478491310E+02  0.00000000000E+00 0. -1.
        -12    1    4    4    0    0  0.15701887533E+02  0.35870833792E+02 -0.10964480215E+02  0.40663076808E+02  0.00000000000E+00 0.  1.
         -5    1    3    3    0  504 -0.70901629542E+02 -0.76724479839E+02 -0.22865156950E+03  0.25143054133E+03  0.47000000000E+01 0.  1.
<mgrwt>
<rscale>  2 0.19710890E+03</rscale>
<asrwt>0</asrwt>
<pdfrwt beam="1">  1       21 0.17677751E-01 0.19738814E+03</pdfrwt>
<pdfrwt beam="2">  1       21 0.70102144E-01 0.19738814E+03</pdfrwt>
<totfact> 0.53491783E+04</totfact>
</mgrwt>
</event>
<event>
12    1  0.2743855E-001  0.1854617E+03  0.7546771E-02  0.1163066E+00
         21   -1    0    0  502  503  0.00000000000E+00  0.00000000000E+00  0.36400939024E+03  0.36400939024E+03  0.00000000000E+00 0.  1.
         21   -1    0    0  503  504 -0.00000000000E+00 -0.00000000000E+00 -0.10996336271E+03  0.10996336271E+03  0.00000000000E+00 0.  1.
         -6    2    1    2    0  504  0.86244914068E+01  0.64045641617E+02  0.35945261865E+02  0.18891294231E+03  0.17383846485E+03 0.  0.
        -24    2    3    3    0    0 -0.44075837759E+02  0.35889694388E+02  0.73661967276E+02  0.11809824097E+03  0.72734857261E+02 0.  0.
          6    2    1    2  502    0 -0.86244914068E+01 -0.64045641617E+02  0.21810076567E+03  0.28505981063E+03  0.17179908495E+03 0.  0.
         24    2    5    5    0    0  0.13470760563E+02 -0.66298366567E+02  0.52362883543E+02  0.11777439435E+03  0.80944435213E+02 0.  0.
          2    1    6    6  501    0  0.32994630385E+02 -0.22255345800E+02 -0.79471992030E+01  0.40584529394E+02  0.00000000000E+00 0. -1.
         -1    1    6    6    0  501 -0.19523869822E+02 -0.44043020767E+02  0.60310082746E+02  0.77189864956E+02  0.00000000000E+00 0.  1.
          5    1    5    5  502    0 -0.22095251970E+02  0.22527249503E+01  0.16573788213E+03  0.16728541628E+03  0.47000000000E+01 0. -1.
         13    1    4    4    0    0 -0.30450123106E+02  0.55741394616E+01 -0.62224772570E+01  0.31575310784E+02  0.00000000000E+00 0. -1.
        -14    1    4    4    0    0 -0.13625714654E+02  0.30315554927E+02  0.79884444533E+02  0.86522930190E+02  0.00000000000E+00 0.  1.
         -5    1    3    3    0  504  0.52700329166E+02  0.28155947229E+02 -0.37716705411E+02  0.70814701338E+02  0.47000000000E+01 0.  1.
<mgrwt>
<rscale>  2 0.18498228E+03</rscale>
<asrwt>0</asrwt>
<pdfrwt beam="1">  1       21 0.56001444E-01 0.18546169E+03</pdfrwt>
<pdfrwt beam="2">  1       21 0.16917441E-01 0.18546169E+03</pdfrwt>
<totfact> 0.94764612E+04</totfact>
</mgrwt>
</event>
<event>
12    1  0.2743855E-001  0.2315121E+03  0.7546771E-02  0.1125609E+00
         21   -1    0    0  502  503  0.00000000000E+00  0.00000000000E+00  0.60707142968E+02  0.60707142968E+02  0.00000000000E+00 0.  1.
         21   -1    0    0  503  504 -0.00000000000E+00 -0.00000000000E+00 -0.17334777336E+04  0.17334777336E+04  0.00000000000E+00 0. -1.
         -6    2    1    2    0  504 -0.14204233225E+03 -0.58125082591E+02 -0.14651802364E+04  0.14833580137E+04  0.17333009599E+03 0.  0.
        -24    2    3    3    0    0 -0.30592508990E+01 -0.42679124281E+02 -0.65704070649E+03  0.66319555150E+03  0.79340928162E+02 0.  0.
          6    2    1    2  502    0  0.14204233225E+03  0.58125082591E+02 -0.20759035420E+03  0.31082686288E+03  0.17310411361E+03 0.  0.
         24    2    5    5    0    0  0.65436636603E+02 -0.31546496541E+02 -0.13341883116E+03  0.17142482006E+03  0.79427637331E+02 0.  0.
          4    1    6    6  501    0  0.47519388076E+02  0.84827901631E+01 -0.11333952607E+03  0.12319049534E+03  0.00000000000E+00 0. -1.
         -3    1    6    6    0  501  0.17917248527E+02 -0.40029286704E+02 -0.20079305090E+02  0.48234324725E+02  0.00000000000E+00 0.  1.
          5    1    5    5  502    0  0.76605695651E+02  0.89671579132E+02 -0.74171523044E+02  0.13940204281E+03  0.47000000000E+01 0. -1.
         13    1    4    4    0    0 -0.71237365471E+01  0.94325283901E+01 -0.43210026190E+03  0.43226190735E+03  0.00000000000E+00 0. -1.
        -14    1    4    4    0    0  0.40644856480E+01 -0.52111652671E+02 -0.22494044459E+03  0.23093364415E+03  0.00000000000E+00 0.  1.
         -5    1    3    3    0  504 -0.13898308135E+03 -0.15445958310E+02 -0.80813952993E+03  0.82016246218E+03  0.47000000000E+01 0.  1.
<mgrwt>
<rscale>  2 0.23146984E+03</rscale>
<asrwt>0</asrwt>
<pdfrwt beam="1">  1       21 0.93395590E-02 0.23151214E+03</pdfrwt>
<pdfrwt beam="2">  1       21 0.26668892E+00 0.23151214E+03</pdfrwt>
<totfact> 0.46762059E+03</totfact>
</mgrwt>
</event>
<event>
12    1  0.2743855E-001  0.3911859E+03  0.7546771E-02  0.1047028E+00
         21   -1    0    0  502  503  0.00000000000E+00  0.00000000000E+00  0.83221059922E+03  0.83221059922E+03  0.00000000000E+00 0.  1.
         21   -1    0    0  503  504 -0.00000000000E+00 -0.00000000000E+00 -0.21515972807E+03  0.21515972807E+03  0.00000000000E+00 0.  1.
         -6    2    1    2    0  504  0.22379731865E+03 -0.26790032509E+03  0.10572477178E+03  0.40356852186E+03  0.17272521659E+03 0.  0.
        -24    2    3    3    0    0  0.57735268841E+02 -0.62020363086E+02  0.69768043029E+02  0.13658886068E+03  0.81296065877E+02 0.  0.
          6    2    1    2  502    0 -0.22379731865E+03  0.26790032509E+03  0.51132609937E+03  0.64380180543E+03  0.17655186423E+03 0.  0.
         24    2    5    5    0    0 -0.24600715527E+03  0.23485295793E+03  0.47458262037E+03  0.58941818135E+03  0.80682691207E+02 0.  0.
          2    1    6    6  501    0 -0.20317291016E+03  0.21076356481E+03  0.44304119145E+03  0.53102354844E+03  0.00000000000E+00 0. -1.
         -1    1    6    6    0  501 -0.42834245109E+02  0.24089393113E+02  0.31541428919E+02  0.58394632912E+02  0.00000000000E+00 0.  1.
          5    1    5    5  502    0  0.22209836621E+02  0.33047367163E+02  0.36743479002E+02  0.54383624082E+02  0.47000000000E+01 0. -1.
         13    1    4    4    0    0 -0.65130931386E+01  0.14363886356E+02  0.18924675894E+01  0.15884679633E+02  0.00000000000E+00 0. -1.
        -14    1    4    4    0    0  0.64248361980E+02 -0.76384249442E+02  0.67875575439E+02  0.12070418104E+03  0.00000000000E+00 0.  1.
         -5    1    3    3    0  504  0.16606204981E+03 -0.20587996200E+03  0.35956728752E+02  0.26697966118E+03  0.47000000000E+01 0.  1.
<mgrwt>
<rscale>  2 0.39075714E+03</rscale>
<asrwt>0</asrwt>
<pdfrwt beam="1">  1       21 0.12803240E+00 0.39118587E+03</pdfrwt>
<pdfrwt beam="2">  1       21 0.33101497E-01 0.39118587E+03</pdfrwt>
<totfact> 0.35074176E+03</totfact>
</mgrwt>
</event>
<event>
12    1  0.2743855E-001  0.2289191E+03  0.7546771E-02  0.1127451E+00
         21   -1    0    0  502  503  0.00000000000E+00  0.00000000000E+00  0.56390981927E+02  0.56390981927E+02  0.00000000000E+00 0.  1.
         21   -1    0    0  503  504 -0.00000000000E+00 -0.00000000000E+00 -0.93349182274E+03  0.93349182274E+03  0.00000000000E+00 0.  1.
         -6    2    1    2    0  504 -0.12237962523E+03  0.87064255257E+02 -0.47559626731E+03  0.52770331202E+03  0.17240075062E+03 0.  0.
        -24    2    3    3    0    0 -0.13772106165E+03  0.11277414403E+03 -0.44010414082E+03  0.48103277425E+03  0.77561438582E+02 0.  0.
          6    2    1    2  502    0  0.12237962523E+03 -0.87064255257E+02 -0.40150457350E+03  0.46217949266E+03  0.17276285385E+03 0.  0.
         24    2    5    5    0    0  0.52867141697E+02  0.18648590209E+02 -0.12172017146E+03  0.15508245149E+03  0.78051662586E+02 0.  0.
          2    1    6    6  501    0 -0.32967640458E+01  0.36708923685E+02 -0.52256410770E+02  0.63946432252E+02  0.00000000000E+00 0. -1.
         -1    1    6    6    0  501  0.56163905743E+02 -0.18060333476E+02 -0.69463760686E+02  0.91136019236E+02  0.00000000000E+00 0.  1.
          5    1    5    5  502    0  0.69512483537E+02 -0.10571284547E+03 -0.27978440205E+03  0.30709704117E+03  0.47000000000E+01 0. -1.
         11    1    4    4    0    0 -0.11862565525E+02  0.48228896607E+02 -0.80216390921E+02  0.94347317403E+02  0.00000000000E+00 0. -1.
        -12    1    4    4    0    0 -0.12585849613E+03  0.64545247421E+02 -0.35988774990E+03  0.38668545685E+03  0.00000000000E+00 0.  1.
         -5    1    3    3    0  504  0.15341436419E+02 -0.25709888771E+02 -0.35492126492E+02  0.46670537761E+02  0.47000000000E+01 0.  1.
<mgrwt>
<rscale>  2 0.22885080E+03</rscale>
<asrwt>0</asrwt>
<pdfrwt beam="1">  1       21 0.86755374E-02 0.22891911E+03</pdfrwt>
<pdfrwt beam="2">  1       21 0.14361410E+00 0.22891911E+03</pdfrwt>
<totfact> 0.34171464E+04</totfact>
</mgrwt>
</event>
<event>
12    1  0.2743855E-001  0.1791444E+03  0.7546771E-02  0.1168701E+00
         21   -1    0    0  502  503  0.00000000000E+00  0.00000000000E+00  0.13219183565E+03  0.13219183565E+03  0.00000000000E+00 0.  1.
         21   -1    0    0  503  504 -0.00000000000E+00 -0.00000000000E+00 -0.27162347836E+03  0.27162347836E+03  0.00000000000E+00 0.  1.
         -6    2    1    2    0  504 -0.19668168894E+02 -0.41011501232E+02 -0.13598926773E+03  0.22491283081E+03  0.17327411931E+03 0.  0.
        -24    2    3    3    0    0 -0.50207406714E+02 -0.92782765137E+01 -0.15056627942E+03  0.17828427874E+03  0.80673474224E+02 0.  0.
          6    2    1    2  502    0  0.19668168894E+02  0.41011501232E+02 -0.34423749847E+01  0.17890248320E+03  0.17298979290E+03 0.  0.
         24    2    5    5    0    0 -0.19087088211E+02 -0.10427193697E+01  0.53326422402E+02  0.98184989554E+02  0.80194642261E+02 0.  0.
          2    1    6    6  501    0 -0.31970384449E+02 -0.33969136319E+02  0.25297557262E+02  0.53065752680E+02  0.00000000000E+00 0. -1.
         -1    1    6    6    0  501  0.12883296238E+02  0.32926416949E+02  0.28028865140E+02  0.45119236874E+02  0.00000000000E+00 0.  1.
          5    1    5    5  502    0  0.38755257105E+02  0.42054220602E+02 -0.56768797387E+02  0.80717493646E+02  0.47000000000E+01 0. -1.
         11    1    4    4    0    0 -0.50943203354E+02  0.21360398573E+02 -0.55112682130E+02  0.78031303505E+02  0.00000000000E+00 0. -1.
        -12    1    4    4    0    0  0.73579663980E+00 -0.30638675087E+02 -0.95453597293E+02  0.10025297524E+03  0.00000000000E+00 0.  1.
         -5    1    3    3    0  504  0.30539237820E+02 -0.31733224718E+02  0.14577011696E+02  0.46628552065E+02  0.47000000000E+01 0.  1.
<mgrwt>
<rscale>  2 0.17907557E+03</rscale>
<asrwt>0</asrwt>
<pdfrwt beam="1">  1       21 0.20337206E-01 0.17914436E+03</pdfrwt>
<pdfrwt beam="2">  1       21 0.41788227E-01 0.17914436E+03</pdfrwt>
<totfact> 0.12391416E+05</totfact>
</mgrwt>
</event>
<event>
12    1  0.2743855E-001  0.2516926E+03  0.7546771E-02  0.1112300E+00
         21   -1    0    0  502  503  0.00000000000E+00  0.00000000000E+00  0.18930897138E+04  0.18930897138E+04  0.00000000000E+00 0. -1.
         21   -1    0    0  503  504 -0.00000000000E+00 -0.00000000000E+00 -0.36925324689E+02  0.36925324689E+02  0.00000000000E+00 0. -1.
         -6    2    1    2    0  504  0.44307436234E+02  0.17750127182E+03  0.12250870512E+04  0.12505978028E+04  0.17229837739E+03 0.  0.
        -24    2    3    3    0    0  0.11637560601E+02  0.67713015742E+02  0.33268990198E+03  0.35086698531E+03  0.87775766469E+02 0.  0.
          6    2    1    2  502    0 -0.44307436234E+02 -0.17750127182E+03  0.63107733790E+03  0.67941723572E+03  0.17285636631E+03 0.  0.
         24    2    5    5    0    0 -0.83314059562E+02 -0.75062613476E+02  0.40246444779E+03  0.42584054335E+03  0.82382693348E+02 0.  0.
          2    1    6    6  501    0 -0.48108569790E+02 -0.26186847383E+02  0.74941131841E+02  0.92824343277E+02  0.00000000000E+00 0. -1.
         -1    1    6    6    0  501 -0.35205489772E+02 -0.48875766093E+02  0.32752331595E+03  0.33301620008E+03  0.00000000000E+00 0.  1.
          5    1    5    5  502    0  0.39006623329E+02 -0.10243865835E+03  0.22861289011E+03  0.25357669236E+03  0.47000000000E+01 0. -1.
         13    1    4    4    0    0  0.59897965688E+00  0.35983928771E+02  0.30559748213E+03  0.30770931574E+03  0.00000000000E+00 0. -1.
        -14    1    4    4    0    0  0.11038580944E+02  0.31729086971E+02  0.27092419852E+02  0.43157669570E+02  0.00000000000E+00 0.  1.
         -5    1    3    3    0  504  0.32669875633E+02  0.10978825608E+03  0.89239714924E+03  0.89973081748E+03  0.47000000000E+01 0.  1.
<mgrwt>
<rscale>  2 0.25159684E+03</rscale>
<asrwt>0</asrwt>
<pdfrwt beam="1">  1       21 0.29124450E+00 0.25169262E+03</pdfrwt>
<pdfrwt beam="2">  1       21 0.56808207E-02 0.25169262E+03</pdfrwt>
<totfact> 0.78437896E+03</totfact>
</mgrwt>
</event>
<event>
12    1  0.2743855E-001  0.2078373E+03  0.7546771E-02  0.1147278E+00
         21   -1    0    0  502  503  0.00000000000E+00  0.00000000000E+00  0.69394809045E+02  0.69394809045E+02  0.00000000000E+00 0.  1.
         21   -1    0    0  503  504 -0.00000000000E+00 -0.00000000000E+00 -0.14631356584E+04  0.14631356584E+04  0.00000000000E+00 0.  1.
         -6    2    1    2    0  504 -0.13422576699E+02  0.10116781205E+03 -0.13090891636E+04  0.13254851182E+04  0.18105598196E+03 0.  0.
        -24    2    3    3    0    0  0.34968741159E+02  0.91332094706E+02 -0.54293897680E+03  0.55773082177E+03  0.81954698729E+02 0.  0.
          6    2    1    2  502    0  0.13422576699E+02 -0.10116781205E+03 -0.84651685788E+02  0.20704534926E+03  0.15901816558E+03 0.  0.
         24    2    5    5    0    0  0.63927167892E+02 -0.46357390902E+02 -0.35061477175E+02  0.11740063504E+03  0.79485290711E+02 0.  0.
          2    1    6    6  501    0  0.81675219314E+02 -0.39461360528E+02 -0.37597637687E+02  0.98191765359E+02  0.00000000000E+00 0. -1.
         -1    1    6    6    0  501 -0.17748051421E+02 -0.68960303746E+01  0.25361605117E+01  0.19208869679E+02  0.00000000000E+00 0.  1.
          5    1    5    5  502    0 -0.50504591193E+02 -0.54810421146E+02 -0.49590208613E+02  0.89644714222E+02  0.47000000000E+01 0. -1.
         13    1    4    4    0    0 -0.26429032837E+02  0.21712444922E+02 -0.12397710913E+03  0.12860889405E+03  0.00000000000E+00 0. -1.
        -14    1    4    4    0    0  0.61397773996E+02  0.69619649784E+02 -0.41896186767E+03  0.42912192772E+03  0.00000000000E+00 0.  1.
         -5    1    3    3    0  504 -0.48391317858E+02  0.98357173419E+01 -0.76615018675E+03  0.76775429640E+03  0.47000000000E+01 0.  1.
<mgrwt>
<rscale>  2 0.20294533E+03</rscale>
<asrwt>0</asrwt>
<pdfrwt beam="1">  1       21 0.10676124E-01 0.20783734E+03</pdfrwt>
<pdfrwt beam="2">  1       21 0.22509781E+00 0.20783734E+03</pdfrwt>
<totfact> 0.66729104E+03</totfact>
</mgrwt>
</event>
<event>
12    1  0.2743855E-001  0.1958750E+03  0.7546771E-02  0.1154110E+00
         21   -1    0    0  502  503  0.00000000000E+00  0.00000000000E+00  0.68391112196E+02  0.68391112196E+02  0.00000000000E+00 0. -1.
         21   -1    0    0  503  504 -0.00000000000E+00 -0.00000000000E+00 -0.85257043815E+03  0.85257043815E+03  0.00000000000E+00 0. -1.
         -6    2    1    2    0  504 -0.55254052731E+02 -0.62360041661E+02 -0.66388095664E+03  0.69109484842E+03  0.17300976791E+03 0.  0.
        -24    2    3    3    0    0 -0.43601638025E+02 -0.28885050004E+02 -0.64242314668E+03  0.64939495102E+03  0.79188724399E+02 0.  0.
          6    2    1    2  502    0  0.55254052731E+02  0.62360041661E+02 -0.12029836932E+03  0.22986670192E+03  0.17727159348E+03 0.  0.
         24    2    5    5    0    0  0.50876839278E+01 -0.30927309159E+02 -0.75204574119E+02  0.11465066681E+03  0.80663898070E+02 0.  0.
          4    1    6    6  501    0 -0.92188305689E+01  0.23895585759E+02 -0.81802187717E+01  0.26886833860E+02  0.00000000000E+00 0. -1.
         -3    1    6    6    0  501  0.14306514497E+02 -0.54822894919E+02 -0.67024355347E+02  0.87763832950E+02  0.00000000000E+00 0.  1.
          5    1    5    5  502    0  0.50166368803E+02  0.93287350821E+02 -0.45093795197E+02  0.11521603511E+03  0.47000000000E+01 0. -1.
         11    1    4    4    0    0 -0.37866151847E+02  0.16772614341E+02 -0.18073668455E+03  0.18542091358E+03  0.00000000000E+00 0. -1.
        -12    1    4    4    0    0 -0.57354861780E+01 -0.45657664345E+02 -0.46168646213E+03  0.46397403745E+03  0.00000000000E+00 0.  1.
         -5    1    3    3    0  504 -0.11652414706E+02 -0.33474991658E+02 -0.21457809959E+02  0.41699897400E+02  0.47000000000E+01 0.  1.
<mgrwt>
<rscale>  2 0.19490567E+03</rscale>
<asrwt>0</asrwt>
<pdfrwt beam="1">  1       21 0.10521709E-01 0.19587497E+03</pdfrwt>
<pdfrwt beam="2">  1       21 0.13116468E+00 0.19587497E+03</pdfrwt>
<totfact> 0.31282541E+04</totfact>
</mgrwt>
</event>
<event>
12    1  0.2743855E-001  0.2068501E+03  0.7546771E-02  0.1144365E+00
         21   -1    0    0  502  503  0.00000000000E+00  0.00000000000E+00  0.43886696614E+03  0.43886696614E+03  0.00000000000E+00 0. -1.
         21   -1    0    0  503  504 -0.00000000000E+00 -0.00000000000E+00 -0.10313287015E+03  0.10313287015E+03  0.00000000000E+00 0. -1.
         -6    2    1    2    0  504 -0.16289767994E+02  0.11110593667E+03  0.23425805917E+03  0.31159942895E+03  0.17206824265E+03 0.  0.
        -24    2    3    3    0    0  0.12967633448E+02  0.49249758765E+02  0.25124417306E+02  0.91505920539E+02  0.71752344164E+02 0.  0.
          6    2    1    2  502    0  0.16289767994E+02 -0.11110593667E+03  0.10147603681E+03  0.23040040734E+03  0.17371550291E+03 0.  0.
         24    2    5    5    0    0 -0.49112322569E+02 -0.25674099477E+02  0.67347931105E+02  0.11742762365E+03  0.78627751840E+02 0.  0.
          4    1    6    6  501    0 -0.18405918636E+02 -0.93837918757E+01  0.78302605858E+02  0.80982291119E+02  0.00000000000E+00 0. -1.
         -3    1    6    6    0  501 -0.30706403932E+02 -0.16290307602E+02 -0.10954674753E+02  0.36445332529E+02  0.00000000000E+00 0.  1.
          5    1    5    5  502    0  0.65402090562E+02 -0.85431837191E+02  0.34128105705E+02  0.11297278369E+03  0.47000000000E+01 0. -1.
         13    1    4    4    0    0 -0.26274713500E+02  0.28665280676E+02  0.26691848758E+02  0.47164750353E+02  0.00000000000E+00 0. -1.
        -14    1    4    4    0    0  0.39242346947E+02  0.20584478089E+02 -0.15674314517E+01  0.44341170186E+02  0.00000000000E+00 0.  1.
         -5    1    3    3    0  504 -0.29257401441E+02  0.61856177903E+02  0.20913364187E+03  0.22009350841E+03  0.47000000000E+01 0.  1.
<mgrwt>
<rscale>  2 0.20650386E+03</rscale>
<asrwt>0</asrwt>
<pdfrwt beam="1">  1       21 0.67517994E-01 0.20685009E+03</pdfrwt>
<pdfrwt beam="2">  1       21 0.15866596E-01 0.20685009E+03</pdfrwt>
<totfact> 0.70568923E+04</totfact>
</mgrwt>
</event>
<event>
12    1  0.2743855E-001  0.1952336E+03  0.7546771E-02  0.1154518E+00
         21   -1    0    0  502  503  0.00000000000E+00  0.00000000000E+00  0.23454275455E+03  0.23454275455E+03  0.00000000000E+00 0. -1.
         21   -1    0    0  503  504 -0.00000000000E+00 -0.00000000000E+00 -0.11493599840E+04  0.11493599840E+04  0.00000000000E+00 0. -1.
         -6    2    1    2    0  504 -0.58589217645E+01  0.82644294180E+02 -0.10989059605E+04  0.11155655837E+04  0.17328547324E+03 0.  0.
        -24    2    3    3    0    0  0.35925712921E+02  0.99720905517E+02 -0.64161296435E+03  0.65602609610E+03  0.86418325043E+02 0.  0.
          6    2    1    2  502    0  0.58589217645E+01 -0.82644294180E+02  0.18408873104E+03  0.26833715485E+03  0.17678167737E+03 0.  0.
         24    2    5    5    0    0  0.60953475089E+02 -0.94434535032E+02  0.10896070466E+03  0.17431199900E+03  0.76674834877E+02 0.  0.
          2    1    6    6  501    0  0.13668565051E+02 -0.84538767971E+02  0.54478595710E+02  0.10149655340E+03  0.00000000000E+00 0. -1.
         -1    1    6    6    0  501  0.47284910037E+02 -0.98957670611E+01  0.54482108955E+02  0.72815445609E+02  0.00000000000E+00 0.  1.
          5    1    5    5  502    0 -0.55094553324E+02  0.11790240851E+02  0.75128026372E+02  0.94025155846E+02  0.47000000000E+01 0. -1.
         13    1    4    4    0    0 -0.88586283300E+01  0.20845659859E+01 -0.24368352712E+03  0.24385340289E+03  0.00000000000E+00 0. -1.
        -14    1    4    4    0    0  0.44784341251E+02  0.97636339532E+02 -0.39792943722E+03  0.41217269321E+03  0.00000000000E+00 0.  1.
         -5    1    3    3    0  504 -0.41784634685E+02 -0.17076611337E+02 -0.45729299613E+03  0.45953948760E+03  0.47000000000E+01 0.  1.
<mgrwt>
<rscale>  2 0.19443877E+03</rscale>
<asrwt>0</asrwt>
<pdfrwt beam="1">  1       21 0.36083501E-01 0.19523362E+03</pdfrwt>
<pdfrwt beam="2">  1       21 0.17682461E+00 0.19523362E+03</pdfrwt>
<totfact> 0.14130467E+03</totfact>
</mgrwt>
</event>
<event>
12    1  0.2743855E-001  0.2470981E+03  0.7546771E-02  0.1117029E+00
         21   -1    0    0  502  503  0.00000000000E+00  0.00000000000E+00  0.10705034057E+04  0.10705034057E+04  0.00000000000E+00 0. -1.
         21   -1    0    0  503  504 -0.00000000000E+00 -0.00000000000E+00 -0.89037167967E+02  0.89037167967E+02  0.00000000000E+00 0. -1.
         -6    2    1    2    0  504  0.15176292362E+03 -0.48362698594E+02  0.13644865031E+03  0.28226884228E+03  0.18890878633E+03 0.  0.
        -24    2    3    3    0    0  0.94666119472E+02 -0.66132941968E+02  0.12526843454E+02  0.14459338765E+03  0.86110892209E+02 0.  0.
          6    2    1    2  502    0 -0.15176292362E+03  0.48362698594E+02  0.84501758748E+03  0.87727173144E+03  0.17372401110E+03 0.  0.
         24    2    5    5    0    0 -0.82286344428E+02  0.80673679480E+02  0.37873479526E+03  0.40471197134E+03  0.84097857094E+02 0.  0.
          4    1    6    6  501    0 -0.73025428915E+02  0.98009659798E+02  0.33947279552E+03  0.36080519062E+03  0.00000000000E+00 0. -1.
         -3    1    6    6    0  501 -0.92609155127E+01 -0.17335980318E+02  0.39261999741E+02  0.43906780722E+02  0.00000000000E+00 0.  1.
          5    1    5    5  502    0 -0.69476579189E+02 -0.32310980886E+02  0.46628279222E+03  0.47255976009E+03  0.47000000000E+01 0. -1.
         13    1    4    4    0    0  0.55032371628E+02 -0.33505604183E+01  0.37022122304E+02  0.66411036146E+02  0.00000000000E+00 0. -1.
        -14    1    4    4    0    0  0.39633747844E+02 -0.62782381549E+02 -0.24495278851E+02  0.78182351507E+02  0.00000000000E+00 0.  1.
         -5    1    3    3    0  504  0.57096804145E+02  0.17770243374E+02  0.12392180685E+03  0.13767545463E+03  0.47000000000E+01 0.  1.
<mgrwt>
<rscale>  2 0.24419597E+03</rscale>
<asrwt>0</asrwt>
<pdfrwt beam="1">  1       21 0.16469282E+00 0.24709809E+03</pdfrwt>
<pdfrwt beam="2">  1       21 0.13698027E-01 0.24709809E+03</pdfrwt>
<totfact> 0.10360184E+04</totfact>
</mgrwt>
</event>
<event>
12    1  0.2743855E-001  0.1824319E+03  0.7546771E-02  0.1165715E+00
         21   -1    0    0  502  503  0.00000000000E+00  0.00000000000E+00  0.11483867009E+03  0.11483867009E+03  0.00000000000E+00 0. -1.
         21   -1    0    0  503  504 -0.00000000000E+00 -0.00000000000E+00 -0.41728187375E+03  0.41728187375E+03  0.00000000000E+00 0. -1.
         -6    2    1    2    0  504  0.46461313558E+02 -0.32060879143E+02 -0.29950790525E+03  0.35069412748E+03  0.17347862148E+03 0.  0.
        -24    2    3    3    0    0  0.57661252673E+02  0.34461427571E+02 -0.17421128790E+03  0.20831439491E+03  0.92373720532E+02 0.  0.
          6    2    1    2  502    0 -0.46461313558E+02  0.32060879143E+02 -0.29352984096E+01  0.18142641635E+03  0.17239598297E+03 0.  0.
         24    2    5    5    0    0 -0.77514768320E+02 -0.70263059524E+01  0.36241542299E+02  0.11779434944E+03  0.80648317338E+02 0.  0.
          4    1    6    6  501    0 -0.51805214660E+02  0.35125862022E+02  0.17596748474E+02  0.65017320812E+02  0.00000000000E+00 0. -1.
         -3    1    6    6    0  501 -0.25709553661E+02 -0.42152167974E+02  0.18644793825E+02  0.52777028631E+02  0.00000000000E+00 0.  1.
          5    1    5    5  502    0  0.31053454762E+02  0.39087185096E+02 -0.39176840709E+02  0.63632066910E+02  0.47000000000E+01 0. -1.
         13    1    4    4    0    0  0.28640933465E+02 -0.23085410495E+02 -0.21617085638E+02  0.42667758776E+02  0.00000000000E+00 0. -1.
        -14    1    4    4    0    0  0.29020319208E+02  0.57546838067E+02 -0.15259420227E+03  0.16564663614E+03  0.00000000000E+00 0.  1.
         -5    1    3    3    0  504 -0.11199939115E+02 -0.66522306715E+02 -0.12529661735E+03  0.14237973257E+03  0.47000000000E+01 0.  1.
<mgrwt>
<rscale>  2 0.18217402E+03</rscale>
<asrwt>0</asrwt>
<pdfrwt beam="1">  1       21 0.17667488E-01 0.18243187E+03</pdfrwt>
<pdfrwt beam="2">  1       21 0.64197211E-01 0.18243187E+03</pdfrwt>
<totfact> 0.65362359E+04</totfact>
</mgrwt>
</event>
<event>
12    1  0.2743855E-001  0.1923017E+03  0.7546771E-02  0.1157127E+00
         21   -1    0    0  502  503  0.00000000000E+00  0.00000000000E+00  0.22694383166E+03  0.22694383166E+03  0.00000000000E+00 0. -1.
         21   -1    0    0  503  504 -0.00000000000E+00 -0.00000000000E+00 -0.36123240394E+03  0.36123240394E+03  0.00000000000E+00 0. -1.
         -6    2    1    2    0  504 -0.40458761421E+02 -0.71867372693E+02 -0.28626956281E+03  0.34306777427E+03  0.17012761246E+03 0.  0.
        -24    2    3    3    0    0 -0.47653255180E+02 -0.10862558105E+03 -0.26182239276E+03  0.29809355115E+03  0.78983860990E+02 0.  0.
          6    2    1    2  502    0  0.40458761421E+02  0.71867372693E+02  0.15198099054E+03  0.24510846133E+03  0.17371846677E+03 0.  0.
         24    2    5    5    0    0 -0.91190465982E+01  0.25094297679E+02  0.67417905149E+01  0.84602402819E+02  0.79995212585E+02 0.  0.
          2    1    6    6  501    0 -0.32806614966E+02  0.14137165833E+02  0.32236343318E+02  0.48117723074E+02  0.00000000000E+00 0. -1.
         -1    1    6    6    0  501  0.23687568368E+02  0.10957131846E+02 -0.25494552803E+02  0.36484679745E+02  0.00000000000E+00 0.  1.
          5    1    5    5  502    0  0.49577808019E+02  0.46773075014E+02  0.14523920002E+03  0.16050605851E+03  0.47000000000E+01 0. -1.
         13    1    4    4    0    0  0.16218689827E+01 -0.55985428552E+02 -0.18248154717E+03  0.19088350826E+03  0.00000000000E+00 0. -1.
        -14    1    4    4    0    0 -0.49275124162E+02 -0.52640152502E+02 -0.79340845593E+02  0.10721004289E+03  0.00000000000E+00 0.  1.
         -5    1    3    3    0  504  0.71944937591E+01  0.36758208361E+02 -0.24447170048E+02  0.44974223125E+02  0.47000000000E+01 0.  1.
<mgrwt>
<rscale>  2 0.19148713E+03</rscale>
<asrwt>0</asrwt>
<pdfrwt beam="1">  1       21 0.34914436E-01 0.19230168E+03</pdfrwt>
<pdfrwt beam="2">  1       21 0.55574216E-01 0.19230168E+03</pdfrwt>
<totfact> 0.24135283E+04</totfact>
</mgrwt>
</event>
<event>
12    1  0.2743855E-001  0.2294177E+03  0.7546771E-02  0.1127164E+00
         21   -1    0    0  502  503  0.00000000000E+00  0.00000000000E+00  0.87811149976E+02  0.87811149976E+02  0.00000000000E+00 0. -1.
         21   -1    0    0  503  504 -0.00000000000E+00 -0.00000000000E+00 -0.10788698088E+04  0.10788698088E+04  0.00000000000E+00 0. -1.
         -6    2    1    2    0  504 -0.12392416161E+03 -0.85011155914E+02 -0.88471355170E+03  0.91381383486E+03  0.17249220780E+03 0.  0.
        -24    2    3    3    0    0 -0.47338549178E+01 -0.74925644239E+01 -0.40700298376E+03  0.41537132267E+03  0.82482476925E+02 0.  0.
          6    2    1    2  502    0  0.12392416161E+03  0.85011155914E+02 -0.10634510714E+03  0.25286712393E+03  0.17334476079E+03 0.  0.
         24    2    5    5    0    0  0.15359122589E+03  0.61638788731E+02 -0.10919378904E+03  0.21470159971E+03  0.82364363677E+02 0.  0.
          2    1    6    6  501    0  0.15832494390E+03  0.67094464504E+02 -0.89767477422E+02  0.19397591353E+03  0.00000000000E+00 0. -1.
         -1    1    6    6    0  501 -0.47337180058E+01 -0.54556757734E+01 -0.19426311619E+02  0.20725686175E+02  0.00000000000E+00 0.  1.
          5    1    5    5  502    0 -0.29667064283E+02  0.23372367183E+02  0.28486819024E+01  0.38165524227E+02  0.47000000000E+01 0. -1.
         13    1    4    4    0    0 -0.79384896645E+01 -0.42492272015E+02 -0.15447433451E+03  0.16040864323E+03  0.00000000000E+00 0. -1.
        -14    1    4    4    0    0  0.32046347467E+01  0.34999707591E+02 -0.25252864925E+03  0.25496267944E+03  0.00000000000E+00 0.  1.
         -5    1    3    3    0  504 -0.11919030669E+03 -0.77518591490E+02 -0.47771056794E+03  0.49844251219E+03  0.47000000000E+01 0.  1.
<mgrwt>
<rscale>  2 0.22925670E+03</rscale>
<asrwt>0</asrwt>
<pdfrwt beam="1">  1       21 0.13509408E-01 0.22941774E+03</pdfrwt>
<pdfrwt beam="2">  1       21 0.16597997E+00 0.22941774E+03</pdfrwt>
<totfact> 0.10518333E+04</totfact>
</mgrwt>
</event>
<event>
12    1  0.2743855E-001  0.2056814E+03  0.7546771E-02  0.1145434E+00
         21   -1    0    0  502  503  0.00000000000E+00  0.00000000000E+00  0.64848952947E+02  0.64848952947E+02  0.00000000000E+00 0.  1.
         21   -1    0    0  503  504 -0.00000000000E+00 -0.00000000000E+00 -0.12831607675E+04  0.12831607675E+04  0.00000000000E+00 0. -1.
         -6    2    1    2    0  504 -0.72591770445E+02  0.78826483387E+02 -0.10825779600E+04  0.11015781459E+04  0.17325181829E+03 0.  0.
        -24    2    3    3    0    0  0.10905422124E+02  0.56382506103E+02 -0.32213484710E+03  0.33622115001E+03  0.77303859999E+02 0.  0.
          6    2    1    2  502    0  0.72591770445E+02 -0.78826483387E+02 -0.13573385461E+03  0.24643157456E+03  0.17556099234E+03 0.  0.
         24    2    5    5    0    0 -0.52391867466E+01 -0.25223897701E+02 -0.33426424898E+01  0.83703524923E+02  0.79570174895E+02 0.  0.
          2    1    6    6  501    0 -0.36529694412E+02 -0.39330711590E+01 -0.20584390255E+02  0.42114186977E+02  0.00000000000E+00 0. -1.
         -1    1    6    6    0  501  0.31290507665E+02 -0.21290826542E+02  0.17241747765E+02  0.41589337946E+02  0.00000000000E+00 0.  1.
          5    1    5    5  502    0  0.77830957191E+02 -0.53602585687E+02 -0.13239121213E+03  0.16272804963E+03  0.47000000000E+01 0. -1.
         13    1    4    4    0    0  0.15585762628E+02  0.62655590290E+02 -0.32198340981E+03  0.32839298894E+03  0.00000000000E+00 0. -1.
        -14    1    4    4    0    0 -0.46803405044E+01 -0.62730841866E+01 -0.15143728789E+00  0.78281610677E+01  0.00000000000E+00 0.  1.
         -5    1    3    3    0  504 -0.83497192568E+02  0.22443977284E+02 -0.76044311287E+03  0.76535699592E+03  0.47000000000E+01 0.  1.
<mgrwt>
<rscale>  2 0.20518777E+03</rscale>
<asrwt>0</asrwt>
<pdfrwt beam="1">  1       21 0.99767621E-02 0.20568141E+03</pdfrwt>
<pdfrwt beam="2">  1       21 0.19740935E+00 0.20568141E+03</pdfrwt>
<totfact> 0.11248792E+04</totfact>
</mgrwt>
</event>
<event>
12    1  0.2743855E-001  0.1750269E+03  0.7546771E-02  0.1174328E+00
         21   -1    0    0  502  503  0.00000000000E+00  0.00000000000E+00  0.37395495823E+02  0.37395495823E+02  0.00000000000E+00 0.  1.
         21   -1    0    0  503  504 -0.00000000000E+00 -0.00000000000E+00 -0.10173886366E+04  0.10173886366E+04  0.00000000000E+00 0.  1.
         -6    2    1    2    0  504  0.28450477878E+02 -0.20162462194E+00 -0.73238870367E+03  0.75156412099E+03  0.16627069603E+03 0.  0.
        -24    2    3    3    0    0 -0.79464656791E+01  0.44661233111E+02 -0.57357298636E+03  0.58250219279E+03  0.90912385632E+02 0.  0.
          6    2    1    2  502    0 -0.28450477878E+02  0.20162462194E+00 -0.24760443713E+03  0.30322001146E+03  0.17269900901E+03 0.  0.
         24    2    5    5    0    0 -0.50652569580E+02  0.24020453128E+02 -0.67676960245E+02  0.12030949670E+03  0.82167749606E+02 0.  0.
          2    1    6    6  501    0 -0.38115891304E+02 -0.73856581269E+01  0.59595485019E+01  0.39279579100E+02  0.00000000000E+00 0. -1.
         -1    1    6    6    0  501 -0.12536678276E+02  0.31406111255E+02 -0.73636508747E+02  0.81029917603E+02  0.00000000000E+00 0.  1.
          5    1    5    5  502    0  0.22202091702E+02 -0.23818828506E+02 -0.17992747689E+03  0.18291051475E+03  0.47000000000E+01 0. -1.
         13    1    4    4    0    0 -0.14206678540E+02  0.13528473914E+02 -0.19986131659E+02  0.28005263439E+02  0.00000000000E+00 0. -1.
        -14    1    4    4    0    0  0.62602128608E+01  0.31132759197E+02 -0.55358685470E+03  0.55449692935E+03  0.00000000000E+00 0.  1.
         -5    1    3    3    0  504  0.36396943557E+02 -0.44862857733E+02 -0.15881571731E+03  0.16906192821E+03  0.47000000000E+01 0.  1.
<mgrwt>
<rscale>  2 0.17342002E+03</rscale>
<asrwt>0</asrwt>
<pdfrwt beam="1">  1       21 0.57531539E-02 0.17502691E+03</pdfrwt>
<pdfrwt beam="2">  1       21 0.15652131E+00 0.17502691E+03</pdfrwt>
<totfact> 0.57133212E+04</totfact>
</mgrwt>
</event>
<event>
12    1  0.2743855E-001  0.2295107E+03  0.7546771E-02  0.1127176E+00
         21   -1    0    0  502  503  0.00000000000E+00  0.00000000000E+00  0.36980838777E+03  0.36980838777E+03  0.00000000000E+00 0.  1.
         21   -1    0    0  503  504 -0.00000000000E+00 -0.00000000000E+00 -0.27318970210E+03  0.27318970210E+03  0.00000000000E+00 0.  1.
         -6    2    1    2    0  504  0.14914950266E+03 -0.47764451365E+01 -0.17461859559E+03  0.28838657535E+03  0.17437538342E+03 0.  0.
        -24    2    3    3    0    0  0.40522802249E+02 -0.53316177170E+02 -0.11032693925E+03  0.15306705458E+03  0.82296885853E+02 0.  0.
          6    2    1    2  502    0 -0.14914950266E+03  0.47764451365E+01  0.27123728126E+03  0.35461151452E+03  0.17294876383E+03 0.  0.
         24    2    5    5    0    0 -0.61171753998E+02 -0.57253525734E+02  0.14823583205E+03  0.19109011515E+03  0.86727276593E+02 0.  0.
          2    1    6    6  501    0  0.22027256234E+02 -0.61540492144E+01  0.25473751605E+02  0.34234257108E+02  0.00000000000E+00 0. -1.
         -1    1    6    6    0  501 -0.83199010233E+02 -0.51099476519E+02  0.12276208045E+03  0.15685585804E+03  0.00000000000E+00 0.  1.
          5    1    5    5  502    0 -0.87977748665E+02  0.62029970870E+02  0.12300144920E+03  0.16352139937E+03  0.47000000000E+01 0. -1.
         13    1    4    4    0    0 -0.24452692153E+01 -0.13547660112E+02  0.11476712592E+02  0.17922984349E+02  0.00000000000E+00 0. -1.
        -14    1    4    4    0    0  0.42968071464E+02 -0.39768517057E+02 -0.12180365185E+03  0.13514407023E+03  0.00000000000E+00 0.  1.
         -5    1    3    3    0  504  0.10862670041E+03  0.48539732033E+02 -0.64291656335E+02  0.13531952078E+03  0.47000000000E+01 0.  1.
<mgrwt>
<rscale>  2 0.22923972E+03</rscale>
<asrwt>0</asrwt>
<pdfrwt beam="1">  1       21 0.56893598E-01 0.22951070E+03</pdfrwt>
<pdfrwt beam="2">  1       21 0.42029185E-01 0.22951070E+03</pdfrwt>
<totfact> 0.15470682E+04</totfact>
</mgrwt>
</event>
<event>
12    1  0.2743855E-001  0.1848385E+03  0.7546771E-02  0.1163309E+00
         21   -1    0    0  502  503  0.00000000000E+00  0.00000000000E+00  0.36262146391E+02  0.36262146391E+02  0.00000000000E+00 0. -1.
         21   -1    0    0  503  504 -0.00000000000E+00 -0.00000000000E+00 -0.11107897933E+04  0.11107897933E+04  0.00000000000E+00 0. -1.
         -6    2    1    2    0  504 -0.31109105142E+02 -0.58406873065E+02 -0.76170418994E+03  0.78370117565E+03  0.17209044276E+03 0.  0.
        -24    2    3    3    0    0  0.32287088628E+02 -0.74150836868E+02 -0.57693109538E+03  0.58766511708E+03  0.77201025412E+02 0.  0.
          6    2    1    2  502    0  0.31109105142E+02  0.58406873065E+02 -0.31282345695E+03  0.36335076403E+03  0.17258656743E+03 0.  0.
         24    2    5    5    0    0  0.29442861102E+02 -0.71905855819E+01 -0.27457201800E+03  0.28725171323E+03  0.78772883006E+02 0.  0.
          2    1    6    6  501    0  0.47471312471E+02 -0.29250163468E+02 -0.17336556703E+03  0.18211182664E+03  0.00000000000E+00 0. -1.
         -1    1    6    6    0  501 -0.18028451369E+02  0.22059577886E+02 -0.10120645097E+03  0.10513988660E+03  0.00000000000E+00 0.  1.
          5    1    5    5  502    0  0.16662440409E+01  0.65597458647E+02 -0.38251438951E+02  0.76099050795E+02  0.47000000000E+01 0. -1.
         13    1    4    4    0    0  0.41721522560E+02 -0.85599862279E+02 -0.52858121509E+03  0.53709042331E+03  0.00000000000E+00 0. -1.
        -14    1    4    4    0    0 -0.94344339315E+01  0.11449025411E+02 -0.48349880285E+02  0.50574693771E+02  0.00000000000E+00 0.  1.
         -5    1    3    3    0  504 -0.63396193771E+02  0.15743963804E+02 -0.18477309457E+03  0.19603605856E+03  0.47000000000E+01 0.  1.
<mgrwt>
<rscale>  2 0.18472258E+03</rscale>
<asrwt>0</asrwt>
<pdfrwt beam="1">  1       21 0.55787920E-02 0.18483848E+03</pdfrwt>
<pdfrwt beam="2">  1       21 0.17089073E+00 0.18483848E+03</pdfrwt>
<totfact> 0.47185120E+04</totfact>
</mgrwt>
</event>
<event>
12    1  0.2743855E-001  0.2560741E+03  0.7546771E-02  0.1109812E+00
         21   -1    0    0  502  503  0.00000000000E+00  0.00000000000E+00  0.30215548890E+03  0.30215548890E+03  0.00000000000E+00 0. -1.
         21   -1    0    0  503  504 -0.00000000000E+00 -0.00000000000E+00 -0.24446304852E+03  0.24446304852E+03  0.00000000000E+00 0.  1.
         -6    2    1    2    0  504  0.19965705576E+02 -0.18778758982E+03 -0.65413722212E+02  0.26248993978E+03  0.17017404368E+03 0.  0.
        -24    2    3    3    0    0 -0.16031051457E+02 -0.27023881672E+02 -0.28182866037E+01  0.86191854333E+02  0.80211023073E+02 0.  0.
          6    2    1    2  502    0 -0.19965705576E+02  0.18778758982E+03  0.12310616259E+03  0.28412859764E+03  0.17294832882E+03 0.  0.
         24    2    5    5    0    0 -0.49875483071E+02  0.17516772072E+03  0.40493327221E+02  0.19524200443E+03  0.57519010317E+02 0.  0.
          2    1    6    6  501    0 -0.22542149439E+01  0.87019143580E+02 -0.34495283923E+00  0.87049019678E+02  0.00000000000E+00 0. -1.
         -1    1    6    6    0  501 -0.47621268127E+02  0.88148577143E+02  0.40838280060E+02  0.10819298475E+03  0.00000000000E+00 0.  1.
          5    1    5    5  502    0  0.29909777495E+02  0.12619869095E+02  0.82612835370E+02  0.88886593217E+02  0.47000000000E+01 0. -1.
         11    1    4    4    0    0  0.32489216905E+02 -0.66034526758E+01  0.26884543714E+01  0.33262329883E+02  0.00000000000E+00 0. -1.
        -12    1    4    4    0    0 -0.48520268362E+02 -0.20420428996E+02 -0.55067409751E+01  0.52929524450E+02  0.00000000000E+00 0.  1.
         -5    1    3    3    0  504  0.35996757033E+02 -0.16076370815E+03 -0.62595435608E+02  0.17629808545E+03  0.47000000000E+01 0.  1.
<mgrwt>
<rscale>  2 0.25560643E+03</rscale>
<asrwt>0</asrwt>
<pdfrwt beam="1">  1       21 0.46485460E-01 0.25607408E+03</pdfrwt>
<pdfrwt beam="2">  1       21 0.37609700E-01 0.25607408E+03</pdfrwt>
<totfact> 0.29283856E+04</totfact>
</mgrwt>
</event>
<event>
12    1  0.2743855E-001  0.2106991E+03  0.7546771E-02  0.1143491E+00
         21   -1    0    0  502  503  0.00000000000E+00  0.00000000000E+00  0.29559301375E+03  0.29559301375E+03  0.00000000000E+00 0. -1.
         21   -1    0    0  503  504 -0.00000000000E+00 -0.00000000000E+00 -0.14177932653E+03  0.14177932653E+03  0.00000000000E+00 0.  1.
         -6    2    1    2    0  504 -0.67841431645E+02 -0.70229931797E+02  0.86177602012E+02  0.22764156601E+03  0.18670672275E+03 0.  0.
        -24    2    3    3    0    0 -0.86745582877E+02 -0.73262654516E+02  0.12352616577E+03  0.18540923769E+03  0.78902845934E+02 0.  0.
          6    2    1    2  502    0  0.67841431645E+02  0.70229931797E+02  0.67636085207E+02  0.20973077427E+03  0.17285153886E+03 0.  0.
         24    2    5    5    0    0  0.10995977301E+03  0.47137138235E+02  0.68825366366E+02  0.16145307566E+03  0.83768150889E+02 0.  0.
          4    1    6    6  501    0  0.10240637788E+03  0.59871061277E+02  0.79848672013E+02  0.14299447763E+03  0.00000000000E+00 0. -1.
         -3    1    6    6    0  501  0.75533951264E+01 -0.12733923042E+02 -0.11023305647E+02  0.18458598033E+02  0.00000000000E+00 0.  1.
          5    1    5    5  502    0 -0.42118341363E+02  0.23092793563E+02 -0.11892811590E+01  0.48277698613E+02  0.47000000000E+01 0. -1.
         13    1    4    4    0    0 -0.25959972167E+02 -0.32536132375E+02  0.10037980899E+03  0.10866750258E+03  0.00000000000E+00 0. -1.
        -14    1    4    4    0    0 -0.60785610710E+02 -0.40726522141E+02  0.23146356775E+02  0.76741735106E+02  0.00000000000E+00 0.  1.
         -5    1    3    3    0  504  0.18904151233E+02  0.30327227188E+01 -0.37348563753E+02  0.42232328320E+02  0.47000000000E+01 0.  1.
<mgrwt>
<rscale>  2 0.20758742E+03</rscale>
<asrwt>0</asrwt>
<pdfrwt beam="1">  1       21 0.45475848E-01 0.21069908E+03</pdfrwt>
<pdfrwt beam="2">  1       21 0.21812204E-01 0.21069908E+03</pdfrwt>
<totfact> 0.90297538E+04</totfact>
</mgrwt>
</event>
<event>
12    1  0.2743855E-001  0.1948499E+03  0.7546771E-02  0.1154435E+00
         21   -1    0    0  502  503  0.00000000000E+00  0.00000000000E+00  0.84230634008E+02  0.84230634008E+02  0.00000000000E+00 0. -1.
         21   -1    0    0  503  504 -0.00000000000E+00 -0.00000000000E+00 -0.57255163151E+03  0.57255163151E+03  0.00000000000E+00 0. -1.
         -6    2    1    2    0  504 -0.81864576759E+02  0.37200558147E+02 -0.39680988593E+03  0.44151317742E+03  0.17143543919E+03 0.  0.
        -24    2    3    3    0    0 -0.75828073245E+02  0.78666847171E+02 -0.36349232114E+03  0.38777266548E+03  0.79388935181E+02 0.  0.
          6    2    1    2  502    0  0.81864576759E+02 -0.37200558147E+02 -0.91511111573E+02  0.21526908810E+03  0.17286065571E+03 0.  0.
         24    2    5    5    0    0 -0.24923586905E+02 -0.24683455987E+02 -0.38432113624E+02  0.95269672396E+02  0.79804918001E+02 0.  0.
          2    1    6    6  501    0  0.42729961087E+01  0.24768908513E+02  0.17254705442E+01  0.25193939217E+02  0.00000000000E+00 0. -1.
         -1    1    6    6    0  501 -0.29196583014E+02 -0.49452364500E+02 -0.40157584169E+02  0.70075733179E+02  0.00000000000E+00 0.  1.
          5    1    5    5  502    0  0.10678816366E+03 -0.12517102160E+02 -0.53078997949E+02  0.11999941570E+03  0.47000000000E+01 0. -1.
         11    1    4    4    0    0 -0.16138548010E+01 -0.14775242875E+02 -0.55983740894E+02  0.57923152312E+02  0.00000000000E+00 0. -1.
        -12    1    4    4    0    0 -0.74214218444E+02  0.93442090046E+02 -0.30750858025E+03  0.32984951317E+03  0.00000000000E+00 0.  1.
         -5    1    3    3    0  504 -0.60365035133E+01 -0.41466289024E+02 -0.33317564784E+02  0.53740511936E+02  0.47000000000E+01 0.  1.
<mgrwt>
<rscale>  2 0.19453335E+03</rscale>
<asrwt>0</asrwt>
<pdfrwt beam="1">  1       21 0.12958559E-01 0.19484993E+03</pdfrwt>
<pdfrwt beam="2">  1       21 0.88084870E-01 0.19484993E+03</pdfrwt>
<totfact> 0.56386916E+04</totfact>
</mgrwt>
</event>
<event>
12    1  0.2743855E-001  0.3171899E+03  0.7546771E-02  0.1076978E+00
         21   -1    0    0  502  503  0.00000000000E+00  0.00000000000E+00  0.10832037778E+04  0.10832037778E+04  0.00000000000E+00 0. -1.
         21   -1    0    0  503  504 -0.00000000000E+00 -0.00000000000E+00 -0.11197769784E+03  0.11197769784E+03  0.00000000000E+00 0. -1.
         -6    2    1    2    0  504 -0.23356211300E+03  0.12685219712E+03  0.23823016455E+03  0.39649980275E+03  0.17267235370E+03 0.  0.
        -24    2    3    3    0    0 -0.12611649299E+03  0.12825548318E+03  0.20244487319E+03  0.28314545767E+03  0.82659450432E+02 0.  0.
          6    2    1    2  502    0  0.23356211300E+03 -0.12685219712E+03  0.73299591538E+03  0.79868167287E+03  0.17310881571E+03 0.  0.
         24    2    5    5    0    0  0.23469990510E+03 -0.68951315182E+02  0.56572975971E+03  0.62161145084E+03  0.80698856671E+02 0.  0.
          4    1    6    6  501    0  0.19403283846E+03 -0.74944898578E+02  0.52034185306E+03  0.56037587767E+03  0.00000000000E+00 0. -1.
         -3    1    6    6    0  501  0.40667066645E+02  0.59935833963E+01  0.45387906648E+02  0.61235573169E+02  0.00000000000E+00 0.  1.
          5    1    5    5  502    0 -0.11377921038E+01 -0.57900881936E+02  0.16726615567E+03  0.17707022204E+03  0.47000000000E+01 0. -1.
         13    1    4    4    0    0 -0.13225295536E+03  0.11412013330E+03  0.20289070901E+03  0.26772913332E+03  0.00000000000E+00 0. -1.
        -14    1    4    4    0    0  0.61364623659E+01  0.14135349885E+02 -0.44583582507E+00  0.15416324345E+02  0.00000000000E+00 0.  1.
         -5    1    3    3    0  504 -0.10744562000E+03 -0.14032860663E+01  0.35785291364E+02  0.11335434508E+03  0.47000000000E+01 0.  1.
<mgrwt>
<rscale>  2 0.31713034E+03</rscale>
<asrwt>0</asrwt>
<pdfrwt beam="1">  1       21 0.16664673E+00 0.31718985E+03</pdfrwt>
<pdfrwt beam="2">  1       21 0.17227339E-01 0.31718985E+03</pdfrwt>
<totfact> 0.63209976E+03</totfact>
</mgrwt>
</event>
<event>
12    1  0.2743855E-001  0.2255691E+03  0.7546771E-02  0.1129851E+00
         21   -1    0    0  502  503  0.00000000000E+00  0.00000000000E+00  0.41274391555E+02  0.41274391555E+02  0.00000000000E+00 0. -1.
         21   -1    0    0  503  504 -0.00000000000E+00 -0.00000000000E+00 -0.12338627898E+04  0.12338627898E+04  0.00000000000E+00 0. -1.
         -6    2    1    2    0  504  0.60538251960E+02  0.13052013048E+03 -0.62573761561E+03  0.66505420914E+03  0.17334691546E+03 0.  0.
        -24    2    3    3    0    0 -0.35311040378E+01  0.12814778811E+03 -0.33958026352E+03  0.37176488009E+03  0.80374413822E+02 0.  0.
          6    2    1    2  502    0 -0.60538251960E+02 -0.13052013048E+03 -0.56685078263E+03  0.61008297221E+03  0.17372690866E+03 0.  0.
         24    2    5    5    0    0 -0.87914596936E+02 -0.71022063411E+02 -0.48535497192E+03  0.50542571535E+03  0.84336202908E+02 0.  0.
          2    1    6    6  501    0 -0.10237288482E+03 -0.69112869315E+02 -0.45872791516E+03  0.47506641261E+03  0.00000000000E+00 0. -1.
         -1    1    6    6    0  501  0.14458287881E+02 -0.19091940962E+01 -0.26627056769E+02  0.30359302737E+02  0.00000000000E+00 0.  1.
          5    1    5    5  502    0  0.27376344976E+02 -0.59498067072E+02 -0.81495810710E+02  0.10465725686E+03  0.47000000000E+01 0. -1.
         11    1    4    4    0    0  0.16842338920E+02  0.10255551481E+03 -0.31240240470E+03  0.32923632919E+03  0.00000000000E+00 0. -1.
        -12    1    4    4    0    0 -0.20373442958E+02  0.25592273304E+02 -0.27177858820E+02  0.42528550891E+02  0.00000000000E+00 0.  1.
         -5    1    3    3    0  504  0.64069355998E+02  0.23723423702E+01 -0.28615735209E+03  0.29328932906E+03  0.47000000000E+01 0.  1.
<mgrwt>
<rscale>  2 0.22549594E+03</rscale>
<asrwt>0</asrwt>
<pdfrwt beam="1">  1       21 0.63499065E-02 0.22556911E+03</pdfrwt>
<pdfrwt beam="2">  1       21 0.18982504E+00 0.22556911E+03</pdfrwt>
<totfact> 0.27366258E+04</totfact>
</mgrwt>
</event>
<event>
12    1  0.2743855E-001  0.1771404E+03  0.7546771E-02  0.1170844E+00
         21   -1    0    0  502  503  0.00000000000E+00  0.00000000000E+00  0.56004310311E+02  0.56004310311E+02  0.00000000000E+00 0. -1.
         21   -1    0    0  503  504 -0.00000000000E+00 -0.00000000000E+00 -0.70623166911E+03  0.70623166911E+03  0.00000000000E+00 0. -1.
         -6    2    1    2    0  504  0.10717660963E+02 -0.29444240548E+02 -0.50092025004E+03  0.53131895236E+03  0.17434706960E+03 0.  0.
        -24    2    3    3    0    0  0.30317907580E+02 -0.73750502941E+02 -0.43859263021E+03  0.45223648434E+03  0.76131664170E+02 0.  0.
          6    2    1    2  502    0 -0.10717660963E+02  0.29444240548E+02 -0.14930710876E+03  0.23091702706E+03  0.17334425027E+03 0.  0.
         24    2    5    5    0    0 -0.31264793207E+02 -0.88825728467E+01 -0.16091108399E+03  0.18566361272E+03  0.86730690881E+02 0.  0.
          2    1    6    6  501    0 -0.57201206347E+02 -0.79481392683E+01 -0.14274395532E+03  0.15398372545E+03  0.00000000000E+00 0. -1.
         -1    1    6    6    0  501  0.25936413140E+02 -0.93443357838E+00 -0.18167128678E+02  0.31679887264E+02  0.00000000000E+00 0.  1.
          5    1    5    5  502    0  0.20547132244E+02  0.38326813395E+02  0.11603975235E+02  0.45253414343E+02  0.47000000000E+01 0. -1.
         13    1    4    4    0    0 -0.21780175030E+02 -0.42203484140E+02 -0.23400172416E+03  0.23877252147E+03  0.00000000000E+00 0. -1.
        -14    1    4    4    0    0  0.52098082610E+02 -0.31547018802E+02 -0.20459090605E+03  0.21346396287E+03  0.00000000000E+00 0.  1.
         -5    1    3    3    0  504 -0.19600246617E+02  0.44306262393E+02 -0.62327619835E+02  0.79082468025E+02  0.47000000000E+01 0.  1.
<mgrwt>
<rscale>  2 0.17689318E+03</rscale>
<asrwt>0</asrwt>
<pdfrwt beam="1">  1       21 0.86160483E-02 0.17714043E+03</pdfrwt>
<pdfrwt beam="2">  1       21 0.10865102E+00 0.17714043E+03</pdfrwt>
<totfact> 0.71457686E+04</totfact>
</mgrwt>
</event>
<event>
12    1  0.2743855E-001  0.2043588E+03  0.7546771E-02  0.1146253E+00
         21   -1    0    0  502  503  0.00000000000E+00  0.00000000000E+00  0.10496887768E+04  0.10496887768E+04  0.00000000000E+00 0. -1.
         21   -1    0    0  503  504 -0.00000000000E+00 -0.00000000000E+00 -0.41513548662E+02  0.41513548662E+02  0.00000000000E+00 0. -1.
         -6    2    1    2    0  504 -0.10331734521E+03 -0.37937127038E+02  0.62040788567E+03  0.65319864993E+03  0.17218836267E+03 0.  0.
        -24    2    3    3    0    0 -0.62677042021E+02 -0.91618027029E+02  0.42480824235E+03  0.44628179771E+03  0.79894466155E+02 0.  0.
          6    2    1    2  502    0  0.10331734521E+03  0.37937127038E+02  0.38776734242E+03  0.43800367548E+03  0.17137680258E+03 0.  0.
         24    2    5    5    0    0  0.13368962484E+03  0.55674618566E+02  0.34289422833E+03  0.38079545628E+03  0.80350163447E+02 0.  0.
          2    1    6    6  501    0  0.13440153633E+03  0.57447605418E+02  0.34685720851E+03  0.37639596628E+03  0.00000000000E+00 0. -1.
         -1    1    6    6    0  501 -0.71191148946E+00 -0.17729868524E+01 -0.39629801856E+01  0.43994900044E+01  0.00000000000E+00 0.  1.
          5    1    5    5  502    0 -0.30372279628E+02 -0.17737491528E+02  0.44873114089E+02  0.57208219196E+02  0.47000000000E+01 0. -1.
         11    1    4    4    0    0 -0.62826723444E+02 -0.51149948877E+02  0.36623197903E+03  0.37508582606E+03  0.00000000000E+00 0. -1.
        -12    1    4    4    0    0  0.14968142288E+00 -0.40468078153E+02  0.58576263327E+02  0.71195971650E+02  0.00000000000E+00 0.  1.
         -5    1    3    3    0  504 -0.40640303187E+02  0.53680899992E+02  0.19559964332E+03  0.20691685222E+03  0.47000000000E+01 0.  1.
<mgrwt>
<rscale>  2 0.20418778E+03</rscale>
<asrwt>0</asrwt>
<pdfrwt beam="1">  1       21 0.16149056E+00 0.20435883E+03</pdfrwt>
<pdfrwt beam="2">  1       21 0.63867006E-02 0.20435883E+03</pdfrwt>
<totfact> 0.43179749E+04</totfact>
</mgrwt>
</event>
<event>
12    1  0.2743855E-001  0.1851636E+03  0.7546771E-02  0.1162997E+00
         21   -1    0    0  502  503  0.00000000000E+00  0.00000000000E+00  0.16544166210E+02  0.16544166210E+02  0.00000000000E+00 0. -1.
         21   -1    0    0  503  504 -0.00000000000E+00 -0.00000000000E+00 -0.23450354770E+04  0.23450354770E+04  0.00000000000E+00 0. -1.
         -6    2    1    2    0  504  0.53739876305E+02  0.41687308659E+02 -0.75691226061E+03  0.77913019448E+03  0.17176112388E+03 0.  0.
        -24    2    3    3    0    0  0.23277374459E+01  0.79800125002E+02 -0.51183123614E+03  0.52578735691E+03  0.90042501549E+02 0.  0.
          6    2    1    2  502    0 -0.53739876305E+02 -0.41687308659E+02 -0.15715790501E+04  0.15824494487E+04  0.17222003607E+03 0.  0.
         24    2    5    5    0    0 -0.96325656542E+02  0.54237588895E+01 -0.10813658149E+04  0.10881174678E+04  0.73072216009E+02 0.  0.
          2    1    6    6  501    0 -0.86901707050E+02 -0.21499400855E+02 -0.70282471810E+03  0.70850315123E+03  0.00000000000E+00 0. -1.
         -1    1    6    6    0  501 -0.94239494924E+01  0.26923159744E+02 -0.37854109681E+03  0.37961431655E+03  0.00000000000E+00 0.  1.
          5    1    5    5  502    0  0.42585780237E+02 -0.47111067549E+02 -0.49021323522E+03  0.49433198091E+03  0.47000000000E+01 0. -1.
         13    1    4    4    0    0 -0.10292273289E+02  0.68518899364E+02 -0.17055750053E+03  0.18409408313E+03  0.00000000000E+00 0. -1.
        -14    1    4    4    0    0  0.12620010735E+02  0.11281225638E+02 -0.34127373562E+03  0.34169327378E+03  0.00000000000E+00 0.  1.
         -5    1    3    3    0  504  0.51412138859E+02 -0.38112816343E+02 -0.24508102447E+03  0.25334283757E+03  0.47000000000E+01 0.  1.
<mgrwt>
<rscale>  2 0.18505679E+03</rscale>
<asrwt>0</asrwt>
<pdfrwt beam="1">  1       21 0.25452561E-02 0.18516357E+03</pdfrwt>
<pdfrwt beam="2">  1       21 0.36077472E+00 0.18516357E+03</pdfrwt>
<totfact> 0.12639901E+04</totfact>
</mgrwt>
</event>
<event>
12    1  0.2743855E-001  0.2111530E+03  0.7546771E-02  0.1141483E+00
         21   -1    0    0  502  503  0.00000000000E+00  0.00000000000E+00  0.21269926366E+03  0.21269926366E+03  0.00000000000E+00 0. -1.
         21   -1    0    0  503  504 -0.00000000000E+00 -0.00000000000E+00 -0.23053239593E+03  0.23053239593E+03  0.00000000000E+00 0. -1.
         -6    2    1    2    0  504 -0.59547296288E+02 -0.10365962397E+03 -0.82006735693E+02  0.22651859873E+03  0.17405278721E+03 0.  0.
        -24    2    3    3    0    0 -0.83945069294E+02 -0.15922541842E+02 -0.55960843334E+02  0.13168439912E+03  0.83119570425E+02 0.  0.
          6    2    1    2  502    0  0.59547296288E+02  0.10365962397E+03  0.64173603423E+02  0.21671306085E+03  0.16898254712E+03 0.  0.
         24    2    5    5    0    0 -0.33181925426E+02  0.45899502271E+02  0.26324801218E+02  0.10099978570E+03  0.79373528764E+02 0.  0.
          2    1    6    6  501    0 -0.30558485109E+02  0.45022691753E+02 -0.17445622677E+02  0.57142047001E+02  0.00000000000E+00 0. -1.
         -1    1    6    6    0  501 -0.26234403170E+01  0.87681051733E+00  0.43770423895E+02  0.43857738699E+02  0.00000000000E+00 0.  1.
          5    1    5    5  502    0  0.92729221714E+02  0.57760121697E+02  0.37848802205E+02  0.11571327515E+03  0.47000000000E+01 0. -1.
         11    1    4    4    0    0 -0.44350335479E+02 -0.49808765616E+02 -0.36702495755E+02  0.76124493981E+02  0.00000000000E+00 0. -1.
        -12    1    4    4    0    0 -0.39594733815E+02  0.33886223774E+02 -0.19258347580E+02  0.55559905139E+02  0.00000000000E+00 0.  1.
         -5    1    3    3    0  504  0.24397773006E+02 -0.87737082126E+02 -0.26045892359E+02  0.94834199614E+02  0.47000000000E+01 0.  1.
<mgrwt>
<rscale>  2 0.21010532E+03</rscale>
<asrwt>0</asrwt>
<pdfrwt beam="1">  1       21 0.32722964E-01 0.21115296E+03</pdfrwt>
<pdfrwt beam="2">  1       21 0.35466522E-01 0.21115296E+03</pdfrwt>
<totfact> 0.68335219E+04</totfact>
</mgrwt>
</event>
<event>
12    1  0.2743855E-001  0.2326687E+03  0.7546771E-02  0.1126399E+00
         21   -1    0    0  502  503  0.00000000000E+00  0.00000000000E+00  0.56639812676E+03  0.56639812676E+03  0.00000000000E+00 0. -1.
         21   -1    0    0  503  504 -0.00000000000E+00 -0.00000000000E+00 -0.12249800700E+03  0.12249800700E+03  0.00000000000E+00 0.  1.
         -6    2    1    2    0  504  0.12454875412E+03  0.68576168826E+02  0.53025856281E+02  0.23863453677E+03  0.18417279284E+03 0.  0.
        -24    2    3    3    0    0  0.11736163518E+03  0.67199357741E+02  0.10285873627E+03  0.18804841006E+03  0.80577774899E+02 0.  0.
          6    2    1    2  502    0 -0.12454875412E+03 -0.68576168826E+02  0.39087426348E+03  0.45026159699E+03  0.17244631857E+03 0.  0.
         24    2    5    5    0    0 -0.12834133940E+03 -0.95348633061E+02  0.25992787498E+03  0.31646998587E+03  0.83832514818E+02 0.  0.
          2    1    6    6  501    0 -0.20049127883E+02  0.12611005681E+02  0.61887392932E+02  0.66265031480E+02  0.00000000000E+00 0. -1.
         -1    1    6    6    0  501 -0.10829221151E+03 -0.10795963874E+03  0.19804048205E+03  0.25020495439E+03  0.00000000000E+00 0.  1.
          5    1    5    5  502    0  0.37925852810E+01  0.26772464236E+02  0.13094638850E+03  0.13379161112E+03  0.47000000000E+01 0. -1.
         13    1    4    4    0    0  0.17354252662E+02  0.48371697023E+02  0.56023617135E+02  0.76023922782E+02  0.00000000000E+00 0. -1.
        -14    1    4    4    0    0  0.10000738252E+03  0.18827660718E+02  0.46835119133E+02  0.11202448728E+03  0.00000000000E+00 0.  1.
         -5    1    3    3    0  504  0.71871189347E+01  0.13768110848E+01 -0.49832879987E+02  0.50586126706E+02  0.47000000000E+01 0.  1.
<mgrwt>
<rscale>  2 0.23034214E+03</rscale>
<asrwt>0</asrwt>
<pdfrwt beam="1">  1       21 0.87138172E-01 0.23266865E+03</pdfrwt>
<pdfrwt beam="2">  1       21 0.18845847E-01 0.23266865E+03</pdfrwt>
<totfact> 0.28564062E+04</totfact>
</mgrwt>
</event>
<event>
12    1  0.2743855E-001  0.1804563E+03  0.7546771E-02  0.1167812E+00
         21   -1    0    0  502  503  0.00000000000E+00  0.00000000000E+00  0.10453159968E+03  0.10453159968E+03  0.00000000000E+00 0.  1.
         21   -1    0    0  503  504 -0.00000000000E+00 -0.00000000000E+00 -0.31476050703E+03  0.31476050703E+03  0.00000000000E+00 0.  1.
         -6    2    1    2    0  504  0.33364111763E+02  0.34511297962E+02 -0.75691410130E+02  0.19568771099E+03  0.17395487066E+03 0.  0.
        -24    2    3    3    0    0 -0.47276447798E+02  0.92283999464E+01 -0.40559502426E+02  0.10404456768E+03  0.82824953629E+02 0.  0.
          6    2    1    2  502    0 -0.33364111763E+02 -0.34511297962E+02 -0.13453749722E+03  0.22360439571E+03  0.17203021241E+03 0.  0.
         24    2    5    5    0    0 -0.55963132798E+02  0.25676647339E+02 -0.40104021837E+02  0.10926684377E+03  0.80868709205E+02 0.  0.
          2    1    6    6  501    0 -0.47126362115E+02  0.48839613718E+02 -0.74624726872E+01  0.68278037266E+02  0.00000000000E+00 0. -1.
         -1    1    6    6    0  501 -0.88367706828E+01 -0.23162966379E+02 -0.32641549150E+02  0.40988806502E+02  0.00000000000E+00 0.  1.
          5    1    5    5  502    0  0.22599021036E+02 -0.60187945301E+02 -0.94433475384E+02  0.11433755194E+03  0.47000000000E+01 0. -1.
         13    1    4    4    0    0  0.84770817376E+01  0.89651591006E+01  0.18876511699E+02  0.22551223612E+02  0.00000000000E+00 0. -1.
        -14    1    4    4    0    0 -0.55753529536E+02  0.26324084581E+00 -0.59436014126E+02  0.81493344063E+02  0.00000000000E+00 0.  1.
         -5    1    3    3    0  504  0.80640559561E+02  0.25282898016E+02 -0.35131907704E+02  0.91643143318E+02  0.47000000000E+01 0.  1.
<mgrwt>
<rscale>  2 0.17999090E+03</rscale>
<asrwt>0</asrwt>
<pdfrwt beam="1">  1       21 0.16081785E-01 0.18045634E+03</pdfrwt>
<pdfrwt beam="2">  1       21 0.48424693E-01 0.18045634E+03</pdfrwt>
<totfact> 0.14126410E+05</totfact>
</mgrwt>
</event>
<event>
12    1  0.2743855E-001  0.2118711E+03  0.7546771E-02  0.1140603E+00
         21   -1    0    0  502  503  0.00000000000E+00  0.00000000000E+00  0.13273926569E+03  0.13273926569E+03  0.00000000000E+00 0.  1.
         21   -1    0    0  503  504 -0.00000000000E+00 -0.00000000000E+00 -0.57339191146E+03  0.57339191146E+03  0.00000000000E+00 0.  1.
         -6    2    1    2    0  504  0.94971446846E+02  0.73473093664E+02 -0.44763839486E+03  0.49414495562E+03  0.17140954878E+03 0.  0.
        -24    2    3    3    0    0 -0.12893528494E+02  0.69590088585E+01 -0.14461671971E+03  0.16565872762E+03  0.79461610445E+02 0.  0.
          6    2    1    2  502    0 -0.94971446846E+02 -0.73473093664E+02  0.69857490770E+01  0.21198622153E+03  0.17456083816E+03 0.  0.
         24    2    5    5    0    0  0.41291643875E+01  0.35766219678E+01 -0.20960589940E+02  0.83297924894E+02  0.80432305312E+02 0.  0.
          2    1    6    6  501    0 -0.24039925498E+02  0.19757314288E+02 -0.35928194705E+02  0.47530039559E+02  0.00000000000E+00 0. -1.
         -1    1    6    6    0  501  0.28169089885E+02 -0.16180692320E+02  0.14967604765E+02  0.35767885334E+02  0.00000000000E+00 0.  1.
          5    1    5    5  502    0 -0.99100611234E+02 -0.77049715631E+02  0.27946339017E+02  0.12868829663E+03  0.47000000000E+01 0. -1.
         11    1    4    4    0    0 -0.35622934424E+02  0.27764000497E+02 -0.56643997427E+02  0.72445673612E+02  0.00000000000E+00 0. -1.
        -12    1    4    4    0    0  0.22729405930E+02 -0.20804991638E+02 -0.87972722282E+02  0.93213054004E+02  0.00000000000E+00 0.  1.
         -5    1    3    3    0  504  0.10786497534E+03  0.66514084805E+02 -0.30302167515E+03  0.32848622801E+03  0.47000000000E+01 0.  1.
<mgrwt>
<rscale>  2 0.21122092E+03</rscale>
<asrwt>0</asrwt>
<pdfrwt beam="1">  1       21 0.20421425E-01 0.21187109E+03</pdfrwt>
<pdfrwt beam="2">  1       21 0.88214141E-01 0.21187109E+03</pdfrwt>
<totfact> 0.24156562E+04</totfact>
</mgrwt>
</event>
<event>
12    1  0.2743855E-001  0.2073315E+03  0.7546771E-02  0.1143782E+00
         21   -1    0    0  502  503  0.00000000000E+00  0.00000000000E+00  0.22067634238E+03  0.22067634238E+03  0.00000000000E+00 0. -1.
         21   -1    0    0  503  504 -0.00000000000E+00 -0.00000000000E+00 -0.22059392556E+03  0.22059392556E+03  0.00000000000E+00 0. -1.
         -6    2    1    2    0  504  0.97121557320E+01 -0.11370162099E+03 -0.75991512582E+02  0.22042285595E+03  0.17259530948E+03 0.  0.
        -24    2    3    3    0    0 -0.43062854632E+02 -0.10563505160E+03 -0.15333821803E+02  0.13948018048E+03  0.78780842093E+02 0.  0.
          6    2    1    2  502    0 -0.97121557320E+01  0.11370162099E+03  0.76073929402E+02  0.22084741198E+03  0.17310098804E+03 0.  0.
         24    2    5    5    0    0 -0.66663378038E+02  0.55919497073E+02  0.13976160620E+02  0.11857112708E+03  0.79327063392E+02 0.  0.
          2    1    6    6  501    0 -0.50018522896E+02  0.52044374211E+02  0.43630243205E+02  0.84344932520E+02  0.00000000000E+00 0. -1.
         -1    1    6    6    0  501 -0.16644855142E+02  0.38751228621E+01 -0.29654082585E+02  0.34226194557E+02  0.00000000000E+00 0.  1.
          5    1    5    5  502    0  0.56951222306E+02  0.57782123918E+02  0.62097768782E+02  0.10227628491E+03  0.47000000000E+01 0. -1.
         11    1    4    4    0    0 -0.15469184714E+02 -0.94673008211E+02 -0.36902454769E+02  0.10278163906E+03  0.00000000000E+00 0. -1.
        -12    1    4    4    0    0 -0.27593669918E+02 -0.10962043390E+02  0.21568632965E+02  0.36698541426E+02  0.00000000000E+00 0.  1.
         -5    1    3    3    0  504  0.52775010364E+02 -0.80665693895E+01 -0.60657690779E+02  0.80942675464E+02  0.47000000000E+01 0.  1.
<mgrwt>
<rscale>  2 0.20722588E+03</rscale>
<asrwt>0</asrwt>
<pdfrwt beam="1">  1       21 0.33950207E-01 0.20733147E+03</pdfrwt>
<pdfrwt beam="2">  1       21 0.33937527E-01 0.20733147E+03</pdfrwt>
<totfact> 0.69465950E+04</totfact>
</mgrwt>
</event>
<event>
12    1  0.2743855E-001  0.1768060E+03  0.7546771E-02  0.1171292E+00
         21   -1    0    0  502  503  0.00000000000E+00  0.00000000000E+00  0.51741270330E+03  0.51741270330E+03  0.00000000000E+00 0.  1.
         21   -1    0    0  503  504 -0.00000000000E+00 -0.00000000000E+00 -0.59957597410E+02  0.59957597410E+02  0.00000000000E+00 0.  1.
         -6    2    1    2    0  504 -0.25453552985E+02  0.54449025629E+01  0.22259526086E+03  0.28426928405E+03  0.17487951674E+03 0.  0.
        -24    2    3    3    0    0  0.46594375749E+02  0.28369574357E+02  0.15378475341E+03  0.18192955302E+03  0.80453360904E+02 0.  0.
          6    2    1    2  502    0  0.25453552985E+02 -0.54449025629E+01  0.23485984503E+03  0.29310101666E+03  0.17341144378E+03 0.  0.
         24    2    5    5    0    0  0.13956348434E+02  0.52945601811E+02  0.20361111445E+03  0.22571993714E+03  0.80585282060E+02 0.  0.
          4    1    6    6  501    0 -0.19856524892E+02  0.36397931362E+02  0.39216931391E+02  0.57070646535E+02  0.00000000000E+00 0. -1.
         -3    1    6    6    0  501  0.33812873326E+02  0.16547670449E+02  0.16439418306E+03  0.16864929061E+03  0.00000000000E+00 0.  1.
          5    1    5    5  502    0  0.11497204551E+02 -0.58390504374E+02  0.31248730584E+02  0.67381079515E+02  0.47000000000E+01 0. -1.
         11    1    4    4    0    0 -0.11866546466E+02 -0.59245316916E+01  0.82527392701E+02  0.83586395704E+02  0.00000000000E+00 0. -1.
        -12    1    4    4    0    0  0.58460922216E+02  0.34294106049E+02  0.71257360710E+02  0.98343157318E+02  0.00000000000E+00 0.  1.
         -5    1    3    3    0  504 -0.72047928735E+02 -0.22924671795E+02  0.68810507446E+02  0.10233973103E+03  0.47000000000E+01 0.  1.
<mgrwt>
<rscale>  2 0.17644193E+03</rscale>
<asrwt>0</asrwt>
<pdfrwt beam="1">  1       21 0.79601951E-01 0.17680604E+03</pdfrwt>
<pdfrwt beam="2">  1       21 0.92242461E-02 0.17680604E+03</pdfrwt>
<totfact> 0.13087212E+05</totfact>
</mgrwt>
</event>
<event>
12    1  0.2743855E-001  0.2090175E+03  0.7546771E-02  0.1143403E+00
         21   -1    0    0  502  503  0.00000000000E+00  0.00000000000E+00  0.45832273420E+02  0.45832273420E+02  0.00000000000E+00 0.  1.
         21   -1    0    0  503  504 -0.00000000000E+00 -0.00000000000E+00 -0.15093304926E+04  0.15093304926E+04  0.00000000000E+00 0. -1.
         -6    2    1    2    0  504  0.85900415003E+01 -0.10218647593E+03 -0.12193946927E+04  0.12371789377E+04  0.18213303539E+03 0.  0.
        -24    2    3    3    0    0 -0.12526779737E+01 -0.32260036139E+02 -0.10492880995E+04  0.10529374408E+04  0.81421492504E+02 0.  0.
          6    2    1    2  502    0 -0.85900415003E+01  0.10218647593E+03 -0.24410352644E+03  0.31798382830E+03  0.17610030881E+03 0.  0.
         24    2    5    5    0    0  0.63762202570E+02  0.77669373298E+02 -0.15308869865E+03  0.19906484571E+03  0.78054552184E+02 0.  0.
          2    1    6    6  501    0  0.54517961708E+02  0.21265633726E+02 -0.11875220236E+03  0.13238776716E+03  0.00000000000E+00 0. -1.
         -1    1    6    6    0  501  0.92442408626E+01  0.56403739572E+02 -0.34336496289E+02  0.66677078552E+02  0.00000000000E+00 0.  1.
          5    1    5    5  502    0 -0.72352244071E+02  0.24517102627E+02 -0.91014827784E+02  0.11891898259E+03  0.47000000000E+01 0. -1.
         13    1    4    4    0    0  0.48973071559E+01 -0.58181488915E+02 -0.82700834377E+03  0.82906686699E+03  0.00000000000E+00 0. -1.
        -14    1    4    4    0    0 -0.61499851297E+01  0.25921452776E+02 -0.22227975572E+03  0.22387057385E+03  0.00000000000E+00 0.  1.
         -5    1    3    3    0  504  0.98427194741E+01 -0.69926439787E+02 -0.17010659324E+03  0.18424149687E+03  0.47000000000E+01 0.  1.
<mgrwt>
<rscale>  2 0.20769618E+03</rscale>
<asrwt>0</asrwt>
<pdfrwt beam="1">  1       21 0.70511193E-02 0.20901748E+03</pdfrwt>
<pdfrwt beam="2">  1       21 0.23220468E+00 0.20901748E+03</pdfrwt>
<totfact> 0.12491678E+04</totfact>
</mgrwt>
</event>
<event>
12    1  0.2743855E-001  0.2433219E+03  0.7546771E-02  0.1117708E+00
         21   -1    0    0  502  503  0.00000000000E+00  0.00000000000E+00  0.50847297520E+03  0.50847297520E+03  0.00000000000E+00 0.  1.
         21   -1    0    0  503  504 -0.00000000000E+00 -0.00000000000E+00 -0.16491477908E+03  0.16491477908E+03  0.00000000000E+00 0.  1.
         -6    2    1    2    0  504  0.31522494806E+02 -0.16662271938E+03 -0.11197886751E+02  0.24357942679E+03  0.17449569106E+03 0.  0.
        -24    2    3    3    0    0  0.42370334353E+02 -0.16092828405E+02  0.32170972463E+01  0.91899482626E+02  0.79880791389E+02 0.  0.
          6    2    1    2  502    0 -0.31522494806E+02  0.16662271938E+03  0.35475608287E+03  0.42980832749E+03  0.17356993334E+03 0.  0.
         24    2    5    5    0    0  0.83661648095E+01  0.14992924368E+02  0.15711989742E+03  0.17748937914E+03  0.80752938317E+02 0.  0.
          4    1    6    6  501    0  0.19363178134E+02  0.72925979137E+00  0.36617654676E-01  0.19376940629E+02  0.00000000000E+00 0. -1.
         -3    1    6    6    0  501 -0.10997013324E+02  0.14263664577E+02  0.15708327977E+03  0.15811243851E+03  0.00000000000E+00 0.  1.
          5    1    5    5  502    0 -0.39888659615E+02  0.15162979501E+03  0.19763618544E+03  0.25231894835E+03  0.47000000000E+01 0. -1.
         11    1    4    4    0    0 -0.11750413239E+02 -0.26498423131E+01  0.28296927815E+02  0.30754024116E+02  0.00000000000E+00 0. -1.
        -12    1    4    4    0    0  0.54120747592E+02 -0.13442986092E+02 -0.25079830569E+02  0.61145458509E+02  0.00000000000E+00 0.  1.
         -5    1    3    3    0  504 -0.10847839547E+02 -0.15052989097E+03 -0.14414983997E+02  0.15167994417E+03  0.47000000000E+01 0.  1.
<mgrwt>
<rscale>  2 0.24315597E+03</rscale>
<asrwt>0</asrwt>
<pdfrwt beam="1">  1       21 0.78226611E-01 0.24332189E+03</pdfrwt>
<pdfrwt beam="2">  1       21 0.25371505E-01 0.24332189E+03</pdfrwt>
<totfact> 0.20711443E+04</totfact>
</mgrwt>
</event>
<event>
12    1  0.2743855E-001  0.2005547E+03  0.7546771E-02  0.1150426E+00
         21   -1    0    0  502  503  0.00000000000E+00  0.00000000000E+00  0.11297157670E+03  0.11297157670E+03  0.00000000000E+00 0. -1.
         21   -1    0    0  503  504 -0.00000000000E+00 -0.00000000000E+00 -0.76662625738E+03  0.76662625738E+03  0.00000000000E+00 0. -1.
         -6    2    1    2    0  504 -0.88654698259E+02 -0.10590410663E+02 -0.65441237620E+03  0.68445435449E+03  0.17958394399E+03 0.  0.
        -24    2    3    3    0    0 -0.10232098338E+03 -0.39976026541E+00 -0.26530762488E+03  0.29494798201E+03  0.78335386800E+02 0.  0.
          6    2    1    2  502    0  0.88654698259E+02  0.10590410663E+02  0.75769551490E+00  0.19514347959E+03  0.17351827339E+03 0.  0.
         24    2    5    5    0    0  0.10929406114E+03 -0.39451460906E+02 -0.71903858444E+00  0.14078869181E+03  0.79494208321E+02 0.  0.
          4    1    6    6  501    0  0.77494439812E+02  0.10048508848E+02  0.15703469955E+02  0.79705455901E+02  0.00000000000E+00 0. -1.
         -3    1    6    6    0  501  0.31799621332E+02 -0.49499969754E+02 -0.16422508539E+02  0.61083235910E+02  0.00000000000E+00 0.  1.
          5    1    5    5  502    0 -0.20639362885E+02  0.50041871569E+02  0.14767340993E+01  0.54354787775E+02  0.47000000000E+01 0. -1.
         13    1    4    4    0    0 -0.59645096817E+02  0.34529956196E+02 -0.18593910389E+03  0.19830079628E+03  0.00000000000E+00 0. -1.
        -14    1    4    4    0    0 -0.42675886562E+02 -0.34929716461E+02 -0.79368520990E+02  0.96647185733E+02  0.00000000000E+00 0.  1.
         -5    1    3    3    0  504  0.13666285120E+02 -0.10190650398E+02 -0.38910475131E+03  0.38950637248E+03  0.47000000000E+01 0.  1.
<mgrwt>
<rscale>  2 0.19918764E+03</rscale>
<asrwt>0</asrwt>
<pdfrwt beam="1">  1       21 0.17380243E-01 0.20055474E+03</pdfrwt>
<pdfrwt beam="2">  1       21 0.11794250E+00 0.20055474E+03</pdfrwt>
<totfact> 0.16422092E+04</totfact>
</mgrwt>
</event>
<event>
12    1  0.2743855E-001  0.2886157E+03  0.7546771E-02  0.1091282E+00
         21   -1    0    0  502  503  0.00000000000E+00  0.00000000000E+00  0.23370010353E+03  0.23370010353E+03  0.00000000000E+00 0. -1.
         21   -1    0    0  503  504 -0.00000000000E+00 -0.00000000000E+00 -0.53986327284E+03  0.53986327284E+03  0.00000000000E+00 0. -1.
         -6    2    1    2    0  504  0.16091263042E+03  0.16283687570E+03 -0.37945264902E+03  0.47578765870E+03  0.17314982127E+03 0.  0.
        -24    2    3    3    0    0  0.80581412524E+02  0.85384498356E+02 -0.31897655439E+03  0.34877811833E+03  0.78206502070E+02 0.  0.
          6    2    1    2  502    0 -0.16091263042E+03 -0.16283687570E+03  0.73289479705E+02  0.29777571768E+03  0.17575638676E+03 0.  0.
         24    2    5    5    0    0 -0.20182774114E+02 -0.26615706252E+02 -0.87741935640E+01  0.85366593740E+02  0.78068743194E+02 0.  0.
          4    1    6    6  501    0 -0.16213208198E+02 -0.49234360280E+02 -0.24701016889E+02  0.57419775231E+02  0.00000000000E+00 0. -1.
         -3    1    6    6    0  501 -0.39695659164E+01  0.22618654027E+02  0.15926823325E+02  0.27946818509E+02  0.00000000000E+00 0.  1.
          5    1    5    5  502    0 -0.14072985631E+03 -0.13622116944E+03  0.82063673269E+02  0.21240912394E+03  0.47000000000E+01 0. -1.
         11    1    4    4    0    0 -0.10190007382E+02  0.25015862639E+02 -0.32490931896E+02  0.42252695648E+02  0.00000000000E+00 0. -1.
        -12    1    4    4    0    0  0.90771419906E+02  0.60368635716E+02 -0.28648562250E+03  0.30652542268E+03  0.00000000000E+00 0.  1.
         -5    1    3    3    0  504  0.80331217897E+02  0.77452377340E+02 -0.60476094626E+02  0.12700954037E+03  0.47000000000E+01 0.  1.
<mgrwt>
<rscale>  2 0.28821994E+03</rscale>
<asrwt>0</asrwt>
<pdfrwt beam="1">  1       21 0.35953862E-01 0.28861571E+03</pdfrwt>
<pdfrwt beam="2">  1       21 0.83055887E-01 0.28861571E+03</pdfrwt>
<totfact> 0.89027211E+03</totfact>
</mgrwt>
</event>
<event>
12    1  0.2743855E-001  0.4743251E+03  0.7546771E-02  0.1020762E+00
         21   -1    0    0  502  503  0.00000000000E+00  0.00000000000E+00  0.76562733018E+03  0.76562733018E+03  0.00000000000E+00 0. -1.
         21   -1    0    0  503  504 -0.00000000000E+00 -0.00000000000E+00 -0.30388848688E+03  0.30388848688E+03  0.00000000000E+00 0.  1.
         -6    2    1    2    0  504  0.25913485380E+02 -0.44030540819E+03  0.13154503895E+03  0.49222794817E+03  0.17448178838E+03 0.  0.
        -24    2    3    3    0    0  0.60024349656E+02 -0.13894582277E+03  0.49564160411E+02  0.17802402516E+03  0.79542965242E+02 0.  0.
          6    2    1    2  502    0 -0.25913485380E+02  0.44030540819E+03  0.33019380435E+03  0.57728786889E+03  0.17231649348E+03 0.  0.
         24    2    5    5    0    0  0.21936158447E+02  0.10322317464E+03  0.82789495416E+02  0.15640189541E+03  0.80443977437E+02 0.  0.
          2    1    6    6  501    0  0.16585293269E+02  0.10540431004E+03  0.41146395982E+02  0.11435981125E+03  0.00000000000E+00 0. -1.
         -1    1    6    6    0  501  0.53508651782E+01 -0.21811353976E+01  0.41643099434E+02  0.42042084157E+02  0.00000000000E+00 0.  1.
          5    1    5    5  502    0 -0.47849643827E+02  0.33708223355E+03  0.24740430894E+03  0.42088597348E+03  0.47000000000E+01 0. -1.
         13    1    4    4    0    0 -0.78254191718E+01 -0.70368492830E+00  0.19633476912E+02  0.21147240325E+02  0.00000000000E+00 0. -1.
        -14    1    4    4    0    0  0.67849768828E+02 -0.13824213784E+03  0.29930683498E+02  0.15687678483E+03  0.00000000000E+00 0.  1.
         -5    1    3    3    0  504 -0.34110864277E+02 -0.30135958542E+03  0.81980878536E+02  0.31420392301E+03  0.47000000000E+01 0.  1.
<mgrwt>
<rscale>  2 0.47412687E+03</rscale>
<asrwt>0</asrwt>
<pdfrwt beam="1">  1       21 0.11778882E+00 0.47432505E+03</pdfrwt>
<pdfrwt beam="2">  1       21 0.46752075E-01 0.47432505E+03</pdfrwt>
<totfact> 0.20678289E+03</totfact>
</mgrwt>
</event>
<event>
12    1  0.2743855E-001  0.1813923E+03  0.7546771E-02  0.1166640E+00
         21   -1    0    0  502  503  0.00000000000E+00  0.00000000000E+00  0.63957991237E+03  0.63957991237E+03  0.00000000000E+00 0. -1.
         21   -1    0    0  503  504 -0.00000000000E+00 -0.00000000000E+00 -0.85247591207E+02  0.85247591207E+02  0.00000000000E+00 0. -1.
         -6    2    1    2    0  504 -0.19326070182E+02  0.52671985055E+02  0.47908141078E+02  0.18689757040E+03  0.17171976252E+03 0.  0.
        -24    2    3    3    0    0 -0.73515228109E+02  0.50333737076E+02  0.97265186752E+01  0.12040051385E+03  0.80397168595E+02 0.  0.
          6    2    1    2  502    0  0.19326070182E+02 -0.52671985055E+02  0.50642418008E+03  0.53792993317E+03  0.17249732703E+03 0.  0.
         24    2    5    5    0    0  0.32032814838E+02 -0.80609037375E+02  0.22192400815E+03  0.25174052373E+03  0.81234892492E+02 0.  0.
          4    1    6    6  501    0  0.32923782028E+02 -0.78186683421E+02  0.22899963114E+03  0.24420885314E+03  0.00000000000E+00 0. -1.
         -3    1    6    6    0  501 -0.89096718995E+00 -0.24223539545E+01 -0.70756229877E+01  0.75316705902E+01  0.00000000000E+00 0.  1.
          5    1    5    5  502    0 -0.12706744655E+02  0.27937052320E+02  0.28450017193E+03  0.28618940945E+03  0.47000000000E+01 0. -1.
         11    1    4    4    0    0 -0.54116077960E+02  0.15039483444E+02  0.40892199097E+02  0.69475951976E+02  0.00000000000E+00 0. -1.
        -12    1    4    4    0    0 -0.19399150149E+02  0.35294253632E+02 -0.31165680422E+02  0.50924561874E+02  0.00000000000E+00 0.  1.
         -5    1    3    3    0  504  0.54189157926E+02  0.23382479784E+01  0.38181622403E+02  0.66497056549E+02  0.47000000000E+01 0.  1.
<mgrwt>
<rscale>  2 0.18120719E+03</rscale>
<asrwt>0</asrwt>
<pdfrwt beam="1">  1       21 0.98396907E-01 0.18139229E+03</pdfrwt>
<pdfrwt beam="2">  1       21 0.13115014E-01 0.18139229E+03</pdfrwt>
<totfact> 0.42922014E+04</totfact>
</mgrwt>
</event>
<event>
12    1  0.2743855E-001  0.1814609E+03  0.7546771E-02  0.1166756E+00
         21   -1    0    0  502  503  0.00000000000E+00  0.00000000000E+00  0.24868410581E+02  0.24868410581E+02  0.00000000000E+00 0.  1.
         21   -1    0    0  503  504 -0.00000000000E+00 -0.00000000000E+00 -0.13964018769E+04  0.13964018769E+04  0.00000000000E+00 0.  1.
         -6    2    1    2    0  504  0.34477087179E+02  0.34562557250E+02 -0.86189536460E+03  0.88079036363E+03  0.17477072191E+03 0.  0.
        -24    2    3    3    0    0  0.45167025368E+02 -0.41012617831E+02 -0.39668711852E+03  0.40933868626E+03  0.80469839516E+02 0.  0.
          6    2    1    2  502    0 -0.34477087179E+02 -0.34562557250E+02 -0.50963810169E+03  0.54047992383E+03  0.17321753219E+03 0.  0.
         24    2    5    5    0    0  0.26020485651E+02 -0.89037573982E+01 -0.13165532299E+03  0.15679854387E+03  0.80599731508E+02 0.  0.
          4    1    6    6  501    0 -0.21528325602E+02 -0.26783141097E+02 -0.53377460156E+02  0.63481955727E+02  0.00000000000E+00 0. -1.
         -3    1    6    6    0  501  0.47548811253E+02  0.17879383699E+02 -0.78277862829E+02  0.93316588140E+02  0.00000000000E+00 0.  1.
          5    1    5    5  502    0 -0.60497572830E+02 -0.25658799852E+02 -0.37798277871E+03  0.38368137996E+03  0.47000000000E+01 0. -1.
         11    1    4    4    0    0  0.35043065293E+02  0.43380849340E+01 -0.29993884351E+03  0.30201017409E+03  0.00000000000E+00 0. -1.
        -12    1    4    4    0    0  0.10123960075E+02 -0.45350702765E+02 -0.96748275006E+02  0.10732851217E+03  0.00000000000E+00 0.  1.
         -5    1    3    3    0  504 -0.10689938189E+02  0.75575175082E+02 -0.46520824608E+03  0.47145167736E+03  0.47000000000E+01 0.  1.
<mgrwt>
<rscale>  2 0.18108584E+03</rscale>
<asrwt>0</asrwt>
<pdfrwt beam="1">  1       21 0.38259091E-02 0.18146086E+03</pdfrwt>
<pdfrwt beam="2">  1       21 0.21483107E+00 0.18146086E+03</pdfrwt>
<totfact> 0.46066231E+04</totfact>
</mgrwt>
</event>
<event>
12    1  0.2743855E-001  0.1890249E+03  0.7546771E-02  0.1159671E+00
         21   -1    0    0  502  503  0.00000000000E+00  0.00000000000E+00  0.27319912687E+02  0.27319912687E+02  0.00000000000E+00 0.  1.
         21   -1    0    0  503  504 -0.00000000000E+00 -0.00000000000E+00 -0.13986827764E+04  0.13986827764E+04  0.00000000000E+00 0. -1.
         -6    2    1    2    0  504  0.72082966535E+02 -0.10257221542E+02 -0.87945407168E+03  0.89953869856E+03  0.17443979292E+03 0.  0.
        -24    2    3    3    0    0  0.93835760837E+02 -0.54910255376E+02 -0.71412160636E+03  0.72684245779E+03  0.80684593357E+02 0.  0.
          6    2    1    2  502    0 -0.72082966535E+02  0.10257221542E+02 -0.49190879208E+03  0.52646399057E+03  0.17288409119E+03 0.  0.
         24    2    5    5    0    0 -0.61147872677E+02 -0.23835968160E+02 -0.15144672954E+03  0.18409222204E+03  0.81526796919E+02 0.  0.
          4    1    6    6  501    0 -0.43627055273E+02 -0.19136038816E+02 -0.15782894159E+03  0.16486201120E+03  0.00000000000E+00 0. -1.
         -3    1    6    6    0  501 -0.17520817405E+02 -0.46999293435E+01  0.63822120480E+01  0.19230210841E+02  0.00000000000E+00 0.  1.
          5    1    5    5  502    0 -0.10935093857E+02  0.34093189702E+02 -0.34046206253E+03  0.34237176853E+03  0.47000000000E+01 0. -1.
         11    1    4    4    0    0  0.15962490104E+02 -0.45606386504E+02 -0.40729590279E+03  0.41015204011E+03  0.00000000000E+00 0. -1.
        -12    1    4    4    0    0  0.77873270733E+02 -0.93038688721E+01 -0.30682570358E+03  0.31669041768E+03  0.00000000000E+00 0.  1.
         -5    1    3    3    0  504 -0.21752794302E+02  0.44653033835E+02 -0.16533246532E+03  0.17269624078E+03  0.47000000000E+01 0.  1.
<mgrwt>
<rscale>  2 0.18866518E+03</rscale>
<asrwt>0</asrwt>
<pdfrwt beam="1">  1       21 0.42030621E-02 0.18902488E+03</pdfrwt>
<pdfrwt beam="2">  1       21 0.21518203E+00 0.18902488E+03</pdfrwt>
<totfact> 0.38945679E+04</totfact>
</mgrwt>
</event>
<event>
12    1  0.2743855E-001  0.3272488E+03  0.7546771E-02  0.1072362E+00
         21   -1    0    0  502  503  0.00000000000E+00  0.00000000000E+00  0.11966233507E+04  0.11966233507E+04  0.00000000000E+00 0. -1.
         21   -1    0    0  503  504 -0.00000000000E+00 -0.00000000000E+00 -0.25027655246E+03  0.25027655246E+03  0.00000000000E+00 0.  1.
         -6    2    1    2    0  504 -0.25152086891E+03  0.11762174508E+03 -0.10668327710E+03  0.34419227964E+03  0.17317442462E+03 0.  0.
        -24    2    3    3    0    0 -0.19050195405E+03  0.14391070442E+02 -0.72291994669E+02  0.21935346171E+03  0.79948178614E+02 0.  0.
          6    2    1    2  502    0  0.25152086891E+03 -0.11762174508E+03  0.10530300753E+04  0.11027076235E+04  0.17318816637E+03 0.  0.
         24    2    5    5    0    0  0.49817638305E+02 -0.41382468050E+02  0.23062494990E+03  0.25249065065E+03  0.79808241431E+02 0.  0.
          2    1    6    6  501    0  0.57972044304E+02 -0.58828767292E+02  0.19906537929E+03  0.21551938895E+03  0.00000000000E+00 0. -1.
         -1    1    6    6    0  501 -0.81544059982E+01  0.17446299242E+02  0.31559570608E+02  0.36971261696E+02  0.00000000000E+00 0.  1.
          5    1    5    5  502    0  0.20170323061E+03 -0.76239277029E+02  0.82240512539E+03  0.85021697282E+03  0.47000000000E+01 0. -1.
         13    1    4    4    0    0  0.76887544691E+01  0.30240157671E+01 -0.58334498971E+00  0.82826268793E+01  0.00000000000E+00 0. -1.
        -14    1    4    4    0    0 -0.19819070852E+03  0.11367054675E+02 -0.71708649680E+02  0.21107083483E+03  0.00000000000E+00 0.  1.
         -5    1    3    3    0  504 -0.61018914856E+02  0.10323067464E+03 -0.34391282433E+02  0.12483881794E+03  0.47000000000E+01 0.  1.
<mgrwt>
<rscale>  2 0.32724696E+03</rscale>
<asrwt>0</asrwt>
<pdfrwt beam="1">  1       21 0.18409590E+00 0.32724878E+03</pdfrwt>
<pdfrwt beam="2">  1       21 0.38504086E-01 0.32724878E+03</pdfrwt>
<totfact> 0.99234056E+02</totfact>
</mgrwt>
</event>
<event>
12    1  0.2743855E-001  0.1864758E+03  0.7546771E-02  0.1164079E+00
         21   -1    0    0  502  503  0.00000000000E+00  0.00000000000E+00  0.27009281096E+03  0.27009281096E+03  0.00000000000E+00 0. -1.
         21   -1    0    0  503  504 -0.00000000000E+00 -0.00000000000E+00 -0.22763697405E+03  0.22763697405E+03  0.00000000000E+00 0. -1.
         -6    2    1    2    0  504  0.32634076991E+02  0.27664301078E+00 -0.14805120407E+03  0.23810161147E+03  0.18359781819E+03 0.  0.
        -24    2    3    3    0    0  0.68784041367E+02 -0.47615840300E+02 -0.56565396262E+02  0.12859246613E+03  0.79610713454E+02 0.  0.
          6    2    1    2  502    0 -0.32634076991E+02 -0.27664301078E+00  0.19050704098E+03  0.25962817354E+03  0.17334588637E+03 0.  0.
         24    2    5    5    0    0 -0.16530502228E+02 -0.21431315753E+02  0.20997674239E+03  0.22634147091E+03  0.80047925079E+02 0.  0.
          4    1    6    6  501    0  0.10368698082E+01 -0.93056899161E+01  0.20394500476E+03  0.20415982938E+03  0.00000000000E+00 0. -1.
         -3    1    6    6    0  501 -0.17567372036E+02 -0.12125625836E+02  0.60317376269E+01  0.22181641530E+02  0.00000000000E+00 0.  1.
          5    1    5    5  502    0 -0.16103574763E+02  0.21154672742E+02 -0.19469701415E+02  0.33286702633E+02  0.47000000000E+01 0. -1.
         11    1    4    4    0    0  0.44806468442E+02  0.15802481657E+02 -0.19867773216E+02  0.51498217963E+02  0.00000000000E+00 0. -1.
        -12    1    4    4    0    0  0.23977572925E+02 -0.63418321957E+02 -0.36697623046E+02  0.77094248167E+02  0.00000000000E+00 0.  1.
         -5    1    3    3    0  504 -0.36149964376E+02  0.47892483311E+02 -0.91485807809E+02  0.10950914534E+03  0.47000000000E+01 0.  1.
<mgrwt>
<rscale>  2 0.18390183E+03</rscale>
<asrwt>0</asrwt>
<pdfrwt beam="1">  1       21 0.41552740E-01 0.18647578E+03</pdfrwt>
<pdfrwt beam="2">  1       21 0.35021073E-01 0.18647578E+03</pdfrwt>
<totfact> 0.43960749E+04</totfact>
</mgrwt>
</event>
<event>
12    1  0.2743855E-001  0.2300301E+03  0.7546771E-02  0.1126853E+00
         21   -1    0    0  502  503  0.00000000000E+00  0.00000000000E+00  0.30960603695E+03  0.30960603695E+03  0.00000000000E+00 0. -1.
         21   -1    0    0  503  504 -0.00000000000E+00 -0.00000000000E+00 -0.17618198907E+03  0.17618198907E+03  0.00000000000E+00 0.  1.
         -6    2    1    2    0  504 -0.73078597283E+02 -0.12933759619E+03  0.21118649447E+02  0.23099752749E+03  0.17562791686E+03 0.  0.
        -24    2    3    3    0    0 -0.10719376973E+03 -0.13799992258E+03  0.16779525643E+02  0.19522325063E+03  0.85417107200E+02 0.  0.
          6    2    1    2  502    0  0.73078597283E+02  0.12933759619E+03  0.11230539843E+03  0.25479049853E+03  0.17388789623E+03 0.  0.
         24    2    5    5    0    0  0.66611296298E+02  0.47080924814E+02 -0.13916023585E+01  0.11423060397E+03  0.79956338406E+02 0.  0.
          4    1    6    6  501    0 -0.47126854237E+01  0.54283835805E+01 -0.26853778223E+02  0.27799319363E+02  0.00000000000E+00 0. -1.
         -3    1    6    6    0  501  0.71323981722E+02  0.41652541234E+02  0.25462175864E+02  0.86431284612E+02  0.00000000000E+00 0.  1.
          5    1    5    5  502    0  0.64673009842E+01  0.82256671380E+02  0.11369700079E+03  0.14055989456E+03  0.47000000000E+01 0. -1.
         13    1    4    4    0    0  0.85755594542E+01 -0.62640435637E+00 -0.10437978282E+02  0.13523460836E+02  0.00000000000E+00 0. -1.
        -14    1    4    4    0    0 -0.11576932919E+03 -0.13737351822E+03  0.27217503925E+02  0.18169978979E+03  0.00000000000E+00 0.  1.
         -5    1    3    3    0  504  0.34115172450E+02  0.86623263867E+01  0.43391238044E+01  0.35774276864E+02  0.47000000000E+01 0.  1.
<mgrwt>
<rscale>  2 0.22969797E+03</rscale>
<asrwt>0</asrwt>
<pdfrwt beam="1">  1       21 0.47631698E-01 0.23003013E+03</pdfrwt>
<pdfrwt beam="2">  1       21 0.27104921E-01 0.23003013E+03</pdfrwt>
<totfact> 0.53748581E+04</totfact>
</mgrwt>
</event>
<event>
12    1  0.2743855E-001  0.2055379E+03  0.7546771E-02  0.1145568E+00
         21   -1    0    0  502  503  0.00000000000E+00  0.00000000000E+00  0.14269449815E+03  0.14269449815E+03  0.00000000000E+00 0. -1.
         21   -1    0    0  503  504 -0.00000000000E+00 -0.00000000000E+00 -0.35697476160E+03  0.35697476160E+03  0.00000000000E+00 0.  1.
         -6    2    1    2    0  504  0.89847040717E+02 -0.65103138073E+02 -0.21324918606E+03  0.29617741525E+03  0.17301715707E+03 0.  0.
        -24    2    3    3    0    0 -0.66081101363E+01  0.11772902537E+02 -0.89483346556E+02  0.12138154924E+03  0.80894640320E+02 0.  0.
          6    2    1    2  502    0 -0.89847040717E+02  0.65103138073E+02 -0.10310773860E+01  0.20349184449E+03  0.17057830560E+03 0.  0.
         24    2    5    5    0    0 -0.11417558465E+03  0.42080382731E+02 -0.40362180877E+02  0.15161746724E+03  0.80943980539E+02 0.  0.
          4    1    6    6  501    0 -0.45992775383E+02  0.40392623795E+02  0.15854252778E+02  0.63231770303E+02  0.00000000000E+00 0. -1.
         -3    1    6    6    0  501 -0.68182809271E+02  0.16877589359E+01 -0.56216433655E+02  0.88385696938E+02  0.00000000000E+00 0.  1.
          5    1    5    5  502    0  0.24328543937E+02  0.23022755342E+02  0.39331103491E+02  0.51874377253E+02  0.47000000000E+01 0. -1.
         13    1    4    4    0    0  0.18088878828E+02  0.11680083350E+02  0.63244788155E+01  0.22441722675E+02  0.00000000000E+00 0. -1.
        -14    1    4    4    0    0 -0.24696988965E+02  0.92819187575E-01 -0.95807825371E+02  0.98939826570E+02  0.00000000000E+00 0.  1.
         -5    1    3    3    0  504  0.96455150853E+02 -0.76876040610E+02 -0.12376583950E+03  0.17479586601E+03  0.47000000000E+01 0.  1.
<mgrwt>
<rscale>  2 0.20502384E+03</rscale>
<asrwt>0</asrwt>
<pdfrwt beam="1">  1       21 0.21953000E-01 0.20553794E+03</pdfrwt>
<pdfrwt beam="2">  1       21 0.54919194E-01 0.20553794E+03</pdfrwt>
<totfact> 0.60278214E+04</totfact>
</mgrwt>
</event>
<event>
12    1  0.2743855E-001  0.1882991E+03  0.7546771E-02  0.1160130E+00
         21   -1    0    0  502  503  0.00000000000E+00  0.00000000000E+00  0.13617455889E+03  0.13617455889E+03  0.00000000000E+00 0. -1.
         21   -1    0    0  503  504 -0.00000000000E+00 -0.00000000000E+00 -0.27226275557E+03  0.27226275557E+03  0.00000000000E+00 0. -1.
         -6    2    1    2    0  504  0.72553570086E+02 -0.60698412449E+01 -0.23941432499E+02  0.18927195942E+03  0.17306015985E+03 0.  0.
        -24    2    3    3    0    0  0.60621896572E+02  0.45534454814E+02 -0.57737405737E+02  0.12626699127E+03  0.82833230913E+02 0.  0.
          6    2    1    2  502    0 -0.72553570086E+02  0.60698412449E+01 -0.11214676418E+03  0.21916535504E+03  0.17365394504E+03 0.  0.
         24    2    5    5    0    0 -0.64281439983E+02 -0.62954314837E+02 -0.86536339161E+02  0.14493095513E+03  0.73628082127E+02 0.  0.
          4    1    6    6  501    0 -0.70807513346E+02 -0.61834588333E+02 -0.47478538959E+02  0.10531586738E+03  0.00000000000E+00 0. -1.
         -3    1    6    6    0  501  0.65260733636E+01 -0.11197265040E+01 -0.39057800202E+02  0.39615087752E+02  0.00000000000E+00 0.  1.
          5    1    5    5  502    0 -0.82721301035E+01  0.69024156082E+02 -0.25610425021E+02  0.74234399904E+02  0.47000000000E+01 0. -1.
         11    1    4    4    0    0  0.61077258542E+02  0.20740304710E+02 -0.11817724870E+01  0.64513474071E+02  0.00000000000E+00 0. -1.
        -12    1    4    4    0    0 -0.45536197020E+00  0.24794150104E+02 -0.56555633250E+02  0.61753517197E+02  0.00000000000E+00 0.  1.
         -5    1    3    3    0  504  0.11931673514E+02 -0.51604296059E+02  0.33795973238E+02  0.63004968151E+02  0.47000000000E+01 0.  1.
<mgrwt>
<rscale>  2 0.18816210E+03</rscale>
<asrwt>0</asrwt>
<pdfrwt beam="1">  1       21 0.20949933E-01 0.18829911E+03</pdfrwt>
<pdfrwt beam="2">  1       21 0.41886577E-01 0.18829911E+03</pdfrwt>
<totfact> 0.11628598E+05</totfact>
</mgrwt>
</event>
<event>
12    1  0.2743855E-001  0.2326983E+03  0.7546771E-02  0.1124760E+00
         21   -1    0    0  502  503  0.00000000000E+00  0.00000000000E+00  0.26064166889E+02  0.26064166889E+02  0.00000000000E+00 0.  1.
         21   -1    0    0  503  504 -0.00000000000E+00 -0.00000000000E+00 -0.22767209077E+04  0.22767209077E+04  0.00000000000E+00 0.  1.
         -6    2    1    2    0  504  0.46347059708E+02 -0.14880609299E+03 -0.78446546428E+03  0.81824293461E+03  0.17275454303E+03 0.  0.
        -24    2    3    3    0    0  0.76123505884E+02 -0.56089715738E+02 -0.30957608943E+03  0.33344919321E+03  0.80063505696E+02 0.  0.
          6    2    1    2  502    0 -0.46347059708E+02  0.14880609299E+03 -0.14661912765E+04  0.14845421400E+04  0.17279236889E+03 0.  0.
         24    2    5    5    0    0 -0.54761092620E+02  0.44094832499E+02 -0.43279127097E+03  0.44580593405E+03  0.80569939091E+02 0.  0.
          2    1    6    6  501    0 -0.60542870505E+02  0.93474180726E+00 -0.19953710832E+03  0.20852187057E+03  0.00000000000E+00 0. -1.
         -1    1    6    6    0  501  0.57817778856E+01  0.43160090692E+02 -0.23325416266E+03  0.23728406348E+03  0.00000000000E+00 0.  1.
          5    1    5    5  502    0  0.84140329119E+01  0.10471126049E+03 -0.10334000056E+04  0.10387362059E+04  0.47000000000E+01 0. -1.
         11    1    4    4    0    0  0.27977605040E+01  0.13846052961E+02 -0.10294581490E+02  0.17479103367E+02  0.00000000000E+00 0. -1.
        -12    1    4    4    0    0  0.73325745380E+02 -0.69935768699E+02 -0.29928150794E+03  0.31597008984E+03  0.00000000000E+00 0.  1.
         -5    1    3    3    0  504 -0.29776446176E+02 -0.92716377252E+02 -0.47488937484E+03  0.48479374140E+03  0.47000000000E+01 0.  1.
<mgrwt>
<rscale>  2 0.23269129E+03</rscale>
<asrwt>0</asrwt>
<pdfrwt beam="1">  1       21 0.40098711E-02 0.23269832E+03</pdfrwt>
<pdfrwt beam="2">  1       21 0.35026482E+00 0.23269832E+03</pdfrwt>
<totfact> 0.64943575E+03</totfact>
</mgrwt>
</event>
<event>
12    1  0.2743855E-001  0.1798378E+03  0.7546771E-02  0.1168075E+00
         21   -1    0    0  502  503  0.00000000000E+00  0.00000000000E+00  0.10544938087E+03  0.10544938087E+03  0.00000000000E+00 0.  1.
         21   -1    0    0  503  504 -0.00000000000E+00 -0.00000000000E+00 -0.58208599768E+03  0.58208599768E+03  0.00000000000E+00 0.  1.
         -6    2    1    2    0  504 -0.41366935301E+02  0.24109237577E+02 -0.47494961752E+03  0.50768969035E+03  0.17285602054E+03 0.  0.
        -24    2    3    3    0    0  0.54463072677E+02  0.30038746356E+02 -0.17364483782E+03  0.19142206670E+03  0.51198880356E+02 0.  0.
          6    2    1    2  502    0  0.41366935301E+02 -0.24109237577E+02 -0.16869992929E+01  0.17984568819E+03  0.17334689764E+03 0.  0.
         24    2    5    5    0    0  0.58772166872E+02  0.43573410415E+02 -0.55385899330E+01  0.10969721939E+03  0.81547497011E+02 0.  0.
          2    1    6    6  501    0  0.39786570814E+02  0.65286567083E+02 -0.17566726588E+02  0.78446777765E+02  0.00000000000E+00 0. -1.
         -1    1    6    6    0  501  0.18985596058E+02 -0.21713156669E+02  0.12028136655E+02  0.31250441622E+02  0.00000000000E+00 0.  1.
          5    1    5    5  502    0 -0.17405231571E+02 -0.67682647992E+02  0.38515906401E+01  0.70148468805E+02  0.47000000000E+01 0. -1.
         11    1    4    4    0    0  0.43539114244E+02 -0.13288201521E+01 -0.68693841929E+02  0.81340421385E+02  0.00000000000E+00 0. -1.
        -12    1    4    4    0    0  0.10923958433E+02  0.31367566508E+02 -0.10495099589E+03  0.11008164531E+03  0.00000000000E+00 0.  1.
         -5    1    3    3    0  504 -0.95830007978E+02 -0.59295087784E+01 -0.30130477970E+03  0.31626762365E+03  0.47000000000E+01 0.  1.
<mgrwt>
<rscale>  2 0.17971938E+03</rscale>
<asrwt>0</asrwt>
<pdfrwt beam="1">  1       21 0.16222982E-01 0.17983778E+03</pdfrwt>
<pdfrwt beam="2">  1       21 0.89551691E-01 0.17983778E+03</pdfrwt>
<totfact> 0.36377377E+04</totfact>
</mgrwt>
</event>
<event>
12    1  0.2743855E-001  0.1863909E+03  0.7546771E-02  0.1161857E+00
         21   -1    0    0  502  503  0.00000000000E+00  0.00000000000E+00  0.45404373116E+02  0.45404373116E+02  0.00000000000E+00 0.  1.
         21   -1    0    0  503  504 -0.00000000000E+00 -0.00000000000E+00 -0.10718628559E+04  0.10718628559E+04  0.00000000000E+00 0. -1.
         -6    2    1    2    0  504  0.66309734894E+02  0.16571746157E+02 -0.81249201331E+03  0.83350107322E+03  0.17294266002E+03 0.  0.
        -24    2    3    3    0    0  0.99755076670E+02  0.34735625707E+02 -0.73611168870E+03  0.74803434639E+03  0.80853732940E+02 0.  0.
          6    2    1    2  502    0 -0.66309734894E+02 -0.16571746157E+02 -0.21396646951E+03  0.28376615583E+03  0.17340697047E+03 0.  0.
         24    2    5    5    0    0 -0.49278232018E+02  0.18534458731E+02 -0.37698673483E+02  0.10317007717E+03  0.80318145705E+02 0.  0.
          2    1    6    6  501    0 -0.37690456404E+02 -0.28271335957E+02 -0.12409922617E+02  0.48722121465E+02  0.00000000000E+00 0. -1.
         -1    1    6    6    0  501 -0.11587775614E+02  0.46805794688E+02 -0.25288750866E+02  0.54447955704E+02  0.00000000000E+00 0.  1.
          5    1    5    5  502    0 -0.17031502876E+02 -0.35106204888E+02 -0.17626779603E+03  0.18059607866E+03  0.47000000000E+01 0. -1.
         13    1    4    4    0    0  0.50558453676E+02  0.58576154711E+02 -0.47498400470E+03  0.48124539256E+03  0.00000000000E+00 0. -1.
        -14    1    4    4    0    0  0.49196622994E+02 -0.23840529004E+02 -0.26112768400E+03  0.26678895384E+03  0.00000000000E+00 0.  1.
         -5    1    3    3    0  504 -0.33445341776E+02 -0.18163879549E+02 -0.76380324613E+02  0.85466726829E+02  0.47000000000E+01 0.  1.
<mgrwt>
<rscale>  2 0.18628287E+03</rscale>
<asrwt>0</asrwt>
<pdfrwt beam="1">  1       21 0.69852886E-02 0.18639094E+03</pdfrwt>
<pdfrwt beam="2">  1       21 0.16490197E+00 0.18639094E+03</pdfrwt>
<totfact> 0.35348523E+04</totfact>
</mgrwt>
</event>
<event>
12    1  0.2743855E-001  0.1822811E+03  0.7546771E-02  0.1165967E+00
         21   -1    0    0  502  503  0.00000000000E+00  0.00000000000E+00  0.19545211233E+03  0.19545211233E+03  0.00000000000E+00 0. -1.
         21   -1    0    0  503  504 -0.00000000000E+00 -0.00000000000E+00 -0.33158248734E+03  0.33158248734E+03  0.00000000000E+00 0. -1.
         -6    2    1    2    0  504  0.34962956493E+02  0.46868811872E+02 -0.25294312944E+03  0.31177976319E+03  0.17264790804E+03 0.  0.
        -24    2    3    3    0    0 -0.32806040640E+02  0.31366240989E+01 -0.67163765634E+02  0.10919347728E+03  0.79537219929E+02 0.  0.
          6    2    1    2  502    0 -0.34962956493E+02 -0.46868811872E+02  0.11681275443E+03  0.21525483649E+03  0.17108574219E+03 0.  0.
         24    2    5    5    0    0 -0.79800868649E+02 -0.12373893017E+02  0.11012127454E+03  0.15809537798E+03  0.79662799147E+02 0.  0.
          2    1    6    6  501    0 -0.45502143135E+02 -0.13733201228E+02  0.11403857693E+03  0.12354692580E+03  0.00000000000E+00 0. -1.
         -1    1    6    6    0  501 -0.34298725513E+02  0.13593082104E+01 -0.39173023860E+01  0.34548452189E+02  0.00000000000E+00 0.  1.
          5    1    5    5  502    0  0.44837912155E+02 -0.34494918855E+02  0.66914798870E+01  0.57159458503E+02  0.47000000000E+01 0. -1.
         11    1    4    4    0    0  0.42399946163E+01 -0.99474185766E+00 -0.71530435734E+02  0.71662893481E+02  0.00000000000E+00 0. -1.
        -12    1    4    4    0    0 -0.37046035256E+02  0.41313659566E+01  0.43666701000E+01  0.37530583803E+02  0.00000000000E+00 0.  1.
         -5    1    3    3    0  504  0.67768997133E+02  0.43732187773E+02 -0.18577936381E+03  0.20258628590E+03  0.47000000000E+01 0.  1.
<mgrwt>
<rscale>  2 0.18191023E+03</rscale>
<asrwt>0</asrwt>
<pdfrwt beam="1">  1       21 0.30069556E-01 0.18228109E+03</pdfrwt>
<pdfrwt beam="2">  1       21 0.51012690E-01 0.18228109E+03</pdfrwt>
<totfact> 0.38966997E+04</totfact>
</mgrwt>
</event>
<event>
12    1  0.2743855E-001  0.2011048E+03  0.7546771E-02  0.1149119E+00
         21   -1    0    0  502  503  0.00000000000E+00  0.00000000000E+00  0.16160604870E+04  0.16160604870E+04  0.00000000000E+00 0.  1.
         21   -1    0    0  503  504 -0.00000000000E+00 -0.00000000000E+00 -0.42451807555E+02  0.42451807555E+02  0.00000000000E+00 0.  1.
         -6    2    1    2    0  504  0.37421322698E+02  0.92381828231E+02  0.25441984598E+03  0.32430327487E+03  0.17466653509E+03 0.  0.
        -24    2    3    3    0    0 -0.13389583216E+02  0.98961777500E+02  0.23819223744E+03  0.27035451055E+03  0.79895588462E+02 0.  0.
          6    2    1    2  502    0 -0.37421322698E+02 -0.92381828231E+02  0.13191888334E+04  0.13342090197E+04  0.17297332830E+03 0.  0.
         24    2    5    5    0    0 -0.50349519743E+02 -0.79572693163E+02  0.13044081580E+04  0.13102972948E+04  0.80817513366E+02 0.  0.
          4    1    6    6  501    0 -0.65735422165E+02 -0.63735954787E+02  0.76861584617E+03  0.77405021584E+03  0.00000000000E+00 0. -1.
         -3    1    6    6    0  501  0.15385902421E+02 -0.15836738376E+02  0.53579231180E+03  0.53624707893E+03  0.00000000000E+00 0.  1.
          5    1    5    5  502    0  0.12928197045E+02 -0.12809135068E+02  0.14780675467E+02  0.23911724892E+02  0.47000000000E+01 0. -1.
         13    1    4    4    0    0  0.33516548675E+02  0.46239851039E+02  0.98817238810E+02  0.11413294680E+03  0.00000000000E+00 0. -1.
        -14    1    4    4    0    0 -0.46906131891E+02  0.52721926462E+02  0.13937499863E+03  0.15622156375E+03  0.00000000000E+00 0.  1.
         -5    1    3    3    0  504  0.50810905914E+02 -0.65799492691E+01  0.16227608545E+02  0.53948764316E+02  0.47000000000E+01 0.  1.
<mgrwt>
<rscale>  2 0.20073662E+03</rscale>
<asrwt>0</asrwt>
<pdfrwt beam="1">  1       21 0.24862464E+00 0.20110484E+03</pdfrwt>
<pdfrwt beam="2">  1       21 0.65310486E-02 0.20110484E+03</pdfrwt>
<totfact> 0.11458555E+04</totfact>
</mgrwt>
</event>
<event>
12    1  0.2743855E-001  0.1984255E+03  0.7546771E-02  0.1151262E+00
         21   -1    0    0  502  503  0.00000000000E+00  0.00000000000E+00  0.43210498048E+03  0.43210498048E+03  0.00000000000E+00 0. -1.
         21   -1    0    0  503  504 -0.00000000000E+00 -0.00000000000E+00 -0.22990355456E+03  0.22990355456E+03  0.00000000000E+00 0.  1.
         -6    2    1    2    0  504 -0.74050507096E+02  0.62541824431E+02 -0.15653794722E+03  0.25204922612E+03  0.17213287328E+03 0.  0.
        -24    2    3    3    0    0  0.20290352332E+02  0.77799426065E+00 -0.44289130153E+02  0.92873677093E+02  0.79067624058E+02 0.  0.
          6    2    1    2  502    0  0.74050507096E+02 -0.62541824431E+02  0.35873937314E+03  0.40995930892E+03  0.17314080896E+03 0.  0.
         24    2    5    5    0    0 -0.11576264107E+02 -0.64540488967E+02  0.13383412159E+03  0.16925118530E+03  0.80217872167E+02 0.  0.
          4    1    6    6  501    0  0.33581369791E+02 -0.39809023857E+02  0.64976899414E+02  0.83273430547E+02  0.00000000000E+00 0. -1.
         -3    1    6    6    0  501 -0.45157633898E+02 -0.24731465110E+02  0.68857222177E+02  0.85977754748E+02  0.00000000000E+00 0.  1.
          5    1    5    5  502    0  0.85626771203E+02  0.19986645357E+01  0.22490525155E+03  0.24070812363E+03  0.47000000000E+01 0. -1.
         13    1    4    4    0    0  0.10333574418E+02 -0.25550181844E+02  0.11906456435E+02  0.30022629088E+02  0.00000000000E+00 0. -1.
        -14    1    4    4    0    0  0.99567779140E+01  0.26328176105E+02 -0.56195586588E+02  0.62851048005E+02  0.00000000000E+00 0.  1.
         -5    1    3    3    0  504 -0.94340859429E+02  0.61763830171E+02 -0.11224881706E+03  0.15917554902E+03  0.47000000000E+01 0.  1.
<mgrwt>
<rscale>  2 0.19820546E+03</rscale>
<asrwt>0</asrwt>
<pdfrwt beam="1">  1       21 0.66477689E-01 0.19842555E+03</pdfrwt>
<pdfrwt beam="2">  1       21 0.35369778E-01 0.19842555E+03</pdfrwt>
<totfact> 0.15935148E+04</totfact>
</mgrwt>
</event>
<event>
12    1  0.2743855E-001  0.2079002E+03  0.7546771E-02  0.1143579E+00
         21   -1    0    0  502  503  0.00000000000E+00  0.00000000000E+00  0.10798961936E+04  0.10798961936E+04  0.00000000000E+00 0. -1.
         21   -1    0    0  503  504 -0.00000000000E+00 -0.00000000000E+00 -0.89704513426E+02  0.89704513426E+02  0.00000000000E+00 0. -1.
         -6    2    1    2    0  504 -0.12587632349E+02  0.12221814253E+03  0.57587673930E+02  0.21410465037E+03  0.16561623794E+03 0.  0.
        -24    2    3    3    0    0 -0.23612436152E+02  0.11924469328E+03  0.95404662618E+02  0.17432271562E+03  0.80681568614E+02 0.  0.
          6    2    1    2  502    0  0.12587632349E+02 -0.12221814253E+03  0.93260400623E+03  0.95549605664E+03  0.16771034245E+03 0.  0.
         24    2    5    5    0    0  0.80633910040E+01 -0.52659718511E+02  0.22809329892E+03  0.24752976519E+03  0.80039786454E+02 0.  0.
          4    1    6    6  501    0 -0.19807799824E+02 -0.61564879458E+02  0.13052449794E+03  0.14566821162E+03  0.00000000000E+00 0. -1.
         -3    1    6    6    0  501  0.27871190828E+02  0.89051609469E+01  0.97568800987E+02  0.10186155357E+03  0.00000000000E+00 0.  1.
          5    1    5    5  502    0  0.45242413450E+01 -0.69558424019E+02  0.70451070730E+03  0.70796629144E+03  0.47000000000E+01 0. -1.
         13    1    4    4    0    0 -0.17123573072E+02  0.69287293914E+02  0.10096022874E+03  0.12364025898E+03  0.00000000000E+00 0. -1.
        -14    1    4    4    0    0 -0.64888630801E+01  0.49957399370E+02 -0.55555661266E+01  0.50682456638E+02  0.00000000000E+00 0.  1.
         -5    1    3    3    0  504  0.11024803803E+02  0.29734492453E+01 -0.37816988688E+02  0.39781934753E+02  0.47000000000E+01 0.  1.
<mgrwt>
<rscale>  2 0.20747749E+03</rscale>
<asrwt>0</asrwt>
<pdfrwt beam="1">  1       21 0.16613787E+00 0.20790017E+03</pdfrwt>
<pdfrwt beam="2">  1       21 0.13800695E-01 0.20790017E+03</pdfrwt>
<totfact> 0.10249393E+04</totfact>
</mgrwt>
</event>
<event>
12    1  0.2743855E-001  0.2346558E+03  0.7546771E-02  0.1125792E+00
         21   -1    0    0  502  503  0.00000000000E+00  0.00000000000E+00  0.17722313478E+03  0.17722313478E+03  0.00000000000E+00 0.  1.
         21   -1    0    0  503  504 -0.00000000000E+00 -0.00000000000E+00 -0.35284365328E+03  0.35284365328E+03  0.00000000000E+00 0. -1.
         -6    2    1    2    0  504  0.14134768411E+03  0.70897202773E+02 -0.19467076384E+03  0.29463894745E+03  0.15462801136E+03 0.  0.
        -24    2    3    3    0    0  0.86265737562E+02 -0.91130764805E+01 -0.71344391639E+02  0.13758115649E+03  0.79458962760E+02 0.  0.
          6    2    1    2  502    0 -0.14134768411E+03 -0.70897202773E+02  0.19050245345E+02  0.23542784060E+03  0.17337178294E+03 0.  0.
         24    2    5    5    0    0 -0.16753778357E+03 -0.33170819174E+02  0.10855305687E+02  0.18854022640E+03  0.79122481901E+02 0.  0.
          2    1    6    6  501    0 -0.32564348091E+02  0.13223026767E+02  0.27802033473E+02  0.44813371539E+02  0.00000000000E+00 0. -1.
         -1    1    6    6    0  501 -0.13497343548E+03 -0.46393845941E+02 -0.16946727786E+02  0.14372685487E+03  0.00000000000E+00 0.  1.
          5    1    5    5  502    0  0.26190099462E+02 -0.37726383599E+02  0.81949396577E+01  0.46887614199E+02  0.47000000000E+01 0. -1.
         13    1    4    4    0    0 -0.86475649044E+01  0.16926673243E+02 -0.14658811980E+02  0.24003612530E+02  0.00000000000E+00 0. -1.
        -14    1    4    4    0    0  0.94913302467E+02 -0.26039749723E+02 -0.56685579659E+02  0.11357754396E+03  0.00000000000E+00 0.  1.
         -5    1    3    3    0  504  0.55081946548E+02  0.80010279253E+02 -0.12332637220E+03  0.15705779096E+03  0.47000000000E+01 0.  1.
<mgrwt>
<rscale>  2 0.23120872E+03</rscale>
<asrwt>0</asrwt>
<pdfrwt beam="1">  1       21 0.27265098E-01 0.23465583E+03</pdfrwt>
<pdfrwt beam="2">  1       21 0.54283639E-01 0.23465583E+03</pdfrwt>
<totfact> 0.40299810E+04</totfact>
</mgrwt>
</event>
<event>
12    1  0.2743855E-001  0.2822631E+03  0.7546771E-02  0.1095931E+00
         21   -1    0    0  502  503  0.00000000000E+00  0.00000000000E+00  0.13230270848E+03  0.13230270848E+03  0.00000000000E+00 0. -1.
         21   -1    0    0  503  504 -0.00000000000E+00 -0.00000000000E+00 -0.61220764776E+03  0.61220764776E+03  0.00000000000E+00 0. -1.
         -6    2    1    2    0  504 -0.19520034012E+03  0.78158935846E+02 -0.32140069310E+03  0.42078816517E+03  0.17190777290E+03 0.  0.
        -24    2    3    3    0    0 -0.10681716486E+03  0.59657337334E+02 -0.90223459255E+02  0.17255662353E+03  0.81649317912E+02 0.  0.
          6    2    1    2  502    0  0.19520034012E+03 -0.78158935846E+02 -0.15850424618E+03  0.32372219108E+03  0.18830950296E+03 0.  0.
         24    2    5    5    0    0  0.16604355987E+03 -0.11273965118E+03 -0.17166860131E+03  0.27637946246E+03  0.81454317682E+02 0.  0.
          2    1    6    6  501    0  0.10424720103E+03 -0.86251934507E+02 -0.64557020584E+02  0.14991492266E+03  0.00000000000E+00 0. -1.
         -1    1    6    6    0  501  0.61796358841E+02 -0.26487716669E+02 -0.10711158073E+03  0.12646453980E+03  0.00000000000E+00 0.  1.
          5    1    5    5  502    0  0.29156780248E+02  0.34580715330E+02  0.13164355134E+02  0.47342728621E+02  0.47000000000E+01 0. -1.
         11    1    4    4    0    0 -0.94387495530E+02  0.37392033368E+02 -0.10248859199E+03  0.14426044143E+03  0.00000000000E+00 0. -1.
        -12    1    4    4    0    0 -0.12429669334E+02  0.22265303965E+02  0.12265132737E+02  0.28296182101E+02  0.00000000000E+00 0.  1.
         -5    1    3    3    0  504 -0.88383175255E+02  0.18501598512E+02 -0.23117723385E+03  0.24823154164E+03  0.47000000000E+01 0.  1.
<mgrwt>
<rscale>  2 0.27955763E+03</rscale>
<asrwt>0</asrwt>
<pdfrwt beam="1">  1       21 0.20354263E-01 0.28226311E+03</pdfrwt>
<pdfrwt beam="2">  1       21 0.94185793E-01 0.28226311E+03</pdfrwt>
<totfact> 0.20144938E+04</totfact>
</mgrwt>
</event>
<event>
12    1  0.2743855E-001  0.2489728E+03  0.7546771E-02  0.1113969E+00
         21   -1    0    0  502  503  0.00000000000E+00  0.00000000000E+00  0.20432821571E+03  0.20432821571E+03  0.00000000000E+00 0. -1.
         21   -1    0    0  503  504 -0.00000000000E+00 -0.00000000000E+00 -0.21064316663E+04  0.21064316663E+04  0.00000000000E+00 0.  1.
         -6    2    1    2    0  504 -0.76977295676E+02  0.16064791733E+03 -0.20200518169E+04  0.20353370182E+04  0.17393727985E+03 0.  0.
        -24    2    3    3    0    0 -0.84651211785E+02  0.35732206038E+02 -0.85037473422E+03  0.85897423757E+03  0.79100783840E+02 0.  0.
          6    2    1    2  502    0  0.76977295676E+02 -0.16064791733E+03  0.11794836633E+03  0.27542286379E+03  0.17381794897E+03 0.  0.
         24    2    5    5    0    0  0.68943512424E+01 -0.73587726601E+02 -0.64068613844E+01  0.10815837691E+03  0.78705152548E+02 0.  0.
          2    1    6    6  501    0  0.30345641253E+02 -0.76598592154E+02 -0.13464993720E+02  0.83483581133E+02  0.00000000000E+00 0. -1.
         -1    1    6    6    0  501 -0.23451290011E+02  0.30108655523E+01  0.70581323360E+01  0.24674795776E+02  0.00000000000E+00 0.  1.
          5    1    5    5  502    0  0.70082944433E+02 -0.87060190733E+02  0.12435522772E+03  0.16726448688E+03  0.47000000000E+01 0. -1.
         13    1    4    4    0    0 -0.46179905275E+02 -0.65469974521E+01 -0.61466882909E+03  0.61643589795E+03  0.00000000000E+00 0. -1.
        -14    1    4    4    0    0 -0.38471306510E+02  0.42279203490E+02 -0.23570590513E+03  0.24253833962E+03  0.00000000000E+00 0.  1.
         -5    1    3    3    0  504  0.76739161099E+01  0.12491571130E+03 -0.11696770827E+04  0.11763627807E+04  0.47000000000E+01 0.  1.
<mgrwt>
<rscale>  2 0.24895192E+03</rscale>
<asrwt>0</asrwt>
<pdfrwt beam="1">  1       21 0.31435110E-01 0.24897276E+03</pdfrwt>
<pdfrwt beam="2">  1       21 0.32406641E+00 0.24897276E+03</pdfrwt>
<totfact> 0.22287836E+02</totfact>
</mgrwt>
</event>
<event>
12    1  0.2743855E-001  0.1782923E+03  0.7546771E-02  0.1170311E+00
         21   -1    0    0  502  503  0.00000000000E+00  0.00000000000E+00  0.83017968897E+02  0.83017968897E+02  0.00000000000E+00 0. -1.
         21   -1    0    0  503  504 -0.00000000000E+00 -0.00000000000E+00 -0.42386940645E+03  0.42386940645E+03  0.00000000000E+00 0. -1.
         -6    2    1    2    0  504 -0.67620074508E+01  0.24768875606E+02 -0.86375019126E+02  0.19811310277E+03  0.17643394123E+03 0.  0.
        -24    2    3    3    0    0  0.65943524889E+02  0.25139595985E+02 -0.51884013049E+02  0.11750323137E+03  0.78323117993E+02 0.  0.
          6    2    1    2  502    0  0.67620074508E+01 -0.24768875606E+02 -0.25447641843E+03  0.30877427258E+03  0.17298578533E+03 0.  0.
         24    2    5    5    0    0  0.44173998571E+02  0.17943181556E+02 -0.22767875557E+03  0.24581252513E+03  0.79453645984E+02 0.  0.
          2    1    6    6  501    0  0.45339476093E+02  0.15782915694E+02 -0.23408233553E+03  0.23895461563E+03  0.00000000000E+00 0. -1.
         -1    1    6    6    0  501 -0.11654775225E+01  0.21602658621E+01  0.64035799635E+01  0.68579095065E+01  0.00000000000E+00 0.  1.
          5    1    5    5  502    0 -0.37411991120E+02 -0.42712057161E+02 -0.26797662857E+02  0.62961747443E+02  0.47000000000E+01 0. -1.
         11    1    4    4    0    0  0.71344708994E+01  0.32233969835E+02  0.72528260527E+01  0.33801375298E+02  0.00000000000E+00 0. -1.
        -12    1    4    4    0    0  0.58809053990E+02 -0.70943738498E+01 -0.59136839102E+02  0.83701856075E+02  0.00000000000E+00 0.  1.
         -5    1    3    3    0  504 -0.72705532340E+02 -0.37072037926E+00 -0.34491006078E+02  0.80609871398E+02  0.47000000000E+01 0.  1.
<mgrwt>
<rscale>  2 0.17743327E+03</rscale>
<asrwt>0</asrwt>
<pdfrwt beam="1">  1       21 0.12771995E-01 0.17829234E+03</pdfrwt>
<pdfrwt beam="2">  1       21 0.65210678E-01 0.17829234E+03</pdfrwt>
<totfact> 0.11416951E+05</totfact>
</mgrwt>
</event>
<event>
12    1  0.2743855E-001  0.3158051E+03  0.7546771E-02  0.1077639E+00
         21   -1    0    0  502  503  0.00000000000E+00  0.00000000000E+00  0.26384783286E+04  0.26384783286E+04  0.00000000000E+00 0.  1.
         21   -1    0    0  503  504 -0.00000000000E+00 -0.00000000000E+00 -0.14590346301E+03  0.14590346301E+03  0.00000000000E+00 0.  1.
         -6    2    1    2    0  504 -0.15843597882E+03  0.21150428135E+03  0.47504313624E+02  0.31900091576E+03  0.17224663721E+03 0.  0.
        -24    2    3    3    0    0 -0.94159963928E+02  0.38143549940E+02  0.20884386805E+02  0.13214252074E+03  0.81880760667E+02 0.  0.
          6    2    1    2  502    0  0.15843597882E+03 -0.21150428135E+03  0.24450705519E+04  0.24653808758E+04  0.17290702274E+03 0.  0.
         24    2    5    5    0    0  0.11709356578E+03 -0.22086031111E+03  0.18186159513E+04  0.18374762756E+04  0.80404630771E+02 0.  0.
          2    1    6    6  501    0  0.15201679437E+02 -0.72687200258E+02  0.34320253195E+03  0.35114455439E+03  0.00000000000E+00 0. -1.
         -1    1    6    6    0  501  0.10189188634E+03 -0.14817311085E+03  0.14754134194E+04  0.14863317212E+04  0.00000000000E+00 0.  1.
          5    1    5    5  502    0  0.41342413037E+02  0.93560297565E+01  0.62645460062E+03  0.62790460028E+03  0.47000000000E+01 0. -1.
         11    1    4    4    0    0  0.10330311855E+02 -0.40013927335E+01  0.15879470887E+02  0.19361923523E+02  0.00000000000E+00 0. -1.
        -12    1    4    4    0    0 -0.10449027578E+03  0.42144942674E+02  0.50049159176E+01  0.11278059722E+03  0.00000000000E+00 0.  1.
         -5    1    3    3    0  504 -0.64276014888E+02  0.17336073141E+03  0.26619926819E+02  0.18685839502E+03  0.47000000000E+01 0.  1.
<mgrwt>
<rscale>  2 0.31571479E+03</rscale>
<asrwt>0</asrwt>
<pdfrwt beam="1">  1       21 0.40591971E+00 0.31580510E+03</pdfrwt>
<pdfrwt beam="2">  1       21 0.22446689E-01 0.31580510E+03</pdfrwt>
<totfact> 0.12570891E+02</totfact>
</mgrwt>
</event>
<event>
12    1  0.2743855E-001  0.3254820E+03  0.7546771E-02  0.1073194E+00
         21   -1    0    0  502  503  0.00000000000E+00  0.00000000000E+00  0.39952946199E+03  0.39952946199E+03  0.00000000000E+00 0.  1.
         21   -1    0    0  503  504 -0.00000000000E+00 -0.00000000000E+00 -0.53050253055E+03  0.53050253055E+03  0.00000000000E+00 0. -1.
         -6    2    1    2    0  504  0.19414719979E+03 -0.19601306881E+03  0.26358530283E+03  0.41854899803E+03  0.17202265419E+03 0.  0.
        -24    2    3    3    0    0  0.20112646958E+03 -0.20434105260E+03  0.21272296736E+03  0.36632704201E+03  0.82081169096E+02 0.  0.
          6    2    1    2  502    0 -0.19414719979E+03  0.19601306881E+03 -0.39455837139E+03  0.51148299452E+03  0.17269709584E+03 0.  0.
         24    2    5    5    0    0 -0.17698584162E+03  0.10550877475E+03 -0.20969536161E+03  0.30488686230E+03  0.80794581767E+02 0.  0.
          2    1    6    6  501    0 -0.11066214749E+03  0.10103592224E+03 -0.11360286939E+03  0.18804249627E+03  0.00000000000E+00 0. -1.
         -1    1    6    6    0  501 -0.66323694136E+02  0.44728525053E+01 -0.96092492222E+02  0.11684436604E+03  0.00000000000E+00 0.  1.
          5    1    5    5  502    0 -0.17161358165E+02  0.90504294061E+02 -0.18486300979E+03  0.20659613221E+03  0.47000000000E+01 0. -1.
         11    1    4    4    0    0 -0.71206023967E+01 -0.10236117438E+01  0.50004809747E+01  0.87610255947E+01  0.00000000000E+00 0. -1.
        -12    1    4    4    0    0  0.20824707198E+03 -0.20331744086E+03  0.20772248639E+03  0.35756601642E+03  0.00000000000E+00 0.  1.
         -5    1    3    3    0  504 -0.69792697986E+01  0.83279837915E+01  0.50862335467E+02  0.52221956016E+02  0.47000000000E+01 0.  1.
<mgrwt>
<rscale>  2 0.32539265E+03</rscale>
<asrwt>0</asrwt>
<pdfrwt beam="1">  1       21 0.61466071E-01 0.32548202E+03</pdfrwt>
<pdfrwt beam="2">  1       21 0.81615774E-01 0.32548202E+03</pdfrwt>
<totfact> 0.29636671E+03</totfact>
</mgrwt>
</event>
<event>
12    1  0.2743855E-001  0.1806740E+03  0.7546771E-02  0.1167255E+00
         21   -1    0    0  502  503  0.00000000000E+00  0.00000000000E+00  0.11332806346E+03  0.11332806346E+03  0.00000000000E+00 0.  1.
         21   -1    0    0  503  504 -0.00000000000E+00 -0.00000000000E+00 -0.28828928323E+03  0.28828928323E+03  0.00000000000E+00 0.  1.
         -6    2    1    2    0  504  0.37008386747E+02 -0.37318753667E+02 -0.98991708412E+02  0.20601570291E+03  0.17286064169E+03 0.  0.
        -24    2    3    3    0    0  0.86630342350E+02 -0.49893445734E+02 -0.82840028758E+02  0.15213223500E+03  0.79294226893E+02 0.  0.
          6    2    1    2  502    0 -0.37008386747E+02  0.37318753667E+02 -0.75969511356E+02  0.19560164377E+03  0.17241324290E+03 0.  0.
         24    2    5    5    0    0 -0.82442055010E+02  0.59149830418E+02 -0.57739080782E+02  0.14179409112E+03  0.80475884300E+02 0.  0.
          4    1    6    6  501    0 -0.46501721898E+02  0.76247787938E+02 -0.44995028973E+02  0.10000343963E+03  0.00000000000E+00 0. -1.
         -3    1    6    6    0  501 -0.35940333112E+02 -0.17097957521E+02 -0.12744051810E+02  0.41790651492E+02  0.00000000000E+00 0.  1.
          5    1    5    5  502    0  0.45433668263E+02 -0.21831076751E+02 -0.18230430574E+02  0.53807552656E+02  0.47000000000E+01 0. -1.
         11    1    4    4    0    0  0.23625972622E+02 -0.26563237356E+02  0.10553758124E+02  0.37083338195E+02  0.00000000000E+00 0. -1.
        -12    1    4    4    0    0  0.63004369728E+02 -0.23330208378E+02 -0.93393786882E+02  0.11504889680E+03  0.00000000000E+00 0.  1.
         -5    1    3    3    0  504 -0.49621955603E+02  0.12574692067E+02 -0.16151679654E+02  0.53883467911E+02  0.47000000000E+01 0.  1.
<mgrwt>
<rscale>  2 0.18056695E+03</rscale>
<asrwt>0</asrwt>
<pdfrwt beam="1">  1       21 0.17435087E-01 0.18067405E+03</pdfrwt>
<pdfrwt beam="2">  1       21 0.44352197E-01 0.18067405E+03</pdfrwt>
<totfact> 0.14593970E+05</totfact>
</mgrwt>
</event>
<event>
12    1  0.2743855E-001  0.1876464E+03  0.7546771E-02  0.1160891E+00
         21   -1    0    0  502  503  0.00000000000E+00  0.00000000000E+00  0.28074646891E+03  0.28074646891E+03  0.00000000000E+00 0.  1.
         21   -1    0    0  503  504 -0.00000000000E+00 -0.00000000000E+00 -0.16852592315E+03  0.16852592315E+03  0.00000000000E+00 0. -1.
         -6    2    1    2    0  504  0.60375715455E+02 -0.36392580614E+02 -0.58460656834E+02  0.19654218163E+03  0.17390093106E+03 0.  0.
        -24    2    3    3    0    0  0.24675395837E+02 -0.87772212239E+02 -0.56981914394E+02  0.13378346873E+03  0.79613073897E+02 0.  0.
          6    2    1    2  502    0 -0.60375715455E+02  0.36392580614E+02  0.17068120260E+03  0.25273021043E+03  0.17254228293E+03 0.  0.
         24    2    5    5    0    0 -0.71027632980E+02 -0.89209492196E+01  0.17546343531E+03  0.20570108028E+03  0.80006307980E+02 0.  0.
          4    1    6    6  501    0 -0.14883697111E+02  0.33091404726E+02  0.73279397454E+02  0.81770627965E+02  0.00000000000E+00 0. -1.
         -3    1    6    6    0  501 -0.56143935870E+02 -0.42012353946E+02  0.10218403785E+03  0.12393045231E+03  0.00000000000E+00 0.  1.
          5    1    5    5  502    0  0.10651917526E+02  0.45313529834E+02 -0.47822327023E+01  0.47029130149E+02  0.47000000000E+01 0. -1.
         11    1    4    4    0    0 -0.16014937639E+02 -0.22505077923E+02 -0.49271400903E+02  0.56485641599E+02  0.00000000000E+00 0. -1.
        -12    1    4    4    0    0  0.40690333476E+02 -0.65267134316E+02 -0.77105134904E+01  0.77297827127E+02  0.00000000000E+00 0.  1.
         -5    1    3    3    0  504  0.35700319617E+02  0.51379631625E+02 -0.14787424407E+01  0.62758712908E+02  0.47000000000E+01 0.  1.
<mgrwt>
<rscale>  2 0.18733102E+03</rscale>
<asrwt>0</asrwt>
<pdfrwt beam="1">  1       21 0.43191765E-01 0.18764642E+03</pdfrwt>
<pdfrwt beam="2">  1       21 0.25927065E-01 0.18764642E+03</pdfrwt>
<totfact> 0.72964314E+04</totfact>
</mgrwt>
</event>
<event>
12    1  0.2743855E-001  0.2672213E+03  0.7546771E-02  0.1103128E+00
         21   -1    0    0  502  503  0.00000000000E+00  0.00000000000E+00  0.20221891912E+03  0.20221891912E+03  0.00000000000E+00 0. -1.
         21   -1    0    0  503  504 -0.00000000000E+00 -0.00000000000E+00 -0.44276761548E+03  0.44276761548E+03  0.00000000000E+00 0.  1.
         -6    2    1    2    0  504 -0.15836926543E+03  0.12435685250E+03 -0.26688574067E+03  0.37647050277E+03  0.17307972118E+03 0.  0.
        -24    2    3    3    0    0 -0.74108669590E+02  0.14136383484E+03 -0.19212021966E+03  0.26244831812E+03  0.80579849682E+02 0.  0.
          6    2    1    2  502    0  0.15836926543E+03 -0.12435685250E+03  0.26337044309E+02  0.26851603184E+03  0.17567517883E+03 0.  0.
         24    2    5    5    0    0  0.92170623059E+02 -0.42615257601E+02  0.78060954700E+02  0.15120703178E+03  0.80365228027E+02 0.  0.
          2    1    6    6  501    0  0.60637330738E+02 -0.49384954944E+02  0.87740885306E+02  0.11753392110E+03  0.00000000000E+00 0. -1.
         -1    1    6    6    0  501  0.31533292321E+02  0.67696973434E+01 -0.96799306054E+01  0.33673110685E+02  0.00000000000E+00 0.  1.
          5    1    5    5  502    0  0.66198642368E+02 -0.81741594900E+02 -0.51723910391E+02  0.11730900006E+03  0.47000000000E+01 0. -1.
         11    1    4    4    0    0 -0.64306891277E+02  0.84147667889E+02 -0.69199894925E+02  0.12651020407E+03  0.00000000000E+00 0. -1.
        -12    1    4    4    0    0 -0.98017783128E+01  0.57216166947E+02 -0.12292032474E+03  0.13593811405E+03  0.00000000000E+00 0.  1.
         -5    1    3    3    0  504 -0.84260595837E+02 -0.17006982335E+02 -0.74765521010E+02  0.11402218464E+03  0.47000000000E+01 0.  1.
<mgrwt>
<rscale>  2 0.26679550E+03</rscale>
<asrwt>0</asrwt>
<pdfrwt beam="1">  1       21 0.31110603E-01 0.26722129E+03</pdfrwt>
<pdfrwt beam="2">  1       21 0.68118094E-01 0.26722129E+03</pdfrwt>
<totfact> 0.18763456E+04</totfact>
</mgrwt>
</event>
<event>
12    1  0.2743855E-001  0.1749787E+03  0.7546771E-02  0.1172924E+00
         21   -1    0    0  502  503  0.00000000000E+00  0.00000000000E+00  0.35669168577E+02  0.35669168577E+02  0.00000000000E+00 0. -1.
         21   -1    0    0  503  504 -0.00000000000E+00 -0.00000000000E+00 -0.85824123342E+03  0.85824123342E+03  0.00000000000E+00 0. -1.
         -6    2    1    2    0  504 -0.16311948563E+02 -0.22589425125E+02 -0.38483502665E+03  0.42274759699E+03  0.17274597314E+03 0.  0.
        -24    2    3    3    0    0  0.35474818835E+02 -0.41785951000E+02 -0.33777982879E+03  0.35003819232E+03  0.73668140135E+02 0.  0.
          6    2    1    2  502    0  0.16311948563E+02  0.22589425125E+02 -0.43773703819E+03  0.47116280500E+03  0.17205903759E+03 0.  0.
         24    2    5    5    0    0 -0.57046066860E+02  0.11086388425E+02 -0.23016904327E+03  0.25066273516E+03  0.80478920032E+02 0.  0.
          2    1    6    6  501    0 -0.12689693600E+02  0.16104348162E+02 -0.49898965531E+01  0.21101597593E+02  0.00000000000E+00 0. -1.
         -1    1    6    6    0  501 -0.44356373260E+02 -0.50179597370E+01 -0.22517914671E+03  0.22956113757E+03  0.00000000000E+00 0.  1.
          5    1    5    5  502    0  0.73358015422E+02  0.11503036700E+02 -0.20756799493E+03  0.22050006984E+03  0.47000000000E+01 0. -1.
         13    1    4    4    0    0 -0.56488896794E+01 -0.32754573618E+02 -0.55930883707E+02  0.65061784480E+02  0.00000000000E+00 0. -1.
        -14    1    4    4    0    0  0.41123708514E+02 -0.90313773826E+01 -0.28184894508E+03  0.28497640784E+03  0.00000000000E+00 0.  1.
         -5    1    3    3    0  504 -0.51786767397E+02  0.19196525875E+02 -0.47055197859E+02  0.72709404679E+02  0.47000000000E+01 0.  1.
<mgrwt>
<rscale>  2 0.17480888E+03</rscale>
<asrwt>0</asrwt>
<pdfrwt beam="1">  1       21 0.54875646E-02 0.17497866E+03</pdfrwt>
<pdfrwt beam="2">  1       21 0.13203711E+00 0.17497866E+03</pdfrwt>
<totfact> 0.96216579E+04</totfact>
</mgrwt>
</event>
<event>
12    1  0.2743855E-001  0.1845861E+03  0.7546771E-02  0.1163511E+00
         21   -1    0    0  502  503  0.00000000000E+00  0.00000000000E+00  0.13916998852E+03  0.13916998852E+03  0.00000000000E+00 0. -1.
         21   -1    0    0  503  504 -0.00000000000E+00 -0.00000000000E+00 -0.37207189088E+03  0.37207189088E+03  0.00000000000E+00 0. -1.
         -6    2    1    2    0  504 -0.12928681725E+02 -0.63497323954E+02  0.33348976778E+02  0.18726415626E+03  0.17250115654E+03 0.  0.
        -24    2    3    3    0    0  0.23110222628E+02 -0.63259704632E+02  0.76983415990E+02  0.13047583549E+03  0.81003856023E+02 0.  0.
          6    2    1    2  502    0  0.12928681725E+02  0.63497323954E+02 -0.26625087914E+03  0.32397772313E+03  0.17283799781E+03 0.  0.
         24    2    5    5    0    0 -0.23441275233E+02 -0.11550825558E+01 -0.57645808139E+02  0.10252598328E+03  0.81472145254E+02 0.  0.
          4    1    6    6  501    0 -0.46063216017E+02 -0.19681544788E+02 -0.17922891292E+02  0.53201626923E+02  0.00000000000E+00 0. -1.
         -3    1    6    6    0  501  0.22621940783E+02  0.18526462232E+02 -0.39722916846E+02  0.49324356361E+02  0.00000000000E+00 0.  1.
          5    1    5    5  502    0  0.36369956958E+02  0.64652406510E+02 -0.20860507100E+03  0.22145173985E+03  0.47000000000E+01 0. -1.
         11    1    4    4    0    0 -0.12000309142E+02 -0.24287582490E+02  0.73005513737E+02  0.77869757408E+02  0.00000000000E+00 0. -1.
        -12    1    4    4    0    0  0.35110531769E+02 -0.38972122142E+02  0.39779022526E+01  0.52606078087E+02  0.00000000000E+00 0.  1.
         -5    1    3    3    0  504 -0.36038904353E+02 -0.23761932199E+00 -0.43634439211E+02  0.56788320764E+02  0.47000000000E+01 0.  1.
<mgrwt>
<rscale>  2 0.18450722E+03</rscale>
<asrwt>0</asrwt>
<pdfrwt beam="1">  1       21 0.21410768E-01 0.18458612E+03</pdfrwt>
<pdfrwt beam="2">  1       21 0.57241829E-01 0.18458612E+03</pdfrwt>
<totfact> 0.58427200E+04</totfact>
</mgrwt>
</event>
<event>
12    1  0.2743855E-001  0.1905553E+03  0.7546771E-02  0.1158073E+00
         21   -1    0    0  502  503  0.00000000000E+00  0.00000000000E+00  0.23182040341E+03  0.23182040341E+03  0.00000000000E+00 0.  1.
         21   -1    0    0  503  504 -0.00000000000E+00 -0.00000000000E+00 -0.17865108872E+03  0.17865108872E+03  0.00000000000E+00 0.  1.
         -6    2    1    2    0  504  0.72934077527E+02  0.27053481980E+02 -0.46153962989E+02  0.19558443177E+03  0.17341225764E+03 0.  0.
        -24    2    3    3    0    0 -0.23977718366E+02  0.37954288257E+02 -0.16345340339E+02  0.93499331269E+02  0.80370988682E+02 0.  0.
          6    2    1    2  502    0 -0.72934077527E+02 -0.27053481980E+02  0.99323277679E+02  0.21488706035E+03  0.17395420278E+03 0.  0.
         24    2    5    5    0    0  0.14665403973E+02 -0.54714048518E+02  0.55268659831E+02  0.11289845582E+03  0.80515435714E+02 0.  0.
          4    1    6    6  501    0  0.47260201385E+02 -0.42740686260E+02  0.35905009355E+02  0.73140020466E+02  0.00000000000E+00 0. -1.
         -3    1    6    6    0  501 -0.32594797412E+02 -0.11973362258E+02  0.19363650476E+02  0.39758435355E+02  0.00000000000E+00 0.  1.
          5    1    5    5  502    0 -0.87599481500E+02  0.27660566538E+02  0.44054617848E+02  0.10198860453E+03  0.47000000000E+01 0. -1.
         13    1    4    4    0    0  0.91993756874E+01 -0.13837027095E+02  0.16801106036E+02  0.23629832752E+02  0.00000000000E+00 0. -1.
        -14    1    4    4    0    0 -0.33177094054E+02  0.51791315351E+02 -0.33146446375E+02  0.69869498517E+02  0.00000000000E+00 0.  1.
         -5    1    3    3    0  504  0.96911795894E+02 -0.10900806276E+02 -0.29808622651E+02  0.10208510051E+03  0.47000000000E+01 0.  1.
<mgrwt>
<rscale>  2 0.19043156E+03</rscale>
<asrwt>0</asrwt>
<pdfrwt beam="1">  1       21 0.35664678E-01 0.19055533E+03</pdfrwt>
<pdfrwt beam="2">  1       21 0.27484783E-01 0.19055533E+03</pdfrwt>
<totfact> 0.95812300E+04</totfact>
</mgrwt>
</event>
<event>
12    1  0.2743855E-001  0.1825510E+03  0.7546771E-02  0.1165924E+00
         21   -1    0    0  502  503  0.00000000000E+00  0.00000000000E+00  0.15154087658E+03  0.15154087658E+03  0.00000000000E+00 0. -1.
         21   -1    0    0  503  504 -0.00000000000E+00 -0.00000000000E+00 -0.24716606301E+03  0.24716606301E+03  0.00000000000E+00 0. -1.
         -6    2    1    2    0  504 -0.40996731016E+02 -0.35477142283E+02 -0.11766418208E+03  0.21718595552E+03  0.17431442841E+03 0.  0.
        -24    2    3    3    0    0  0.13565782656E+02 -0.59863461205E+02 -0.12019375992E+03  0.15718387878E+03  0.80576469134E+02 0.  0.
          6    2    1    2  502    0  0.40996731016E+02  0.35477142283E+02  0.22038995640E+02  0.18152098407E+03  0.17182779388E+03 0.  0.
         24    2    5    5    0    0  0.49203551620E+02 -0.22308839755E+02  0.57474623901E+02  0.11307870638E+03  0.81023377003E+02 0.  0.
          4    1    6    6  501    0  0.55037952328E+02  0.85735038527E+01  0.10690784909E+02  0.56718374860E+02  0.00000000000E+00 0. -1.
         -3    1    6    6    0  501 -0.58344007080E+01 -0.30882343607E+02  0.46783838992E+02  0.56360331521E+02  0.00000000000E+00 0.  1.
          5    1    5    5  502    0 -0.82068206037E+01  0.57785982037E+02 -0.35435628261E+02  0.68442277685E+02  0.47000000000E+01 0. -1.
         13    1    4    4    0    0  0.23285959820E+02 -0.30928567426E+02 -0.12059544969E+03  0.12665731205E+03  0.00000000000E+00 0. -1.
        -14    1    4    4    0    0 -0.97201771649E+01 -0.28934893778E+02  0.40168976983E+00  0.30526566737E+02  0.00000000000E+00 0.  1.
         -5    1    3    3    0  504 -0.54562513672E+02  0.24386318922E+02  0.25295778493E+01  0.60002076738E+02  0.47000000000E+01 0.  1.
<mgrwt>
<rscale>  2 0.18195489E+03</rscale>
<asrwt>0</asrwt>
<pdfrwt beam="1">  1       21 0.23313981E-01 0.18255103E+03</pdfrwt>
<pdfrwt beam="2">  1       21 0.38025548E-01 0.18255103E+03</pdfrwt>
<totfact> 0.11578781E+05</totfact>
</mgrwt>
</event>
<event>
12    1  0.2743855E-001  0.3463186E+03  0.7546771E-02  0.1064171E+00
         21   -1    0    0  502  503  0.00000000000E+00  0.00000000000E+00  0.80371693763E+03  0.80371693763E+03  0.00000000000E+00 0. -1.
         21   -1    0    0  503  504 -0.00000000000E+00 -0.00000000000E+00 -0.23679065821E+03  0.23679065821E+03  0.00000000000E+00 0.  1.
         -6    2    1    2    0  504 -0.26154242600E+03 -0.14593135728E+03  0.60017666809E+03  0.69292757402E+03  0.17388556087E+03 0.  0.
        -24    2    3    3    0    0 -0.22217331110E+03 -0.54107341447E+02  0.37701558108E+03  0.44837791066E+03  0.81322923154E+02 0.  0.
          6    2    1    2  502    0  0.26154242600E+03  0.14593135728E+03 -0.33250388671E+02  0.34758002183E+03  0.17322205861E+03 0.  0.
         24    2    5    5    0    0  0.16624269769E+03  0.54342034172E+02 -0.78789887073E+02  0.20769943619E+03  0.79633650392E+02 0.  0.
          2    1    6    6  501    0  0.53225804899E+02 -0.63095651332E+01 -0.55836982973E+02  0.77398744091E+02  0.00000000000E+00 0. -1.
         -1    1    6    6    0  501  0.11301689279E+03  0.60651599305E+02 -0.22952904100E+02  0.13030069210E+03  0.00000000000E+00 0.  1.
          5    1    5    5  502    0  0.95299728313E+02  0.91589323106E+02  0.45539498402E+02  0.13988058564E+03  0.47000000000E+01 0. -1.
         11    1    4    4    0    0 -0.80725511894E+02 -0.10382181768E+02  0.20982373250E+03  0.22505643002E+03  0.00000000000E+00 0. -1.
        -12    1    4    4    0    0 -0.14144779921E+03 -0.43725159678E+02  0.16719184857E+03  0.22332148065E+03  0.00000000000E+00 0.  1.
         -5    1    3    3    0  504 -0.39369114905E+02 -0.91824015831E+02  0.22316108701E+03  0.24454966335E+03  0.47000000000E+01 0.  1.
<mgrwt>
<rscale>  2 0.34623543E+03</rscale>
<asrwt>0</asrwt>
<pdfrwt beam="1">  1       21 0.12364876E+00 0.34631862E+03</pdfrwt>
<pdfrwt beam="2">  1       21 0.36429332E-01 0.34631862E+03</pdfrwt>
<totfact> 0.32261201E+03</totfact>
</mgrwt>
</event>
<event>
12    1  0.2743855E-001  0.1916294E+03  0.7546771E-02  0.1157021E+00
         21   -1    0    0  502  503  0.00000000000E+00  0.00000000000E+00  0.25444890043E+03  0.25444890043E+03  0.00000000000E+00 0. -1.
         21   -1    0    0  503  504 -0.00000000000E+00 -0.00000000000E+00 -0.19800382534E+03  0.19800382534E+03  0.00000000000E+00 0.  1.
         -6    2    1    2    0  504  0.34832955889E+02 -0.73894994574E+02 -0.89648706787E+02  0.21156260206E+03  0.17334370172E+03 0.  0.
        -24    2    3    3    0    0 -0.39179923297E+02 -0.13292697794E+02 -0.70404174518E+02  0.11387439048E+03  0.79365400605E+02 0.  0.
          6    2    1    2  502    0 -0.34832955889E+02  0.73894994574E+02  0.14609378187E+03  0.24089012371E+03  0.17323640945E+03 0.  0.
         24    2    5    5    0    0 -0.35053493575E+02  0.11771961686E+03  0.10287393212E+03  0.17915932453E+03  0.80177066852E+02 0.  0.
          2    1    6    6  501    0 -0.50311002557E+02  0.53554497577E+02  0.81716219895E+02  0.10989459397E+03  0.00000000000E+00 0. -1.
         -1    1    6    6    0  501  0.15257508983E+02  0.64165119283E+02  0.21157712229E+02  0.69264730561E+02  0.00000000000E+00 0.  1.
          5    1    5    5  502    0  0.22053768521E+00 -0.43824622285E+02  0.43219849750E+02  0.61730799183E+02  0.47000000000E+01 0. -1.
         13    1    4    4    0    0 -0.31349981275E+02 -0.22220946958E+02 -0.86045417907E+02  0.94235904795E+02  0.00000000000E+00 0. -1.
        -14    1    4    4    0    0 -0.78299420220E+01  0.89282491646E+01  0.15641243389E+02  0.19638485684E+02  0.00000000000E+00 0.  1.
         -5    1    3    3    0  504  0.74012879186E+02 -0.60602296781E+02 -0.19244532268E+02  0.97688211585E+02  0.47000000000E+01 0.  1.
<mgrwt>
<rscale>  2 0.19160518E+03</rscale>
<asrwt>0</asrwt>
<pdfrwt beam="1">  1       21 0.39145985E-01 0.19162944E+03</pdfrwt>
<pdfrwt beam="2">  1       21 0.30462127E-01 0.19162944E+03</pdfrwt>
<totfact> 0.65106158E+04</totfact>
</mgrwt>
</event>
<event>
12    1  0.2743855E-001  0.3326018E+03  0.7546771E-02  0.1070051E+00
         21   -1    0    0  502  503  0.00000000000E+00  0.00000000000E+00  0.14617297331E+04  0.14617297331E+04  0.00000000000E+00 0. -1.
         21   -1    0    0  503  504 -0.00000000000E+00 -0.00000000000E+00 -0.17309170182E+03  0.17309170182E+03  0.00000000000E+00 0.  1.
         -6    2    1    2    0  504  0.81929548719E+01 -0.28349079730E+03  0.30496234539E+02  0.33345878982E+03  0.17271533668E+03 0.  0.
        -24    2    3    3    0    0 -0.29718936117E+02 -0.74130821638E+02 -0.20302817365E+02  0.11466312131E+03  0.79729750496E+02 0.  0.
          6    2    1    2  502    0 -0.81929548719E+01  0.28349079730E+03  0.12581417967E+04  0.13013626451E+04  0.17375211276E+03 0.  0.
         24    2    5    5    0    0 -0.22717499682E+02  0.81551890738E+02  0.57315077183E+03  0.58706223309E+03  0.94728362162E+02 0.  0.
          4    1    6    6  501    0 -0.51049806793E+02  0.16351110406E+02  0.30351470047E+03  0.30821196438E+03  0.00000000000E+00 0. -1.
         -3    1    6    6    0  501  0.28332307111E+02  0.65200780332E+02  0.26963607136E+03  0.27885026871E+03  0.00000000000E+00 0.  1.
          5    1    5    5  502    0  0.14524544810E+02  0.20193890656E+03  0.68499102489E+03  0.71430041199E+03  0.47000000000E+01 0. -1.
         13    1    4    4    0    0 -0.23807261618E+02 -0.67234388399E+02  0.19414749291E+02  0.73920099967E+02  0.00000000000E+00 0. -1.
        -14    1    4    4    0    0 -0.59116744984E+01 -0.68964332386E+01 -0.39717566655E+02  0.40743021339E+02  0.00000000000E+00 0.  1.
         -5    1    3    3    0  504  0.37911890988E+02 -0.20935997566E+03  0.50799051904E+02  0.21879566852E+03  0.47000000000E+01 0.  1.
<mgrwt>
<rscale>  2 0.33246660E+03</rscale>
<asrwt>0</asrwt>
<pdfrwt beam="1">  1       21 0.22488149E+00 0.33260179E+03</pdfrwt>
<pdfrwt beam="2">  1       21 0.26629493E-01 0.33260179E+03</pdfrwt>
<totfact> 0.11155373E+03</totfact>
</mgrwt>
</event>
<event>
12    1  0.2743855E-001  0.1802945E+03  0.7546771E-02  0.1167990E+00
         21   -1    0    0  502  503  0.00000000000E+00  0.00000000000E+00  0.13977871657E+03  0.13977871657E+03  0.00000000000E+00 0. -1.
         21   -1    0    0  503  504 -0.00000000000E+00 -0.00000000000E+00 -0.37493627425E+03  0.37493627425E+03  0.00000000000E+00 0. -1.
         -6    2    1    2    0  504  0.49282909344E+02 -0.15022612771E+02 -0.27794618820E+03  0.33130074768E+03  0.17277620735E+03 0.  0.
        -24    2    3    3    0    0 -0.18700239759E+01 -0.53828369458E+02 -0.23607234760E+03  0.25450219388E+03  0.78359575274E+02 0.  0.
          6    2    1    2  502    0 -0.49282909344E+02  0.15022612771E+02  0.42788630520E+02  0.18341424315E+03  0.17074962266E+03 0.  0.
         24    2    5    5    0    0 -0.40605305080E+02  0.53135396355E+02 -0.22284221488E+02  0.10735866375E+03  0.80976138517E+02 0.  0.
          2    1    6    6  501    0 -0.42574434721E+02  0.73242010303E+02 -0.19833894326E+02  0.87007803840E+02  0.00000000000E+00 0. -1.
         -1    1    6    6    0  501  0.19691296409E+01 -0.20106613948E+02 -0.24503271614E+01  0.20350859913E+02  0.00000000000E+00 0.  1.
          5    1    5    5  502    0 -0.86776042638E+01 -0.38112783584E+02  0.65072852008E+02  0.76055579393E+02  0.47000000000E+01 0. -1.
         11    1    4    4    0    0 -0.94056382226E+00 -0.96754732032E+01 -0.19153400747E+03  0.19178053984E+03  0.00000000000E+00 0. -1.
        -12    1    4    4    0    0 -0.92946015362E+00 -0.44152896254E+02 -0.44538340132E+02  0.62721654040E+02  0.00000000000E+00 0.  1.
         -5    1    3    3    0  504  0.51152933320E+02  0.38805756687E+02 -0.41873840600E+02  0.76798553801E+02  0.47000000000E+01 0.  1.
<mgrwt>
<rscale>  2 0.17980723E+03</rscale>
<asrwt>0</asrwt>
<pdfrwt beam="1">  1       21 0.21504418E-01 0.18029449E+03</pdfrwt>
<pdfrwt beam="2">  1       21 0.57682503E-01 0.18029449E+03</pdfrwt>
<totfact> 0.57123943E+04</totfact>
</mgrwt>
</event>
<event>
12    1  0.2743855E-001  0.1824380E+03  0.7546771E-02  0.1165593E+00
         21   -1    0    0  502  503  0.00000000000E+00  0.00000000000E+00  0.22875920861E+02  0.22875920861E+02  0.00000000000E+00 0. -1.
         21   -1    0    0  503  504 -0.00000000000E+00 -0.00000000000E+00 -0.17257296587E+04  0.17257296587E+04  0.00000000000E+00 0. -1.
         -6    2    1    2    0  504  0.26865710706E+02  0.48827661390E+02 -0.12015561062E+04  0.12153274020E+04  0.17371733030E+03 0.  0.
        -24    2    3    3    0    0 -0.48863614329E+02  0.11832383929E+02 -0.72557868840E+03  0.73192263014E+03  0.81967343150E+02 0.  0.
          6    2    1    2  502    0 -0.26865710706E+02 -0.48827661390E+02 -0.50129763172E+03  0.53327817761E+03  0.17314846872E+03 0.  0.
         24    2    5    5    0    0  0.20786800535E+02  0.13838515477E+02 -0.26376807187E+03  0.28299794796E+03  0.99451733148E+02 0.  0.
          4    1    6    6  501    0 -0.39163407006E+02 -0.34758941318E+01 -0.85019493125E+02  0.93670531650E+02  0.00000000000E+00 0. -1.
         -3    1    6    6    0  501  0.59950207542E+02  0.17314409609E+02 -0.17874857874E+03  0.18932741631E+03  0.00000000000E+00 0.  1.
          5    1    5    5  502    0 -0.47652511241E+02 -0.62666176868E+02 -0.23752955985E+03  0.25028022965E+03  0.47000000000E+01 0. -1.
         11    1    4    4    0    0  0.19591158714E+02  0.16951956000E+02 -0.26387132265E+03  0.26514007096E+03  0.00000000000E+00 0. -1.
        -12    1    4    4    0    0 -0.68454773044E+02 -0.51195720707E+01 -0.46170736575E+03  0.46678255918E+03  0.00000000000E+00 0.  1.
         -5    1    3    3    0  504  0.75729325035E+02  0.36995277461E+02 -0.47597741776E+03  0.48340477185E+03  0.47000000000E+01 0.  1.
<mgrwt>
<rscale>  2 0.18230244E+03</rscale>
<asrwt>0</asrwt>
<pdfrwt beam="1">  1       21 0.35193717E-02 0.18243798E+03</pdfrwt>
<pdfrwt beam="2">  1       21 0.26549693E+00 0.18243798E+03</pdfrwt>
<totfact> 0.26443381E+04</totfact>
</mgrwt>
</event>
<event>
12    1  0.2743855E-001  0.2835189E+03  0.7546771E-02  0.1093811E+00
         21   -1    0    0  502  503  0.00000000000E+00  0.00000000000E+00  0.45770297949E+03  0.45770297949E+03  0.00000000000E+00 0.  1.
         21   -1    0    0  503  504 -0.00000000000E+00 -0.00000000000E+00 -0.36158372076E+03  0.36158372076E+03  0.00000000000E+00 0. -1.
         -6    2    1    2    0  504 -0.22119868080E+03 -0.45294088091E+02  0.34192783432E+03  0.44404702422E+03  0.17112190108E+03 0.  0.
        -24    2    3    3    0    0 -0.23829144476E+03 -0.29634351282E+02  0.28122804604E+03  0.37890146233E+03  0.82559656322E+02 0.  0.
          6    2    1    2  502    0  0.22119868080E+03  0.45294088091E+02 -0.24580857559E+03  0.37523967603E+03  0.17147171145E+03 0.  0.
         24    2    5    5    0    0  0.16553883121E+03  0.92647544287E+02 -0.15119531491E+03  0.25559801202E+03  0.80521105282E+02 0.  0.
          2    1    6    6  501    0  0.17084161226E+03  0.97134757174E+02 -0.13630615578E+03  0.23916811166E+03  0.00000000000E+00 0. -1.
         -1    1    6    6    0  501 -0.53027810458E+01 -0.44872128870E+01 -0.14889159129E+02  0.16429900361E+02  0.00000000000E+00 0.  1.
          5    1    5    5  502    0  0.55659849591E+02 -0.47353456196E+02 -0.94613260682E+02  0.11964166401E+03  0.47000000000E+01 0. -1.
         11    1    4    4    0    0 -0.81532622589E+02  0.22418902610E+02  0.64209035708E+02  0.10617427187E+03  0.00000000000E+00 0. -1.
        -12    1    4    4    0    0 -0.15675882217E+03 -0.52053253892E+02  0.21701901033E+03  0.27272719046E+03  0.00000000000E+00 0.  1.
         -5    1    3    3    0  504  0.17092763961E+02 -0.15659736809E+02  0.60699788284E+02  0.65145561894E+02  0.47000000000E+01 0.  1.
<mgrwt>
<rscale>  2 0.28346601E+03</rscale>
<asrwt>0</asrwt>
<pdfrwt beam="1">  1       21 0.70415843E-01 0.28351889E+03</pdfrwt>
<pdfrwt beam="2">  1       21 0.55628265E-01 0.28351889E+03</pdfrwt>
<totfact> 0.52497309E+03</totfact>
</mgrwt>
</event>
<event>
12    1  0.2743855E-001  0.1746801E+03  0.7546771E-02  0.1173649E+00
         21   -1    0    0  502  503  0.00000000000E+00  0.00000000000E+00  0.29007070889E+03  0.29007070889E+03  0.00000000000E+00 0.  1.
         21   -1    0    0  503  504 -0.00000000000E+00 -0.00000000000E+00 -0.14860116498E+03  0.14860116498E+03  0.00000000000E+00 0.  1.
         -6    2    1    2    0  504 -0.26406385013E+02 -0.14992132736E+01 -0.50054359788E+02  0.17945279340E+03  0.17028893480E+03 0.  0.
        -24    2    3    3    0    0 -0.17152107890E+02 -0.60006800634E+02 -0.34137511696E+01  0.10391329515E+03  0.83013904160E+02 0.  0.
          6    2    1    2  502    0  0.26406385013E+02  0.14992132736E+01  0.19152390369E+03  0.25921908047E+03  0.17266609738E+03 0.  0.
         24    2    5    5    0    0 -0.40731954740E+02 -0.27173191710E+02  0.71943788891E+02  0.11903649479E+03  0.81217632608E+02 0.  0.
          4    1    6    6  501    0 -0.79146691916E+01 -0.45792813487E+02  0.11649939926E+02  0.47909757417E+02  0.00000000000E+00 0. -1.
         -3    1    6    6    0  501 -0.32817285549E+02  0.18619621777E+02  0.60293848965E+02  0.71126737370E+02  0.00000000000E+00 0.  1.
          5    1    5    5  502    0  0.67138339753E+02  0.28672404984E+02  0.11958011480E+03  0.14018258568E+03  0.47000000000E+01 0. -1.
         11    1    4    4    0    0 -0.11864030533E+01 -0.16061191307E+02  0.38114647949E+02  0.41377479462E+02  0.00000000000E+00 0. -1.
        -12    1    4    4    0    0 -0.15965704837E+02 -0.43945609326E+02 -0.41528399118E+02  0.62535815684E+02  0.00000000000E+00 0.  1.
         -5    1    3    3    0  504 -0.92542771221E+01  0.58507587360E+02 -0.46640608618E+02  0.75539498251E+02  0.47000000000E+01 0.  1.
<mgrwt>
<rscale>  2 0.17408974E+03</rscale>
<asrwt>0</asrwt>
<pdfrwt beam="1">  1       21 0.44626263E-01 0.17468007E+03</pdfrwt>
<pdfrwt beam="2">  1       21 0.22861718E-01 0.17468007E+03</pdfrwt>
<totfact> 0.87162058E+04</totfact>
</mgrwt>
</event>
<event>
12    1  0.2743855E-001  0.2227393E+03  0.7546771E-02  0.1132032E+00
         21   -1    0    0  502  503  0.00000000000E+00  0.00000000000E+00  0.40120294688E+03  0.40120294688E+03  0.00000000000E+00 0. -1.
         21   -1    0    0  503  504 -0.00000000000E+00 -0.00000000000E+00 -0.17912732975E+03  0.17912732975E+03  0.00000000000E+00 0. -1.
         -6    2    1    2    0  504  0.12013357682E+03  0.71369036051E+02 -0.51359005766E+02  0.22765582585E+03  0.17223185531E+03 0.  0.
        -24    2    3    3    0    0  0.15327167153E+03  0.69596675012E+02 -0.54862749285E+02  0.19395655577E+03  0.79204304179E+02 0.  0.
          6    2    1    2  502    0 -0.12013357682E+03 -0.71369036051E+02  0.27343462289E+03  0.35267445079E+03  0.17345650653E+03 0.  0.
         24    2    5    5    0    0 -0.25301724477E+02  0.18658615909E+02  0.14897086687E+03  0.17208825282E+03  0.80210512850E+02 0.  0.
          4    1    6    6  501    0 -0.39679510427E+02  0.19979869391E+02  0.15109830841E+03  0.15749399206E+03  0.00000000000E+00 0. -1.
         -3    1    6    6    0  501  0.14377785950E+02 -0.13212534821E+01 -0.21274415426E+01  0.14594260759E+02  0.00000000000E+00 0.  1.
          5    1    5    5  502    0 -0.94831852340E+02 -0.90027651960E+02  0.12446375602E+03  0.18058619797E+03  0.47000000000E+01 0. -1.
         11    1    4    4    0    0  0.85595246104E+02  0.78462519965E+02 -0.21915867215E+02  0.11816606294E+03  0.00000000000E+00 0. -1.
        -12    1    4    4    0    0  0.67676425428E+02 -0.88658449532E+01 -0.32946882070E+02  0.75790492831E+02  0.00000000000E+00 0.  1.
         -5    1    3    3    0  504 -0.33138094715E+02  0.17723610393E+01  0.35037435195E+01  0.33699270075E+02  0.47000000000E+01 0.  1.
<mgrwt>
<rscale>  2 0.22250078E+03</rscale>
<asrwt>0</asrwt>
<pdfrwt beam="1">  1       21 0.61723530E-01 0.22273925E+03</pdfrwt>
<pdfrwt beam="2">  1       21 0.27558051E-01 0.22273925E+03</pdfrwt>
<totfact> 0.30143064E+04</totfact>
</mgrwt>
</event>
<event>
12    1  0.2743855E-001  0.2257618E+03  0.7546771E-02  0.1130384E+00
         21   -1    0    0  502  503  0.00000000000E+00  0.00000000000E+00  0.12066124796E+03  0.12066124796E+03  0.00000000000E+00 0.  1.
         21   -1    0    0  503  504 -0.00000000000E+00 -0.00000000000E+00 -0.67840348868E+03  0.67840348868E+03  0.00000000000E+00 0.  1.
         -6    2    1    2    0  504  0.69056690302E+02  0.12675277876E+03 -0.52934564355E+03  0.57547821802E+03  0.17358938814E+03 0.  0.
        -24    2    3    3    0    0  0.53887893569E+02  0.37950370363E+02 -0.13461469721E+03  0.17057011718E+03  0.81418133641E+02 0.  0.
          6    2    1    2  502    0 -0.69056690302E+02 -0.12675277876E+03 -0.28396597175E+02  0.22358651863E+03  0.16837301204E+03 0.  0.
         24    2    5    5    0    0 -0.60135736758E+02 -0.63370039618E+02  0.44178159264E+02  0.12670442376E+03  0.80437755369E+02 0.  0.
          2    1    6    6  501    0 -0.75915822838E+02 -0.35919097657E+02  0.18646100715E+02  0.86029476377E+02  0.00000000000E+00 0. -1.
         -1    1    6    6    0  501  0.15780086080E+02 -0.27450941961E+02  0.25532058549E+02  0.40674947387E+02  0.00000000000E+00 0.  1.
          5    1    5    5  502    0 -0.89209535438E+01 -0.63382739137E+02 -0.72574756439E+02  0.96882094862E+02  0.47000000000E+01 0. -1.
         13    1    4    4    0    0  0.18258681969E+02  0.59744555646E+02 -0.72277490210E+02  0.95534428284E+02  0.00000000000E+00 0. -1.
        -14    1    4    4    0    0  0.35629211600E+02 -0.21794185283E+02 -0.62337207003E+02  0.75035688897E+02  0.00000000000E+00 0.  1.
         -5    1    3    3    0  504  0.15168796733E+02  0.88802408392E+02 -0.39473094633E+03  0.40490810084E+03  0.47000000000E+01 0.  1.
<mgrwt>
<rscale>  2 0.22475863E+03</rscale>
<asrwt>0</asrwt>
<pdfrwt beam="1">  1       21 0.18563269E-01 0.22576175E+03</pdfrwt>
<pdfrwt beam="2">  1       21 0.10436977E+00 0.22576175E+03</pdfrwt>
<totfact> 0.19268596E+04</totfact>
</mgrwt>
</event>
<event>
12    1  0.2743855E-001  0.1834340E+03  0.7546771E-02  0.1164795E+00
         21   -1    0    0  502  503  0.00000000000E+00  0.00000000000E+00  0.10676083313E+03  0.10676083313E+03  0.00000000000E+00 0. -1.
         21   -1    0    0  503  504 -0.00000000000E+00 -0.00000000000E+00 -0.51992337982E+03  0.51992337982E+03  0.00000000000E+00 0.  1.
         -6    2    1    2    0  504 -0.48310804110E+02  0.32004002292E+02 -0.40456583403E+03  0.44420890979E+03  0.17403979866E+03 0.  0.
        -24    2    3    3    0    0  0.17896585033E+02  0.27736204410E+00 -0.95677092024E+02  0.12668041813E+03  0.81076863002E+02 0.  0.
          6    2    1    2  502    0  0.48310804110E+02 -0.32004002292E+02 -0.85967126541E+01  0.18247530315E+03  0.17281534317E+03 0.  0.
         24    2    5    5    0    0  0.41125863337E+02 -0.78655177268E+02  0.26396578141E+02  0.12352976981E+03  0.81760938994E+02 0.  0.
          4    1    6    6  501    0  0.43766367245E+02 -0.60356273230E+02  0.52756472029E+02  0.91332469369E+02  0.00000000000E+00 0. -1.
         -3    1    6    6    0  501 -0.26405039072E+01 -0.18298904038E+02 -0.26359893888E+02  0.32197300440E+02  0.00000000000E+00 0.  1.
          5    1    5    5  502    0  0.71849407728E+01  0.46651174976E+02 -0.34993290795E+02  0.58945533344E+02  0.47000000000E+01 0. -1.
         13    1    4    4    0    0  0.28832313177E+02  0.15392997943E+02 -0.10189992910E+03  0.10701328057E+03  0.00000000000E+00 0. -1.
        -14    1    4    4    0    0 -0.10935728144E+02 -0.15115635898E+02  0.62228370707E+01  0.19667137562E+02  0.00000000000E+00 0.  1.
         -5    1    3    3    0  504 -0.66207389143E+02  0.31726640248E+02 -0.30888874201E+03  0.31752849166E+03  0.47000000000E+01 0.  1.
<mgrwt>
<rscale>  2 0.18314300E+03</rscale>
<asrwt>0</asrwt>
<pdfrwt beam="1">  1       21 0.16424744E-01 0.18343402E+03</pdfrwt>
<pdfrwt beam="2">  1       21 0.79988212E-01 0.18343402E+03</pdfrwt>
<totfact> 0.45931385E+04</totfact>
</mgrwt>
</event>
<event>
12    1  0.2743855E-001  0.1971259E+03  0.7546771E-02  0.1152723E+00
         21   -1    0    0  502  503  0.00000000000E+00  0.00000000000E+00  0.28024120573E+03  0.28024120573E+03  0.00000000000E+00 0.  1.
         21   -1    0    0  503  504 -0.00000000000E+00 -0.00000000000E+00 -0.15096104753E+03  0.15096104753E+03  0.00000000000E+00 0. -1.
         -6    2    1    2    0  504 -0.17349472427E+02 -0.86690040640E+02  0.13001527910E+03  0.23407494091E+03  0.17340973970E+03 0.  0.
        -24    2    3    3    0    0 -0.34147087796E+02 -0.99263697051E+02  0.35406134456E+02  0.13705310333E+03  0.80688621363E+02 0.  0.
          6    2    1    2  502    0  0.17349472427E+02  0.86690040640E+02 -0.73512089369E+00  0.19712731235E+03  0.17618873270E+03 0.  0.
         24    2    5    5    0    0  0.38699675870E+02 -0.16842678935E+02  0.74705958007E+01  0.90994004681E+02  0.80266794755E+02 0.  0.
          2    1    6    6  501    0  0.54154876679E+02 -0.36460036033E+02  0.93432027326E+01  0.65949831940E+02  0.00000000000E+00 0. -1.
         -1    1    6    6    0  501 -0.15455200809E+02  0.19617357098E+02 -0.18726069319E+01  0.25044172741E+02  0.00000000000E+00 0.  1.
          5    1    5    5  502    0 -0.21350203442E+02  0.10353271958E+03 -0.82057166944E+01  0.10613330767E+03  0.47000000000E+01 0. -1.
         11    1    4    4    0    0 -0.51961366676E+02 -0.32033724963E+02  0.27845241685E+02  0.67093223550E+02  0.00000000000E+00 0. -1.
        -12    1    4    4    0    0  0.17814278880E+02 -0.67229972088E+02  0.75608927705E+01  0.69959879778E+02  0.00000000000E+00 0.  1.
         -5    1    3    3    0  504  0.16797615369E+02  0.12573656411E+02  0.94609144643E+02  0.97021837582E+02  0.47000000000E+01 0.  1.
<mgrwt>
<rscale>  2 0.19650304E+03</rscale>
<asrwt>0</asrwt>
<pdfrwt beam="1">  1       21 0.43114032E-01 0.19712594E+03</pdfrwt>
<pdfrwt beam="2">  1       21 0.23224777E-01 0.19712594E+03</pdfrwt>
<totfact> 0.89967803E+04</totfact>
</mgrwt>
</event>
<event>
12    1  0.2743855E-001  0.1990236E+03  0.7546771E-02  0.1150670E+00
         21   -1    0    0  502  503  0.00000000000E+00  0.00000000000E+00  0.14134596058E+03  0.14134596058E+03  0.00000000000E+00 0.  1.
         21   -1    0    0  503  504 -0.00000000000E+00 -0.00000000000E+00 -0.36210261604E+03  0.36210261604E+03  0.00000000000E+00 0.  1.
         -6    2    1    2    0  504 -0.93311996750E+02  0.27331468833E+02 -0.23046729590E+03  0.30418817145E+03  0.17309283995E+03 0.  0.
        -24    2    3    3    0    0 -0.56301848259E+02  0.81774099556E+02 -0.11967668137E+03  0.17522925783E+03  0.80782939175E+02 0.  0.
          6    2    1    2  502    0  0.93311996750E+02 -0.27331468833E+02  0.97106404407E+01  0.19926040517E+03  0.17365562072E+03 0.  0.
         24    2    5    5    0    0  0.11693848454E+03 -0.60141755373E+01  0.47875434892E+02  0.14934768681E+03  0.79384474647E+02 0.  0.
          2    1    6    6  501    0  0.11059938814E+03  0.71597998712E+01  0.63676327646E+02  0.12782082027E+03  0.00000000000E+00 0. -1.
         -1    1    6    6    0  501  0.63390963987E+01 -0.13173975409E+02 -0.15800892754E+02  0.21526866540E+02  0.00000000000E+00 0.  1.
          5    1    5    5  502    0 -0.23626487793E+02 -0.21317293295E+02 -0.38164794451E+02  0.49912718363E+02  0.47000000000E+01 0. -1.
         13    1    4    4    0    0 -0.12692964486E+01  0.18879797939E+02  0.96568133648E+01  0.21244103371E+02  0.00000000000E+00 0. -1.
        -14    1    4    4    0    0 -0.55032551810E+02  0.62894301618E+02 -0.12933349473E+03  0.15398515446E+03  0.00000000000E+00 0.  1.
         -5    1    3    3    0  504 -0.37010148491E+02 -0.54442630724E+02 -0.11079061453E+03  0.12895891361E+03  0.47000000000E+01 0.  1.
<mgrwt>
<rscale>  2 0.19890082E+03</rscale>
<asrwt>0</asrwt>
<pdfrwt beam="1">  1       21 0.21745532E-01 0.19902365E+03</pdfrwt>
<pdfrwt beam="2">  1       21 0.55708095E-01 0.19902365E+03</pdfrwt>
<totfact> 0.59720824E+04</totfact>
</mgrwt>
</event>
<event>
12    1  0.2743855E-001  0.2505824E+03  0.7546771E-02  0.1113290E+00
         21   -1    0    0  502  503  0.00000000000E+00  0.00000000000E+00  0.35047657146E+03  0.35047657146E+03  0.00000000000E+00 0. -1.
         21   -1    0    0  503  504 -0.00000000000E+00 -0.00000000000E+00 -0.17757330467E+03  0.17757330467E+03  0.00000000000E+00 0. -1.
         -6    2    1    2    0  504  0.32550760373E+02 -0.17573379792E+03  0.87224667120E+02  0.26322475269E+03  0.17244479738E+03 0.  0.
        -24    2    3    3    0    0  0.28563301856E+02 -0.19191351980E+03  0.41289693740E+02  0.21413508978E+03  0.80637066981E+02 0.  0.
          6    2    1    2  502    0 -0.32550760373E+02  0.17573379792E+03  0.85678599662E+02  0.26482512344E+03  0.17564055293E+03 0.  0.
         24    2    5    5    0    0  0.99114331705E-01  0.19519577044E+03  0.61788478797E+02  0.21968522349E+03  0.79639077618E+02 0.  0.
          2    1    6    6  501    0  0.32188885822E+02  0.69346746405E+02  0.45040189147E+02  0.88733952047E+02  0.00000000000E+00 0. -1.
         -1    1    6    6    0  501 -0.32089771490E+02  0.12584902404E+03  0.16748289650E+02  0.13095127144E+03  0.00000000000E+00 0.  1.
          5    1    5    5  502    0 -0.32649874705E+02 -0.19461972523E+02  0.23890120865E+02  0.45139899952E+02  0.47000000000E+01 0. -1.
         11    1    4    4    0    0  0.55246845155E+02 -0.11947766369E+03  0.37401184341E+02  0.13684288293E+03  0.00000000000E+00 0. -1.
        -12    1    4    4    0    0 -0.26683543299E+02 -0.72435856112E+02  0.38885093988E+01  0.77292206846E+02  0.00000000000E+00 0.  1.
         -5    1    3    3    0  504  0.39874585167E+01  0.16179721877E+02  0.45934973380E+02  0.49089662912E+02  0.47000000000E+01 0.  1.
<mgrwt>
<rscale>  2 0.25002311E+03</rscale>
<asrwt>0</asrwt>
<pdfrwt beam="1">  1       21 0.53919472E-01 0.25058237E+03</pdfrwt>
<pdfrwt beam="2">  1       21 0.27318970E-01 0.25058237E+03</pdfrwt>
<totfact> 0.40447740E+04</totfact>
</mgrwt>
</event>
<event>
12    1  0.2743855E-001  0.2006712E+03  0.7546771E-02  0.1149484E+00
         21   -1    0    0  502  503  0.00000000000E+00  0.00000000000E+00  0.16224031103E+03  0.16224031103E+03  0.00000000000E+00 0.  1.
         21   -1    0    0  503  504 -0.00000000000E+00 -0.00000000000E+00 -0.28378612216E+03  0.28378612216E+03  0.00000000000E+00 0.  1.
         -6    2    1    2    0  504  0.17241034464E+02 -0.98933021500E+02 -0.14192138161E+03  0.24578565995E+03  0.17373518949E+03 0.  0.
        -24    2    3    3    0    0 -0.44361157966E+02 -0.65589718374E+01 -0.72010301620E+02  0.11449421214E+03  0.76892838586E+02 0.  0.
          6    2    1    2  502    0 -0.17241034464E+02  0.98933021500E+02  0.20375570476E+02  0.20024077324E+03  0.17203548292E+03 0.  0.
         24    2    5    5    0    0 -0.23927339932E+02  0.13203745357E+03  0.38296730681E+02  0.16171976486E+03  0.81732710856E+02 0.  0.
          4    1    6    6  501    0  0.56999020058E+01  0.79929047425E+02  0.57667662273E+02  0.98725380613E+02  0.00000000000E+00 0. -1.
         -3    1    6    6    0  501 -0.29627241938E+02  0.52108406147E+02 -0.19370931592E+02  0.62994384248E+02  0.00000000000E+00 0.  1.
          5    1    5    5  502    0  0.66863054684E+01 -0.33104432072E+02 -0.17921160205E+02  0.38521008381E+02  0.47000000000E+01 0. -1.
         13    1    4    4    0    0 -0.33126243957E+02  0.24434918651E+02 -0.72100908118E+01  0.41789935364E+02  0.00000000000E+00 0. -1.
        -14    1    4    4    0    0 -0.11234914009E+02 -0.30993890488E+02 -0.64800210808E+02  0.72704276774E+02  0.00000000000E+00 0.  1.
         -5    1    3    3    0  504  0.61602192430E+02 -0.92374049663E+02 -0.69911079992E+02  0.13129144781E+03  0.47000000000E+01 0.  1.
<mgrwt>
<rscale>  2 0.20030271E+03</rscale>
<asrwt>0</asrwt>
<pdfrwt beam="1">  1       21 0.24960048E-01 0.20067115E+03</pdfrwt>
<pdfrwt beam="2">  1       21 0.43659403E-01 0.20067115E+03</pdfrwt>
<totfact> 0.76330283E+04</totfact>
</mgrwt>
</event>
<event>
12    1  0.2743855E-001  0.3183185E+03  0.7546771E-02  0.1076661E+00
         21   -1    0    0  502  503  0.00000000000E+00  0.00000000000E+00  0.73617124701E+03  0.73617124701E+03  0.00000000000E+00 0.  1.
         21   -1    0    0  503  504 -0.00000000000E+00 -0.00000000000E+00 -0.18584851829E+03  0.18584851829E+03  0.00000000000E+00 0.  1.
         -6    2    1    2    0  504 -0.90196202724E+02 -0.24779347670E+03  0.38895155839E+02  0.32068594603E+03  0.17829660892E+03 0.  0.
        -24    2    3    3    0    0 -0.10704880376E+03 -0.95769325809E+02  0.21813759344E+02  0.16670797124E+03  0.81758775829E+02 0.  0.
          6    2    1    2  502    0  0.90196202724E+02  0.24779347670E+03  0.51142757288E+03  0.60133381928E+03  0.17466321258E+03 0.  0.
         24    2    5    5    0    0 -0.10633767247E+02  0.10390222968E+03  0.29140401265E+03  0.31972446065E+03  0.79991760883E+02 0.  0.
          4    1    6    6  501    0 -0.43370982764E+02  0.79579535427E+02  0.19394989770E+03  0.21408060964E+03  0.00000000000E+00 0. -1.
         -3    1    6    6    0  501  0.32737215516E+02  0.24322694249E+02  0.97454114954E+02  0.10564385101E+03  0.00000000000E+00 0.  1.
          5    1    5    5  502    0  0.10082996997E+03  0.14389124702E+03  0.22002356023E+03  0.28160935863E+03  0.47000000000E+01 0. -1.
         11    1    4    4    0    0  0.37632191717E+01  0.98917953545E+01 -0.42269957074E+01  0.11396355846E+02  0.00000000000E+00 0. -1.
        -12    1    4    4    0    0 -0.11081202293E+03 -0.10566112116E+03  0.26040755051E+02  0.15531161539E+03  0.00000000000E+00 0.  1.
         -5    1    3    3    0  504  0.16852601034E+02 -0.15202415089E+03  0.17081396496E+02  0.15397797479E+03  0.47000000000E+01 0.  1.
<mgrwt>
<rscale>  2 0.31781205E+03</rscale>
<asrwt>0</asrwt>
<pdfrwt beam="1">  1       21 0.11325711E+00 0.31831846E+03</pdfrwt>
<pdfrwt beam="2">  1       21 0.28592080E-01 0.31831846E+03</pdfrwt>
<totfact> 0.65992733E+03</totfact>
</mgrwt>
</event>
<event>
12    1  0.2743855E-001  0.2349689E+03  0.7546771E-02  0.1123520E+00
         21   -1    0    0  502  503  0.00000000000E+00  0.00000000000E+00  0.48656408344E+03  0.48656408344E+03  0.00000000000E+00 0. -1.
         21   -1    0    0  503  504 -0.00000000000E+00 -0.00000000000E+00 -0.11287799931E+03  0.11287799931E+03  0.00000000000E+00 0. -1.
         -6    2    1    2    0  504 -0.14166675714E+03 -0.69780174954E+02  0.16986157232E+03  0.28838768875E+03  0.17139358907E+03 0.  0.
        -24    2    3    3    0    0 -0.15027719447E+03 -0.73061974833E+02  0.18883428955E+03  0.26677834261E+03  0.87126389976E+02 0.  0.
          6    2    1    2  502    0  0.14166675714E+03  0.69780174954E+02  0.20382451181E+03  0.31105439400E+03  0.17398753264E+03 0.  0.
         24    2    5    5    0    0  0.15933359459E+03  0.20605230629E+02  0.17714021421E+03  0.25219495097E+03  0.80074140091E+02 0.  0.
          4    1    6    6  501    0  0.94518007514E+02  0.44474638426E+02  0.13709043277E+03  0.17235264421E+03  0.00000000000E+00 0. -1.
         -3    1    6    6    0  501  0.64815587072E+02 -0.23869407797E+02  0.40049781441E+02  0.79842306765E+02  0.00000000000E+00 0.  1.
          5    1    5    5  502    0 -0.17666837446E+02  0.49174944326E+02  0.26684297597E+02  0.58859443023E+02  0.47000000000E+01 0. -1.
         13    1    4    4    0    0  0.10337784503E+01 -0.16433563186E+02  0.53652735177E+02  0.56122604081E+02  0.00000000000E+00 0. -1.
        -14    1    4    4    0    0 -0.15131097292E+03 -0.56628411647E+02  0.13518155438E+03  0.21065573853E+03  0.00000000000E+00 0.  1.
         -5    1    3    3    0  504  0.86104373283E+01  0.32817998787E+01 -0.18972717232E+02  0.21609346140E+02  0.47000000000E+01 0.  1.
<mgrwt>
<rscale>  2 0.23448892E+03</rscale>
<asrwt>0</asrwt>
<pdfrwt beam="1">  1       21 0.74856012E-01 0.23496894E+03</pdfrwt>
<pdfrwt beam="2">  1       21 0.17365846E-01 0.23496894E+03</pdfrwt>
<totfact> 0.46945794E+04</totfact>
</mgrwt>
</event>
<event>
12    1  0.2743855E-001  0.2148531E+03  0.7546771E-02  0.1137890E+00
         21   -1    0    0  502  503  0.00000000000E+00  0.00000000000E+00  0.55047777040E+02  0.55047777040E+02  0.00000000000E+00 0. -1.
         21   -1    0    0  503  504 -0.00000000000E+00 -0.00000000000E+00 -0.84403048196E+03  0.84403048196E+03  0.00000000000E+00 0.  1.
         -6    2    1    2    0  504 -0.79476193054E+02  0.99997442786E+02 -0.35105235875E+03  0.41128236869E+03  0.17204497779E+03 0.  0.
        -24    2    3    3    0    0 -0.67087814492E+02 -0.77604817001E+01 -0.18989389185E+03  0.21696462975E+03  0.80330320993E+02 0.  0.
          6    2    1    2  502    0  0.79476193054E+02 -0.99997442786E+02 -0.43793034617E+03  0.48779589031E+03  0.17275962688E+03 0.  0.
         24    2    5    5    0    0  0.50587570693E+02 -0.77790382984E+02 -0.14045712064E+03  0.18806248224E+03  0.83838228118E+02 0.  0.
          2    1    6    6  501    0 -0.17898364167E+02 -0.46373674145E+02 -0.56241275989E+02  0.75059644406E+02  0.00000000000E+00 0. -1.
         -1    1    6    6    0  501  0.68485934860E+02 -0.31416708839E+02 -0.84215844649E+02  0.11300283783E+03  0.00000000000E+00 0.  1.
          5    1    5    5  502    0  0.28888622360E+02 -0.22207059802E+02 -0.29747322553E+03  0.29973340807E+03  0.47000000000E+01 0. -1.
         11    1    4    4    0    0 -0.21694326294E+02 -0.35864875701E+00 -0.12074675484E+00  0.21697626646E+02  0.00000000000E+00 0. -1.
        -12    1    4    4    0    0 -0.45393488197E+02 -0.74018329431E+01 -0.18977314509E+03  0.19526700310E+03  0.00000000000E+00 0.  1.
         -5    1    3    3    0  504 -0.12388378562E+02  0.10775792449E+03 -0.16115846690E+03  0.19431773894E+03  0.47000000000E+01 0.  1.
<mgrwt>
<rscale>  2 0.21470937E+03</rscale>
<asrwt>0</asrwt>
<pdfrwt beam="1">  1       21 0.84688887E-02 0.21485307E+03</pdfrwt>
<pdfrwt beam="2">  1       21 0.12985084E+00 0.21485307E+03</pdfrwt>
<totfact> 0.46541892E+04</totfact>
</mgrwt>
</event>
<event>
12    1  0.2743855E-001  0.2198228E+03  0.7546771E-02  0.1134309E+00
         21   -1    0    0  502  503  0.00000000000E+00  0.00000000000E+00  0.20024488693E+03  0.20024488693E+03  0.00000000000E+00 0.  1.
         21   -1    0    0  503  504 -0.00000000000E+00 -0.00000000000E+00 -0.24882437763E+03  0.24882437763E+03  0.00000000000E+00 0.  1.
         -6    2    1    2    0  504  0.12354513906E+03 -0.50104226102E+02 -0.67613956035E+02  0.22998629695E+03  0.17478047625E+03 0.  0.
        -24    2    3    3    0    0  0.40921710169E+02  0.25205166572E+02 -0.72681144371E+02  0.11797780610E+03  0.79538212197E+02 0.  0.
          6    2    1    2  502    0 -0.12354513906E+03  0.50104226102E+02  0.19034465337E+02  0.21908296761E+03  0.17280393795E+03 0.  0.
         24    2    5    5    0    0 -0.48945412968E+02 -0.12709394582E+02  0.59166433815E+02  0.11352097175E+03  0.82638743795E+02 0.  0.
          2    1    6    6  501    0 -0.21212849794E+02 -0.47125652101E+02  0.23717768888E+02  0.56862506481E+02  0.00000000000E+00 0. -1.
         -1    1    6    6    0  501 -0.27732563174E+02  0.34416257519E+02  0.35448664928E+02  0.56658465272E+02  0.00000000000E+00 0.  1.
          5    1    5    5  502    0 -0.74599726087E+02  0.62813620684E+02 -0.40131968478E+02  0.10556199586E+03  0.47000000000E+01 0. -1.
         11    1    4    4    0    0  0.30113156989E+02  0.28082066469E+02  0.31787305057E+01  0.41297808764E+02  0.00000000000E+00 0. -1.
        -12    1    4    4    0    0  0.10808553180E+02 -0.28768998971E+01 -0.75859874877E+02  0.76679997334E+02  0.00000000000E+00 0.  1.
         -5    1    3    3    0  504  0.82623428886E+02 -0.75309392674E+02  0.50671883360E+01  0.11200849085E+03  0.47000000000E+01 0.  1.
<mgrwt>
<rscale>  2 0.21942965E+03</rscale>
<asrwt>0</asrwt>
<pdfrwt beam="1">  1       21 0.30806906E-01 0.21982277E+03</pdfrwt>
<pdfrwt beam="2">  1       21 0.38280673E-01 0.21982277E+03</pdfrwt>
<totfact> 0.65792002E+04</totfact>
</mgrwt>
</event>
<event>
12    1  0.2743855E-001  0.2004411E+03  0.7546771E-02  0.1149646E+00
         21   -1    0    0  502  503  0.00000000000E+00  0.00000000000E+00  0.36233208554E+03  0.36233208554E+03  0.00000000000E+00 0. -1.
         21   -1    0    0  503  504 -0.00000000000E+00 -0.00000000000E+00 -0.13778590722E+03  0.13778590722E+03  0.00000000000E+00 0. -1.
         -6    2    1    2    0  504 -0.16741533937E+02  0.97568242765E+02 -0.20157988166E-02  0.19912209424E+03  0.17277085245E+03 0.  0.
        -24    2    3    3    0    0 -0.85508509222E+01  0.13265893516E+03  0.21279292912E+02  0.15701000474E+03  0.80794945094E+02 0.  0.
          6    2    1    2  502    0  0.16741533937E+02 -0.97568242765E+02  0.22454819412E+03  0.30099589852E+03  0.17428941015E+03 0.  0.
         24    2    5    5    0    0  0.33005537390E+02 -0.59415939458E+02  0.23540876680E+03  0.25786634839E+03  0.80362595676E+02 0.  0.
          2    1    6    6  501    0 -0.81900796786E+01 -0.42342134382E+02  0.45094929362E+02  0.62397807680E+02  0.00000000000E+00 0. -1.
         -1    1    6    6    0  501  0.41195617069E+02 -0.17073805076E+02  0.19031383744E+03  0.19546854071E+03  0.00000000000E+00 0.  1.
          5    1    5    5  502    0 -0.16264003453E+02 -0.38152303307E+02 -0.10860572682E+02  0.43129550136E+02  0.47000000000E+01 0. -1.
         11    1    4    4    0    0  0.27742848178E+02  0.13229904951E+02  0.46220192207E+01  0.31081490822E+02  0.00000000000E+00 0. -1.
        -12    1    4    4    0    0 -0.36293699100E+02  0.11942903021E+03  0.16657273691E+02  0.12592851392E+03  0.00000000000E+00 0.  1.
         -5    1    3    3    0  504 -0.81906830153E+01 -0.35090692398E+02 -0.21281308711E+02  0.42112089496E+02  0.47000000000E+01 0.  1.
<mgrwt>
<rscale>  2 0.20011054E+03</rscale>
<asrwt>0</asrwt>
<pdfrwt beam="1">  1       21 0.55743397E-01 0.20044111E+03</pdfrwt>
<pdfrwt beam="2">  1       21 0.21197832E-01 0.20044111E+03</pdfrwt>
<totfact> 0.62532116E+04</totfact>
</mgrwt>
</event>
<event>
12    1  0.2743855E-001  0.1874082E+03  0.7546771E-02  0.1161063E+00
         21   -1    0    0  502  503  0.00000000000E+00  0.00000000000E+00  0.11539557842E+03  0.11539557842E+03  0.00000000000E+00 0.  1.
         21   -1    0    0  503  504 -0.00000000000E+00 -0.00000000000E+00 -0.30885289385E+03  0.30885289385E+03  0.00000000000E+00 0.  1.
         -6    2    1    2    0  504 -0.76907453485E+00  0.71868834124E+02 -0.12705741528E+03  0.22641865851E+03  0.17307830988E+03 0.  0.
        -24    2    3    3    0    0 -0.34398737534E+02  0.35440048533E+02 -0.14573060542E+03  0.17323230045E+03  0.79578579906E+02 0.  0.
          6    2    1    2  502    0  0.76907453485E+00 -0.71868834124E+02 -0.66399900153E+02  0.19782981377E+03  0.17193594063E+03 0.  0.
         24    2    5    5    0    0 -0.50876412800E+02 -0.12021751766E+02 -0.73694146155E+02  0.11830481359E+03  0.76369299102E+02 0.  0.
          2    1    6    6  501    0  0.10914021744E+02 -0.16953566806E+02 -0.46367568853E+02  0.50561751744E+02  0.00000000000E+00 0. -1.
         -1    1    6    6    0  501 -0.61790434545E+02  0.49318150401E+01 -0.27326577302E+02  0.67743061843E+02  0.00000000000E+00 0.  1.
          5    1    5    5  502    0  0.51645487335E+02 -0.59847082358E+02  0.72942460022E+01  0.79525000179E+02  0.47000000000E+01 0. -1.
         11    1    4    4    0    0 -0.22698191673E+02  0.13300801570E+02 -0.97441793874E+00  0.26326198319E+02  0.00000000000E+00 0. -1.
        -12    1    4    4    0    0 -0.11700545861E+02  0.22139246963E+02 -0.14475618748E+03  0.14690610214E+03  0.00000000000E+00 0.  1.
         -5    1    3    3    0  504  0.33629662999E+02  0.36428785591E+02  0.18673190145E+02  0.53186358056E+02  0.47000000000E+01 0.  1.
<mgrwt>
<rscale>  2 0.18714399E+03</rscale>
<asrwt>0</asrwt>
<pdfrwt beam="1">  1       21 0.17753166E-01 0.18740817E+03</pdfrwt>
<pdfrwt beam="2">  1       21 0.47515829E-01 0.18740817E+03</pdfrwt>
<totfact> 0.12222513E+05</totfact>
</mgrwt>
</event>
<event>
12    1  0.2743855E-001  0.1808823E+03  0.7546771E-02  0.1167105E+00
         21   -1    0    0  502  503  0.00000000000E+00  0.00000000000E+00  0.52380722802E+02  0.52380722802E+02  0.00000000000E+00 0.  1.
         21   -1    0    0  503  504 -0.00000000000E+00 -0.00000000000E+00 -0.67916724373E+03  0.67916724373E+03  0.00000000000E+00 0.  1.
         -6    2    1    2    0  504 -0.52419516964E+02 -0.90522415166E+01 -0.41960964673E+03  0.45693617432E+03  0.17288337958E+03 0.  0.
        -24    2    3    3    0    0  0.25033769180E+02  0.18206221823E+02 -0.29326245530E+03  0.30617895843E+03  0.82368263232E+02 0.  0.
          6    2    1    2  502    0  0.52419516964E+02  0.90522415166E+01 -0.20717687419E+03  0.27461179221E+03  0.17221971544E+03 0.  0.
         24    2    5    5    0    0  0.55066061232E+02 -0.58325554229E+02 -0.12976606069E+03  0.17184362786E+03  0.79100319556E+02 0.  0.
          2    1    6    6  501    0  0.27733496250E+02 -0.17435752759E+02  0.33015401539E+00  0.32760666816E+02  0.00000000000E+00 0. -1.
         -1    1    6    6    0  501  0.27332564981E+02 -0.40889801471E+02 -0.13009621470E+03  0.13908296104E+03  0.00000000000E+00 0.  1.
          5    1    5    5  502    0 -0.26465442676E+01  0.67377795746E+02 -0.77410813505E+02  0.10276816435E+03  0.47000000000E+01 0. -1.
         11    1    4    4    0    0 -0.17631724707E+02  0.13865905241E+02 -0.22110009577E+03  0.22223499588E+03  0.00000000000E+00 0. -1.
        -12    1    4    4    0    0  0.42665493887E+02  0.43403165819E+01 -0.72162359530E+02  0.83943962556E+02  0.00000000000E+00 0.  1.
         -5    1    3    3    0  504 -0.77453286144E+02 -0.27258463339E+02 -0.12634719143E+03  0.15075721589E+03  0.47000000000E+01 0.  1.
<mgrwt>
<rscale>  2 0.18072355E+03</rscale>
<asrwt>0</asrwt>
<pdfrwt beam="1">  1       21 0.80585728E-02 0.18088231E+03</pdfrwt>
<pdfrwt beam="2">  1       21 0.10448727E+00 0.18088231E+03</pdfrwt>
<totfact> 0.88037299E+04</totfact>
</mgrwt>
</event>
<event>
12    1  0.2743855E-001  0.1959156E+03  0.7546771E-02  0.1154948E+00
         21   -1    0    0  502  503  0.00000000000E+00  0.00000000000E+00  0.91485716176E+02  0.91485716176E+02  0.00000000000E+00 0. -1.
         21   -1    0    0  503  504 -0.00000000000E+00 -0.00000000000E+00 -0.42267805248E+03  0.42267805248E+03  0.00000000000E+00 0.  1.
         -6    2    1    2    0  504  0.89944962857E+02  0.26912274386E+02 -0.21771366055E+03  0.28775632569E+03  0.16306470534E+03 0.  0.
        -24    2    3    3    0    0  0.11974602556E+03  0.21900340516E+02 -0.13269312615E+03  0.19740255382E+03  0.80879954107E+02 0.  0.
          6    2    1    2  502    0 -0.89944962857E+02 -0.26912274386E+02 -0.11347867575E+03  0.22640744297E+03  0.17195509160E+03 0.  0.
         24    2    5    5    0    0 -0.11223250793E+03 -0.63696607616E+02 -0.92075464636E+02  0.17813727327E+03  0.81250250973E+02 0.  0.
          4    1    6    6  501    0 -0.21106398663E+02 -0.56030688501E+02 -0.47369627228E+02  0.76346576231E+02  0.00000000000E+00 0. -1.
         -3    1    6    6    0  501 -0.91126109266E+02 -0.76659191140E+01 -0.44705837407E+02  0.10179069704E+03  0.00000000000E+00 0.  1.
          5    1    5    5  502    0  0.22287545072E+02  0.36784333230E+02 -0.21403211118E+02  0.48270169698E+02  0.47000000000E+01 0. -1.
         11    1    4    4    0    0  0.39031261790E+02 -0.18398185839E+02 -0.86278070555E+01  0.44004223589E+02  0.00000000000E+00 0. -1.
        -12    1    4    4    0    0  0.80714763774E+02  0.40298526354E+02 -0.12406531909E+03  0.15339833023E+03  0.00000000000E+00 0.  1.
         -5    1    3    3    0  504 -0.29801062707E+02  0.50119338704E+01 -0.85020534406E+02  0.90353771865E+02  0.47000000000E+01 0.  1.
<mgrwt>
<rscale>  2 0.19394742E+03</rscale>
<asrwt>0</asrwt>
<pdfrwt beam="1">  1       21 0.14074726E-01 0.19591560E+03</pdfrwt>
<pdfrwt beam="2">  1       21 0.65027393E-01 0.19591560E+03</pdfrwt>
<totfact> 0.95764621E+04</totfact>
</mgrwt>
</event>
<event>
12    1  0.2743855E-001  0.2470786E+03  0.7546771E-02  0.1117298E+00
         21   -1    0    0  502  503  0.00000000000E+00  0.00000000000E+00  0.19769216965E+03  0.19769216965E+03  0.00000000000E+00 0. -1.
         21   -1    0    0  503  504 -0.00000000000E+00 -0.00000000000E+00 -0.33232451729E+03  0.33232451729E+03  0.00000000000E+00 0.  1.
         -6    2    1    2    0  504  0.13411819714E+03 -0.81441442801E+02  0.25568217676E+02  0.23554761587E+03  0.17380605909E+03 0.  0.
        -24    2    3    3    0    0  0.19191661876E+02 -0.81676633855E+02  0.28449367949E+02  0.12048869684E+03  0.81662519710E+02 0.  0.
          6    2    1    2  502    0 -0.13411819714E+03  0.81441442801E+02 -0.16020056531E+03  0.29446907107E+03  0.19085966908E+03 0.  0.
         24    2    5    5    0    0 -0.16042934960E+03  0.21993986649E+02 -0.11501580461E+03  0.21515936557E+03  0.82726087911E+02 0.  0.
          4    1    6    6  501    0 -0.16828660275E+02 -0.94680361103E+01  0.10392440431E+02  0.21928299810E+02  0.00000000000E+00 0. -1.
         -3    1    6    6    0  501 -0.14360068932E+03  0.31462022759E+02 -0.12540824505E+03  0.19323106576E+03  0.00000000000E+00 0.  1.
          5    1    5    5  502    0  0.26311152458E+02  0.59447456152E+02 -0.45184760698E+02  0.79309705497E+02  0.47000000000E+01 0. -1.
         13    1    4    4    0    0  0.22582545488E+02 -0.79342176692E+02  0.51383813071E+02  0.97187697825E+02  0.00000000000E+00 0. -1.
        -14    1    4    4    0    0 -0.33908836129E+01 -0.23344571634E+01 -0.22934445121E+02  0.23300999012E+02  0.00000000000E+00 0.  1.
         -5    1    3    3    0  504  0.11492653526E+03  0.23519105449E+00 -0.28811502730E+01  0.11505891903E+03  0.47000000000E+01 0.  1.
<mgrwt>
<rscale>  2 0.24378250E+03</rscale>
<asrwt>0</asrwt>
<pdfrwt beam="1">  1       21 0.30414180E-01 0.24707856E+03</pdfrwt>
<pdfrwt beam="2">  1       21 0.51126848E-01 0.24707856E+03</pdfrwt>
<totfact> 0.36759132E+04</totfact>
</mgrwt>
</event>
<event>
12    1  0.2743855E-001  0.1916325E+03  0.7546771E-02  0.1159726E+00
         21   -1    0    0  502  503  0.00000000000E+00  0.00000000000E+00  0.17328289025E+03  0.17328289025E+03  0.00000000000E+00 0. -1.
         21   -1    0    0  503  504 -0.00000000000E+00 -0.00000000000E+00 -0.45379386951E+03  0.45379386951E+03  0.00000000000E+00 0. -1.
         -6    2    1    2    0  504  0.55140958773E+02  0.45993048681E+01 -0.37708117902E+03  0.42298137231E+03  0.18347028864E+03 0.  0.
        -24    2    3    3    0    0 -0.14112587365E+02 -0.41606851163E+02 -0.28832047938E+03  0.30119625702E+03  0.75234242364E+02 0.  0.
          6    2    1    2  502    0 -0.55140958773E+02 -0.45993048681E+01  0.96570199752E+02  0.20409538744E+03  0.17107730637E+03 0.  0.
         24    2    5    5    0    0 -0.79540505593E+02 -0.36137790614E+02  0.55065821671E+02  0.14634837568E+03  0.10369653035E+03 0.  0.
          2    1    6    6  501    0  0.61599069652E+01 -0.51547449876E+00  0.53161675730E+02  0.53519846172E+02  0.00000000000E+00 0. -1.
         -1    1    6    6    0  501 -0.85700412559E+02 -0.35622316115E+02  0.19041459406E+01  0.92828529504E+02  0.00000000000E+00 0.  1.
          5    1    5    5  502    0  0.24399546821E+02  0.31538485746E+02  0.41504378081E+02  0.57747011767E+02  0.47000000000E+01 0. -1.
         13    1    4    4    0    0 -0.18969927081E+02  0.70756564142E+01 -0.19294669215E+03  0.19400605418E+03  0.00000000000E+00 0. -1.
        -14    1    4    4    0    0  0.48573397159E+01 -0.48682507577E+02 -0.95373787233E+02  0.10719020284E+03  0.00000000000E+00 0.  1.
         -5    1    3    3    0  504  0.69253546138E+02  0.46206156031E+02 -0.88760699632E+02  0.12178511529E+03  0.47000000000E+01 0.  1.
<mgrwt>
<rscale>  2 0.18860411E+03</rscale>
<asrwt>0</asrwt>
<pdfrwt beam="1">  1       21 0.26658907E-01 0.19163253E+03</pdfrwt>
<pdfrwt beam="2">  1       21 0.69814440E-01 0.19163253E+03</pdfrwt>
<totfact> 0.24976853E+04</totfact>
</mgrwt>
</event>
<event>
12    1  0.2743855E-001  0.1893901E+03  0.7546771E-02  0.1159454E+00
         21   -1    0    0  502  503  0.00000000000E+00  0.00000000000E+00  0.23502067668E+03  0.23502067668E+03  0.00000000000E+00 0.  1.
         21   -1    0    0  503  504 -0.00000000000E+00 -0.00000000000E+00 -0.21745726327E+03  0.21745726327E+03  0.00000000000E+00 0. -1.
         -6    2    1    2    0  504  0.76938787979E+02 -0.19928347219E+02  0.13376284674E+03  0.23028229895E+03  0.16976666906E+03 0.  0.
        -24    2    3    3    0    0  0.89454078925E+02  0.33822673823E+02  0.58030499882E+02  0.13645648624E+03  0.78146197732E+02 0.  0.
          6    2    1    2  502    0 -0.76938787979E+02  0.19928347219E+02 -0.11619943333E+03  0.22219564100E+03  0.17190659805E+03 0.  0.
         24    2    5    5    0    0 -0.94021934292E+02 -0.27785309156E+02 -0.11505329424E+03  0.17128561716E+03  0.80556530430E+02 0.  0.
          4    1    6    6  501    0 -0.84726757656E+02 -0.31927894065E+01 -0.11748309222E+03  0.14488303670E+03  0.00000000000E+00 0. -1.
         -3    1    6    6    0  501 -0.92951766354E+01 -0.24592519749E+02  0.24297979746E+01  0.26402580452E+02  0.00000000000E+00 0.  1.
          5    1    5    5  502    0  0.17083146313E+02  0.47713656375E+02 -0.11461390817E+01  0.50910023840E+02  0.47000000000E+01 0. -1.
         13    1    4    4    0    0  0.20957243283E+02  0.32276503422E+02 -0.10148830185E+02  0.39799214481E+02  0.00000000000E+00 0. -1.
        -14    1    4    4    0    0  0.68496835642E+02  0.15461704011E+01  0.68179330067E+02  0.96657271760E+02  0.00000000000E+00 0.  1.
         -5    1    3    3    0  504 -0.12515290945E+02 -0.53751021041E+02  0.75732346856E+02  0.93825812710E+02  0.47000000000E+01 0.  1.
<mgrwt>
<rscale>  2 0.18890313E+03</rscale>
<asrwt>0</asrwt>
<pdfrwt beam="1">  1       21 0.36157027E-01 0.18939006E+03</pdfrwt>
<pdfrwt beam="2">  1       21 0.33454963E-01 0.18939006E+03</pdfrwt>
<totfact> 0.63566174E+04</totfact>
</mgrwt>
</event>
<event>
12    1  0.2743855E-001  0.1863375E+03  0.7546771E-02  0.1162618E+00
         21   -1    0    0  502  503  0.00000000000E+00  0.00000000000E+00  0.37440975062E+02  0.37440975062E+02  0.00000000000E+00 0.  1.
         21   -1    0    0  503  504 -0.00000000000E+00 -0.00000000000E+00 -0.10135470013E+04  0.10135470013E+04  0.00000000000E+00 0.  1.
         -6    2    1    2    0  504 -0.65789071862E+02  0.35355235736E+02 -0.65998531855E+03  0.68578588181E+03  0.17071455800E+03 0.  0.
        -24    2    3    3    0    0 -0.83912578673E+02  0.44716882112E+02 -0.65105714355E+03  0.66302837248E+03  0.81794242695E+02 0.  0.
          6    2    1    2  502    0  0.65789071862E+02 -0.35355235736E+02 -0.31612070773E+03  0.36520209459E+03  0.16691936188E+03 0.  0.
         24    2    5    5    0    0  0.65511158987E+02 -0.19591849115E+02 -0.32824158839E+03  0.34476763005E+03  0.80290882880E+02 0.  0.
          4    1    6    6  501    0  0.38645188085E+02 -0.32571421443E+02 -0.29810636486E+03  0.30236030299E+03  0.00000000000E+00 0. -1.
         -3    1    6    6    0  501  0.26865970903E+02  0.12979572328E+02 -0.30135223534E+02  0.42407327054E+02  0.00000000000E+00 0.  1.
          5    1    5    5  502    0  0.27791287495E+00 -0.15763386621E+02  0.12120880664E+02  0.20434464549E+02  0.47000000000E+01 0. -1.
         13    1    4    4    0    0 -0.35634418489E+02  0.63883984381E+02 -0.35673758462E+03  0.36416023880E+03  0.00000000000E+00 0. -1.
        -14    1    4    4    0    0 -0.48278160184E+02 -0.19167102269E+02 -0.29431955893E+03  0.29886813368E+03  0.00000000000E+00 0.  1.
         -5    1    3    3    0  504  0.18123506811E+02 -0.93616463760E+01 -0.89281749981E+01  0.22757509328E+02  0.47000000000E+01 0.  1.
<mgrwt>
<rscale>  2 0.18546368E+03</rscale>
<asrwt>0</asrwt>
<pdfrwt beam="1">  1       21 0.57601505E-02 0.18633748E+03</pdfrwt>
<pdfrwt beam="2">  1       21 0.15593030E+00 0.18633748E+03</pdfrwt>
<totfact> 0.57225874E+04</totfact>
</mgrwt>
</event>
<event>
12    1  0.2743855E-001  0.2065537E+03  0.7546771E-02  0.1144527E+00
         21   -1    0    0  502  503  0.00000000000E+00  0.00000000000E+00  0.77368370656E+02  0.77368370656E+02  0.00000000000E+00 0. -1.
         21   -1    0    0  503  504 -0.00000000000E+00 -0.00000000000E+00 -0.55282681374E+03  0.55282681374E+03  0.00000000000E+00 0. -1.
         -6    2    1    2    0  504 -0.59958157097E+02 -0.92106723887E+02 -0.21019841292E+03  0.29399982267E+03  0.17370634343E+03 0.  0.
        -24    2    3    3    0    0 -0.64714137188E+02  0.34006988401E+01 -0.77685860990E+02  0.13051907897E+03  0.82466069828E+02 0.  0.
          6    2    1    2  502    0  0.59958157097E+02  0.92106723887E+02 -0.26526003017E+03  0.33619536173E+03  0.17488798831E+03 0.  0.
         24    2    5    5    0    0  0.70618380897E+02  0.10348925721E+03 -0.12199345988E+03  0.19200589402E+03  0.79289829152E+02 0.  0.
          2    1    6    6  501    0  0.82351191021E+02  0.70059458244E+02 -0.11089377190E+03  0.15487890431E+03  0.00000000000E+00 0. -1.
         -1    1    6    6    0  501 -0.11732810124E+02  0.33429798962E+02 -0.11099687978E+02  0.37126989714E+02  0.00000000000E+00 0.  1.
          5    1    5    5  502    0 -0.10660223799E+02 -0.11382533319E+02 -0.14326657029E+03  0.14418946771E+03  0.47000000000E+01 0. -1.
         13    1    4    4    0    0 -0.30428054782E+02 -0.35709526557E+02 -0.58714688015E+02  0.75156180009E+02  0.00000000000E+00 0. -1.
        -14    1    4    4    0    0 -0.34286082405E+02  0.39110225397E+02 -0.18971172974E+02  0.55362898961E+02  0.00000000000E+00 0.  1.
         -5    1    3    3    0  504  0.47559800901E+01 -0.95507422727E+02 -0.13251255193E+03  0.16348074370E+03  0.47000000000E+01 0.  1.
<mgrwt>
<rscale>  2 0.20630338E+03</rscale>
<asrwt>0</asrwt>
<pdfrwt beam="1">  1       21 0.11902827E-01 0.20655372E+03</pdfrwt>
<pdfrwt beam="2">  1       21 0.85050277E-01 0.20655372E+03</pdfrwt>
<totfact> 0.70795248E+04</totfact>
</mgrwt>
</event>
<event>
12    1  0.2743855E-001  0.2703558E+03  0.7546771E-02  0.1101107E+00
         21   -1    0    0  502  503  0.00000000000E+00  0.00000000000E+00  0.16499410346E+04  0.16499410346E+04  0.00000000000E+00 0. -1.
         21   -1    0    0  503  504 -0.00000000000E+00 -0.00000000000E+00 -0.77615484896E+02  0.77615484896E+02  0.00000000000E+00 0.  1.
         -6    2    1    2    0  504  0.12757706532E+03 -0.16447941034E+03  0.22012657948E+03  0.34863732354E+03  0.17251924053E+03 0.  0.
        -24    2    3    3    0    0  0.11125477409E+03 -0.17164189787E+03  0.23721797094E+03  0.32349922336E+03  0.80875310906E+02 0.  0.
          6    2    1    2  502    0 -0.12757706532E+03  0.16447941034E+03  0.13521989702E+04  0.13789191960E+04  0.17218219965E+03 0.  0.
         24    2    5    5    0    0 -0.12735315915E+03  0.57277289914E+02  0.76109920363E+03  0.77815853744E+03  0.82214332883E+02 0.  0.
          4    1    6    6  501    0 -0.99367818457E+02  0.20545210869E+01  0.50447278763E+03  0.51417018376E+03  0.00000000000E+00 0. -1.
         -3    1    6    6    0  501 -0.27985340695E+02  0.55222768827E+02  0.25662641600E+03  0.26398835368E+03  0.00000000000E+00 0.  1.
          5    1    5    5  502    0 -0.22390616939E+00  0.10720212042E+03  0.59109976660E+03  0.60076065852E+03  0.47000000000E+01 0. -1.
         11    1    4    4    0    0  0.31628087950E+02 -0.10517736073E+03  0.83079720808E+02  0.13771293754E+03  0.00000000000E+00 0. -1.
        -12    1    4    4    0    0  0.79626686136E+02 -0.66464537140E+02  0.15413825013E+03  0.18578628581E+03  0.00000000000E+00 0.  1.
         -5    1    3    3    0  504  0.16322291235E+02  0.71624875346E+01 -0.17091391460E+02  0.25138100184E+02  0.47000000000E+01 0.  1.
<mgrwt>
<rscale>  2 0.27030207E+03</rscale>
<asrwt>0</asrwt>
<pdfrwt beam="1">  1       21 0.25383706E+00 0.27035583E+03</pdfrwt>
<pdfrwt beam="2">  1       21 0.11940845E-01 0.27035583E+03</pdfrwt>
<totfact> 0.34783190E+03</totfact>
</mgrwt>
</event>
<event>
12    1  0.2743855E-001  0.1903249E+03  0.7546771E-02  0.1158809E+00
         21   -1    0    0  502  503  0.00000000000E+00  0.00000000000E+00  0.50248585845E+03  0.50248585845E+03  0.00000000000E+00 0.  1.
         21   -1    0    0  503  504 -0.00000000000E+00 -0.00000000000E+00 -0.20945042739E+03  0.20945042739E+03  0.00000000000E+00 0. -1.
         -6    2    1    2    0  504  0.34059889662E+00 -0.74577495846E+02 -0.14249721678E+03  0.23775829924E+03  0.17510463492E+03 0.  0.
        -24    2    3    3    0    0 -0.18879602578E+02  0.32542014922E+01 -0.13215825155E+02  0.85564483736E+02  0.82338287702E+02 0.  0.
          6    2    1    2  502    0 -0.34059889662E+00  0.74577495846E+02  0.43553264784E+03  0.47417798660E+03  0.17202952291E+03 0.  0.
         24    2    5    5    0    0  0.14000421901E+02  0.10471705128E+03  0.24165572069E+03  0.27739279773E+03  0.85951173646E+02 0.  0.
          4    1    6    6  501    0  0.46697795885E+02  0.32724103910E+02  0.95957670319E+02  0.11162179720E+03  0.00000000000E+00 0. -1.
         -3    1    6    6    0  501 -0.32697373984E+02  0.71992947365E+02  0.14569805037E+03  0.16577100053E+03  0.00000000000E+00 0.  1.
          5    1    5    5  502    0 -0.14341020798E+02 -0.30139555429E+02  0.19387692715E+03  0.19678518887E+03  0.47000000000E+01 0. -1.
         13    1    4    4    0    0  0.19728799548E+02 -0.24099660098E+02 -0.21067133324E+02  0.37601107097E+02  0.00000000000E+00 0. -1.
        -14    1    4    4    0    0 -0.38608402126E+02  0.27353861591E+02  0.78513081690E+01  0.47963376639E+02  0.00000000000E+00 0.  1.
         -5    1    3    3    0  504  0.19220201474E+02 -0.77831697339E+02 -0.12928139163E+03  0.15219381550E+03  0.47000000000E+01 0.  1.
<mgrwt>
<rscale>  2 0.18961456E+03</rscale>
<asrwt>0</asrwt>
<pdfrwt beam="1">  1       21 0.77305516E-01 0.19032486E+03</pdfrwt>
<pdfrwt beam="2">  1       21 0.32223143E-01 0.19032486E+03</pdfrwt>
<totfact> 0.13786172E+04</totfact>
</mgrwt>
</event>
<event>
12    1  0.2743855E-001  0.1957929E+03  0.7546771E-02  0.1154466E+00
         21   -1    0    0  502  503  0.00000000000E+00  0.00000000000E+00  0.29771514965E+03  0.29771514965E+03  0.00000000000E+00 0.  1.
         21   -1    0    0  503  504 -0.00000000000E+00 -0.00000000000E+00 -0.20712983183E+03  0.20712983183E+03  0.00000000000E+00 0.  1.
         -6    2    1    2    0  504 -0.75278256521E+02  0.25361183496E+01 -0.11288349663E+03  0.22600344010E+03  0.18072527030E+03 0.  0.
        -24    2    3    3    0    0 -0.79502974656E+02 -0.14078859137E+02 -0.14813969919E+03  0.18651932254E+03  0.79530811340E+02 0.  0.
          6    2    1    2  502    0  0.75278256521E+02 -0.25361183496E+01  0.20346881445E+03  0.27884154138E+03  0.17515649844E+03 0.  0.
         24    2    5    5    0    0 -0.69859619267E+01  0.32669715394E+02  0.15143136665E+03  0.17522282522E+03  0.81581037641E+02 0.  0.
          4    1    6    6  501    0  0.16465270375E+01  0.54576194351E+02  0.13730799990E+03  0.14776589213E+03  0.00000000000E+00 0. -1.
         -3    1    6    6    0  501 -0.86324889642E+01 -0.21906478957E+02  0.14123366753E+02  0.27456933085E+02  0.00000000000E+00 0.  1.
          5    1    5    5  502    0  0.82264218448E+02 -0.35205833744E+02  0.52037447799E+02  0.10361871617E+03  0.47000000000E+01 0. -1.
         11    1    4    4    0    0 -0.24660021258E+02 -0.20251087825E+02 -0.39803789878E+01  0.32156906310E+02  0.00000000000E+00 0. -1.
        -12    1    4    4    0    0 -0.54842953397E+02  0.61722286875E+01 -0.14415932020E+03  0.15436241623E+03  0.00000000000E+00 0.  1.
         -5    1    3    3    0  504  0.42247181344E+01  0.16614977487E+02  0.35256202562E+02  0.39484117557E+02  0.47000000000E+01 0.  1.
<mgrwt>
<rscale>  2 0.19449810E+03</rscale>
<asrwt>0</asrwt>
<pdfrwt beam="1">  1       21 0.45802331E-01 0.19579293E+03</pdfrwt>
<pdfrwt beam="2">  1       21 0.31866128E-01 0.19579293E+03</pdfrwt>
<totfact> 0.43205899E+04</totfact>
</mgrwt>
</event>
<event>
12    1  0.2743855E-001  0.2490900E+03  0.7546771E-02  0.1114318E+00
         21   -1    0    0  502  503  0.00000000000E+00  0.00000000000E+00  0.31635626835E+03  0.31635626835E+03  0.00000000000E+00 0.  1.
         21   -1    0    0  503  504 -0.00000000000E+00 -0.00000000000E+00 -0.21007566721E+03  0.21007566721E+03  0.00000000000E+00 0.  1.
         -6    2    1    2    0  504 -0.12067277527E+03  0.12774892592E+03 -0.19987287035E+02  0.24716606540E+03  0.17265533723E+03 0.  0.
        -24    2    3    3    0    0 -0.29499644887E+02  0.88924052429E-01  0.12661635196E+02  0.86861174938E+02  0.80711273994E+02 0.  0.
          6    2    1    2  502    0  0.12067277527E+03 -0.12774892592E+03  0.12626788818E+03  0.27926587016E+03  0.17653367918E+03 0.  0.
         24    2    5    5    0    0  0.44818638975E+02 -0.12043782767E+03  0.25355005590E+02  0.15272416943E+03  0.78535437145E+02 0.  0.
          2    1    6    6  501    0  0.48248395573E+02 -0.97688752543E+02 -0.11204080380E+02  0.10952867874E+03  0.00000000000E+00 0. -1.
         -1    1    6    6    0  501 -0.34297565981E+01 -0.22749075122E+02  0.36559085970E+02  0.43195490693E+02  0.00000000000E+00 0.  1.
          5    1    5    5  502    0  0.75854136300E+02 -0.73110982586E+01  0.10091288259E+03  0.12654170073E+03  0.47000000000E+01 0. -1.
         11    1    4    4    0    0 -0.56249475581E+02  0.10400603440E+02  0.99864232613E+01  0.58068104021E+02  0.00000000000E+00 0. -1.
        -12    1    4    4    0    0  0.26749830694E+02 -0.10311679388E+02  0.26752119344E+01  0.28793070917E+02  0.00000000000E+00 0.  1.
         -5    1    3    3    0  504 -0.91173130388E+02  0.12766000187E+03 -0.32648922231E+02  0.16030489046E+03  0.47000000000E+01 0.  1.
<mgrwt>
<rscale>  2 0.24840385E+03</rscale>
<asrwt>0</asrwt>
<pdfrwt beam="1">  1       21 0.48670195E-01 0.24909004E+03</pdfrwt>
<pdfrwt beam="2">  1       21 0.32319334E-01 0.24909004E+03</pdfrwt>
<totfact> 0.36128201E+04</totfact>
</mgrwt>
</event>
<event>
12    1  0.2743855E-001  0.2609218E+03  0.7546771E-02  0.1106675E+00
         21   -1    0    0  502  503  0.00000000000E+00  0.00000000000E+00  0.13816394342E+04  0.13816394342E+04  0.00000000000E+00 0. -1.
         21   -1    0    0  503  504 -0.00000000000E+00 -0.00000000000E+00 -0.54845738695E+02  0.54845738695E+02  0.00000000000E+00 0.  1.
         -6    2    1    2    0  504 -0.15568027489E+03  0.11861361785E+03  0.43165794918E+03  0.50409674850E+03  0.17169568550E+03 0.  0.
        -24    2    3    3    0    0 -0.15637882377E+03  0.12990588245E+03  0.29554631838E+03  0.36743486920E+03  0.79566839729E+02 0.  0.
          6    2    1    2  502    0  0.15568027489E+03 -0.11861361785E+03  0.89513574629E+03  0.93238842437E+03  0.17255327085E+03 0.  0.
         24    2    5    5    0    0  0.13312577347E+03 -0.12382613683E+03  0.52022947106E+03  0.55673874569E+03  0.79145086171E+02 0.  0.
          4    1    6    6  501    0  0.88248838551E+02 -0.10139371687E+03  0.45503675728E+03  0.47447549336E+03  0.00000000000E+00 0. -1.
         -3    1    6    6    0  501  0.44876934916E+02 -0.22432419964E+02  0.65192713783E+02  0.82263252326E+02  0.00000000000E+00 0.  1.
          5    1    5    5  502    0  0.22554501426E+02  0.52125189765E+01  0.37490627523E+03  0.37564967868E+03  0.47000000000E+01 0. -1.
         11    1    4    4    0    0 -0.82014706882E+00  0.32684571887E+02  0.65477261799E+02  0.73186239781E+02  0.00000000000E+00 0. -1.
        -12    1    4    4    0    0 -0.15555867670E+03  0.97221310558E+02  0.23006905658E+03  0.29424862942E+03  0.00000000000E+00 0.  1.
         -5    1    3    3    0  504  0.69854887302E+00 -0.11292264591E+02  0.13611163081E+03  0.13666187929E+03  0.47000000000E+01 0.  1.
<mgrwt>
<rscale>  2 0.26078007E+03</rscale>
<asrwt>0</asrwt>
<pdfrwt beam="1">  1       21 0.21255989E+00 0.26092177E+03</pdfrwt>
<pdfrwt beam="2">  1       21 0.84378070E-02 0.26092177E+03</pdfrwt>
<totfact> 0.11623900E+04</totfact>
</mgrwt>
</event>
<event>
12    1  0.2743855E-001  0.2232405E+03  0.7546771E-02  0.1131669E+00
         21   -1    0    0  502  503  0.00000000000E+00  0.00000000000E+00  0.39161441482E+03  0.39161441482E+03  0.00000000000E+00 0. -1.
         21   -1    0    0  503  504 -0.00000000000E+00 -0.00000000000E+00 -0.16313172393E+03  0.16313172393E+03  0.00000000000E+00 0.  1.
         -6    2    1    2    0  504  0.51576679907E+01  0.14123056568E+03 -0.17030580413E+02  0.22291318936E+03  0.17154467378E+03 0.  0.
        -24    2    3    3    0    0  0.56805374684E+02  0.39683434628E+02  0.56422593557E+01  0.10665720847E+03  0.80884482134E+02 0.  0.
          6    2    1    2  502    0 -0.51576679907E+01 -0.14123056568E+03  0.24551327131E+03  0.33183294939E+03  0.17281106935E+03 0.  0.
         24    2    5    5    0    0  0.52798325578E+02 -0.92129829318E+02  0.20844797250E+03  0.24718245691E+03  0.79831329235E+02 0.  0.
          2    1    6    6  501    0 -0.90838995823E-01 -0.70651648190E+02  0.14823742730E+03  0.16421327137E+03  0.00000000000E+00 0. -1.
         -1    1    6    6    0  501  0.52889164574E+02 -0.21478181127E+02  0.60210545208E+02  0.82969185534E+02  0.00000000000E+00 0.  1.
          5    1    5    5  502    0 -0.57955993569E+02 -0.49100736360E+02  0.37065298805E+02  0.84650492480E+02  0.47000000000E+01 0. -1.
         13    1    4    4    0    0  0.70938868226E+02  0.13867375610E+02 -0.10578533173E+02  0.73051574217E+02  0.00000000000E+00 0. -1.
        -14    1    4    4    0    0 -0.14133493542E+02  0.25816059018E+02  0.16220792529E+02  0.33605634248E+02  0.00000000000E+00 0.  1.
         -5    1    3    3    0  504 -0.51647706693E+02  0.10154713105E+03 -0.22672839768E+02  0.11625598090E+03  0.47000000000E+01 0.  1.
<mgrwt>
<rscale>  2 0.22299542E+03</rscale>
<asrwt>0</asrwt>
<pdfrwt beam="1">  1       21 0.60248371E-01 0.22324054E+03</pdfrwt>
<pdfrwt beam="2">  1       21 0.25097188E-01 0.22324054E+03</pdfrwt>
<totfact> 0.38022203E+04</totfact>
</mgrwt>
</event>
<event>
12    1  0.2743855E-001  0.1867958E+03  0.7546771E-02  0.1161641E+00
         21   -1    0    0  502  503  0.00000000000E+00  0.00000000000E+00  0.39724653812E+03  0.39724653812E+03  0.00000000000E+00 0. -1.
         21   -1    0    0  503  504 -0.00000000000E+00 -0.00000000000E+00 -0.14459427794E+03  0.14459427794E+03  0.00000000000E+00 0. -1.
         -6    2    1    2    0  504  0.68861091458E+02 -0.15744955901E+02 -0.44421502834E+02  0.19091988081E+03  0.17171889069E+03 0.  0.
        -24    2    3    3    0    0  0.83565918373E+02  0.23975210409E+02 -0.73199517766E+02  0.13949821524E+03  0.80891960207E+02 0.  0.
          6    2    1    2  502    0 -0.68861091458E+02  0.15744955901E+02  0.29707376301E+03  0.35092093525E+03  0.17292463263E+03 0.  0.
         24    2    5    5    0    0 -0.11397635058E+03  0.12522651779E+02  0.24314226535E+03  0.28037686186E+03  0.79659262921E+02 0.  0.
          4    1    6    6  501    0 -0.12470897780E+03  0.17466789954E+02  0.20640518276E+03  0.24178609837E+03  0.00000000000E+00 0. -1.
         -3    1    6    6    0  501  0.10732627224E+02 -0.49441381752E+01  0.36737082595E+02  0.38590763494E+02  0.00000000000E+00 0.  1.
          5    1    5    5  502    0  0.45115259122E+02  0.32223041217E+01  0.53931497662E+02  0.70544073383E+02  0.47000000000E+01 0. -1.
         13    1    4    4    0    0  0.83504224616E+02  0.36639329162E+00 -0.27250694689E+02  0.87839001211E+02  0.00000000000E+00 0. -1.
        -14    1    4    4    0    0  0.61693756889E-01  0.23608817117E+02 -0.45948823078E+02  0.51659214028E+02  0.00000000000E+00 0.  1.
         -5    1    3    3    0  504 -0.14704826914E+02 -0.39720166310E+02  0.28778014933E+02  0.51421665567E+02  0.47000000000E+01 0.  1.
<mgrwt>
<rscale>  2 0.18651629E+03</rscale>
<asrwt>0</asrwt>
<pdfrwt beam="1">  1       21 0.61114852E-01 0.18679583E+03</pdfrwt>
<pdfrwt beam="2">  1       21 0.22245274E-01 0.18679583E+03</pdfrwt>
<totfact> 0.47214280E+04</totfact>
</mgrwt>
</event>
<event>
12    1  0.2743855E-001  0.1773781E+03  0.7546771E-02  0.1170727E+00
         21   -1    0    0  502  503  0.00000000000E+00  0.00000000000E+00  0.10430307577E+03  0.10430307577E+03  0.00000000000E+00 0. -1.
         21   -1    0    0  503  504 -0.00000000000E+00 -0.00000000000E+00 -0.43873736309E+03  0.43873736309E+03  0.00000000000E+00 0. -1.
         -6    2    1    2    0  504 -0.83087437268E+01 -0.27639553593E+02 -0.31988581620E+03  0.36506666683E+03  0.17353315440E+03 0.  0.
        -24    2    3    3    0    0  0.72214660778E+01 -0.84353266206E+02 -0.21941111406E+03  0.24855534383E+03  0.80441897571E+02 0.  0.
          6    2    1    2  502    0  0.83087437268E+01  0.27639553593E+02 -0.14548471127E+02  0.17797377204E+03  0.17501435763E+03 0.  0.
         24    2    5    5    0    0  0.57046977123E+02  0.57929513873E+02  0.90353995826E+01  0.11575491600E+03  0.81898571154E+02 0.  0.
          2    1    6    6  501    0  0.35856734386E+02  0.76680672356E+02  0.17042009599E+02  0.86348485829E+02  0.00000000000E+00 0. -1.
         -1    1    6    6    0  501  0.21190242737E+02 -0.18751158483E+02 -0.80066100166E+01  0.29406430175E+02  0.00000000000E+00 0.  1.
          5    1    5    5  502    0 -0.48738233397E+02 -0.30289960280E+02 -0.23583870709E+02  0.62218856033E+02  0.47000000000E+01 0. -1.
         13    1    4    4    0    0  0.11482943360E+02 -0.13596320149E+02 -0.14386040571E+03  0.14495700825E+03  0.00000000000E+00 0. -1.
        -14    1    4    4    0    0 -0.42614772824E+01 -0.70756946057E+02 -0.75550708347E+02  0.10359833558E+03  0.00000000000E+00 0.  1.
         -5    1    3    3    0  504 -0.15530209805E+02  0.56713712613E+02 -0.10047470214E+03  0.11651132299E+03  0.47000000000E+01 0.  1.
<mgrwt>
<rscale>  2 0.17701168E+03</rscale>
<asrwt>0</asrwt>
<pdfrwt beam="1">  1       21 0.16046627E-01 0.17737814E+03</pdfrwt>
<pdfrwt beam="2">  1       21 0.67498055E-01 0.17737814E+03</pdfrwt>
<totfact> 0.70080275E+04</totfact>
</mgrwt>
</event>
<event>
12    1  0.2743855E-001  0.1819565E+03  0.7546771E-02  0.1165982E+00
         21   -1    0    0  502  503  0.00000000000E+00  0.00000000000E+00  0.18609349974E+03  0.18609349974E+03  0.00000000000E+00 0.  1.
         21   -1    0    0  503  504 -0.00000000000E+00 -0.00000000000E+00 -0.35325565118E+03  0.35325565118E+03  0.00000000000E+00 0.  1.
         -6    2    1    2    0  504 -0.31291355271E+02 -0.48780864374E+02 -0.27373495748E+03  0.32869284348E+03  0.17248025035E+03 0.  0.
        -24    2    3    3    0    0 -0.58126587697E+02 -0.26489342296E+02 -0.77051331074E+02  0.12888398343E+03  0.81202143517E+02 0.  0.
          6    2    1    2  502    0  0.31291355271E+02  0.48780864374E+02  0.10657280604E+03  0.21065630743E+03  0.17221961337E+03 0.  0.
         24    2    5    5    0    0  0.85788777299E+02  0.15892027970E+02  0.58349916661E+02  0.13066142242E+03  0.77816602801E+02 0.  0.
          4    1    6    6  501    0  0.40387603886E+02  0.32958004738E+02 -0.32834992631E+01  0.52231886730E+02  0.00000000000E+00 0. -1.
         -3    1    6    6    0  501  0.45401173413E+02 -0.17065976768E+02  0.61633415924E+02  0.78429535691E+02  0.00000000000E+00 0.  1.
          5    1    5    5  502    0 -0.54497422028E+02  0.32888836404E+02  0.48222889384E+02  0.79994885013E+02  0.47000000000E+01 0. -1.
         13    1    4    4    0    0 -0.11148745115E+02 -0.34198239710E+02 -0.72659886146E+02  0.81075724922E+02  0.00000000000E+00 0. -1.
        -14    1    4    4    0    0 -0.46977842582E+02  0.77088974145E+01 -0.43914449286E+01  0.47808258508E+02  0.00000000000E+00 0.  1.
         -5    1    3    3    0  504  0.26835232425E+02 -0.22291522078E+02 -0.19668362641E+03  0.19980886005E+03  0.47000000000E+01 0.  1.
<mgrwt>
<rscale>  2 0.18189468E+03</rscale>
<asrwt>0</asrwt>
<pdfrwt beam="1">  1       21 0.28629769E-01 0.18195647E+03</pdfrwt>
<pdfrwt beam="2">  1       21 0.54347024E-01 0.18195647E+03</pdfrwt>
<totfact> 0.37535113E+04</totfact>
</mgrwt>
</event>
<event>
12    1  0.2743855E-001  0.2241450E+03  0.7546771E-02  0.1131425E+00
         21   -1    0    0  502  503  0.00000000000E+00  0.00000000000E+00  0.24368348089E+04  0.24368348089E+04  0.00000000000E+00 0.  1.
         21   -1    0    0  503  504 -0.00000000000E+00 -0.00000000000E+00 -0.80236104533E+02  0.80236104533E+02  0.00000000000E+00 0.  1.
         -6    2    1    2    0  504  0.10125485571E+03 -0.10219874737E+03  0.88569913623E+02  0.23799312234E+03  0.16762746468E+03 0.  0.
        -24    2    3    3    0    0  0.22751086815E+01 -0.58872858351E+01  0.53524807079E+02  0.95433880489E+02  0.78758392050E+02 0.  0.
          6    2    1    2  502    0 -0.10125485571E+03  0.10219874737E+03  0.22680287907E+04  0.22790777911E+04  0.17188325233E+03 0.  0.
         24    2    5    5    0    0 -0.12948663799E+03  0.11313683300E+03  0.20668209022E+04  0.20755504474E+04  0.81205204389E+02 0.  0.
          4    1    6    6  501    0 -0.10628394737E+03  0.12490779857E+03  0.18097643208E+04  0.18171805448E+04  0.00000000000E+00 0. -1.
         -3    1    6    6    0  501 -0.23202690615E+02 -0.11770965564E+02  0.25705658142E+03  0.25836990253E+03  0.00000000000E+00 0.  1.
          5    1    5    5  502    0  0.28231782277E+02 -0.10938085634E+02  0.20120788848E+03  0.20352734370E+03  0.47000000000E+01 0. -1.
         11    1    4    4    0    0 -0.18062072750E+02 -0.31329281687E+02  0.43127110167E+01  0.36419250944E+02  0.00000000000E+00 0. -1.
        -12    1    4    4    0    0  0.20337181431E+02  0.25441995852E+02  0.49212096062E+02  0.59014629545E+02  0.00000000000E+00 0.  1.
         -5    1    3    3    0  504  0.98979747031E+02 -0.96311461532E+02  0.35045106544E+02  0.14255924185E+03  0.47000000000E+01 0.  1.
<mgrwt>
<rscale>  2 0.22332890E+03</rscale>
<asrwt>0</asrwt>
<pdfrwt beam="1">  1       21 0.37489760E+00 0.22414500E+03</pdfrwt>
<pdfrwt beam="2">  1       21 0.12344018E-01 0.22414500E+03</pdfrwt>
<totfact> 0.66180098E+02</totfact>
</mgrwt>
</event>
<event>
12    1  0.2743855E-001  0.1986407E+03  0.7546771E-02  0.1151565E+00
         21   -1    0    0  502  503  0.00000000000E+00  0.00000000000E+00  0.12305251549E+03  0.12305251549E+03  0.00000000000E+00 0. -1.
         21   -1    0    0  503  504 -0.00000000000E+00 -0.00000000000E+00 -0.32352315238E+03  0.32352315238E+03  0.00000000000E+00 0. -1.
         -6    2    1    2    0  504 -0.92629687028E+02  0.16234763492E+02 -0.64537477578E+02  0.20587677389E+03  0.17139525533E+03 0.  0.
        -24    2    3    3    0    0 -0.64729282686E+02 -0.48287434530E+02 -0.82798755571E+01  0.11571827798E+03  0.82465793806E+02 0.  0.
          6    2    1    2  502    0  0.92629687028E+02 -0.16234763492E+02 -0.13593315931E+03  0.24069889398E+03  0.17496944675E+03 0.  0.
         24    2    5    5    0    0 -0.86631806043E+01  0.36286696405E+00 -0.16592110514E+02  0.83218411701E+02  0.81085285620E+02 0.  0.
          2    1    6    6  501    0 -0.85256266209E+01  0.15335907122E+02  0.29738037767E+02  0.34528643860E+02  0.00000000000E+00 0. -1.
         -1    1    6    6    0  501 -0.13755398340E+00 -0.14973040158E+02 -0.46330148282E+02  0.48689767842E+02  0.00000000000E+00 0.  1.
          5    1    5    5  502    0  0.10129286763E+03 -0.16597630456E+02 -0.11934104879E+03  0.15748048227E+03  0.47000000000E+01 0. -1.
         13    1    4    4    0    0 -0.30906333912E+02  0.19279245374E+02  0.10403624467E+02  0.37883059276E+02  0.00000000000E+00 0. -1.
        -14    1    4    4    0    0 -0.33822948775E+02 -0.67566679904E+02 -0.18683500024E+02  0.77835218701E+02  0.00000000000E+00 0.  1.
         -5    1    3    3    0  504 -0.27900404342E+02  0.64522198022E+02 -0.56257602020E+02  0.90158495912E+02  0.47000000000E+01 0.  1.
<mgrwt>
<rscale>  2 0.19785078E+03</rscale>
<asrwt>0</asrwt>
<pdfrwt beam="1">  1       21 0.18931156E-01 0.19864072E+03</pdfrwt>
<pdfrwt beam="2">  1       21 0.49772792E-01 0.19864072E+03</pdfrwt>
<totfact> 0.98124125E+04</totfact>
</mgrwt>
</event>
<event>
12    1  0.2743855E-001  0.2023554E+03  0.7546771E-02  0.1147983E+00
         21   -1    0    0  502  503  0.00000000000E+00  0.00000000000E+00  0.73993737366E+03  0.73993737366E+03  0.00000000000E+00 0.  1.
         21   -1    0    0  503  504 -0.00000000000E+00 -0.00000000000E+00 -0.55188600706E+02  0.55188600706E+02  0.00000000000E+00 0. -1.
         -6    2    1    2    0  504  0.50058142414E+02 -0.90084917460E+02  0.32203032806E+03  0.37977989716E+03  0.17293966613E+03 0.  0.
        -24    2    3    3    0    0  0.98570893975E+02 -0.88585413388E+02  0.21456325822E+03  0.26176720006E+03  0.70150400180E+02 0.  0.
          6    2    1    2  502    0 -0.50058142414E+02  0.90084917460E+02  0.36271844490E+03  0.41534607721E+03  0.17414529454E+03 0.  0.
         24    2    5    5    0    0  0.27955625094E+02  0.92263955188E+02  0.22498515994E+03  0.25696854120E+03  0.78232695044E+02 0.  0.
          4    1    6    6  501    0  0.32892053456E+02  0.10455437931E+03  0.18717221303E+03  0.21690307223E+03  0.00000000000E+00 0. -1.
         -3    1    6    6    0  501 -0.49364283616E+01 -0.12290424119E+02  0.37812946909E+02  0.40065468972E+02  0.00000000000E+00 0.  1.
          5    1    5    5  502    0 -0.78013767508E+02 -0.21790377281E+01  0.13773328496E+03  0.15837753601E+03  0.47000000000E+01 0. -1.
         13    1    4    4    0    0  0.54701109558E+02 -0.15076394858E+02  0.47298188996E+02  0.73868990457E+02  0.00000000000E+00 0. -1.
        -14    1    4    4    0    0  0.43869784417E+02 -0.73509018529E+02  0.16726506922E+03  0.18789820960E+03  0.00000000000E+00 0.  1.
         -5    1    3    3    0  504 -0.48512751561E+02 -0.14995040724E+01  0.10746706984E+03  0.11801269710E+03  0.47000000000E+01 0.  1.
<mgrwt>
<rscale>  2 0.20209571E+03</rscale>
<asrwt>0</asrwt>
<pdfrwt beam="1">  1       21 0.11383651E+00 0.20235536E+03</pdfrwt>
<pdfrwt beam="2">  1       21 0.84905545E-02 0.20235536E+03</pdfrwt>
<totfact> 0.64695414E+04</totfact>
</mgrwt>
</event>
<event>
12    1  0.2743855E-001  0.1987470E+03  0.7546771E-02  0.1151242E+00
         21   -1    0    0  502  503  0.00000000000E+00  0.00000000000E+00  0.30609149241E+04  0.30609149241E+04  0.00000000000E+00 0. -1.
         21   -1    0    0  503  504 -0.00000000000E+00 -0.00000000000E+00 -0.13326988217E+02  0.13326988217E+02  0.00000000000E+00 0. -1.
         -6    2    1    2    0  504 -0.28118860614E+01  0.96297729009E+02  0.12022296184E+04  0.12182118287E+04  0.17147257813E+03 0.  0.
        -24    2    3    3    0    0 -0.18844664184E+02  0.11308144566E+03  0.62266012831E+03  0.63815870450E+03  0.79989761971E+02 0.  0.
          6    2    1    2  502    0  0.28118860614E+01 -0.96297729009E+02  0.18453583175E+04  0.18560300835E+04  0.17383668156E+03 0.  0.
         24    2    5    5    0    0 -0.18395558444E+02 -0.11924104244E+03  0.17412262676E+04  0.17472103925E+04  0.79488478211E+02 0.  0.
          2    1    6    6  501    0  0.18441756392E+02 -0.90944783996E+02  0.13604962642E+04  0.13636572652E+04  0.00000000000E+00 0. -1.
         -1    1    6    6    0  501 -0.36837314836E+02 -0.28296258440E+02  0.38073000339E+03  0.38355312733E+03  0.00000000000E+00 0.  1.
          5    1    5    5  502    0  0.21207444505E+02  0.22943313426E+02  0.10413204991E+03  0.10881969101E+03  0.47000000000E+01 0. -1.
         13    1    4    4    0    0 -0.32570814662E+02  0.81595460341E+02  0.27237700155E+03  0.28619557664E+03  0.00000000000E+00 0. -1.
        -14    1    4    4    0    0  0.13726150479E+02  0.31485985322E+02  0.35028312676E+03  0.35196312786E+03  0.00000000000E+00 0.  1.
         -5    1    3    3    0  504  0.16032778123E+02 -0.16783716654E+02  0.57956949006E+03  0.58005312422E+03  0.47000000000E+01 0.  1.
<mgrwt>
<rscale>  2 0.19822882E+03</rscale>
<asrwt>0</asrwt>
<pdfrwt beam="1">  1       21 0.47090943E+00 0.19874695E+03</pdfrwt>
<pdfrwt beam="2">  1       21 0.20503083E-02 0.19874695E+03</pdfrwt>
<totfact> 0.35283529E+03</totfact>
</mgrwt>
</event>
<event>
12    1  0.2743855E-001  0.2065903E+03  0.7546771E-02  0.1144350E+00
         21   -1    0    0  502  503  0.00000000000E+00  0.00000000000E+00  0.50266632045E+03  0.50266632045E+03  0.00000000000E+00 0.  1.
         21   -1    0    0  503  504 -0.00000000000E+00 -0.00000000000E+00 -0.86550968606E+02  0.86550968606E+02  0.00000000000E+00 0.  1.
         -6    2    1    2    0  504 -0.11278607707E+03  0.25286111602E+02  0.25016063241E+03  0.32443782223E+03  0.17122929617E+03 0.  0.
        -24    2    3    3    0    0 -0.85070088962E+01  0.52011255280E+02  0.91776635376E+02  0.13287598396E+03  0.80346352981E+02 0.  0.
          6    2    1    2  502    0  0.11278607707E+03 -0.25286111602E+02  0.16595471943E+03  0.26477946683E+03  0.17090087925E+03 0.  0.
         24    2    5    5    0    0  0.11027440140E+03 -0.71132152801E+02  0.15364221119E+03  0.21701069180E+03  0.79167446154E+02 0.  0.
          2    1    6    6  501    0  0.35585018534E+02 -0.16708214834E+02  0.10596501229E+03  0.11302230672E+03  0.00000000000E+00 0. -1.
         -1    1    6    6    0  501  0.74689382862E+02 -0.54423937967E+02  0.47677198900E+02  0.10398838508E+03  0.00000000000E+00 0.  1.
          5    1    5    5  502    0  0.25116756733E+01  0.45846041199E+02  0.12312508244E+02  0.47768775027E+02  0.47000000000E+01 0. -1.
         13    1    4    4    0    0  0.20019389531E+02  0.49136331987E+02  0.89588960131E+02  0.10412174055E+03  0.00000000000E+00 0. -1.
        -14    1    4    4    0    0 -0.28526398428E+02  0.28749232933E+01  0.21876752450E+01  0.28754243411E+02  0.00000000000E+00 0.  1.
         -5    1    3    3    0  504 -0.10427906817E+03 -0.26725143678E+02  0.15838399704E+03  0.19156183827E+03  0.47000000000E+01 0.  1.
<mgrwt>
<rscale>  2 0.20652225E+03</rscale>
<asrwt>0</asrwt>
<pdfrwt beam="1">  1       21 0.77333278E-01 0.20659032E+03</pdfrwt>
<pdfrwt beam="2">  1       21 0.13315534E-01 0.20659032E+03</pdfrwt>
<totfact> 0.71811457E+04</totfact>
</mgrwt>
</event>
<event>
12    1  0.2743855E-001  0.1861531E+03  0.7546771E-02  0.1162083E+00
         21   -1    0    0  502  503  0.00000000000E+00  0.00000000000E+00  0.33105294742E+03  0.33105294742E+03  0.00000000000E+00 0.  1.
         21   -1    0    0  503  504 -0.00000000000E+00 -0.00000000000E+00 -0.16942721199E+03  0.16942721199E+03  0.00000000000E+00 0.  1.
         -6    2    1    2    0  504  0.64329230344E+02 -0.18947569381E+02 -0.74254343397E+02  0.19999326565E+03  0.17316563900E+03 0.  0.
        -24    2    3    3    0    0  0.25897323069E+02  0.56156346963E+02 -0.32845923976E+02  0.10589567298E+03  0.79440746392E+02 0.  0.
          6    2    1    2  502    0 -0.64329230344E+02  0.18947569381E+02  0.23588007882E+03  0.30048689376E+03  0.17365397051E+03 0.  0.
         24    2    5    5    0    0  0.79690822759E+01 -0.42072694287E+02  0.99955864585E+02  0.13481251251E+03  0.79684507825E+02 0.  0.
          2    1    6    6  501    0  0.68330997839E+01 -0.66035374811E+02  0.75941283979E+02  0.10086843209E+03  0.00000000000E+00 0. -1.
         -1    1    6    6    0  501  0.11359824920E+01  0.23962680524E+02  0.24014580606E+02  0.33944080424E+02  0.00000000000E+00 0.  1.
          5    1    5    5  502    0 -0.72298312620E+02  0.61020263668E+02  0.13592421424E+03  0.16567438125E+03  0.47000000000E+01 0. -1.
         11    1    4    4    0    0  0.50530064351E+02  0.52324876899E+02 -0.35286603598E+02  0.80847538858E+02  0.00000000000E+00 0. -1.
        -12    1    4    4    0    0 -0.24632741282E+02  0.38314700640E+01  0.24406796221E+01  0.25048134121E+02  0.00000000000E+00 0.  1.
         -5    1    3    3    0  504  0.38431907276E+02 -0.75103916345E+02 -0.41408419421E+02  0.94097592669E+02  0.47000000000E+01 0.  1.
<mgrwt>
<rscale>  2 0.18603909E+03</rscale>
<asrwt>0</asrwt>
<pdfrwt beam="1">  1       21 0.50931222E-01 0.18615306E+03</pdfrwt>
<pdfrwt beam="2">  1       21 0.26065725E-01 0.18615306E+03</pdfrwt>
<totfact> 0.51426216E+04</totfact>
</mgrwt>
</event>
<event>
12    1  0.2743855E-001  0.1769523E+03  0.7546771E-02  0.1171643E+00
         21   -1    0    0  502  503  0.00000000000E+00  0.00000000000E+00  0.12200402429E+03  0.12200402429E+03  0.00000000000E+00 0. -1.
         21   -1    0    0  503  504 -0.00000000000E+00 -0.00000000000E+00 -0.25170705174E+03  0.25170705174E+03  0.00000000000E+00 0. -1.
         -6    2    1    2    0  504 -0.46243828246E+00  0.15719469271E+01 -0.65281904577E+02  0.18539697744E+03  0.17351549589E+03 0.  0.
        -24    2    3    3    0    0  0.76358980221E+00  0.35015895298E+02 -0.10232501210E+03  0.13525435443E+03  0.81219679258E+02 0.  0.
          6    2    1    2  502    0  0.46243828246E+00 -0.15719469271E+01 -0.64421122883E+02  0.18831409858E+03  0.17694471958E+03 0.  0.
         24    2    5    5    0    0  0.26253838078E+02  0.62437364980E+02 -0.54396652078E+02  0.11842155013E+03  0.80479682026E+02 0.  0.
          4    1    6    6  501    0  0.19042842415E+02  0.66397778841E+02 -0.60044891554E+01  0.69335047215E+02  0.00000000000E+00 0. -1.
         -3    1    6    6    0  501  0.72109956624E+01 -0.39604138605E+01 -0.48392162922E+02  0.49086502918E+02  0.00000000000E+00 0.  1.
          5    1    5    5  502    0 -0.25791399795E+02 -0.64009311907E+02 -0.10024470805E+02  0.69892548452E+02  0.47000000000E+01 0. -1.
         13    1    4    4    0    0 -0.25641736902E+02  0.37096686143E+02 -0.21040357228E+02  0.49763032730E+02  0.00000000000E+00 0. -1.
        -14    1    4    4    0    0  0.26405326704E+02 -0.20807908456E+01 -0.81284654872E+02  0.85491321703E+02  0.00000000000E+00 0.  1.
         -5    1    3    3    0  504 -0.12260280847E+01 -0.33443948371E+02  0.37043107524E+02  0.50142623012E+02  0.47000000000E+01 0.  1.
<mgrwt>
<rscale>  2 0.17608874E+03</rscale>
<asrwt>0</asrwt>
<pdfrwt beam="1">  1       21 0.18769850E-01 0.17695231E+03</pdfrwt>
<pdfrwt beam="2">  1       21 0.38724161E-01 0.17695231E+03</pdfrwt>
<totfact> 0.16786732E+05</totfact>
</mgrwt>
</event>
<event>
12    1  0.2743855E-001  0.2111182E+03  0.7546771E-02  0.1140972E+00
         21   -1    0    0  502  503  0.00000000000E+00  0.00000000000E+00  0.10457444186E+04  0.10457444186E+04  0.00000000000E+00 0.  1.
         21   -1    0    0  503  504 -0.00000000000E+00 -0.00000000000E+00 -0.60483358831E+02  0.60483358831E+02  0.00000000000E+00 0. -1.
         -6    2    1    2    0  504 -0.34767967264E+02 -0.11576242547E+03  0.19077978078E+03  0.28454843061E+03  0.17309284765E+03 0.  0.
        -24    2    3    3    0    0 -0.29965692271E+02 -0.14189547709E+02  0.27883472069E+02  0.92461448400E+02  0.81684425983E+02 0.  0.
          6    2    1    2  502    0  0.34767967264E+02  0.11576242547E+03  0.79448127898E+03  0.82167934681E+03  0.17130877279E+03 0.  0.
         24    2    5    5    0    0 -0.38240632820E+02  0.95116363496E+02  0.57034965038E+03  0.58500743784E+03  0.80159279126E+02 0.  0.
          2    1    6    6  501    0 -0.59785424418E+02  0.81116278973E+02  0.50140900204E+03  0.51143438975E+03  0.00000000000E+00 0. -1.
         -1    1    6    6    0  501  0.21544791598E+02  0.14000084523E+02  0.68940648343E+02  0.73573048092E+02  0.00000000000E+00 0.  1.
          5    1    5    5  502    0  0.73008600084E+02  0.20646061975E+02  0.22413162860E+03  0.23667190898E+03  0.47000000000E+01 0. -1.
         13    1    4    4    0    0  0.22240074990E+02  0.42424499982E+00 -0.11891021331E+02  0.25222952002E+02  0.00000000000E+00 0. -1.
        -14    1    4    4    0    0 -0.52205767262E+02 -0.14613792708E+02  0.39774493400E+02  0.67238496398E+02  0.00000000000E+00 0.  1.
         -5    1    3    3    0  504 -0.48022749927E+01 -0.10157287776E+03  0.16289630871E+03  0.19208698221E+03  0.47000000000E+01 0.  1.
<mgrwt>
<rscale>  2 0.21075216E+03</rscale>
<asrwt>0</asrwt>
<pdfrwt beam="1">  1       21 0.16088374E+00 0.21111818E+03</pdfrwt>
<pdfrwt beam="2">  1       21 0.93051329E-02 0.21111818E+03</pdfrwt>
<totfact> 0.22566258E+04</totfact>
</mgrwt>
</event>
<event>
12    1  0.2743855E-001  0.2382977E+03  0.7546771E-02  0.1121071E+00
         21   -1    0    0  502  503  0.00000000000E+00  0.00000000000E+00  0.51833567148E+03  0.51833567148E+03  0.00000000000E+00 0. -1.
         21   -1    0    0  503  504 -0.00000000000E+00 -0.00000000000E+00 -0.11009278064E+03  0.11009278064E+03  0.00000000000E+00 0. -1.
         -6    2    1    2    0  504 -0.55435229614E+02  0.15344456316E+03  0.23246598368E+03  0.33231475721E+03  0.17255250114E+03 0.  0.
        -24    2    3    3    0    0  0.27764703167E+01  0.11839908875E+01  0.69683777665E+02  0.10189769953E+03  0.74284599196E+02 0.  0.
          6    2    1    2  502    0  0.55435229614E+02 -0.15344456316E+03  0.17577690717E+03  0.29611369491E+03  0.17368794020E+03 0.  0.
         24    2    5    5    0    0  0.24167190247E+02 -0.16837811581E+02  0.23993676834E+02  0.89475523518E+02  0.81009924068E+02 0.  0.
          2    1    6    6  501    0  0.52106249137E+02 -0.21460974777E+02  0.79023837877E+01  0.56904150174E+02  0.00000000000E+00 0. -1.
         -1    1    6    6    0  501 -0.27939058890E+02  0.46231631961E+01  0.16091293047E+02  0.32571373344E+02  0.00000000000E+00 0.  1.
          5    1    5    5  502    0  0.31268039367E+02 -0.13660675158E+03  0.15178323034E+03  0.20663817139E+03  0.47000000000E+01 0. -1.
         13    1    4    4    0    0  0.30268466927E+02  0.23026746223E+02  0.45302473852E+02  0.59150023406E+02  0.00000000000E+00 0. -1.
        -14    1    4    4    0    0 -0.27491996611E+02 -0.21842755335E+02  0.24381303813E+02  0.42747676123E+02  0.00000000000E+00 0.  1.
         -5    1    3    3    0  504 -0.58211699931E+02  0.15226057228E+03  0.16278220601E+03  0.23041705768E+03  0.47000000000E+01 0.  1.
<mgrwt>
<rscale>  2 0.23809086E+03</rscale>
<asrwt>0</asrwt>
<pdfrwt beam="1">  1       21 0.79743948E-01 0.23829771E+03</pdfrwt>
<pdfrwt beam="2">  1       21 0.16937351E-01 0.23829771E+03</pdfrwt>
<totfact> 0.42562019E+04</totfact>
</mgrwt>
</event>
<event>
12    1  0.2743855E-001  0.1777936E+03  0.7546771E-02  0.1171135E+00
         21   -1    0    0  502  503  0.00000000000E+00  0.00000000000E+00  0.78818317887E+02  0.78818317887E+02  0.00000000000E+00 0. -1.
         21   -1    0    0  503  504 -0.00000000000E+00 -0.00000000000E+00 -0.41804655992E+03  0.41804655992E+03  0.00000000000E+00 0. -1.
         -6    2    1    2    0  504 -0.38940359370E+01 -0.88166296127E+01 -0.23128610837E+03  0.28886952682E+03  0.17279885164E+03 0.  0.
        -24    2    3    3    0    0  0.43879447345E+02 -0.17623268701E+02 -0.59763107784E+02  0.11053811532E+03  0.80069097586E+02 0.  0.
          6    2    1    2  502    0  0.38940359370E+01  0.88166296127E+01 -0.10794213366E+03  0.20799535098E+03  0.17753215297E+03 0.  0.
         24    2    5    5    0    0  0.41649531829E+02 -0.16597805894E+02  0.64646624661E+00  0.90160954341E+02  0.78220260208E+02 0.  0.
          2    1    6    6  501    0  0.30133473614E+02 -0.13892633728E+02  0.38310674000E+02  0.50682731243E+02  0.00000000000E+00 0. -1.
         -1    1    6    6    0  501  0.11516058215E+02 -0.27051721660E+01 -0.37664207753E+02  0.39478223098E+02  0.00000000000E+00 0.  1.
          5    1    5    5  502    0 -0.37755495892E+02  0.25414435507E+02 -0.10858859991E+03  0.11783439664E+03  0.47000000000E+01 0. -1.
         13    1    4    4    0    0 -0.33392501133E+01  0.13845177207E+02 -0.51209573785E+02  0.53153174604E+02  0.00000000000E+00 0. -1.
        -14    1    4    4    0    0  0.47218697458E+02 -0.31468445908E+02 -0.85535339989E+01  0.57384940719E+02  0.00000000000E+00 0.  1.
         -5    1    3    3    0  504 -0.47773483282E+02  0.88066390879E+01 -0.17152300059E+03  0.17833141150E+03  0.47000000000E+01 0.  1.
<mgrwt>
<rscale>  2 0.17660009E+03</rscale>
<asrwt>0</asrwt>
<pdfrwt beam="1">  1       21 0.12125895E-01 0.17779359E+03</pdfrwt>
<pdfrwt beam="2">  1       21 0.64314855E-01 0.17779359E+03</pdfrwt>
<totfact> 0.12913195E+05</totfact>
</mgrwt>
</event>
<event>
12    1  0.2743855E-001  0.2920129E+03  0.7546771E-02  0.1089530E+00
         21   -1    0    0  502  503  0.00000000000E+00  0.00000000000E+00  0.57589217207E+03  0.57589217207E+03  0.00000000000E+00 0.  1.
         21   -1    0    0  503  504 -0.00000000000E+00 -0.00000000000E+00 -0.31076324435E+03  0.31076324435E+03  0.00000000000E+00 0. -1.
         -6    2    1    2    0  504 -0.28878799030E+02 -0.23185727059E+03 -0.18889174735E+03  0.34778104122E+03  0.17515644851E+03 0.  0.
        -24    2    3    3    0    0  0.37437715896E+02 -0.11465686935E+03 -0.44673402571E+02  0.15041124825E+03  0.77974678219E+02 0.  0.
          6    2    1    2  502    0  0.28878799030E+02  0.23185727059E+03  0.45402067508E+03  0.53887437520E+03  0.17221800104E+03 0.  0.
         24    2    5    5    0    0  0.30941052242E+02  0.11681942529E+03  0.12787088038E+03  0.19299327232E+03  0.79317805534E+02 0.  0.
          4    1    6    6  501    0  0.20115127307E+02  0.77643708017E+02  0.27641184912E+02  0.84836306170E+02  0.00000000000E+00 0. -1.
         -3    1    6    6    0  501  0.10825924935E+02  0.39175717274E+02  0.10022969546E+03  0.10815696615E+03  0.00000000000E+00 0.  1.
          5    1    5    5  502    0 -0.20622532125E+01  0.11503784530E+03  0.32614979470E+03  0.34588110287E+03  0.47000000000E+01 0. -1.
         11    1    4    4    0    0 -0.34450353614E+01 -0.96443245093E+02 -0.42925139648E+02  0.10562071486E+03  0.00000000000E+00 0. -1.
        -12    1    4    4    0    0  0.40882751257E+02 -0.18213624258E+02 -0.17482629230E+01  0.44790533400E+02  0.00000000000E+00 0.  1.
         -5    1    3    3    0  504 -0.66316514925E+02 -0.11720040124E+03 -0.14421834478E+03  0.19736979297E+03  0.47000000000E+01 0.  1.
<mgrwt>
<rscale>  2 0.29157370E+03</rscale>
<asrwt>0</asrwt>
<pdfrwt beam="1">  1       21 0.88598796E-01 0.29201295E+03</pdfrwt>
<pdfrwt beam="2">  1       21 0.47809730E-01 0.29201295E+03</pdfrwt>
<totfact> 0.42649431E+03</totfact>
</mgrwt>
</event>
<event>
12    1  0.2743855E-001  0.2177020E+03  0.7546771E-02  0.1135609E+00
         21   -1    0    0  502  503  0.00000000000E+00  0.00000000000E+00  0.25343410941E+03  0.25343410941E+03  0.00000000000E+00 0. -1.
         21   -1    0    0  503  504 -0.00000000000E+00 -0.00000000000E+00 -0.21603399785E+03  0.21603399785E+03  0.00000000000E+00 0. -1.
         -6    2    1    2    0  504  0.11885268293E+02 -0.13259807707E+03 -0.67350152542E+02  0.22787589676E+03  0.17224364032E+03 0.  0.
        -24    2    3    3    0    0 -0.57132266159E+01 -0.15757777947E+03 -0.80131085300E+02  0.19442242463E+03  0.80719829198E+02 0.  0.
          6    2    1    2  502    0 -0.11885268293E+02  0.13259807707E+03  0.10475026411E+03  0.24159221051E+03  0.17225175965E+03 0.  0.
         24    2    5    5    0    0  0.26154745589E+02  0.61344844013E+01  0.49061793976E+02  0.98192842891E+02  0.80703606804E+02 0.  0.
          4    1    6    6  501    0  0.21692521176E+02  0.35640770920E+01 -0.19531456192E+02  0.29406562217E+02  0.00000000000E+00 0. -1.
         -3    1    6    6    0  501  0.44622244138E+01  0.25704073093E+01  0.68593250167E+02  0.68786280674E+02  0.00000000000E+00 0.  1.
          5    1    5    5  502    0 -0.38040013883E+02  0.12646359267E+03  0.55688470133E+02  0.14339936761E+03  0.47000000000E+01 0. -1.
         13    1    4    4    0    0  0.71591526487E+01 -0.62229962093E+02  0.89819994905E+01  0.63281102737E+02  0.00000000000E+00 0. -1.
        -14    1    4    4    0    0 -0.12872379265E+02 -0.95347817379E+02 -0.89113084791E+02  0.13114132189E+03  0.00000000000E+00 0.  1.
         -5    1    3    3    0  504  0.17598494909E+02  0.24979702403E+02  0.12780932758E+02  0.33453472127E+02  0.47000000000E+01 0.  1.
<mgrwt>
<rscale>  2 0.21770043E+03</rscale>
<asrwt>0</asrwt>
<pdfrwt beam="1">  1       21 0.38989863E-01 0.21770204E+03</pdfrwt>
<pdfrwt beam="2">  1       21 0.33236000E-01 0.21770204E+03</pdfrwt>
<totfact> 0.54648031E+04</totfact>
</mgrwt>
</event>
<event>
12    1  0.2743855E-001  0.2035954E+03  0.7546771E-02  0.1147123E+00
         21   -1    0    0  502  503  0.00000000000E+00  0.00000000000E+00  0.97664758023E+03  0.97664758023E+03  0.00000000000E+00 0.  1.
         21   -1    0    0  503  504 -0.00000000000E+00 -0.00000000000E+00 -0.46647791182E+02  0.46647791182E+02  0.00000000000E+00 0.  1.
         -6    2    1    2    0  504  0.97354660786E+02  0.29030132369E+02  0.62358291859E+03  0.65540626235E+03  0.17430155996E+03 0.  0.
        -24    2    3    3    0    0  0.88881415089E+02  0.62907650258E+02  0.29247240499E+03  0.32242616636E+03  0.81001522580E+02 0.  0.
          6    2    1    2  502    0 -0.97354660786E+02 -0.29030132369E+02  0.30641687046E+03  0.36788910906E+03  0.17643814640E+03 0.  0.
         24    2    5    5    0    0 -0.93112182219E+02 -0.31329794006E+02  0.32442356707E+03  0.34866365222E+03  0.81634900857E+02 0.  0.
          4    1    6    6  501    0  0.13763697844E+02  0.52711010310E+01  0.35285266069E+02  0.38239689930E+02  0.00000000000E+00 0. -1.
         -3    1    6    6    0  501 -0.10687588006E+03 -0.36600895037E+02  0.28913830100E+03  0.31042396229E+03  0.00000000000E+00 0.  1.
          5    1    5    5  502    0 -0.42424785672E+01  0.22996616361E+01 -0.18006696613E+02  0.19225456846E+02  0.47000000000E+01 0. -1.
         13    1    4    4    0    0  0.42741972586E+02  0.74111717228E+02  0.15584596032E+03  0.17778466244E+03  0.00000000000E+00 0. -1.
        -14    1    4    4    0    0  0.46139442503E+02 -0.11204066971E+02  0.13662644468E+03  0.14464150392E+03  0.00000000000E+00 0.  1.
         -5    1    3    3    0  504  0.84732456974E+01 -0.33877517888E+02  0.33111051360E+03  0.33298009599E+03  0.47000000000E+01 0.  1.
<mgrwt>
<rscale>  2 0.20313165E+03</rscale>
<asrwt>0</asrwt>
<pdfrwt beam="1">  1       21 0.15025346E+00 0.20359543E+03</pdfrwt>
<pdfrwt beam="2">  1       21 0.71765840E-02 0.20359543E+03</pdfrwt>
<totfact> 0.42840392E+04</totfact>
</mgrwt>
</event>
<event>
12    1  0.2743855E-001  0.1733247E+03  0.7546771E-02  0.1174691E+00
         21   -1    0    0  502  503  0.00000000000E+00  0.00000000000E+00  0.79786419501E+03  0.79786419501E+03  0.00000000000E+00 0. -1.
         21   -1    0    0  503  504 -0.00000000000E+00 -0.00000000000E+00 -0.60634940689E+02  0.60634940689E+02  0.00000000000E+00 0. -1.
         -6    2    1    2    0  504  0.33962676718E+01  0.10886593689E+02  0.10373210283E+03  0.20199457647E+03  0.17294914632E+03 0.  0.
        -24    2    3    3    0    0  0.53108933772E+01 -0.26199377086E+02 -0.69495154279E+01  0.85154747478E+02  0.80550743667E+02 0.  0.
          6    2    1    2  502    0 -0.33962676718E+01 -0.10886593689E+02  0.63349715149E+03  0.65650455922E+03  0.17189980447E+03 0.  0.
         24    2    5    5    0    0  0.35585543434E+02 -0.58874208835E+02  0.46759340348E+03  0.47939290967E+03  0.80258753374E+02 0.  0.
          2    1    6    6  501    0 -0.83899270648E+01 -0.43977263022E+02  0.10945382939E+03  0.11825621044E+03  0.00000000000E+00 0. -1.
         -1    1    6    6    0  501  0.43975470499E+02 -0.14896945812E+02  0.35813957409E+03  0.36113669923E+03  0.00000000000E+00 0.  1.
          5    1    5    5  502    0 -0.38981811106E+02  0.47987615146E+02  0.16590374801E+03  0.17711164956E+03  0.47000000000E+01 0. -1.
         13    1    4    4    0    0  0.37640041388E+01 -0.52575225267E+02 -0.19113136842E+02  0.56068119631E+02  0.00000000000E+00 0. -1.
        -14    1    4    4    0    0  0.15468892384E+01  0.26375848181E+02  0.12163621414E+02  0.29086627847E+02  0.00000000000E+00 0.  1.
         -5    1    3    3    0  504 -0.19146257054E+01  0.37085970774E+02  0.11068161826E+03  0.11683982900E+03  0.47000000000E+01 0.  1.
<mgrwt>
<rscale>  2 0.17306236E+03</rscale>
<asrwt>0</asrwt>
<pdfrwt beam="1">  1       21 0.12274833E+00 0.17332472E+03</pdfrwt>
<pdfrwt beam="2">  1       21 0.93284530E-02 0.17332472E+03</pdfrwt>
<totfact> 0.46267082E+04</totfact>
</mgrwt>
</event>
<event>
12    1  0.2743855E-001  0.2028926E+03  0.7546771E-02  0.1147576E+00
         21   -1    0    0  502  503  0.00000000000E+00  0.00000000000E+00  0.53162253037E+03  0.53162253037E+03  0.00000000000E+00 0.  1.
         21   -1    0    0  503  504 -0.00000000000E+00 -0.00000000000E+00 -0.12383117174E+03  0.12383117174E+03  0.00000000000E+00 0. -1.
         -6    2    1    2    0  504 -0.93194808367E+02 -0.49847577593E+02  0.18992654394E+01  0.20167645240E+03  0.17175485712E+03 0.  0.
        -24    2    3    3    0    0 -0.74359414367E+02 -0.36532900375E+02  0.66134678910E+02  0.13326350743E+03  0.80755131987E+02 0.  0.
          6    2    1    2  502    0  0.93194808367E+02  0.49847577593E+02  0.40589209319E+03  0.45377724971E+03  0.17319165033E+03 0.  0.
         24    2    5    5    0    0  0.13220207706E+03  0.25137151663E+02  0.30774067436E+03  0.34520486290E+03  0.79704511423E+02 0.  0.
          4    1    6    6  501    0  0.91806846084E+02 -0.31824630669E+01  0.26308742719E+03  0.27866399014E+03  0.00000000000E+00 0. -1.
         -3    1    6    6    0  501  0.40395230972E+02  0.28319614730E+02  0.44653247171E+02  0.66540872752E+02  0.00000000000E+00 0.  1.
          5    1    5    5  502    0 -0.39007268689E+02  0.24710425930E+02  0.98151418833E+02  0.10857238682E+03  0.47000000000E+01 0. -1.
         11    1    4    4    0    0 -0.10919450302E+02 -0.38733122700E+02 -0.18052923666E+01  0.40283349781E+02  0.00000000000E+00 0. -1.
        -12    1    4    4    0    0 -0.63439964064E+02  0.22002223253E+01  0.67939971277E+02  0.92980157646E+02  0.00000000000E+00 0.  1.
         -5    1    3    3    0  504 -0.18835394001E+02 -0.13314677218E+02 -0.64235413471E+02  0.68412944976E+02  0.47000000000E+01 0.  1.
<mgrwt>
<rscale>  2 0.20258562E+03</rscale>
<asrwt>0</asrwt>
<pdfrwt beam="1">  1       21 0.81788080E-01 0.20289258E+03</pdfrwt>
<pdfrwt beam="2">  1       21 0.19050950E-01 0.20289258E+03</pdfrwt>
<totfact> 0.32874910E+04</totfact>
</mgrwt>
</event>
<event>
12    1  0.2743855E-001  0.1930422E+03  0.7546771E-02  0.1156782E+00
         21   -1    0    0  502  503  0.00000000000E+00  0.00000000000E+00  0.98472867262E+03  0.98472867262E+03  0.00000000000E+00 0.  1.
         21   -1    0    0  503  504 -0.00000000000E+00 -0.00000000000E+00 -0.45646085222E+02  0.45646085222E+02  0.00000000000E+00 0.  1.
         -6    2    1    2    0  504 -0.42589673999E+02  0.65788926803E+02  0.23995732244E+03  0.30508762129E+03  0.17133848619E+03 0.  0.
        -24    2    3    3    0    0 -0.74975751848E+01 -0.34880975526E+02  0.11415124698E+03  0.14011749291E+03  0.73003483105E+02 0.  0.
          6    2    1    2  502    0  0.42589673999E+02 -0.65788926803E+02  0.69912526496E+03  0.72528713655E+03  0.17641777441E+03 0.  0.
         24    2    5    5    0    0 -0.38286582978E+02 -0.10908309264E+02  0.22460249614E+03  0.24078037783E+03  0.77097700534E+02 0.  0.
          2    1    6    6  501    0 -0.61824858178E+02 -0.28816445643E+01  0.15872624308E+03  0.17036618563E+03  0.00000000000E+00 0. -1.
         -1    1    6    6    0  501  0.23538275200E+02 -0.80266646998E+01  0.65876253056E+02  0.70414192194E+02  0.00000000000E+00 0.  1.
          5    1    5    5  502    0  0.80876256977E+02 -0.54880617539E+02  0.47452276882E+03  0.48450675873E+03  0.47000000000E+01 0. -1.
         13    1    4    4    0    0 -0.17161166348E+02 -0.40216260534E+02  0.25165170552E+02  0.50449371162E+02  0.00000000000E+00 0. -1.
        -14    1    4    4    0    0  0.96635911628E+01  0.53352850075E+01  0.88986076424E+02  0.89668121747E+02  0.00000000000E+00 0.  1.
         -5    1    3    3    0  504 -0.35092098814E+02  0.10066990233E+03  0.12580607547E+03  0.16497012838E+03  0.47000000000E+01 0.  1.
<mgrwt>
<rscale>  2 0.19187400E+03</rscale>
<asrwt>0</asrwt>
<pdfrwt beam="1">  1       21 0.15149670E+00 0.19304221E+03</pdfrwt>
<pdfrwt beam="2">  1       21 0.70224754E-02 0.19304221E+03</pdfrwt>
<totfact> 0.43794928E+04</totfact>
</mgrwt>
</event>
<event>
12    1  0.2743855E-001  0.1760055E+03  0.7546771E-02  0.1171732E+00
         21   -1    0    0  502  503  0.00000000000E+00  0.00000000000E+00  0.93193024785E+02  0.93193024785E+02  0.00000000000E+00 0. -1.
         21   -1    0    0  503  504 -0.00000000000E+00 -0.00000000000E+00 -0.62850006241E+03  0.62850006241E+03  0.00000000000E+00 0. -1.
         -6    2    1    2    0  504 -0.26623349467E+02 -0.18187659960E+02 -0.51535848097E+03  0.54458451922E+03  0.17302699486E+03 0.  0.
        -24    2    3    3    0    0 -0.40064254867E+02  0.55148261471E+02 -0.27242815903E+03  0.29042699596E+03  0.74055809279E+02 0.  0.
          6    2    1    2  502    0  0.26623349467E+02  0.18187659960E+02 -0.19948556656E+02  0.17710856798E+03  0.17300261913E+03 0.  0.
         24    2    5    5    0    0 -0.34080557156E+02 -0.10767470759E+02 -0.51330744794E+02  0.10274261067E+03  0.81509360712E+02 0.  0.
          4    1    6    6  501    0 -0.46113434762E+02 -0.22353899584E+02 -0.26933878740E+01  0.51316664257E+02  0.00000000000E+00 0. -1.
         -3    1    6    6    0  501  0.12032877607E+02  0.11586428825E+02 -0.48637356920E+02  0.51425946414E+02  0.00000000000E+00 0.  1.
          5    1    5    5  502    0  0.60703906622E+02  0.28955130719E+02  0.31382188138E+02  0.74365957309E+02  0.47000000000E+01 0. -1.
         11    1    4    4    0    0 -0.21540944031E+02  0.57345988515E+02 -0.26198060265E+03  0.26904722789E+03  0.00000000000E+00 0. -1.
        -12    1    4    4    0    0 -0.18523310836E+02 -0.21977270435E+01 -0.10447556379E+02  0.21379768071E+02  0.00000000000E+00 0.  1.
         -5    1    3    3    0  504  0.13440905401E+02 -0.73335921431E+02 -0.24293032194E+03  0.25415752325E+03  0.47000000000E+01 0.  1.
<mgrwt>
<rscale>  2 0.17599951E+03</rscale>
<asrwt>0</asrwt>
<pdfrwt beam="1">  1       21 0.14337387E-01 0.17600550E+03</pdfrwt>
<pdfrwt beam="2">  1       21 0.96692325E-01 0.17600550E+03</pdfrwt>
<totfact> 0.38187865E+04</totfact>
</mgrwt>
</event>
<event>
12    1  0.2743855E-001  0.1919984E+03  0.7546771E-02  0.1157462E+00
         21   -1    0    0  502  503  0.00000000000E+00  0.00000000000E+00  0.90181069175E+02  0.90181069175E+02  0.00000000000E+00 0. -1.
         21   -1    0    0  503  504 -0.00000000000E+00 -0.00000000000E+00 -0.41943407927E+03  0.41943407927E+03  0.00000000000E+00 0. -1.
         -6    2    1    2    0  504 -0.30833495453E+02  0.67353103633E+02 -0.11311834803E+03  0.22284335073E+03  0.17713343358E+03 0.  0.
        -24    2    3    3    0    0  0.15189781868E+02  0.87691841556E+02 -0.12356144389E+03  0.17123952754E+03  0.78325965224E+02 0.  0.
          6    2    1    2  502    0  0.30833495453E+02 -0.67353103633E+02 -0.21613466207E+03  0.28677179772E+03  0.17331106950E+03 0.  0.
         24    2    5    5    0    0 -0.57378114551E+01 -0.10505787420E+03 -0.17738615220E+03  0.22132985987E+03  0.80317995899E+02 0.  0.
          2    1    6    6  501    0 -0.37813039625E+02 -0.24064831280E+02 -0.51974720198E+02  0.68631724515E+02  0.00000000000E+00 0. -1.
         -1    1    6    6    0  501  0.32075228170E+02 -0.80993042924E+02 -0.12541143201E+03  0.15269813536E+03  0.00000000000E+00 0.  1.
          5    1    5    5  502    0  0.36571306908E+02  0.37704770570E+02 -0.38748509867E+02  0.65441937850E+02  0.47000000000E+01 0. -1.
         13    1    4    4    0    0  0.18902224712E+02 -0.50038858766E+01 -0.40855177600E+01  0.19975595818E+02  0.00000000000E+00 0. -1.
        -14    1    4    4    0    0 -0.37124428440E+01  0.92695727432E+02 -0.11947592613E+03  0.15126393173E+03  0.00000000000E+00 0.  1.
         -5    1    3    3    0  504 -0.46023277321E+02 -0.20338737922E+02  0.10443095866E+02  0.51603823181E+02  0.47000000000E+01 0.  1.
<mgrwt>
<rscale>  2 0.19111215E+03</rscale>
<asrwt>0</asrwt>
<pdfrwt beam="1">  1       21 0.13874011E-01 0.19199843E+03</pdfrwt>
<pdfrwt beam="2">  1       21 0.64528320E-01 0.19199843E+03</pdfrwt>
<totfact> 0.10011141E+05</totfact>
</mgrwt>
</event>
<event>
12    1  0.2743855E-001  0.4144012E+03  0.7546771E-02  0.1038911E+00
         21   -1    0    0  502  503  0.00000000000E+00  0.00000000000E+00  0.63508895178E+03  0.63508895178E+03  0.00000000000E+00 0. -1.
         21   -1    0    0  503  504 -0.00000000000E+00 -0.00000000000E+00 -0.43265116818E+03  0.43265116818E+03  0.00000000000E+00 0. -1.
         -6    2    1    2    0  504  0.11644659708E+03  0.35735995085E+03 -0.22576472476E+03  0.47190899642E+03  0.17453494065E+03 0.  0.
        -24    2    3    3    0    0 -0.34591815323E+01  0.93332986336E+02 -0.51026953287E+02  0.13331925570E+03  0.80294842326E+02 0.  0.
          6    2    1    2  502    0 -0.11644659708E+03 -0.35735995085E+03  0.42820250836E+03  0.59583112355E+03  0.17433127999E+03 0.  0.
         24    2    5    5    0    0 -0.13226413598E+03 -0.20316799359E+03  0.30520921700E+03  0.39790488997E+03  0.80028745032E+02 0.  0.
          4    1    6    6  501    0  0.33158122748E+01 -0.42808404768E+02  0.74102658635E+02  0.85643202571E+02  0.00000000000E+00 0. -1.
         -3    1    6    6    0  501 -0.13557994825E+03 -0.16035958882E+03  0.23110655837E+03  0.31226168740E+03  0.00000000000E+00 0.  1.
          5    1    5    5  502    0  0.15817538901E+02 -0.15419195727E+03  0.12299329135E+03  0.19792623358E+03  0.47000000000E+01 0. -1.
         13    1    4    4    0    0  0.38310127651E+02  0.40132498419E+02 -0.21166247156E+02  0.59382601228E+02  0.00000000000E+00 0. -1.
        -14    1    4    4    0    0 -0.41769309183E+02  0.53200487917E+02 -0.29860706130E+02  0.73936654475E+02  0.00000000000E+00 0.  1.
         -5    1    3    3    0  504  0.11990577861E+03  0.26402696452E+03 -0.17473777148E+03  0.33858974071E+03  0.47000000000E+01 0.  1.
<mgrwt>
<rscale>  2 0.41437981E+03</rscale>
<asrwt>0</asrwt>
<pdfrwt beam="1">  1       21 0.97705992E-01 0.41440124E+03</pdfrwt>
<pdfrwt beam="2">  1       21 0.66561718E-01 0.41440124E+03</pdfrwt>
<totfact> 0.15623464E+03</totfact>
</mgrwt>
</event>
<event>
12    1  0.2743855E-001  0.2226884E+03  0.7546771E-02  0.1131895E+00
         21   -1    0    0  502  503  0.00000000000E+00  0.00000000000E+00  0.27275411212E+03  0.27275411212E+03  0.00000000000E+00 0. -1.
         21   -1    0    0  503  504 -0.00000000000E+00 -0.00000000000E+00 -0.18208073501E+03  0.18208073501E+03  0.00000000000E+00 0. -1.
         -6    2    1    2    0  504  0.13955710071E+03 -0.13375530052E+02  0.54085983725E+02  0.22916238854E+03  0.17301739081E+03 0.  0.
        -24    2    3    3    0    0  0.10518810120E+03  0.37874730543E+02  0.83097245593E+02  0.16081357250E+03  0.80354346671E+02 0.  0.
          6    2    1    2  502    0 -0.13955710071E+03  0.13375530052E+02  0.36587393382E+02  0.22567245860E+03  0.17301540987E+03 0.  0.
         24    2    5    5    0    0 -0.13746000462E+03 -0.24101835367E+02  0.68951168367E+02  0.17588837819E+03  0.81892042506E+02 0.  0.
          2    1    6    6  501    0 -0.10166811176E+03 -0.52605093826E+02  0.60085940078E+02  0.12928271749E+03  0.00000000000E+00 0. -1.
         -1    1    6    6    0  501 -0.35791892851E+02  0.28503258459E+02  0.88652282890E+01  0.46605660700E+02  0.00000000000E+00 0.  1.
          5    1    5    5  502    0 -0.20970960893E+01  0.37477365419E+02 -0.32363774985E+02  0.49784080408E+02  0.47000000000E+01 0. -1.
         11    1    4    4    0    0  0.10610635844E+03  0.33184103470E+02  0.41073824131E+02  0.11851920964E+03  0.00000000000E+00 0. -1.
        -12    1    4    4    0    0 -0.91825724340E+00  0.46906270732E+01  0.42023421462E+02  0.42294362864E+02  0.00000000000E+00 0.  1.
         -5    1    3    3    0  504  0.34368999507E+02 -0.51250260595E+02 -0.29011261868E+02  0.68348816035E+02  0.47000000000E+01 0.  1.
<mgrwt>
<rscale>  2 0.22268798E+03</rscale>
<asrwt>0</asrwt>
<pdfrwt beam="1">  1       21 0.41962171E-01 0.22268836E+03</pdfrwt>
<pdfrwt beam="2">  1       21 0.28012421E-01 0.22268836E+03</pdfrwt>
<totfact> 0.65669663E+04</totfact>
</mgrwt>
</event>
<event>
12    1  0.2743855E-001  0.2333126E+03  0.7546771E-02  0.1124921E+00
         21   -1    0    0  502  503  0.00000000000E+00  0.00000000000E+00  0.59225080051E+03  0.59225080051E+03  0.00000000000E+00 0. -1.
         21   -1    0    0  503  504 -0.00000000000E+00 -0.00000000000E+00 -0.18669396182E+03  0.18669396182E+03  0.00000000000E+00 0. -1.
         -6    2    1    2    0  504 -0.15046080134E+03 -0.42091936115E+02 -0.77390377562E+02  0.24259338306E+03  0.16867748854E+03 0.  0.
        -24    2    3    3    0    0 -0.14931064477E+03 -0.53144703331E+02 -0.13088369826E+02  0.17716919241E+03  0.78099866705E+02 0.  0.
          6    2    1    2  502    0  0.15046080134E+03  0.42091936115E+02  0.48294721625E+03  0.53635137928E+03  0.17327609340E+03 0.  0.
         24    2    5    5    0    0  0.15832399151E+03  0.31289381711E+02  0.48893844371E+03  0.52097250585E+03  0.79410568633E+02 0.  0.
          2    1    6    6  501    0  0.75478740223E+02  0.30772533141E+02  0.34861822283E+03  0.35802046633E+03  0.00000000000E+00 0. -1.
         -1    1    6    6    0  501  0.82845251291E+02  0.51684856971E+00  0.14032022088E+03  0.16295203951E+03  0.00000000000E+00 0.  1.
          5    1    5    5  502    0 -0.78631901764E+01  0.10802554404E+02 -0.59912274658E+01  0.15378873429E+02  0.47000000000E+01 0. -1.
         13    1    4    4    0    0 -0.60675872042E+02  0.11733471540E+02 -0.25037144487E+02  0.66679040234E+02  0.00000000000E+00 0. -1.
        -14    1    4    4    0    0 -0.88634772731E+02 -0.64878174872E+02  0.11948774661E+02  0.11049015217E+03  0.00000000000E+00 0.  1.
         -5    1    3    3    0  504 -0.11501565645E+01  0.11052767216E+02 -0.64302007736E+02  0.65424190650E+02  0.47000000000E+01 0.  1.
<mgrwt>
<rscale>  2 0.23245931E+03</rscale>
<asrwt>0</asrwt>
<pdfrwt beam="1">  1       21 0.91115507E-01 0.23331264E+03</pdfrwt>
<pdfrwt beam="2">  1       21 0.28722148E-01 0.23331264E+03</pdfrwt>
<totfact> 0.11535875E+04</totfact>
</mgrwt>
</event>
<event>
12    1  0.2743855E-001  0.2324650E+03  0.7546771E-02  0.1125386E+00
         21   -1    0    0  502  503  0.00000000000E+00  0.00000000000E+00  0.29686728224E+03  0.29686728224E+03  0.00000000000E+00 0. -1.
         21   -1    0    0  503  504 -0.00000000000E+00 -0.00000000000E+00 -0.25597344183E+03  0.25597344183E+03  0.00000000000E+00 0. -1.
         -6    2    1    2    0  504 -0.27996138099E+02 -0.15245244054E+03  0.17101647240E+03  0.28643522524E+03  0.16962598283E+03 0.  0.
        -24    2    3    3    0    0 -0.46964395887E+02 -0.40214643707E+02  0.13094152768E+03  0.16566598646E+03  0.80477719577E+02 0.  0.
          6    2    1    2  502    0  0.27996138099E+02  0.15245244054E+03 -0.13012263199E+03  0.26640549884E+03  0.17324681838E+03 0.  0.
         24    2    5    5    0    0  0.32904759424E+02  0.81815753438E+02 -0.15146217791E+03  0.19230352620E+03  0.79141102768E+02 0.  0.
          4    1    6    6  501    0  0.37069595194E+02  0.39403689893E+01 -0.29497660324E+02  0.47537283896E+02  0.00000000000E+00 0. -1.
         -3    1    6    6    0  501 -0.41648357700E+01  0.77875384449E+02 -0.12196451759E+03  0.14476624230E+03  0.00000000000E+00 0.  1.
          5    1    5    5  502    0 -0.49086213247E+01  0.70636687104E+02  0.21339545924E+02  0.74101972636E+02  0.47000000000E+01 0. -1.
         13    1    4    4    0    0 -0.16363320068E+02 -0.12334532971E+02 -0.69941436081E+01  0.21652182155E+02  0.00000000000E+00 0. -1.
        -14    1    4    4    0    0 -0.30601075819E+02 -0.27880110736E+02  0.13793567129E+03  0.14401380430E+03  0.00000000000E+00 0.  1.
         -5    1    3    3    0  504  0.18968257787E+02 -0.11223779683E+03  0.40074944720E+02  0.12076923878E+03  0.47000000000E+01 0.  1.
<mgrwt>
<rscale>  2 0.23179066E+03</rscale>
<asrwt>0</asrwt>
<pdfrwt beam="1">  1       21 0.45671890E-01 0.23246503E+03</pdfrwt>
<pdfrwt beam="2">  1       21 0.39380529E-01 0.23246503E+03</pdfrwt>
<totfact> 0.27978676E+04</totfact>
</mgrwt>
</event>
<event>
12    1  0.2743855E-001  0.1784102E+03  0.7546771E-02  0.1169529E+00
         21   -1    0    0  502  503  0.00000000000E+00  0.00000000000E+00  0.49252154653E+03  0.49252154653E+03  0.00000000000E+00 0. -1.
         21   -1    0    0  503  504 -0.00000000000E+00 -0.00000000000E+00 -0.99591459456E+02  0.99591459456E+02  0.00000000000E+00 0. -1.
         -6    2    1    2    0  504  0.45057454022E+02  0.14911140148E+02  0.20129684076E+02  0.17882092550E+03  0.17122851093E+03 0.  0.
        -24    2    3    3    0    0  0.56750588600E+02 -0.46326444701E+02  0.36358144873E+02  0.11422816945E+03  0.79745791194E+02 0.  0.
          6    2    1    2  502    0 -0.45057454022E+02 -0.14911140148E+02  0.37280040299E+03  0.41329208048E+03  0.17198164742E+03 0.  0.
         24    2    5    5    0    0 -0.73368402637E+02  0.39608400578E+02  0.23413463282E+03  0.26155488678E+03  0.81487327924E+02 0.  0.
          4    1    6    6  501    0 -0.73275194254E+02 -0.36006335937E+01  0.14913356124E+03  0.16620179825E+03  0.00000000000E+00 0. -1.
         -3    1    6    6    0  501 -0.93208382964E-01  0.43209034172E+02  0.85001071582E+02  0.95353088529E+02  0.00000000000E+00 0.  1.
          5    1    5    5  502    0  0.28310948615E+02 -0.54519540727E+02  0.13866577018E+03  0.15173719370E+03  0.47000000000E+01 0. -1.
         11    1    4    4    0    0  0.14196711241E+02  0.22485964605E+02  0.31787657240E+01  0.26781892499E+02  0.00000000000E+00 0. -1.
        -12    1    4    4    0    0  0.42553877359E+02 -0.68812409305E+02  0.33179379149E+02  0.87446276956E+02  0.00000000000E+00 0.  1.
         -5    1    3    3    0  504 -0.11693134578E+02  0.61237584849E+02 -0.16228460797E+02  0.64592756051E+02  0.47000000000E+01 0.  1.
<mgrwt>
<rscale>  2 0.17822846E+03</rscale>
<asrwt>0</asrwt>
<pdfrwt beam="1">  1       21 0.75772544E-01 0.17841021E+03</pdfrwt>
<pdfrwt beam="2">  1       21 0.15321763E-01 0.17841021E+03</pdfrwt>
<totfact> 0.59031493E+04</totfact>
</mgrwt>
</event>
<event>
12    1  0.2743855E-001  0.2218322E+03  0.7546771E-02  0.1134240E+00
         21   -1    0    0  502  503  0.00000000000E+00  0.00000000000E+00  0.13480241334E+04  0.13480241334E+04  0.00000000000E+00 0. -1.
         21   -1    0    0  503  504 -0.00000000000E+00 -0.00000000000E+00 -0.36802554245E+02  0.36802554245E+02  0.00000000000E+00 0. -1.
         -6    2    1    2    0  504  0.54221065888E+02 -0.12666034856E+03  0.49034634818E+03  0.53450576597E+03  0.16209288942E+03 0.  0.
        -24    2    3    3    0    0  0.40423358976E+01 -0.20013327359E+02  0.14041790001E+03  0.16523147644E+03  0.84660382767E+02 0.  0.
          6    2    1    2  502    0 -0.54221065888E+02  0.12666034856E+03  0.82087523093E+03  0.85032092163E+03  0.17385843989E+03 0.  0.
         24    2    5    5    0    0 -0.71115443687E+02  0.12264510673E+03  0.81536169126E+03  0.83150520246E+03  0.80541825170E+02 0.  0.
          2    1    6    6  501    0 -0.55327824664E+02  0.12575915591E+03  0.59939130220E+03  0.61493614842E+03  0.00000000000E+00 0. -1.
         -1    1    6    6    0  501 -0.15787619023E+02 -0.31140491800E+01  0.21597038906E+03  0.21656905404E+03  0.00000000000E+00 0.  1.
          5    1    5    5  502    0  0.16894377799E+02  0.40152418316E+01  0.55135396651E+01  0.18815719168E+02  0.47000000000E+01 0. -1.
         11    1    4    4    0    0 -0.16636023619E+02 -0.33467967934E+02  0.13485967902E+03  0.13994282827E+03  0.00000000000E+00 0. -1.
        -12    1    4    4    0    0  0.20678359517E+02  0.13454640574E+02  0.55582209890E+01  0.25288648162E+02  0.00000000000E+00 0.  1.
         -5    1    3    3    0  504  0.50178729990E+02 -0.10664702120E+03  0.34992844817E+03  0.36927428954E+03  0.47000000000E+01 0.  1.
<mgrwt>
<rscale>  2 0.21952248E+03</rscale>
<asrwt>0</asrwt>
<pdfrwt beam="1">  1       21 0.20738829E+00 0.22183220E+03</pdfrwt>
<pdfrwt beam="2">  1       21 0.56619325E-02 0.22183220E+03</pdfrwt>
<totfact> 0.25692947E+04</totfact>
</mgrwt>
</event>
<event>
12    1  0.2743855E-001  0.2160048E+03  0.7546771E-02  0.1137057E+00
         21   -1    0    0  502  503  0.00000000000E+00  0.00000000000E+00  0.68006707991E+03  0.68006707991E+03  0.00000000000E+00 0. -1.
         21   -1    0    0  503  504 -0.00000000000E+00 -0.00000000000E+00 -0.73651341380E+02  0.73651341380E+02  0.00000000000E+00 0.  1.
         -6    2    1    2    0  504  0.24249017003E+02 -0.12825055888E+03  0.20257320620E+03  0.29613172088E+03  0.17211005654E+03 0.  0.
        -24    2    3    3    0    0 -0.85378502514E+01 -0.51986636711E+01  0.11359881394E+03  0.14071203082E+03  0.82433391896E+02 0.  0.
          6    2    1    2  502    0 -0.24249017003E+02  0.12825055888E+03  0.40384253233E+03  0.45758670041E+03  0.17105723251E+03 0.  0.
         24    2    5    5    0    0  0.17059648681E+02  0.10737003510E+03  0.16065415504E+03  0.20998807565E+03  0.80410685440E+02 0.  0.
          2    1    6    6  501    0  0.76348117039E+01  0.11956546211E+03  0.14207459073E+03  0.18584773178E+03  0.00000000000E+00 0. -1.
         -1    1    6    6    0  501  0.94248369770E+01 -0.12195427007E+02  0.18579564308E+02  0.24140343863E+02  0.00000000000E+00 0.  1.
          5    1    5    5  502    0 -0.41308665684E+02  0.20880523781E+02  0.24318837729E+03  0.24759862476E+03  0.47000000000E+01 0. -1.
         11    1    4    4    0    0  0.26364428583E+02 -0.29968806120E+02  0.48634215796E+02  0.62916606559E+02  0.00000000000E+00 0. -1.
        -12    1    4    4    0    0 -0.34902278834E+02  0.24770142449E+02  0.64964598143E+02  0.77795424266E+02  0.00000000000E+00 0.  1.
         -5    1    3    3    0  504  0.32786867254E+02 -0.12305189521E+03  0.88974392259E+02  0.15541969005E+03  0.47000000000E+01 0.  1.
<mgrwt>
<rscale>  2 0.21579505E+03</rscale>
<asrwt>0</asrwt>
<pdfrwt beam="1">  1       21 0.10462570E+00 0.21600484E+03</pdfrwt>
<pdfrwt beam="2">  1       21 0.11330976E-01 0.21600484E+03</pdfrwt>
<totfact> 0.47336645E+04</totfact>
</mgrwt>
</event>
<event>
12    1  0.2743855E-001  0.1790347E+03  0.7546771E-02  0.1169082E+00
         21   -1    0    0  502  503  0.00000000000E+00  0.00000000000E+00  0.24248407673E+04  0.24248407673E+04  0.00000000000E+00 0.  1.
         21   -1    0    0  503  504 -0.00000000000E+00 -0.00000000000E+00 -0.41871495999E+02  0.41871495999E+02  0.00000000000E+00 0.  1.
         -6    2    1    2    0  504  0.28228015943E+02 -0.32787434986E+02  0.16793342877E+03  0.24445277799E+03  0.17228954521E+03 0.  0.
        -24    2    3    3    0    0  0.21889119765E+02  0.46437461011E+02  0.11085623346E+03  0.14649022404E+03  0.80837552504E+02 0.  0.
          6    2    1    2  502    0 -0.28228015943E+02  0.32787434986E+02  0.22150358425E+04  0.22222594853E+04  0.17372852267E+03 0.  0.
         24    2    5    5    0    0 -0.42245151757E+02  0.80945758825E+02  0.12417163685E+04  0.12476372032E+04  0.80013638235E+02 0.  0.
          2    1    6    6  501    0  0.15779276980E+02  0.53086247597E+02  0.67796403407E+03  0.68022229217E+03  0.00000000000E+00 0. -1.
         -1    1    6    6    0  501 -0.58024428737E+02  0.27859511228E+02  0.56375233447E+03  0.56741491108E+03  0.00000000000E+00 0.  1.
          5    1    5    5  502    0  0.14017135814E+02 -0.48158323839E+02  0.97331947396E+03  0.97462228203E+03  0.47000000000E+01 0. -1.
         11    1    4    4    0    0  0.28018845555E+02  0.56263854453E+02  0.11741523006E+03  0.13318037871E+03  0.00000000000E+00 0. -1.
        -12    1    4    4    0    0 -0.61297257892E+01 -0.98263934423E+01 -0.65589966017E+01  0.13309845332E+02  0.00000000000E+00 0.  1.
         -5    1    3    3    0  504  0.63388961781E+01 -0.79224895997E+02  0.57077195316E+02  0.97962553946E+02  0.47000000000E+01 0.  1.
<mgrwt>
<rscale>  2 0.17868471E+03</rscale>
<asrwt>0</asrwt>
<pdfrwt beam="1">  1       21 0.37305232E+00 0.17903474E+03</pdfrwt>
<pdfrwt beam="2">  1       21 0.64417705E-02 0.17903474E+03</pdfrwt>
<totfact> 0.22690142E+03</totfact>
</mgrwt>
</event>
<event>
12    1  0.2743855E-001  0.2112298E+03  0.7546771E-02  0.1141022E+00
         21   -1    0    0  502  503  0.00000000000E+00  0.00000000000E+00  0.19521601944E+03  0.19521601944E+03  0.00000000000E+00 0. -1.
         21   -1    0    0  503  504 -0.00000000000E+00 -0.00000000000E+00 -0.39676320988E+03  0.39676320988E+03  0.00000000000E+00 0.  1.
         -6    2    1    2    0  504 -0.62665194514E+01  0.11956042790E+03 -0.29452944518E+03  0.36118984638E+03  0.17139587469E+03 0.  0.
        -24    2    3    3    0    0  0.24661377603E+02  0.40786838540E+02 -0.54821448312E+02  0.10693834302E+03  0.78477183113E+02 0.  0.
          6    2    1    2  502    0  0.62665194514E+01 -0.11956042790E+03  0.92982254745E+02  0.23078938294E+03  0.17402320074E+03 0.  0.
         24    2    5    5    0    0 -0.61753894540E+01 -0.15672838032E+02 -0.11106617778E+02  0.83127553720E+02  0.80641552206E+02 0.  0.
          4    1    6    6  501    0  0.26442243800E+02  0.20458611563E+02 -0.78523995286E+01  0.34342498782E+02  0.00000000000E+00 0. -1.
         -3    1    6    6    0  501 -0.32617633254E+02 -0.36131449594E+02 -0.32542182495E+01  0.48785054938E+02  0.00000000000E+00 0.  1.
          5    1    5    5  502    0  0.12441908905E+02 -0.10388758987E+03  0.10408887252E+03  0.14766182922E+03  0.47000000000E+01 0. -1.
         11    1    4    4    0    0 -0.24802395872E+02  0.15236447639E+02 -0.39737151139E+02  0.49257987761E+02  0.00000000000E+00 0. -1.
        -12    1    4    4    0    0  0.49463773475E+02  0.25550390901E+02 -0.15084297173E+02  0.57680355259E+02  0.00000000000E+00 0.  1.
         -5    1    3    3    0  504 -0.30927897055E+02  0.78773589362E+02 -0.23970799687E+03  0.25425150336E+03  0.47000000000E+01 0.  1.
<mgrwt>
<rscale>  2 0.21068794E+03</rscale>
<asrwt>0</asrwt>
<pdfrwt beam="1">  1       21 0.30033234E-01 0.21122983E+03</pdfrwt>
<pdfrwt beam="2">  1       21 0.61040493E-01 0.21122983E+03</pdfrwt>
<totfact> 0.26277077E+04</totfact>
</mgrwt>
</event>
<event>
12    1  0.2743855E-001  0.1945612E+03  0.7546771E-02  0.1155227E+00
         21   -1    0    0  502  503  0.00000000000E+00  0.00000000000E+00  0.52798763647E+03  0.52798763647E+03  0.00000000000E+00 0. -1.
         21   -1    0    0  503  504 -0.00000000000E+00 -0.00000000000E+00 -0.13319352895E+03  0.13319352895E+03  0.00000000000E+00 0. -1.
         -6    2    1    2    0  504 -0.53702724844E+02 -0.71090629528E+02 -0.28696390029E+02  0.19666602186E+03  0.17296294716E+03 0.  0.
        -24    2    3    3    0    0 -0.42503481035E+01 -0.63239236999E+01 -0.66339134222E+02  0.10678092888E+03  0.83326037792E+02 0.  0.
          6    2    1    2  502    0  0.53702724844E+02  0.71090629528E+02  0.42349049754E+03  0.46451514356E+03  0.16879649528E+03 0.  0.
         24    2    5    5    0    0  0.18184240240E+02  0.87726016181E+02  0.17123844347E+03  0.20918890592E+03  0.80067929483E+02 0.  0.
          2    1    6    6  501    0 -0.16136208514E+02  0.75452157702E+01  0.83860063522E+02  0.85731078146E+02  0.00000000000E+00 0. -1.
         -1    1    6    6    0  501  0.34320448754E+02  0.80180800410E+02  0.87378379943E+02  0.12345782777E+03  0.00000000000E+00 0.  1.
          5    1    5    5  502    0  0.35518484603E+02 -0.16635386653E+02  0.25225205408E+03  0.25532623763E+03  0.47000000000E+01 0. -1.
         13    1    4    4    0    0 -0.32145016447E+02  0.94930166415E+01 -0.66770711756E+02  0.74711092855E+02  0.00000000000E+00 0. -1.
        -14    1    4    4    0    0  0.27894668343E+02 -0.15816940341E+02  0.43157753397E+00  0.32069836029E+02  0.00000000000E+00 0.  1.
         -5    1    3    3    0  504 -0.49452376740E+02 -0.64766705828E+02  0.37642744193E+02  0.89885092977E+02  0.47000000000E+01 0.  1.
<mgrwt>
<rscale>  2 0.19363090E+03</rscale>
<asrwt>0</asrwt>
<pdfrwt beam="1">  1       21 0.81228866E-01 0.19456115E+03</pdfrwt>
<pdfrwt beam="2">  1       21 0.20491313E-01 0.19456115E+03</pdfrwt>
<totfact> 0.29279663E+04</totfact>
</mgrwt>
</event>
<event>
12    1  0.2743855E-001  0.2133773E+03  0.7546771E-02  0.1139149E+00
         21   -1    0    0  502  503  0.00000000000E+00  0.00000000000E+00  0.12904946523E+03  0.12904946523E+03  0.00000000000E+00 0. -1.
         21   -1    0    0  503  504 -0.00000000000E+00 -0.00000000000E+00 -0.35912170404E+03  0.35912170404E+03  0.00000000000E+00 0.  1.
         -6    2    1    2    0  504 -0.48466053235E+02  0.11264700750E+03 -0.15236507051E+03  0.26219265663E+03  0.17461834915E+03 0.  0.
        -24    2    3    3    0    0 -0.60288536655E+02  0.98741096231E+02 -0.37177030806E+02  0.14547282123E+03  0.79973110239E+02 0.  0.
          6    2    1    2  502    0  0.48466053235E+02 -0.11264700750E+03 -0.77707168301E+02  0.22597851264E+03  0.17317499114E+03 0.  0.
         24    2    5    5    0    0  0.92881892432E+02 -0.80023565571E+02 -0.86364990154E+02  0.16999544722E+03  0.80054503700E+02 0.  0.
          4    1    6    6  501    0  0.48255490950E+01 -0.16736691177E+02  0.13916150898E+02  0.22294887562E+02  0.00000000000E+00 0. -1.
         -3    1    6    6    0  501  0.88056343337E+02 -0.63286874394E+02 -0.10028114105E+03  0.14770055966E+03  0.00000000000E+00 0.  1.
          5    1    5    5  502    0 -0.44415839197E+02 -0.32623441928E+02  0.86578218529E+01  0.55983065422E+02  0.47000000000E+01 0.  1.
         13    1    4    4    0    0  0.55298170785E+01  0.48431178206E+02  0.10535545700E+02  0.49871390822E+02  0.00000000000E+00 0. -1.
        -14    1    4    4    0    0 -0.65818353733E+02  0.50309918025E+02 -0.47712576506E+02  0.95601430411E+02  0.00000000000E+00 0.  1.
         -5    1    3    3    0  504  0.11822483420E+02  0.13905911268E+02 -0.11518803971E+03  0.11671983539E+03  0.47000000000E+01 0.  1.
<mgrwt>
<rscale>  2 0.21308180E+03</rscale>
<asrwt>0</asrwt>
<pdfrwt beam="1">  1       21 0.19853764E-01 0.21337731E+03</pdfrwt>
<pdfrwt beam="2">  1       21 0.55249491E-01 0.21337731E+03</pdfrwt>
<totfact> 0.71641713E+04</totfact>
</mgrwt>
</event>
<event>
12    1  0.2743855E-001  0.2040541E+03  0.7546771E-02  0.1147185E+00
         21   -1    0    0  502  503  0.00000000000E+00  0.00000000000E+00  0.27759219909E+03  0.27759219909E+03  0.00000000000E+00 0. -1.
         21   -1    0    0  503  504 -0.00000000000E+00 -0.00000000000E+00 -0.15393852925E+03  0.15393852925E+03  0.00000000000E+00 0. -1.
         -6    2    1    2    0  504  0.10021263238E+03 -0.14672838554E+02  0.15777637100E+02  0.20071624283E+03  0.17256944233E+03 0.  0.
        -24    2    3    3    0    0  0.54574227792E+02 -0.42907549116E+02 -0.49916645686E+02  0.11575806698E+03  0.78031112027E+02 0.  0.
          6    2    1    2  502    0 -0.10021263238E+03  0.14672838554E+02  0.10787603274E+03  0.23081448550E+03  0.17714464259E+03 0.  0.
         24    2    5    5    0    0 -0.47640174480E+02 -0.21716571833E+02  0.13138279846E+03  0.16253044233E+03  0.80084388220E+02 0.  0.
          4    1    6    6  501    0  0.84122349584E+00 -0.18512290970E+02 -0.37686424154E+01  0.18910717585E+02  0.00000000000E+00 0. -1.
         -3    1    6    6    0  501 -0.48481397976E+02 -0.32042808624E+01  0.13515144087E+03  0.14361972474E+03  0.00000000000E+00 0.  1.
          5    1    5    5  502    0 -0.52572457895E+02  0.36389410387E+02 -0.23506765719E+02  0.68284043173E+02  0.47000000000E+01 0. -1.
         13    1    4    4    0    0 -0.84493964026E+01 -0.13746173400E+02  0.14011338011E+02  0.21369772473E+02  0.00000000000E+00 0. -1.
        -14    1    4    4    0    0  0.63023624194E+02 -0.29161375717E+02 -0.63927983697E+02  0.94388294506E+02  0.00000000000E+00 0.  1.
         -5    1    3    3    0  504  0.45638404584E+02  0.28234710563E+02  0.65694282786E+02  0.84958175853E+02  0.47000000000E+01 0.  1.
<mgrwt>
<rscale>  2 0.20305711E+03</rscale>
<asrwt>0</asrwt>
<pdfrwt beam="1">  1       21 0.42706492E-01 0.20405413E+03</pdfrwt>
<pdfrwt beam="2">  1       21 0.23682851E-01 0.20405413E+03</pdfrwt>
<totfact> 0.88133000E+04</totfact>
</mgrwt>
</event>
<event>
12    1  0.2743855E-001  0.2170216E+03  0.7546771E-02  0.1136361E+00
         21   -1    0    0  502  503  0.00000000000E+00  0.00000000000E+00  0.15718188124E+03  0.15718188124E+03  0.00000000000E+00 0. -1.
         21   -1    0    0  503  504 -0.00000000000E+00 -0.00000000000E+00 -0.45048500582E+03  0.45048500582E+03  0.00000000000E+00 0. -1.
         -6    2    1    2    0  504 -0.68141890775E+02 -0.10971510832E+03 -0.32374792209E+03  0.38975774715E+03  0.17440660003E+03 0.  0.
        -24    2    3    3    0    0 -0.11569706681E+02  0.30596611193E+01 -0.94040180164E+02  0.12763888607E+03  0.85468766882E+02 0.  0.
          6    2    1    2  502    0  0.68141890775E+02  0.10971510832E+03  0.30444797519E+02  0.21790913990E+03  0.17284902454E+03 0.  0.
         24    2    5    5    0    0  0.27569536866E+02  0.37231365799E+02  0.78447666706E+02  0.12185512238E+03  0.80922064218E+02 0.  0.
          4    1    6    6  501    0  0.15637348707E+02  0.62873855881E+02  0.57965518497E+02  0.86934744277E+02  0.00000000000E+00 0. -1.
         -3    1    6    6    0  501  0.11932188159E+02 -0.25642490082E+02  0.20482148209E+02  0.34920378107E+02  0.00000000000E+00 0.  1.
          5    1    5    5  502    0  0.40572353910E+02  0.72483742521E+02 -0.48002869187E+02  0.96054017520E+02  0.47000000000E+01 0. -1.
         13    1    4    4    0    0 -0.20287974135E+02 -0.24313166731E+02 -0.93703270515E+02  0.98909225435E+02  0.00000000000E+00 0. -1.
        -14    1    4    4    0    0  0.87182674546E+01  0.27372827851E+02 -0.33690964985E+00  0.28729660633E+02  0.00000000000E+00 0.  1.
         -5    1    3    3    0  504 -0.56572184095E+02 -0.11277476944E+03 -0.22970774193E+03  0.26211886109E+03  0.47000000000E+01 0.  1.
<mgrwt>
<rscale>  2 0.21670851E+03</rscale>
<asrwt>0</asrwt>
<pdfrwt beam="1">  1       21 0.24181828E-01 0.21702162E+03</pdfrwt>
<pdfrwt beam="2">  1       21 0.69305384E-01 0.21702162E+03</pdfrwt>
<totfact> 0.30166296E+04</totfact>
</mgrwt>
</event>
<event>
12    1  0.2743855E-001  0.2498616E+03  0.7546771E-02  0.1114173E+00
         21   -1    0    0  502  503  0.00000000000E+00  0.00000000000E+00  0.44726504049E+03  0.44726504049E+03  0.00000000000E+00 0.  1.
         21   -1    0    0  503  504 -0.00000000000E+00 -0.00000000000E+00 -0.24173278811E+03  0.24173278811E+03  0.00000000000E+00 0.  1.
         -6    2    1    2    0  504 -0.16167685048E+03 -0.78911818901E+02 -0.12470442852E+03  0.27488783896E+03  0.16626981198E+03 0.  0.
        -24    2    3    3    0    0 -0.85360034111E+02 -0.95612569340E+02 -0.12620695728E+03  0.19660936735E+03  0.79365914751E+02 0.  0.
          6    2    1    2  502    0  0.16167685048E+03  0.78911818901E+02  0.33023668090E+03  0.41410998964E+03  0.17339071188E+03 0.  0.
         24    2    5    5    0    0  0.13421459211E+03  0.19844472183E+02  0.30580107478E+03  0.34437968110E+03  0.81705003534E+02 0.  0.
          4    1    6    6  501    0  0.82571577820E+02  0.48815782710E+02  0.15390698586E+03  0.18135160986E+03  0.00000000000E+00 0. -1.
         -3    1    6    6    0  501  0.51643014287E+02 -0.28971310527E+02  0.15189408893E+03  0.16302807123E+03  0.00000000000E+00 0.  1.
          5    1    5    5  502    0  0.27462258371E+02  0.59067346718E+02  0.24435606112E+02  0.69730308541E+02  0.47000000000E+01 0. -1.
         13    1    4    4    0    0 -0.22114530165E+02 -0.35911756465E+02  0.13818011732E+01  0.42197346733E+02  0.00000000000E+00 0. -1.
        -14    1    4    4    0    0 -0.63245503946E+02 -0.59700812876E+02 -0.12758875845E+03  0.15441202062E+03  0.00000000000E+00 0.  1.
         -5    1    3    3    0  504 -0.76316816367E+02  0.16700750439E+02  0.15025287593E+01  0.78278471614E+02  0.47000000000E+01 0.  1.
<mgrwt>
<rscale>  2 0.24863056E+03</rscale>
<asrwt>0</asrwt>
<pdfrwt beam="1">  1       21 0.68810006E-01 0.24986160E+03</pdfrwt>
<pdfrwt beam="2">  1       21 0.37189660E-01 0.24986160E+03</pdfrwt>
<totfact> 0.12968121E+04</totfact>
</mgrwt>
</event>
<event>
12    1  0.2743855E-001  0.1776214E+03  0.7546771E-02  0.1170654E+00
         21   -1    0    0  502  503  0.00000000000E+00  0.00000000000E+00  0.75678442574E+02  0.75678442574E+02  0.00000000000E+00 0. -1.
         21   -1    0    0  503  504 -0.00000000000E+00 -0.00000000000E+00 -0.44825097689E+03  0.44825097689E+03  0.00000000000E+00 0. -1.
         -6    2    1    2    0  504  0.11424192011E+02 -0.69962709712E+01 -0.26193159099E+03  0.31647671562E+03  0.17711547983E+03 0.  0.
        -24    2    3    3    0    0  0.33433694088E+02  0.14589074549E+02 -0.27000136951E+03  0.28426558946E+03  0.81089659148E+02 0.  0.
          6    2    1    2  502    0 -0.11424192011E+02  0.69962709712E+01 -0.11064094333E+03  0.20745270385E+03  0.17497355807E+03 0.  0.
         24    2    5    5    0    0  0.38273347884E+01  0.13779062635E+02 -0.14631489674E+03  0.16778740057E+03  0.80870586271E+02 0.  0.
          2    1    6    6  501    0 -0.23785355714E+02  0.30345765899E+02 -0.35577065703E+02  0.52462713030E+02  0.00000000000E+00 0. -1.
         -1    1    6    6    0  501  0.27612690502E+02 -0.16566703264E+02 -0.11073783103E+03  0.11532468754E+03  0.00000000000E+00 0.  1.
          5    1    5    5  502    0 -0.15251526799E+02 -0.67827916634E+01  0.35673953411E+02  0.39665303282E+02  0.47000000000E+01 0. -1.
         13    1    4    4    0    0 -0.18154219444E+02 -0.19660627920E+02 -0.91225103090E+02  0.95069108588E+02  0.00000000000E+00 0. -1.
        -14    1    4    4    0    0  0.51587913532E+02  0.34249702469E+02 -0.17877626642E+03  0.18919648087E+03  0.00000000000E+00 0.  1.
         -5    1    3    3    0  504 -0.22009502077E+02 -0.21585345520E+02  0.80697785137E+01  0.32211126154E+02  0.47000000000E+01 0.  1.
<mgrwt>
<rscale>  2 0.17708501E+03</rscale>
<asrwt>0</asrwt>
<pdfrwt beam="1">  1       21 0.11642837E-01 0.17762138E+03</pdfrwt>
<pdfrwt beam="2">  1       21 0.68961689E-01 0.17762138E+03</pdfrwt>
<totfact> 0.11925907E+05</totfact>
</mgrwt>
</event>
<event>
12    1  0.2743855E-001  0.2080119E+03  0.7546771E-02  0.1145532E+00
         21   -1    0    0  502  503  0.00000000000E+00  0.00000000000E+00  0.71431034713E+02  0.71431034713E+02  0.00000000000E+00 0.  1.
         21   -1    0    0  503  504 -0.00000000000E+00 -0.00000000000E+00 -0.70155887086E+03  0.70155887086E+03  0.00000000000E+00 0.  1.
         -6    2    1    2    0  504 -0.65671230572E+02  0.88811550687E+02 -0.47335826537E+03  0.51251790325E+03  0.16250031293E+03 0.  0.
        -24    2    3    3    0    0 -0.53115051373E+02  0.63884854008E+02 -0.15442919415E+03  0.19233539232E+03  0.79006606538E+02 0.  0.
          6    2    1    2  502    0  0.65671230572E+02 -0.88811550687E+02 -0.15676957078E+03  0.26047200232E+03  0.17626333598E+03 0.  0.
         24    2    5    5    0    0  0.73432068402E+02 -0.36748575339E+02 -0.27611014194E+02  0.12091983736E+03  0.84359424509E+02 0.  0.
          2    1    6    6  501    0  0.30034364871E+02  0.26966015500E+02 -0.13405990035E+02  0.42531748541E+02  0.00000000000E+00 0. -1.
         -1    1    6    6    0  501  0.43397703531E+02 -0.63714590839E+02 -0.14205024159E+02  0.78388088820E+02  0.00000000000E+00 0.  1.
          5    1    5    5  502    0 -0.77608378300E+01 -0.52062975348E+02 -0.12915855659E+03  0.13955216496E+03  0.47000000000E+01 0. -1.
         11    1    4    4    0    0 -0.37510784108E+02  0.70361420041E+01 -0.11562021544E+03  0.12175631580E+03  0.00000000000E+00 0. -1.
        -12    1    4    4    0    0 -0.15604267265E+02  0.56848712004E+02 -0.38808978717E+02  0.70579076520E+02  0.00000000000E+00 0.  1.
         -5    1    3    3    0  504 -0.12556179199E+02  0.24926696680E+02 -0.31892907122E+03  0.32018251094E+03  0.47000000000E+01 0.  1.
<mgrwt>
<rscale>  2 0.20506844E+03</rscale>
<asrwt>0</asrwt>
<pdfrwt beam="1">  1       21 0.10989390E-01 0.20801194E+03</pdfrwt>
<pdfrwt beam="2">  1       21 0.10793214E+00 0.20801194E+03</pdfrwt>
<totfact> 0.46563272E+04</totfact>
</mgrwt>
</event>
<event>
12    1  0.2743855E-001  0.1879837E+03  0.7546771E-02  0.1160458E+00
         21   -1    0    0  502  503  0.00000000000E+00  0.00000000000E+00  0.17299868012E+03  0.17299868012E+03  0.00000000000E+00 0. -1.
         21   -1    0    0  503  504 -0.00000000000E+00 -0.00000000000E+00 -0.21496999984E+03  0.21496999984E+03  0.00000000000E+00 0.  1.
         -6    2    1    2    0  504  0.69587467132E+02 -0.23420267192E+02  0.23891520204E+02  0.18878088452E+03  0.17226866553E+03 0.  0.
        -24    2    3    3    0    0  0.25998585220E+02 -0.48717722182E+02  0.69667442314E+02  0.12053517476E+03  0.81399219578E+02 0.  0.
          6    2    1    2  502    0 -0.69587467132E+02  0.23420267192E+02 -0.65862839927E+02  0.19918779544E+03  0.17305184099E+03 0.  0.
         24    2    5    5    0    0 -0.49229660097E+02 -0.50067915349E+02 -0.60106125519E+02  0.12257067567E+03  0.80501357934E+02 0.  0.
          4    1    6    6  501    0 -0.69516680218E+02 -0.24157200966E+02 -0.37088482389E+02  0.82411738927E+02  0.00000000000E+00 0. -1.
         -3    1    6    6    0  501  0.20287020121E+02 -0.25910714383E+02 -0.23017643130E+02  0.40158936745E+02  0.00000000000E+00 0.  1.
          5    1    5    5  502    0 -0.20357807035E+02  0.73488182541E+02 -0.57567144085E+01  0.76617119766E+02  0.47000000000E+01 0. -1.
         13    1    4    4    0    0 -0.70752951354E+01  0.20452459223E+02  0.13761995147E+02  0.25646742482E+02  0.00000000000E+00 0. -1.
        -14    1    4    4    0    0  0.33073880355E+02 -0.69170181404E+02  0.55905447167E+02  0.94888432278E+02  0.00000000000E+00 0.  1.
         -5    1    3    3    0  504  0.43588881912E+02  0.25297454990E+02 -0.45775922110E+02  0.68245709758E+02  0.47000000000E+01 0.  1.
<mgrwt>
<rscale>  2 0.18780324E+03</rscale>
<asrwt>0</asrwt>
<pdfrwt beam="1">  1       21 0.26615182E-01 0.18798368E+03</pdfrwt>
<pdfrwt beam="2">  1       21 0.33072308E-01 0.18798368E+03</pdfrwt>
<totfact> 0.11845859E+05</totfact>
</mgrwt>
</event>
<event>
12    1  0.2743855E-001  0.2076929E+03  0.7546771E-02  0.1143423E+00
         21   -1    0    0  502  503  0.00000000000E+00  0.00000000000E+00  0.40426125383E+03  0.40426125383E+03  0.00000000000E+00 0. -1.
         21   -1    0    0  503  504 -0.00000000000E+00 -0.00000000000E+00 -0.14172092749E+03  0.14172092749E+03  0.00000000000E+00 0.  1.
         -6    2    1    2    0  504 -0.10316530975E+03 -0.51705017775E+02 -0.45305715097E+01  0.20765806707E+03  0.17258289818E+03 0.  0.
        -24    2    3    3    0    0  0.13159019898E+01 -0.17851162622E+02  0.36497473870E+02  0.90321808300E+02  0.80657100435E+02 0.  0.
          6    2    1    2  502    0  0.10316530975E+03  0.51705017775E+02  0.26707089785E+03  0.33832411424E+03  0.17268425464E+03 0.  0.
         24    2    5    5    0    0  0.10692163299E+03  0.47985251367E+02  0.28530130228E+03  0.31876946590E+03  0.80512852148E+02 0.  0.
          4    1    6    6  501    0  0.75001040395E+02  0.10925478446E+02  0.24149245342E+03  0.25310694814E+03  0.00000000000E+00 0. -1.
         -3    1    6    6    0  501  0.31920592591E+02  0.37059772921E+02  0.43808848862E+02  0.65662517763E+02  0.00000000000E+00 0.  1.
          5    1    5    5  502    0 -0.37563232358E+01  0.37197664073E+01 -0.18230404424E+02  0.19554648343E+02  0.47000000000E+01 0. -1.
         11    1    4    4    0    0 -0.92677559480E+01 -0.20139473842E+02  0.60259860491E+02  0.64208570248E+02  0.00000000000E+00 0. -1.
        -12    1    4    4    0    0  0.10583657938E+02  0.22883112206E+01 -0.23762386621E+02  0.26113238051E+02  0.00000000000E+00 0.  1.
         -5    1    3    3    0  504 -0.10448121174E+03 -0.33853855153E+02 -0.41028045380E+02  0.11733625877E+03  0.47000000000E+01 0.  1.
<mgrwt>
<rscale>  2 0.20767183E+03</rscale>
<asrwt>0</asrwt>
<pdfrwt beam="1">  1       21 0.62194039E-01 0.20769290E+03</pdfrwt>
<pdfrwt beam="2">  1       21 0.21803220E-01 0.20769290E+03</pdfrwt>
<totfact> 0.46734893E+04</totfact>
</mgrwt>
</event>
<event>
12    1  0.2743855E-001  0.2081726E+03  0.7546771E-02  0.1143389E+00
         21   -1    0    0  502  503  0.00000000000E+00  0.00000000000E+00  0.94971389870E+03  0.94971389870E+03  0.00000000000E+00 0. -1.
         21   -1    0    0  503  504 -0.00000000000E+00 -0.00000000000E+00 -0.54189644805E+02  0.54189644805E+02  0.00000000000E+00 0.  1.
         -6    2    1    2    0  504 -0.11015435610E+03 -0.21964098132E+02  0.24531352003E+03  0.32173676485E+03  0.17526956089E+03 0.  0.
        -24    2    3    3    0    0 -0.65554698074E+02 -0.82557035643E+02  0.15949097697E+03  0.20750790480E+03  0.80678846328E+02 0.  0.
          6    2    1    2  502    0  0.11015435610E+03  0.21964098132E+02  0.65021073387E+03  0.68216677866E+03  0.17309278346E+03 0.  0.
         24    2    5    5    0    0  0.71037324673E+02  0.30431165630E+02  0.62439064530E+03  0.63430656184E+03  0.80677004869E+02 0.  0.
          2    1    6    6  501    0  0.55617926608E+02  0.24524759469E+02  0.60803379368E+03  0.61106457257E+03  0.00000000000E+00 0. -1.
         -1    1    6    6    0  501  0.15419398065E+02  0.59064061612E+01  0.16356851618E+02  0.23241989271E+02  0.00000000000E+00 0.  1.
          5    1    5    5  502    0  0.39117031432E+02 -0.84670674983E+01  0.25820088570E+02  0.47860216817E+02  0.47000000000E+01 0. -1.
         11    1    4    4    0    0 -0.93992413183E+00  0.12622162767E+01  0.66811942399E+02  0.66830474295E+02  0.00000000000E+00 0. -1.
        -12    1    4    4    0    0 -0.64614773943E+02 -0.83819251919E+02  0.92679034574E+02  0.14067743051E+03  0.00000000000E+00 0.  1.
         -5    1    3    3    0  504 -0.44599658030E+02  0.60592937511E+02  0.85822543054E+02  0.11422886005E+03  0.47000000000E+01 0.  1.
<mgrwt>
<rscale>  2 0.20771372E+03</rscale>
<asrwt>0</asrwt>
<pdfrwt beam="1">  1       21 0.14610982E+00 0.20817258E+03</pdfrwt>
<pdfrwt beam="2">  1       21 0.83368692E-02 0.20817258E+03</pdfrwt>
<totfact> 0.35432286E+04</totfact>
</mgrwt>
</event>
<event>
12    1  0.2743855E-001  0.1883288E+03  0.7546771E-02  0.1160129E+00
         21   -1    0    0  502  503  0.00000000000E+00  0.00000000000E+00  0.38528160585E+03  0.38528160585E+03  0.00000000000E+00 0. -1.
         21   -1    0    0  503  504 -0.00000000000E+00 -0.00000000000E+00 -0.11771550606E+04  0.11771550606E+04  0.00000000000E+00 0. -1.
         -6    2    1    2    0  504  0.92704261864E+01 -0.71931016310E+02 -0.11461535177E+04  0.11615229693E+04  0.17380365429E+03 0.  0.
        -24    2    3    3    0    0 -0.53914333479E+02 -0.10322053016E+02 -0.49836863672E+03  0.50773759152E+03  0.80080357439E+02 0.  0.
          6    2    1    2  502    0 -0.92704261864E+01  0.71931016310E+02  0.35428006288E+03  0.40091369719E+03  0.17308211269E+03 0.  0.
         24    2    5    5    0    0 -0.24542059732E+02  0.11311485688E+03  0.23178408381E+03  0.27069585508E+03  0.78454451183E+02 0.  0.
          4    1    6    6  501    0  0.73155074647E+01  0.51987195109E+02  0.17071075252E+03  0.17860108099E+03  0.00000000000E+00 0. -1.
         -3    1    6    6    0  501 -0.31857567196E+02  0.61127661766E+02  0.61073331289E+02  0.92094774094E+02  0.00000000000E+00 0.  1.
          5    1    5    5  502    0  0.15271633545E+02 -0.41183840565E+02  0.12249597907E+03  0.13021784211E+03  0.47000000000E+01 0. -1.
         11    1    4    4    0    0 -0.45003468555E+02  0.88482832389E+00 -0.48797118355E+03  0.49004282576E+03  0.00000000000E+00 0. -1.
        -12    1    4    4    0    0 -0.89108649239E+01 -0.11206881340E+02 -0.10397453171E+02  0.17694765766E+02  0.00000000000E+00 0.  1.
         -5    1    3    3    0  504  0.63184759665E+02 -0.61608963294E+02 -0.64778488093E+03  0.65378537776E+03  0.47000000000E+01 0.  1.
<mgrwt>
<rscale>  2 0.18816212E+03</rscale>
<asrwt>0</asrwt>
<pdfrwt beam="1">  1       21 0.59274093E-01 0.18832876E+03</pdfrwt>
<pdfrwt beam="2">  1       21 0.18110078E+00 0.18832876E+03</pdfrwt>
<totfact> 0.47821107E+02</totfact>
</mgrwt>
</event>
<event>
12    1  0.2743855E-001  0.1825403E+03  0.7546771E-02  0.1165549E+00
         21   -1    0    0  502  503  0.00000000000E+00  0.00000000000E+00  0.12982745186E+03  0.12982745186E+03  0.00000000000E+00 0. -1.
         21   -1    0    0  503  504 -0.00000000000E+00 -0.00000000000E+00 -0.10958660394E+04  0.10958660394E+04  0.00000000000E+00 0. -1.
         -6    2    1    2    0  504  0.58434397979E+01  0.56742660788E+02 -0.10194266768E+04  0.10355060538E+04  0.17259247644E+03 0.  0.
        -24    2    3    3    0    0 -0.19240367240E+02  0.99633779032E+02 -0.81509280088E+03  0.82516521561E+03  0.78894089413E+02 0.  0.
          6    2    1    2  502    0 -0.58434397979E+01 -0.56742660788E+02  0.53388089237E+02  0.19018743739E+03  0.17339866760E+03 0.  0.
         24    2    5    5    0    0 -0.47136352760E+02 -0.14761574845E+02  0.82702321082E+02  0.12424101651E+03  0.78462834690E+02 0.  0.
          4    1    6    6  501    0 -0.46781068141E+02 -0.43074570854E+02  0.64518206637E+02  0.90589657126E+02  0.00000000000E+00 0. -1.
         -3    1    6    6    0  501 -0.35528461953E+00  0.28312996009E+02  0.18184114445E+02  0.33651359383E+02  0.00000000000E+00 0.  1.
          5    1    5    5  502    0  0.41292912962E+02 -0.41981085943E+02 -0.29314231845E+02  0.65946420877E+02  0.47000000000E+01 0. -1.
         11    1    4    4    0    0  0.25908609828E+02  0.42050683571E+02 -0.21349968623E+03  0.21913838567E+03  0.00000000000E+00 0. -1.
        -12    1    4    4    0    0 -0.45148977068E+02  0.57583095461E+02 -0.60159311465E+03  0.60602682994E+03  0.00000000000E+00 0.  1.
         -5    1    3    3    0  504  0.25083807038E+02 -0.42891118244E+02 -0.20433387587E+03  0.21034083823E+03  0.47000000000E+01 0.  1.
<mgrwt>
<rscale>  2 0.18234862E+03</rscale>
<asrwt>0</asrwt>
<pdfrwt beam="1">  1       21 0.19973454E-01 0.18254033E+03</pdfrwt>
<pdfrwt beam="2">  1       21 0.16859478E+00 0.18254033E+03</pdfrwt>
<totfact> 0.50968938E+03</totfact>
</mgrwt>
</event>
<event>
12    1  0.2743855E-001  0.3804140E+03  0.7546771E-02  0.1050840E+00
         21   -1    0    0  502  503  0.00000000000E+00  0.00000000000E+00  0.23103818382E+04  0.23103818382E+04  0.00000000000E+00 0. -1.
         21   -1    0    0  503  504 -0.00000000000E+00 -0.00000000000E+00 -0.67484550617E+02  0.67484550617E+02  0.00000000000E+00 0. -1.
         -6    2    1    2    0  504 -0.20034969866E+03  0.27277593671E+03  0.80023445083E+03  0.88605305178E+03  0.17368972584E+03 0.  0.
        -24    2    3    3    0    0 -0.85142705757E+02  0.17984105145E+03  0.59667436311E+03  0.63432235554E+03  0.82173420408E+02 0.  0.
          6    2    1    2  502    0  0.20034969866E+03 -0.27277593671E+03  0.14426628368E+04  0.14918133371E+04  0.17229120301E+03 0.  0.
         24    2    5    5    0    0  0.22282225665E+03 -0.22784446661E+03  0.12782966588E+04  0.13198767693E+04  0.80433073100E+02 0.  0.
          2    1    6    6  501    0  0.20770929574E+03 -0.23017020707E+03  0.11648090784E+04  0.12053637065E+04  0.00000000000E+00 0. -1.
         -1    1    6    6    0  501  0.15112960915E+02  0.23257404588E+01  0.11348758036E+03  0.11451306280E+03  0.00000000000E+00 0.  1.
          5    1    5    5  502    0 -0.22472557997E+02 -0.44931470099E+02  0.16436617799E+03  0.17193656777E+03  0.47000000000E+01 0. -1.
         13    1    4    4    0    0  0.24259835195E+01  0.86929338080E+02  0.21809177580E+03  0.23479058305E+03  0.00000000000E+00 0. -1.
        -14    1    4    4    0    0 -0.87568689276E+02  0.92911713371E+02  0.37858258730E+03  0.39953177249E+03  0.00000000000E+00 0.  1.
         -5    1    3    3    0  504 -0.11520699290E+03  0.92934885261E+02  0.20356008773E+03  0.25173069623E+03  0.47000000000E+01 0.  1.
<mgrwt>
<rscale>  2 0.38025481E+03</rscale>
<asrwt>0</asrwt>
<pdfrwt beam="1">  1       21 0.35544330E+00 0.38041403E+03</pdfrwt>
<pdfrwt beam="2">  1       21 0.10382240E-01 0.38041403E+03</pdfrwt>
<totfact> 0.10225459E+03</totfact>
</mgrwt>
</event>
<event>
12    1  0.2743855E-001  0.1873369E+03  0.7546771E-02  0.1161001E+00
         21   -1    0    0  502  503  0.00000000000E+00  0.00000000000E+00  0.91449701893E+02  0.91449701893E+02  0.00000000000E+00 0. -1.
         21   -1    0    0  503  504 -0.00000000000E+00 -0.00000000000E+00 -0.47292496140E+03  0.47292496140E+03  0.00000000000E+00 0. -1.
         -6    2    1    2    0  504 -0.72357534720E+02  0.86942458807E+01 -0.31376008693E+03  0.36517510859E+03  0.17203565049E+03 0.  0.
        -24    2    3    3    0    0 -0.61121952633E+02 -0.27265396193E+02 -0.87135154154E+02  0.13539198406E+03  0.79114849014E+02 0.  0.
          6    2    1    2  502    0  0.72357534720E+02 -0.86942458807E+01 -0.67715172576E+02  0.19919955470E+03  0.17258017052E+03 0.  0.
         24    2    5    5    0    0  0.32530950548E+02  0.60978688488E+02 -0.39204691468E+02  0.11390352828E+03  0.81610922852E+02 0.  0.
          2    1    6    6  501    0  0.19714261734E+02  0.53656289643E+02 -0.63522622753E+02  0.85456264460E+02  0.00000000000E+00 0. -1.
         -1    1    6    6    0  501  0.12816688814E+02  0.73223988445E+01  0.24317931285E+02  0.28447263822E+02  0.00000000000E+00 0.  1.
          5    1    5    5  502    0  0.39826584172E+02 -0.69672934369E+02 -0.28510481108E+02  0.85296026421E+02  0.47000000000E+01 0. -1.
         13    1    4    4    0    0 -0.42825416225E+02  0.16698868249E+02 -0.72006219050E+02  0.85426951587E+02  0.00000000000E+00 0. -1.
        -14    1    4    4    0    0 -0.18296536407E+02 -0.43964264442E+02 -0.15128935105E+02  0.49965032471E+02  0.00000000000E+00 0.  1.
         -5    1    3    3    0  504 -0.11235582087E+02  0.35959642074E+02 -0.22662493278E+03  0.22978312453E+03  0.47000000000E+01 0.  1.
<mgrwt>
<rscale>  2 0.18721141E+03</rscale>
<asrwt>0</asrwt>
<pdfrwt beam="1">  1       21 0.14069185E-01 0.18733691E+03</pdfrwt>
<pdfrwt beam="2">  1       21 0.72757687E-01 0.18733691E+03</pdfrwt>
<totfact> 0.75134585E+04</totfact>
</mgrwt>
</event>
<event>
12    1  0.2743855E-001  0.2066610E+03  0.7546771E-02  0.1144242E+00
         21   -1    0    0  502  503  0.00000000000E+00  0.00000000000E+00  0.38596163022E+02  0.38596163022E+02  0.00000000000E+00 0. -1.
         21   -1    0    0  503  504 -0.00000000000E+00 -0.00000000000E+00 -0.11438954207E+04  0.11438954207E+04  0.00000000000E+00 0. -1.
         -6    2    1    2    0  504 -0.10763451767E+03 -0.35274295009E+02 -0.65966167186E+03  0.69127583717E+03  0.17285628845E+03 0.  0.
        -24    2    3    3    0    0  0.11836311024E+02  0.80165445738E+00 -0.26226934472E+03  0.27472151334E+03  0.80907105994E+02 0.  0.
          6    2    1    2  502    0  0.10763451767E+03  0.35274295009E+02 -0.44563758579E+03  0.49121574652E+03  0.17283109234E+03 0.  0.
         24    2    5    5    0    0  0.17273606058E+02  0.69027851489E+02 -0.19336967112E+03  0.22109431514E+03  0.80172593376E+02 0.  0.
          2    1    6    6  501    0 -0.14394076986E+02  0.14768956898E+02 -0.32677034454E+01  0.20880359814E+02  0.00000000000E+00 0. -1.
         -1    1    6    6    0  501  0.31667683045E+02  0.54258894591E+02 -0.19010196768E+03  0.20021395532E+03  0.00000000000E+00 0.  1.
          5    1    5    5  502    0  0.90360911611E+02 -0.33753556480E+02 -0.25226791466E+03  0.27012143138E+03  0.47000000000E+01 0. -1.
         13    1    4    4    0    0 -0.32653934700E+02 -0.10926119981E+02 -0.13728541699E+03  0.14153778742E+03  0.00000000000E+00 0. -1.
        -14    1    4    4    0    0  0.44490245725E+02  0.11727774438E+02 -0.12498392773E+03  0.13318372592E+03  0.00000000000E+00 0.  1.
         -5    1    3    3    0  504 -0.11947082869E+03 -0.36075949467E+02 -0.39739232714E+03  0.41655432383E+03  0.47000000000E+01 0.  1.
<mgrwt>
<rscale>  2 0.20665571E+03</rscale>
<asrwt>0</asrwt>
<pdfrwt beam="1">  1       21 0.59378713E-02 0.20666098E+03</pdfrwt>
<pdfrwt beam="2">  1       21 0.17598391E+00 0.20666098E+03</pdfrwt>
<totfact> 0.38568125E+04</totfact>
</mgrwt>
</event>
<event>
12    1  0.2743855E-001  0.1846114E+03  0.7546771E-02  0.1164182E+00
         21   -1    0    0  502  503  0.00000000000E+00  0.00000000000E+00  0.68861853696E+03  0.68861853696E+03  0.00000000000E+00 0.  1.
         21   -1    0    0  503  504 -0.00000000000E+00 -0.00000000000E+00 -0.10597059726E+03  0.10597059726E+03  0.00000000000E+00 0.  1.
         -6    2    1    2    0  504 -0.25279855284E+01  0.62544689781E+02  0.25534013881E+00  0.18461153559E+03  0.17367534351E+03 0.  0.
        -24    2    3    3    0    0 -0.11816265115E+02 -0.15337577614E+02 -0.43660001489E+02  0.94597275926E+02  0.81655272176E+02 0.  0.
          6    2    1    2  502    0  0.25279855284E+01 -0.62544689781E+02  0.58239259956E+03  0.60997759863E+03  0.17021545722E+03 0.  0.
         24    2    5    5    0    0  0.56732231033E+02 -0.12225074320E+01  0.34352677179E+03  0.35743555469E+03  0.80805273718E+02 0.  0.
          2    1    6    6  501    0  0.84348758263E+01  0.29685869364E+02  0.20800922446E+03  0.21028607998E+03  0.00000000000E+00 0. -1.
         -1    1    6    6    0  501  0.48297355207E+02 -0.30908376796E+02  0.13551754732E+03  0.14714947471E+03  0.00000000000E+00 0.  1.
          5    1    5    5  502    0 -0.54204245505E+02 -0.61322182349E+02  0.23886582777E+03  0.25254204393E+03  0.47000000000E+01 0. -1.
         11    1    4    4    0    0  0.32486628830E+02 -0.88869270813E+01 -0.24849758187E+01  0.33771787493E+02  0.00000000000E+00 0. -1.
        -12    1    4    4    0    0 -0.44302893944E+02 -0.64506505331E+01 -0.41175025670E+02  0.60825488433E+02  0.00000000000E+00 0.  1.
         -5    1    3    3    0  504  0.92882795862E+01  0.77882267396E+02  0.43915341628E+02  0.90014259663E+02  0.47000000000E+01 0.  1.
<mgrwt>
<rscale>  2 0.18379315E+03</rscale>
<asrwt>0</asrwt>
<pdfrwt beam="1">  1       21 0.10594131E+00 0.18461136E+03</pdfrwt>
<pdfrwt beam="2">  1       21 0.16303169E-01 0.18461136E+03</pdfrwt>
<totfact> 0.24207306E+04</totfact>
</mgrwt>
</event>
<event>
12    1  0.2743855E-001  0.1919244E+03  0.7546771E-02  0.1156942E+00
         21   -1    0    0  502  503  0.00000000000E+00  0.00000000000E+00  0.32998150819E+03  0.32998150819E+03  0.00000000000E+00 0. -1.
         21   -1    0    0  503  504 -0.00000000000E+00 -0.00000000000E+00 -0.11176309438E+03  0.11176309438E+03  0.00000000000E+00 0.  1.
         -6    2    1    2    0  504 -0.62411089782E+02 -0.52111838756E+02  0.12647550207E+03  0.22985003070E+03  0.17385107455E+03 0.  0.
        -24    2    3    3    0    0  0.76421468643E+01 -0.15812025225E+02  0.12635892366E+03  0.15081057209E+03  0.80429027810E+02 0.  0.
          6    2    1    2  502    0  0.62411089782E+02  0.52111838756E+02  0.91742911747E+02  0.21189457187E+03  0.17283448691E+03 0.  0.
         24    2    5    5    0    0  0.89425814249E+02  0.22010734149E+01  0.97653495126E+02  0.15464158216E+03  0.79849814299E+02 0.  0.
          4    1    6    6  501    0  0.48969111446E+02 -0.25159626867E+02  0.89570277913E+02  0.10513712658E+03  0.00000000000E+00 0. -1.
         -3    1    6    6    0  501  0.40456702803E+02  0.27360700281E+02  0.80832172125E+01  0.49504455578E+02  0.00000000000E+00 0.  1.
          5    1    5    5  502    0 -0.27014724468E+02  0.49910765341E+02 -0.59105833789E+01  0.57252989711E+02  0.47000000000E+01 0. -1.
         13    1    4    4    0    0 -0.27391238765E+02  0.69052335914E+01  0.15221052465E+02  0.32088045285E+02  0.00000000000E+00 0. -1.
        -14    1    4    4    0    0  0.35033385629E+02 -0.22717258816E+02  0.11113787119E+03  0.11872252680E+03  0.00000000000E+00 0.  1.
         -5    1    3    3    0  504 -0.70053236646E+02 -0.36299813531E+02  0.11657840948E+00  0.79039458611E+02  0.47000000000E+01 0.  1.
<mgrwt>
<rscale>  2 0.19169391E+03</rscale>
<asrwt>0</asrwt>
<pdfrwt beam="1">  1       21 0.50766385E-01 0.19192442E+03</pdfrwt>
<pdfrwt beam="2">  1       21 0.17194322E-01 0.19192442E+03</pdfrwt>
<totfact> 0.11280983E+05</totfact>
</mgrwt>
</event>
<event>
12    1  0.2743855E-001  0.2427632E+03  0.7546771E-02  0.1119808E+00
         21   -1    0    0  502  503  0.00000000000E+00  0.00000000000E+00  0.59113368258E+03  0.59113368258E+03  0.00000000000E+00 0.  1.
         21   -1    0    0  503  504 -0.00000000000E+00 -0.00000000000E+00 -0.11864173219E+03  0.11864173219E+03  0.00000000000E+00 0.  1.
         -6    2    1    2    0  504  0.14842895684E+03 -0.36177262532E+02  0.74320910381E+02  0.24343417432E+03  0.17434635056E+03 0.  0.
        -24    2    3    3    0    0  0.40496410208E+02 -0.33039187829E+02 -0.22421667321E+02  0.98380741145E+02  0.80277592705E+02 0.  0.
          6    2    1    2  502    0 -0.14842895684E+03  0.36177262532E+02  0.39817104001E+03  0.46634124046E+03  0.18866379063E+03 0.  0.
         24    2    5    5    0    0 -0.55821510160E+02  0.42439572920E+02  0.33510518049E+03  0.35402584370E+03  0.90120240065E+02 0.  0.
          2    1    6    6  501    0 -0.27686723006E+02  0.69677496882E+02  0.21504433004E+03  0.22774014158E+03  0.00000000000E+00 0. -1.
         -1    1    6    6    0  501 -0.28134787154E+02 -0.27237923962E+02  0.12006085045E+03  0.12628570213E+03  0.00000000000E+00 0.  1.
          5    1    5    5  502    0 -0.92607446676E+02 -0.62623103880E+01  0.63065859519E+02  0.11231539675E+03  0.47000000000E+01 0. -1.
         13    1    4    4    0    0 -0.83519760135E+01 -0.33291998703E+02  0.14386234119E+02  0.37216614745E+02  0.00000000000E+00 0. -1.
        -14    1    4    4    0    0  0.48848386222E+02  0.25281087372E+00 -0.36807901440E+02  0.61164126399E+02  0.00000000000E+00 0.  1.
         -5    1    3    3    0  504  0.10793254663E+03 -0.31380747028E+01  0.96742577702E+02  0.14505343317E+03  0.47000000000E+01 0.  1.
<mgrwt>
<rscale>  2 0.23997772E+03</rscale>
<asrwt>0</asrwt>
<pdfrwt beam="1">  1       21 0.90943642E-01 0.24276321E+03</pdfrwt>
<pdfrwt beam="2">  1       21 0.18252574E-01 0.24276321E+03</pdfrwt>
<totfact> 0.27318753E+04</totfact>
</mgrwt>
</event>
<event>
12    1  0.2743855E-001  0.1779842E+03  0.7546771E-02  0.1169900E+00
         21   -1    0    0  502  503  0.00000000000E+00  0.00000000000E+00  0.61546735758E+02  0.61546735758E+02  0.00000000000E+00 0.  1.
         21   -1    0    0  503  504 -0.00000000000E+00 -0.00000000000E+00 -0.63130655030E+03  0.63130655030E+03  0.00000000000E+00 0.  1.
         -6    2    1    2    0  504 -0.39363397838E+02  0.14566112043E+02 -0.13535984830E+03  0.22360826644E+03  0.17296450381E+03 0.  0.
        -24    2    3    3    0    0 -0.82640405281E+02  0.43650653627E+02 -0.91023209856E+02  0.15500332900E+03  0.83701798796E+02 0.  0.
          6    2    1    2  502    0  0.39363397838E+02 -0.14566112043E+02 -0.43439996624E+03  0.46924501962E+03  0.17241203280E+03 0.  0.
         24    2    5    5    0    0  0.66449446935E+02  0.14156788599E+02 -0.15165113324E+03  0.18371454552E+03  0.78339162365E+02 0.  0.
          4    1    6    6  501    0  0.81565196028E+02  0.24741437647E+02 -0.12376896504E+03  0.15027899603E+03  0.00000000000E+00 0. -1.
         -3    1    6    6    0  501 -0.15115749093E+02 -0.10584649048E+02 -0.27882168202E+02  0.33435549491E+02  0.00000000000E+00 0.  1.
          5    1    5    5  502    0 -0.27086049097E+02 -0.28722900642E+02 -0.28274883300E+03  0.28553047410E+03  0.47000000000E+01 0. -1.
         13    1    4    4    0    0 -0.56059956271E+02 -0.31740085409E+01 -0.89701568871E+01  0.56861733547E+02  0.00000000000E+00 0. -1.
        -14    1    4    4    0    0 -0.26580449010E+02  0.46824662167E+02 -0.82053052969E+02  0.98141595453E+02  0.00000000000E+00 0.  1.
         -5    1    3    3    0  504  0.43277007443E+02 -0.29084541584E+02 -0.44336638442E+02  0.68604937437E+02  0.47000000000E+01 0.  1.
<mgrwt>
<rscale>  2 0.17784982E+03</rscale>
<asrwt>0</asrwt>
<pdfrwt beam="1">  1       21 0.94687287E-02 0.17798418E+03</pdfrwt>
<pdfrwt beam="2">  1       21 0.97124083E-01 0.17798418E+03</pdfrwt>
<totfact> 0.79087587E+04</totfact>
</mgrwt>
</event>
<event>
12    1  0.2743855E-001  0.2857717E+03  0.7546771E-02  0.1093536E+00
         21   -1    0    0  502  503  0.00000000000E+00  0.00000000000E+00  0.72264531705E+02  0.72264531705E+02  0.00000000000E+00 0.  1.
         21   -1    0    0  503  504 -0.00000000000E+00 -0.00000000000E+00 -0.17195825912E+04  0.17195825912E+04  0.00000000000E+00 0. -1.
         -6    2    1    2    0  504 -0.87023391425E+02 -0.19994606870E+03 -0.13538300029E+04  0.13822123119E+04  0.17350417121E+03 0.  0.
        -24    2    3    3    0    0 -0.95691641684E+02 -0.12131600184E+03 -0.69059076370E+03  0.71425557350E+03  0.96803712676E+02 0.  0.
          6    2    1    2  502    0  0.87023391425E+02  0.19994606870E+03 -0.29348805664E+03  0.40963481103E+03  0.18469958845E+03 0.  0.
         24    2    5    5    0    0  0.11509447063E+03  0.18642895448E+03 -0.29714050052E+03  0.37791528690E+03  0.80777439819E+02 0.  0.
          2    1    6    6  501    0  0.87900259009E+02  0.17549557849E+03 -0.28531718311E+03  0.34631062442E+03  0.00000000000E+00 0. -1.
         -1    1    6    6    0  501  0.27194211620E+02  0.10933375992E+02 -0.11823317409E+02  0.31604662485E+02  0.00000000000E+00 0.  1.
          5    1    5    5  502    0 -0.28071079205E+02  0.13517114210E+02  0.36524438873E+01  0.31719524124E+02  0.47000000000E+01 0. -1.
         11    1    4    4    0    0 -0.35463877457E+02 -0.10444648571E+03 -0.32131850537E+03  0.33972391272E+03  0.00000000000E+00 0. -1.
        -12    1    4    4    0    0 -0.60227764227E+02 -0.16869516124E+02 -0.36927225833E+03  0.37453166078E+03  0.00000000000E+00 0.  1.
         -5    1    3    3    0  504  0.86682502594E+01 -0.78630066857E+02 -0.66323923919E+03  0.66795673841E+03  0.47000000000E+01 0.  1.
<mgrwt>
<rscale>  2 0.28397864E+03</rscale>
<asrwt>0</asrwt>
<pdfrwt beam="1">  1       21 0.11117622E-01 0.28577166E+03</pdfrwt>
<pdfrwt beam="2">  1       21 0.26455114E+00 0.28577166E+03</pdfrwt>
<totfact> 0.33749535E+03</totfact>
</mgrwt>
</event>
<event>
12    1  0.2743855E-001  0.2069999E+03  0.7546771E-02  0.1144080E+00
         21   -1    0    0  502  503  0.00000000000E+00  0.00000000000E+00  0.83283665799E+02  0.83283665799E+02  0.00000000000E+00 0.  1.
         21   -1    0    0  503  504 -0.00000000000E+00 -0.00000000000E+00 -0.89797819021E+03  0.89797819021E+03  0.00000000000E+00 0.  1.
         -6    2    1    2    0  504  0.37721463875E+02 -0.10991285366E+03 -0.72824344309E+03  0.75693453846E+03  0.17060960956E+03 0.  0.
        -24    2    3    3    0    0  0.64937559723E+02 -0.94338613869E+02 -0.70169210218E+03  0.71557832342E+03  0.81017713859E+02 0.  0.
          6    2    1    2  502    0 -0.37721463875E+02  0.10991285366E+03 -0.86451081313E+02  0.22432731754E+03  0.17130444156E+03 0.  0.
         24    2    5    5    0    0 -0.53451156820E+01 -0.11670515584E+02 -0.30209073595E+02  0.86428814902E+02  0.79953616067E+02 0.  0.
          2    1    6    6  501    0  0.68136986048E+01 -0.39803770669E+02 -0.37297457454E+02  0.54971510627E+02  0.00000000000E+00 0. -1.
         -1    1    6    6    0  501 -0.12158814287E+02  0.28133255085E+02  0.70883838585E+01  0.31457304275E+02  0.00000000000E+00 0.  1.
          5    1    5    5  502    0 -0.32376348193E+02  0.12158336924E+03 -0.56242007718E+02  0.13789850264E+03  0.47000000000E+01 0. -1.
         11    1    4    4    0    0  0.11764812317E+02 -0.84127237267E+01 -0.33230324205E+03  0.33261784288E+03  0.00000000000E+00 0. -1.
        -12    1    4    4    0    0  0.53172747407E+02 -0.85925890142E+02 -0.36938886014E+03  0.38296048054E+03  0.00000000000E+00 0.  1.
         -5    1    3    3    0  504 -0.27216095848E+02 -0.15574239788E+02 -0.26551340912E+02  0.41356215040E+02  0.47000000000E+01 0.  1.
<mgrwt>
<rscale>  2 0.20685608E+03</rscale>
<asrwt>0</asrwt>
<pdfrwt beam="1">  1       21 0.12812872E-01 0.20699989E+03</pdfrwt>
<pdfrwt beam="2">  1       21 0.13815049E+00 0.20699989E+03</pdfrwt>
<totfact> 0.19139349E+04</totfact>
</mgrwt>
</event>
<event>
12    1  0.2743855E-001  0.1904965E+03  0.7546771E-02  0.1159823E+00
         21   -1    0    0  502  503  0.00000000000E+00  0.00000000000E+00  0.28737766446E+03  0.28737766446E+03  0.00000000000E+00 0. -1.
         21   -1    0    0  503  504 -0.00000000000E+00 -0.00000000000E+00 -0.37395447810E+03  0.37395447810E+03  0.00000000000E+00 0. -1.
         -6    2    1    2    0  504 -0.19976132184E+01  0.53248822676E+02 -0.31486947054E+03  0.36399989193E+03  0.17468173995E+03 0.  0.
        -24    2    3    3    0    0  0.40154114522E+02 -0.22987185878E+02 -0.13180299040E+03  0.16120905559E+03  0.80470912134E+02 0.  0.
          6    2    1    2  502    0  0.19976132184E+01 -0.53248822676E+02  0.22829265690E+03  0.29733225063E+03  0.18289205148E+03 0.  0.
         24    2    5    5    0    0  0.72577810386E+02 -0.15301161896E+02  0.12010316408E+03  0.16261534171E+03  0.80729890516E+02 0.  0.
          2    1    6    6  501    0  0.18560081505E+02  0.14567270970E+02  0.91666850948E+02  0.94654601429E+02  0.00000000000E+00 0. -1.
         -1    1    6    6    0  501  0.54017728881E+02 -0.29868432866E+02  0.28436313130E+02  0.67960740282E+02  0.00000000000E+00 0.  1.
          5    1    5    5  502    0 -0.70580197167E+02 -0.37947660780E+02  0.10818949282E+03  0.13471690892E+03  0.47000000000E+01 0. -1.
         11    1    4    4    0    0 -0.18250759176E+02 -0.28273452910E+02 -0.39989548881E+02  0.52265116184E+02  0.00000000000E+00 0. -1.
        -12    1    4    4    0    0  0.58404873698E+02  0.52862670320E+01 -0.91813441519E+02  0.10894393941E+03  0.00000000000E+00 0.  1.
         -5    1    3    3    0  504 -0.42151727740E+02  0.76236008554E+02 -0.18306648014E+03  0.20279083634E+03  0.47000000000E+01 0.  1.
<mgrwt>
<rscale>  2 0.18849828E+03</rscale>
<asrwt>0</asrwt>
<pdfrwt beam="1">  1       21 0.44211949E-01 0.19049654E+03</pdfrwt>
<pdfrwt beam="2">  1       21 0.57531458E-01 0.19049654E+03</pdfrwt>
<totfact> 0.13949210E+04</totfact>
</mgrwt>
</event>
<event>
12    1  0.2743855E-001  0.1843932E+03  0.7546771E-02  0.1163822E+00
         21   -1    0    0  502  503  0.00000000000E+00  0.00000000000E+00  0.15498618914E+03  0.15498618914E+03  0.00000000000E+00 0.  1.
         21   -1    0    0  503  504 -0.00000000000E+00 -0.00000000000E+00 -0.34002190935E+03  0.34002190935E+03  0.00000000000E+00 0.  1.
         -6    2    1    2    0  504 -0.47196619446E+01  0.67937693068E+02 -0.24043498796E+03  0.30247257375E+03  0.17041968514E+03 0.  0.
        -24    2    3    3    0    0 -0.32362775187E+02  0.58158751809E+01 -0.49872145457E+02  0.10008791793E+03  0.80306829104E+02 0.  0.
          6    2    1    2  502    0  0.47196619446E+01 -0.67937693068E+02  0.55399267756E+02  0.19253552475E+03  0.17135648244E+03 0.  0.
         24    2    5    5    0    0 -0.47892401438E+02 -0.84500694653E+02  0.23230316723E+02  0.12850979831E+03  0.80876888755E+02 0.  0.
          2    1    6    6  501    0 -0.18479582608E+02  0.14054255656E+02  0.78954114841E+01  0.24522532453E+02  0.00000000000E+00 0. -1.
         -1    1    6    6    0  501 -0.29412818830E+02 -0.98554950309E+02  0.15334905239E+02  0.10398726586E+03  0.00000000000E+00 0.  1.
          5    1    5    5  502    0  0.52612063383E+02  0.16563001585E+02  0.32168951033E+02  0.64025726434E+02  0.47000000000E+01 0. -1.
         11    1    4    4    0    0 -0.14790875856E+02  0.36961911976E+02 -0.13796429844E+01  0.39835365698E+02  0.00000000000E+00 0. -1.
        -12    1    4    4    0    0 -0.17571899331E+02 -0.31146036796E+02 -0.48492502472E+02  0.60252552230E+02  0.00000000000E+00 0.  1.
         -5    1    3    3    0  504  0.27643113242E+02  0.62121817887E+02 -0.19056284250E+03  0.20238465582E+03  0.47000000000E+01 0.  1.
<mgrwt>
<rscale>  2 0.18417525E+03</rscale>
<asrwt>0</asrwt>
<pdfrwt beam="1">  1       21 0.23844030E-01 0.18439319E+03</pdfrwt>
<pdfrwt beam="2">  1       21 0.52311062E-01 0.18439319E+03</pdfrwt>
<totfact> 0.57677817E+04</totfact>
</mgrwt>
</event>
<event>
12    1  0.2743855E-001  0.2355630E+03  0.7546771E-02  0.1122798E+00
         21   -1    0    0  502  503  0.00000000000E+00  0.00000000000E+00  0.13443365134E+03  0.13443365134E+03  0.00000000000E+00 0. -1.
         21   -1    0    0  503  504 -0.00000000000E+00 -0.00000000000E+00 -0.94788589167E+03  0.94788589167E+03  0.00000000000E+00 0. -1.
         -6    2    1    2    0  504  0.92834743800E+02  0.13084866641E+03 -0.81341206530E+03  0.84683477588E+03  0.17248271365E+03 0.  0.
        -24    2    3    3    0    0  0.82341114705E+02  0.23983427954E+02 -0.30251996105E+03  0.32475898864E+03  0.81208434780E+02 0.  0.
          6    2    1    2  502    0 -0.92834743800E+02 -0.13084866641E+03 -0.40175030715E-01  0.23548476712E+03  0.17237578361E+03 0.  0.
         24    2    5    5    0    0 -0.11995104688E+03 -0.73451076908E+02  0.30230121806E+02  0.16499960525E+03  0.80794152765E+02 0.  0.
          4    1    6    6  501    0 -0.16225719376E+01  0.88819675651E+01  0.18234458976E+02  0.20347421990E+02  0.00000000000E+00 0. -1.
         -3    1    6    6    0  501 -0.11832847495E+03 -0.82333044473E+02  0.11995662830E+02  0.14465218326E+03  0.00000000000E+00 0.  1.
          5    1    5    5  502    0  0.27116303083E+02 -0.57397589505E+02 -0.30270296837E+02  0.70485161874E+02  0.47000000000E+01 0. -1.
         13    1    4    4    0    0  0.67839100111E+01 -0.26427935005E+01 -0.16823940526E+03  0.16839686243E+03  0.00000000000E+00 0. -1.
        -14    1    4    4    0    0  0.75557204694E+02  0.26626221455E+02 -0.13428055579E+03  0.15636212621E+03  0.00000000000E+00 0.  1.
         -5    1    3    3    0  504  0.10493629095E+02  0.10686523846E+03 -0.51089210425E+03  0.52207578724E+03  0.47000000000E+01 0.  1.
<mgrwt>
<rscale>  2 0.23554347E+03</rscale>
<asrwt>0</asrwt>
<pdfrwt beam="1">  1       21 0.20682101E-01 0.23556305E+03</pdfrwt>
<pdfrwt beam="2">  1       21 0.14582860E+00 0.23556305E+03</pdfrwt>
<totfact> 0.67577080E+03</totfact>
</mgrwt>
</event>
<event>
12    1  0.2743855E-001  0.2494651E+03  0.7546771E-02  0.1113704E+00
         21   -1    0    0  502  503  0.00000000000E+00  0.00000000000E+00  0.46652043810E+02  0.46652043810E+02  0.00000000000E+00 0.  1.
         21   -1    0    0  503  504 -0.00000000000E+00 -0.00000000000E+00 -0.13806663405E+04  0.13806663405E+04  0.00000000000E+00 0. -1.
         -6    2    1    2    0  504 -0.10391122383E+03 -0.14598391907E+03 -0.80058578165E+03  0.83843909242E+03  0.17301349906E+03 0.  0.
        -24    2    3    3    0    0 -0.73693870911E+01 -0.43625113763E+02 -0.18065755292E+03  0.20272630347E+03  0.80643315118E+02 0.  0.
          6    2    1    2  502    0  0.10391122383E+03  0.14598391907E+03 -0.53342851509E+03  0.58887929193E+03  0.17356264776E+03 0.  0.
         24    2    5    5    0    0  0.85203246525E+02  0.10807477430E+03 -0.23101348732E+03  0.28348768974E+03  0.89767972304E+02 0.  0.
          2    1    6    6  501    0 -0.35182784043E+01  0.56444528000E+02 -0.50455948442E+02  0.75790274820E+02  0.00000000000E+00 0. -1.
         -1    1    6    6    0  501  0.88721524929E+02  0.51630246304E+02 -0.18055753887E+03  0.20769741492E+03  0.00000000000E+00 0.  1.
          5    1    5    5  502    0  0.18707977307E+02  0.37909144765E+02 -0.30241502777E+03  0.30539160220E+03  0.47000000000E+01 0. -1.
         11    1    4    4    0    0 -0.29586674913E+02 -0.53137442448E+02 -0.88021013927E+02  0.10698905559E+03  0.00000000000E+00 0. -1.
        -12    1    4    4    0    0  0.22217287822E+02  0.95123286855E+01 -0.92636538997E+02  0.95737247884E+02  0.00000000000E+00 0.  1.
         -5    1    3    3    0  504 -0.96541836741E+02 -0.10235880531E+03 -0.61992822873E+03  0.63571278895E+03  0.47000000000E+01 0.  1.
<mgrwt>
<rscale>  2 0.24936961E+03</rscale>
<asrwt>0</asrwt>
<pdfrwt beam="1">  1       21 0.71772376E-02 0.24946511E+03</pdfrwt>
<pdfrwt beam="2">  1       21 0.21241020E+00 0.24946511E+03</pdfrwt>
<totfact> 0.15573901E+04</totfact>
</mgrwt>
</event>
<event>
12    1  0.2743855E-001  0.2059186E+03  0.7546771E-02  0.1144980E+00
         21   -1    0    0  502  503  0.00000000000E+00  0.00000000000E+00  0.78817610606E+02  0.78817610606E+02  0.00000000000E+00 0.  1.
         21   -1    0    0  503  504 -0.00000000000E+00 -0.00000000000E+00 -0.74845077383E+03  0.74845077383E+03  0.00000000000E+00 0.  1.
         -6    2    1    2    0  504 -0.99607940161E+02 -0.50670154479E+02 -0.55550140161E+03  0.59243924734E+03  0.17295446889E+03 0.  0.
        -24    2    3    3    0    0 -0.27560017258E+02  0.35318625294E+02 -0.24559385691E+03  0.26281863254E+03  0.82160399322E+02 0.  0.
          6    2    1    2  502    0  0.99607940161E+02  0.50670154479E+02 -0.11413176162E+03  0.23482913709E+03  0.17213209555E+03 0.  0.
         24    2    5    5    0    0  0.11123567556E+03 -0.12590839324E+02 -0.64172550252E+02  0.15324990954E+03  0.82677166230E+02 0.  0.
          2    1    6    6  501    0  0.79781706077E+02 -0.35695389599E+02 -0.72245122990E+02  0.11339594022E+03  0.00000000000E+00 0. -1.
         -1    1    6    6    0  501  0.31453969484E+02  0.23104550275E+02  0.80725727382E+01  0.39853969317E+02  0.00000000000E+00 0.  1.
          5    1    5    5  502    0 -0.11627735399E+02  0.63260993803E+02 -0.49959211366E+02  0.81579227551E+02  0.47000000000E+01 0. -1.
         13    1    4    4    0    0 -0.40764306230E+02  0.53421241033E+02 -0.14580149958E+03  0.16054169220E+03  0.00000000000E+00 0. -1.
        -14    1    4    4    0    0  0.13204288973E+02 -0.18102615739E+02 -0.99792357333E+02  0.10227694034E+03  0.00000000000E+00 0.  1.
         -5    1    3    3    0  504 -0.72047922904E+02 -0.85988779773E+02 -0.30990754470E+03  0.32962061480E+03  0.47000000000E+01 0.  1.
<mgrwt>
<rscale>  2 0.20574579E+03</rscale>
<asrwt>0</asrwt>
<pdfrwt beam="1">  1       21 0.12125786E-01 0.20591856E+03</pdfrwt>
<pdfrwt beam="2">  1       21 0.11514628E+00 0.20591856E+03</pdfrwt>
<totfact> 0.33408174E+04</totfact>
</mgrwt>
</event>
<event>
12    1  0.2743855E-001  0.1936021E+03  0.7546771E-02  0.1155586E+00
         21   -1    0    0  502  503  0.00000000000E+00  0.00000000000E+00  0.71904325450E+02  0.71904325450E+02  0.00000000000E+00 0. -1.
         21   -1    0    0  503  504 -0.00000000000E+00 -0.00000000000E+00 -0.52964864909E+03  0.52964864909E+03  0.00000000000E+00 0. -1.
         -6    2    1    2    0  504  0.65109719249E+00  0.86785463872E+02 -0.27409456617E+03  0.33470278290E+03  0.17136505189E+03 0.  0.
        -24    2    3    3    0    0  0.40263126796E+02  0.90335844689E+02 -0.12097517098E+03  0.17643289544E+03  0.81926127608E+02 0.  0.
          6    2    1    2  502    0 -0.65109719249E+00 -0.86785463872E+02 -0.18364975747E+03  0.26685019164E+03  0.17305967379E+03 0.  0.
         24    2    5    5    0    0 -0.18341038288E+02 -0.10743285696E+03 -0.84047056807E+02  0.16349625201E+03  0.88254768846E+02 0.  0.
          2    1    6    6  501    0 -0.24189058949E+02 -0.86040388726E+02 -0.10152430108E+03  0.13525990823E+03  0.00000000000E+00 0. -1.
         -1    1    6    6    0  501  0.58480206602E+01 -0.21392468233E+02  0.17477244272E+02  0.28236343781E+02  0.00000000000E+00 0.  1.
          5    1    5    5  502    0  0.17689941096E+02  0.20647393088E+02 -0.99602700659E+02  0.10335393962E+03  0.47000000000E+01 0. -1.
         13    1    4    4    0    0  0.32020305961E+02 -0.56274506465E+00 -0.11796671477E+02  0.34128846066E+02  0.00000000000E+00 0. -1.
        -14    1    4    4    0    0  0.82428208345E+01  0.90898589753E+02 -0.10917849950E+03  0.14230404938E+03  0.00000000000E+00 0.  1.
         -5    1    3    3    0  504 -0.39612029603E+02 -0.35503808169E+01 -0.15311939519E+03  0.15826988746E+03  0.47000000000E+01 0.  1.
<mgrwt>
<rscale>  2 0.19322271E+03</rscale>
<asrwt>0</asrwt>
<pdfrwt beam="1">  1       21 0.11062204E-01 0.19360215E+03</pdfrwt>
<pdfrwt beam="2">  1       21 0.81484405E-01 0.19360215E+03</pdfrwt>
<totfact> 0.89481380E+04</totfact>
</mgrwt>
</event>
<event>
12    1  0.2743855E-001  0.2120480E+03  0.7546771E-02  0.1140158E+00
         21   -1    0    0  502  503  0.00000000000E+00  0.00000000000E+00  0.62904734965E+03  0.62904734965E+03  0.00000000000E+00 0. -1.
         21   -1    0    0  503  504 -0.00000000000E+00 -0.00000000000E+00 -0.71228927941E+02  0.71228927941E+02  0.00000000000E+00 0. -1.
         -6    2    1    2    0  504  0.11305201768E+03 -0.56579110583E+02  0.29266142545E+03  0.36140708657E+03  0.17024223278E+03 0.  0.
        -24    2    3    3    0    0  0.74293193793E+02 -0.31101845330E+02  0.69392897917E+02  0.13332319223E+03  0.80454309250E+02 0.  0.
          6    2    1    2  502    0 -0.11305201768E+03  0.56579110583E+02  0.26515699626E+03  0.33886919102E+03  0.16894419641E+03 0.  0.
         24    2    5    5    0    0 -0.13471462406E+03  0.57896707526E+02  0.16007054493E+03  0.23146222276E+03  0.80325105250E+02 0.  0.
          2    1    6    6  501    0 -0.53192297721E+02  0.65541374393E+02  0.69257100551E+02  0.10918625495E+03  0.00000000000E+00 0. -1.
         -1    1    6    6    0  501 -0.81522326342E+02 -0.76446668667E+01  0.90813444376E+02  0.12227596781E+03  0.00000000000E+00 0.  1.
          5    1    5    5  502    0  0.21662606378E+02 -0.13175969433E+01  0.10508645133E+03  0.10740696826E+03  0.47000000000E+01 0. -1.
         13    1    4    4    0    0  0.69744749668E+02 -0.12925861683E+01  0.75246277489E+02  0.10260605811E+03  0.00000000000E+00 0. -1.
        -14    1    4    4    0    0  0.45484441255E+01 -0.29809259162E+02 -0.58533795722E+01  0.30717134114E+02  0.00000000000E+00 0.  1.
         -5    1    3    3    0  504  0.38758823891E+02 -0.25477265253E+02  0.22326852753E+03  0.22808389435E+03  0.47000000000E+01 0.  1.
<mgrwt>
<rscale>  2 0.21178739E+03</rscale>
<asrwt>0</asrwt>
<pdfrwt beam="1">  1       21 0.96776512E-01 0.21204804E+03</pdfrwt>
<pdfrwt beam="2">  1       21 0.10958297E-01 0.21204804E+03</pdfrwt>
<totfact> 0.60628056E+04</totfact>
</mgrwt>
</event>
<event>
12    1  0.2743855E-001  0.2151951E+03  0.7546771E-02  0.1138313E+00
         21   -1    0    0  502  503  0.00000000000E+00  0.00000000000E+00  0.35790402002E+02  0.35790402002E+02  0.00000000000E+00 0.  1.
         21   -1    0    0  503  504 -0.00000000000E+00 -0.00000000000E+00 -0.15377082185E+04  0.15377082185E+04  0.00000000000E+00 0. -1.
         -6    2    1    2    0  504  0.11568801085E+03 -0.43196181941E+02 -0.10856181713E+04  0.11067410535E+04  0.17623654489E+03 0.  0.
        -24    2    3    3    0    0  0.52027088414E+02 -0.93142719635E+02 -0.64851321056E+03  0.66218486320E+03  0.80851868412E+02 0.  0.
          6    2    1    2  502    0 -0.11568801085E+03  0.43196181941E+02 -0.41629964523E+03  0.46675756699E+03  0.17119464284E+03 0.  0.
         24    2    5    5    0    0 -0.11795438965E+03 -0.22143783757E+02 -0.29035051879E+03  0.32477263807E+03  0.82281574354E+02 0.  0.
          2    1    6    6  501    0 -0.10629904388E+03 -0.37824389430E+02 -0.28160446164E+03  0.30336651756E+03  0.00000000000E+00 0. -1.
         -1    1    6    6    0  501 -0.11655345774E+02  0.15680605673E+02 -0.87460571587E+01  0.21406120508E+02  0.00000000000E+00 0.  1.
          5    1    5    5  502    0  0.22663788040E+01  0.65339965697E+02 -0.12594912644E+03  0.14198492892E+03  0.47000000000E+01 0. -1.
         13    1    4    4    0    0 -0.43107945802E+01 -0.49881147128E+02 -0.41767505461E+03  0.42066514359E+03  0.00000000000E+00 0. -1.
        -14    1    4    4    0    0  0.56337882994E+02 -0.43261572506E+02 -0.23083815595E+03  0.24151971961E+03  0.00000000000E+00 0.  1.
         -5    1    3    3    0  504  0.63660922435E+02  0.49946537694E+02 -0.43710496074E+03  0.44455619035E+03  0.47000000000E+01 0.  1.
<mgrwt>
<rscale>  2 0.21416037E+03</rscale>
<asrwt>0</asrwt>
<pdfrwt beam="1">  1       21 0.55062162E-02 0.21519513E+03</pdfrwt>
<pdfrwt beam="2">  1       21 0.23657048E+00 0.21519513E+03</pdfrwt>
<totfact> 0.17897254E+04</totfact>
</mgrwt>
</event>
<event>
12    1  0.2743855E-001  0.4371135E+03  0.7546771E-02  0.1031666E+00
         21   -1    0    0  502  503  0.00000000000E+00  0.00000000000E+00  0.50942858356E+03  0.50942858356E+03  0.00000000000E+00 0. -1.
         21   -1    0    0  503  504 -0.00000000000E+00 -0.00000000000E+00 -0.40905944210E+03  0.40905944210E+03  0.00000000000E+00 0.  1.
         -6    2    1    2    0  504  0.13247139597E+03 -0.37896712410E+03  0.18324603166E+03  0.47396972002E+03  0.17292609831E+03 0.  0.
        -24    2    3    3    0    0  0.62694180942E+02 -0.92871047588E+02  0.26047703545E+02  0.14012360413E+03  0.80003435990E+02 0.  0.
          6    2    1    2  502    0 -0.13247139597E+03  0.37896712410E+03 -0.82876890197E+02  0.44451830564E+03  0.17193950452E+03 0.  0.
         24    2    5    5    0    0 -0.79591037820E+02  0.30658711596E+03 -0.83304719458E+01  0.32783730319E+03  0.84127924193E+02 0.  0.
          2    1    6    6  501    0 -0.24511900858E+02  0.13077522608E+03  0.37006937188E+02  0.13810324558E+03  0.00000000000E+00 0. -1.
         -1    1    6    6    0  501 -0.55079136961E+02  0.17581188988E+03 -0.45337409134E+02  0.18973405762E+03  0.00000000000E+00 0.  1.
          5    1    5    5  502    0 -0.52880358153E+02  0.72380008146E+02 -0.74546418252E+02  0.11668100245E+03  0.47000000000E+01 0. -1.
         13    1    4    4    0    0  0.33451953623E+02 -0.57852210441E+02  0.54605635616E+02  0.86299982012E+02  0.00000000000E+00 0. -1.
        -14    1    4    4    0    0  0.29242227318E+02 -0.35018837147E+02 -0.28557932072E+02  0.53823622118E+02  0.00000000000E+00 0.  1.
         -5    1    3    3    0  504  0.69777215031E+02 -0.28609607652E+03  0.15719832812E+03  0.33384611589E+03  0.47000000000E+01 0.  1.
<mgrwt>
<rscale>  2 0.43701610E+03</rscale>
<asrwt>0</asrwt>
<pdfrwt beam="1">  1       21 0.78373629E-01 0.43711347E+03</pdfrwt>
<pdfrwt beam="2">  1       21 0.62932222E-01 0.43711347E+03</pdfrwt>
<totfact> 0.29450106E+03</totfact>
</mgrwt>
</event>
<event>
12    1  0.2743855E-001  0.2263329E+03  0.7546771E-02  0.1129480E+00
         21   -1    0    0  502  503  0.00000000000E+00  0.00000000000E+00  0.15947365538E+03  0.15947365538E+03  0.00000000000E+00 0. -1.
         21   -1    0    0  503  504 -0.00000000000E+00 -0.00000000000E+00 -0.44041827367E+03  0.44041827367E+03  0.00000000000E+00 0.  1.
         -6    2    1    2    0  504  0.14078829266E+03  0.33326974567E+02 -0.29799654684E+03  0.37420384153E+03  0.17405327491E+03 0.  0.
        -24    2    3    3    0    0  0.23447849079E+02  0.38976994282E+01 -0.20657456099E+03  0.22249711317E+03  0.79163896014E+02 0.  0.
          6    2    1    2  502    0 -0.14078829266E+03 -0.33326974567E+02  0.17051928544E+02  0.22568808752E+03  0.17237260222E+03 0.  0.
         24    2    5    5    0    0 -0.61638385461E+02 -0.61996473938E+02  0.58791866835E+02  0.13160854430E+03  0.78876308126E+02 0.  0.
          4    1    6    6  501    0 -0.73275757207E+02 -0.41158558995E+02  0.65795125811E+02  0.10673500903E+03  0.00000000000E+00 0. -1.
         -3    1    6    6    0  501  0.11637371746E+02 -0.20837914943E+02 -0.70032589760E+01  0.24873535266E+02  0.00000000000E+00 0.  1.
          5    1    5    5  502    0 -0.79149907198E+02  0.28669499371E+02 -0.41739938292E+02  0.94079543219E+02  0.47000000000E+01 0. -1.
         13    1    4    4    0    0  0.13358006436E+02 -0.37620537181E+02 -0.98331164888E+02  0.10612614731E+03  0.00000000000E+00 0. -1.
        -14    1    4    4    0    0  0.10089842643E+02  0.41518236610E+02 -0.10824339610E+03  0.11637096586E+03  0.00000000000E+00 0.  1.
         -5    1    3    3    0  504  0.11734044358E+03  0.29429275139E+02 -0.91421985849E+02  0.15170672837E+03  0.47000000000E+01 0.  1.
<mgrwt>
<rscale>  2 0.22600972E+03</rscale>
<asrwt>0</asrwt>
<pdfrwt beam="1">  1       21 0.24534409E-01 0.22633288E+03</pdfrwt>
<pdfrwt beam="2">  1       21 0.67756657E-01 0.22633288E+03</pdfrwt>
<totfact> 0.30697962E+04</totfact>
</mgrwt>
</event>
<event>
12    1  0.2743855E-001  0.2649463E+03  0.7546771E-02  0.1104306E+00
         21   -1    0    0  502  503  0.00000000000E+00  0.00000000000E+00  0.10611923149E+04  0.10611923149E+04  0.00000000000E+00 0.  1.
         21   -1    0    0  503  504 -0.00000000000E+00 -0.00000000000E+00 -0.69493392227E+02  0.69493392227E+02  0.00000000000E+00 0. -1.
         -6    2    1    2    0  504 -0.20068977053E+03  0.60149711100E+01  0.36815849191E+03  0.45319088657E+03  0.17183928722E+03 0.  0.
        -24    2    3    3    0    0 -0.52765526247E+02  0.26314560323E+02  0.10599167217E+03  0.15145062286E+03  0.90699502488E+02 0.  0.
          6    2    1    2  502    0  0.20068977053E+03 -0.60149711100E+01  0.62354043080E+03  0.67749482059E+03  0.17286989100E+03 0.  0.
         24    2    5    5    0    0  0.13113026126E+03 -0.18472789392E+02  0.56223000889E+03  0.58382102275E+03  0.84900025597E+02 0.  0.
          2    1    6    6  501    0  0.77243937132E+02 -0.20397084823E+02  0.16924140601E+03  0.18715052872E+03  0.00000000000E+00 0. -1.
         -1    1    6    6    0  501  0.53886324125E+02  0.19242954308E+01  0.39298860288E+03  0.39667049403E+03  0.00000000000E+00 0.  1.
          5    1    5    5  502    0  0.69559509274E+02  0.12457818282E+02  0.61310421907E+02  0.93673797837E+02  0.47000000000E+01 0. -1.
         11    1    4    4    0    0 -0.37518230941E+02 -0.42580342634E+01 -0.23676619268E+01  0.37833243738E+02  0.00000000000E+00 0. -1.
        -12    1    4    4    0    0 -0.15247295306E+02  0.30572594586E+02  0.10835933409E+03  0.11361737913E+03  0.00000000000E+00 0.  1.
         -5    1    3    3    0  504 -0.14792424428E+03 -0.20299589213E+02  0.26216681975E+03  0.30174026371E+03  0.47000000000E+01 0.  1.
<mgrwt>
<rscale>  2 0.26477836E+03</rscale>
<asrwt>0</asrwt>
<pdfrwt beam="1">  1       21 0.16326034E+00 0.26494634E+03</pdfrwt>
<pdfrwt beam="2">  1       21 0.10691292E-01 0.26494634E+03</pdfrwt>
<totfact> 0.16416595E+04</totfact>
</mgrwt>
</event>
<event>
12    1  0.2743855E-001  0.2001675E+03  0.7546771E-02  0.1149901E+00
         21   -1    0    0  502  503  0.00000000000E+00  0.00000000000E+00  0.24294267042E+03  0.24294267042E+03  0.00000000000E+00 0. -1.
         21   -1    0    0  503  504 -0.00000000000E+00 -0.00000000000E+00 -0.18201604926E+03  0.18201604926E+03  0.00000000000E+00 0.  1.
         -6    2    1    2    0  504  0.92422157575E+02  0.27992254745E+02 -0.36758522921E+02  0.20351468246E+03  0.17533287037E+03 0.  0.
        -24    2    3    3    0    0 -0.58643770866E+01  0.55511151893E+02 -0.57108740131E+01  0.96727140589E+02  0.78788620634E+02 0.  0.
          6    2    1    2  502    0 -0.92422157575E+02 -0.27992254745E+02  0.97685144078E+02  0.22144403722E+03  0.17369413551E+03 0.  0.
         24    2    5    5    0    0 -0.37187239343E+02  0.48607531611E+02  0.55080137298E+02  0.11773434595E+03  0.84154452002E+02 0.  0.
          4    1    6    6  501    0 -0.30382091611E+02  0.14762293821E+02  0.71820248980E+02  0.79367152985E+02  0.00000000000E+00 0. -1.
         -3    1    6    6    0  501 -0.68051477330E+01  0.33845237790E+02 -0.16740111682E+02  0.38367192963E+02  0.00000000000E+00 0.  1.
          5    1    5    5  502    0 -0.55234918232E+02 -0.76599786356E+02  0.42605006780E+02  0.10370969128E+03  0.47000000000E+01 0. -1.
         13    1    4    4    0    0  0.33141890029E+02  0.25035329897E+02  0.13434342165E+02  0.43653569924E+02  0.00000000000E+00 0. -1.
        -14    1    4    4    0    0 -0.39006267115E+02  0.30475821996E+02 -0.19145216178E+02  0.53073570665E+02  0.00000000000E+00 0.  1.
         -5    1    3    3    0  504  0.98286534662E+02 -0.27518897148E+02 -0.31047648908E+02  0.10678754187E+03  0.47000000000E+01 0.  1.
<mgrwt>
<rscale>  2 0.19980809E+03</rscale>
<asrwt>0</asrwt>
<pdfrwt beam="1">  1       21 0.37375796E-01 0.20016752E+03</pdfrwt>
<pdfrwt beam="2">  1       21 0.28002469E-01 0.20016752E+03</pdfrwt>
<totfact> 0.83832224E+04</totfact>
</mgrwt>
</event>
<event>
12    1  0.2743855E-001  0.2489920E+03  0.7546771E-02  0.1114035E+00
         21   -1    0    0  502  503  0.00000000000E+00  0.00000000000E+00  0.31557367727E+03  0.31557367727E+03  0.00000000000E+00 0. -1.
         21   -1    0    0  503  504 -0.00000000000E+00 -0.00000000000E+00 -0.19984492000E+03  0.19984492000E+03  0.00000000000E+00 0.  1.
         -6    2    1    2    0  504  0.17689607890E+03 -0.27138173937E+02  0.22208506904E+02  0.24998042111E+03  0.17311351751E+03 0.  0.
        -24    2    3    3    0    0  0.13182900793E+03  0.31006371390E+02  0.57649301074E+02  0.16818819087E+03  0.81385153646E+02 0.  0.
          6    2    1    2  502    0 -0.17689607890E+03  0.27138173937E+02  0.93520250367E+02  0.26543817616E+03  0.17228663593E+03 0.  0.
         24    2    5    5    0    0 -0.45041324657E+02  0.29837136533E+02  0.81452012760E+02  0.13292141128E+03  0.90081604953E+02 0.  0.
          2    1    6    6  501    0 -0.14493810903E+02 -0.27479644360E+02  0.54229242208E+02  0.62498096924E+02  0.00000000000E+00 0. -1.
         -1    1    6    6    0  501 -0.30547513754E+02  0.57316780893E+02  0.27222770551E+02  0.70423314357E+02  0.00000000000E+00 0.  1.
          5    1    5    5  502    0 -0.13185475424E+03 -0.26989625958E+01  0.12068237607E+02  0.13251676488E+03  0.47000000000E+01 0. -1.
         11    1    4    4    0    0  0.12507030123E+03  0.88662065029E+01  0.68218314709E+02  0.14274077319E+03  0.00000000000E+00 0. -1.
        -12    1    4    4    0    0  0.67587067002E+01  0.22140164887E+02 -0.10569013635E+02  0.25447417682E+02  0.00000000000E+00 0.  1.
         -5    1    3    3    0  504  0.45067070965E+02 -0.58144545327E+02 -0.35440794170E+02  0.81792230242E+02  0.47000000000E+01 0.  1.
<mgrwt>
<rscale>  2 0.24884828E+03</rscale>
<asrwt>0</asrwt>
<pdfrwt beam="1">  1       21 0.48549797E-01 0.24899195E+03</pdfrwt>
<pdfrwt beam="2">  1       21 0.30745372E-01 0.24899195E+03</pdfrwt>
<totfact> 0.40075283E+04</totfact>
</mgrwt>
</event>
<event>
12    1  0.2743855E-001  0.1945812E+03  0.7546771E-02  0.1154697E+00
         21   -1    0    0  502  503  0.00000000000E+00  0.00000000000E+00  0.44573446097E+02  0.44573446097E+02  0.00000000000E+00 0.  1.
         21   -1    0    0  503  504 -0.00000000000E+00 -0.00000000000E+00 -0.84505314708E+03  0.84505314708E+03  0.00000000000E+00 0.  1.
         -6    2    1    2    0  504  0.44276934323E+02  0.74607920484E+02 -0.37909005594E+03  0.42548104723E+03  0.17262115259E+03 0.  0.
        -24    2    3    3    0    0  0.29867640905E+02  0.43839985291E+02 -0.89394931027E+02  0.13376260596E+03  0.84184088622E+02 0.  0.
          6    2    1    2  502    0 -0.44276934323E+02 -0.74607920484E+02 -0.42138964504E+03  0.46414554595E+03  0.17416964767E+03 0.  0.
         24    2    5    5    0    0  0.23082635115E+02 -0.82365574974E+02 -0.19051041603E+03  0.22346982805E+03  0.79546523802E+02 0.  0.
          2    1    6    6  501    0  0.28768802455E+02 -0.86275082534E+02 -0.19504970103E+03  0.21521017571E+03  0.00000000000E+00 0. -1.
         -1    1    6    6    0  501 -0.56861673395E+01  0.39095075598E+01  0.45392849995E+01  0.82596523341E+01  0.00000000000E+00 0.  1.
          5    1    5    5  502    0 -0.67359569438E+02  0.77576544906E+01 -0.23087922902E+03  0.24067571790E+03  0.47000000000E+01 0. -1.
         13    1    4    4    0    0 -0.82921270915E+01  0.56290307205E+02 -0.66626090101E+02  0.87615032610E+02  0.00000000000E+00 0. -1.
        -14    1    4    4    0    0  0.38159767997E+02 -0.12450321914E+02 -0.22768840926E+02  0.46147573354E+02  0.00000000000E+00 0.  1.
         -5    1    3    3    0  504  0.14409293418E+02  0.30767935192E+02 -0.28969512492E+03  0.29171844126E+03  0.47000000000E+01 0.  1.
<mgrwt>
<rscale>  2 0.19423410E+03</rscale>
<asrwt>0</asrwt>
<pdfrwt beam="1">  1       21 0.68574543E-02 0.19458123E+03</pdfrwt>
<pdfrwt beam="2">  1       21 0.13000816E+00 0.19458123E+03</pdfrwt>
<totfact> 0.67674361E+04</totfact>
</mgrwt>
</event>
<event>
12    1  0.2743855E-001  0.1924154E+03  0.7546771E-02  0.1156330E+00
         21   -1    0    0  502  503  0.00000000000E+00  0.00000000000E+00  0.84993284125E+02  0.84993284125E+02  0.00000000000E+00 0. -1.
         21   -1    0    0  503  504 -0.00000000000E+00 -0.00000000000E+00 -0.50353566486E+03  0.50353566486E+03  0.00000000000E+00 0. -1.
         -6    2    1    2    0  504  0.73136556662E+02  0.38059603244E+02 -0.31765643018E+03  0.37138832562E+03  0.17385681308E+03 0.  0.
        -24    2    3    3    0    0  0.83052621706E+02  0.33106770936E+02 -0.33168848627E+03  0.35289920742E+03  0.80788628013E+02 0.  0.
          6    2    1    2  502    0 -0.73136556662E+02 -0.38059603244E+02 -0.10088595055E+03  0.21714062336E+03  0.17370833594E+03 0.  0.
         24    2    5    5    0    0 -0.58081894843E+02  0.33196068702E+02 -0.99908657815E+02  0.14415392095E+03  0.79518095641E+02 0.  0.
          2    1    6    6  501    0 -0.10900166805E+01  0.45569743770E+02 -0.42660541409E+02  0.62431654447E+02  0.00000000000E+00 0. -1.
         -1    1    6    6    0  501 -0.56991878163E+02 -0.12373675068E+02 -0.57248116405E+02  0.81722266508E+02  0.00000000000E+00 0.  1.
          5    1    5    5  502    0 -0.15054661818E+02 -0.71255671946E+02 -0.97729273962E+00  0.72986702406E+02  0.47000000000E+01 0. -1.
         11    1    4    4    0    0  0.16902286343E+02  0.49507824141E+02 -0.14824418367E+03  0.15720384832E+03  0.00000000000E+00 0. -1.
        -12    1    4    4    0    0  0.66150335363E+02 -0.16401053205E+02 -0.18344430260E+03  0.19569535910E+03  0.00000000000E+00 0.  1.
         -5    1    3    3    0  504 -0.99160650440E+01  0.49528323081E+01  0.14032056093E+02  0.18489118205E+02  0.47000000000E+01 0.  1.
<mgrwt>
<rscale>  2 0.19238184E+03</rscale>
<asrwt>0</asrwt>
<pdfrwt beam="1">  1       21 0.13075890E-01 0.19241539E+03</pdfrwt>
<pdfrwt beam="2">  1       21 0.77467024E-01 0.19241539E+03</pdfrwt>
<totfact> 0.74394833E+04</totfact>
</mgrwt>
</event>
<event>
12    1  0.2743855E-001  0.1774669E+03  0.7546771E-02  0.1170618E+00
         21   -1    0    0  502  503  0.00000000000E+00  0.00000000000E+00  0.12975859925E+04  0.12975859925E+04  0.00000000000E+00 0. -1.
         21   -1    0    0  503  504 -0.00000000000E+00 -0.00000000000E+00 -0.35123215310E+02  0.35123215310E+02  0.00000000000E+00 0. -1.
         -6    2    1    2    0  504  0.24533724679E+02  0.21778357989E+02  0.25933772991E+03  0.31424599525E+03  0.17440839101E+03 0.  0.
        -24    2    3    3    0    0 -0.80679382547E+01 -0.37177656311E+02  0.23344737998E+03  0.24191978791E+03  0.50796011755E+02 0.  0.
          6    2    1    2  502    0 -0.24533724679E+02 -0.21778357989E+02  0.10031250472E+04  0.10184632125E+04  0.17300651527E+03 0.  0.
         24    2    5    5    0    0 -0.34185712416E+02  0.10012418583E+02  0.95856472047E+03  0.96268214884E+03  0.81496533187E+02 0.  0.
          2    1    6    6  501    0 -0.17174575716E+02  0.45998001367E+02  0.51535571884E+03  0.51768938479E+03  0.00000000000E+00 0. -1.
         -1    1    6    6    0  501 -0.17011136700E+02 -0.35985582784E+02  0.44320900162E+03  0.44499276405E+03  0.00000000000E+00 0.  1.
          5    1    5    5  502    0  0.96519877372E+01 -0.31790776572E+02  0.44560326783E+02  0.55781063681E+02  0.47000000000E+01 0. -1.
         11    1    4    4    0    0  0.68336321011E+01 -0.45096230988E+02  0.18761191980E+03  0.19307667137E+03  0.00000000000E+00 0. -1.
        -12    1    4    4    0    0 -0.14901570356E+02  0.79185746770E+01  0.45835460174E+02  0.48843116540E+02  0.00000000000E+00 0.  1.
         -5    1    3    3    0  504  0.32601662934E+02  0.58956014300E+02  0.25890349932E+02  0.72326207338E+02  0.47000000000E+01 0.  1.
<mgrwt>
<rscale>  2 0.17712147E+03</rscale>
<asrwt>0</asrwt>
<pdfrwt beam="1">  1       21 0.19962858E+00 0.17746686E+03</pdfrwt>
<pdfrwt beam="2">  1       21 0.54035726E-02 0.17746686E+03</pdfrwt>
<totfact> 0.32177638E+04</totfact>
</mgrwt>
</event>
<event>
12    1  0.2743855E-001  0.1990303E+03  0.7546771E-02  0.1151850E+00
         21   -1    0    0  502  503  0.00000000000E+00  0.00000000000E+00  0.83102442473E+02  0.83102442473E+02  0.00000000000E+00 0. -1.
         21   -1    0    0  503  504 -0.00000000000E+00 -0.00000000000E+00 -0.53401429784E+03  0.53401429784E+03  0.00000000000E+00 0. -1.
         -6    2    1    2    0  504  0.47007031844E+02  0.83997180651E+02 -0.33541367527E+03  0.38700181770E+03  0.16734062848E+03 0.  0.
        -24    2    3    3    0    0  0.95377383221E+00  0.11266591555E+03 -0.24504937074E+03  0.28150017568E+03  0.80614121586E+02 0.  0.
          6    2    1    2  502    0 -0.47007031844E+02 -0.83997180651E+02 -0.11549818010E+03  0.23011492262E+03  0.17420637361E+03 0.  0.
         24    2    5    5    0    0  0.78854912979E+01  0.21000228160E+00 -0.10071068055E+03  0.12840553811E+03  0.79266108565E+02 0.  0.
          2    1    6    6  501    0 -0.28874626702E+02 -0.20300839951E+02 -0.31032110901E+02  0.46998511432E+02  0.00000000000E+00 0. -1.
         -1    1    6    6    0  501  0.36760118000E+02  0.20510842233E+02 -0.69678569647E+02  0.81407026678E+02  0.00000000000E+00 0.  1.
          5    1    5    5  502    0 -0.54892523141E+02 -0.84207182933E+02 -0.14787499549E+02  0.10170938451E+03  0.47000000000E+01 0. -1.
         11    1    4    4    0    0 -0.29624364525E+02  0.89321700605E+02 -0.20702128396E+03  0.22740664279E+03  0.00000000000E+00 0. -1.
        -12    1    4    4    0    0  0.30578138357E+02  0.23344214941E+02 -0.38028086776E+02  0.54093532889E+02  0.00000000000E+00 0.  1.
         -5    1    3    3    0  504  0.46053258011E+02 -0.28668734894E+02 -0.90364304537E+02  0.10550164202E+03  0.47000000000E+01 0.  1.
<mgrwt>
<rscale>  2 0.19751790E+03</rscale>
<asrwt>0</asrwt>
<pdfrwt beam="1">  1       21 0.12784991E-01 0.19903027E+03</pdfrwt>
<pdfrwt beam="2">  1       21 0.82156044E-01 0.19903027E+03</pdfrwt>
<totfact> 0.67625932E+04</totfact>
</mgrwt>
</event>
<event>
12    1  0.2743855E-001  0.1750412E+03  0.7546771E-02  0.1172867E+00
         21   -1    0    0  502  503  0.00000000000E+00  0.00000000000E+00  0.32795624793E+03  0.32795624793E+03  0.00000000000E+00 0.  1.
         21   -1    0    0  503  504 -0.00000000000E+00 -0.00000000000E+00 -0.13032019624E+03  0.13032019624E+03  0.00000000000E+00 0.  1.
         -6    2    1    2    0  504  0.15327756304E+02  0.59412378698E+00 -0.23578429625E+02  0.17662209423E+03  0.17436779729E+03 0.  0.
        -24    2    3    3    0    0 -0.14516891505E+02 -0.17653306217E+02  0.48370666622E+02  0.96482003417E+02  0.80291196495E+02 0.  0.
          6    2    1    2  502    0 -0.15327756304E+02 -0.59412378698E+00  0.22121448132E+03  0.28165434994E+03  0.17366068351E+03 0.  0.
         24    2    5    5    0    0  0.29501197998E+02 -0.50935173403E+02  0.10284260133E+03  0.14535376890E+03  0.84180787068E+02 0.  0.
          4    1    6    6  501    0 -0.18151884418E+02 -0.29715398086E+02  0.59696258339E+01  0.35328914842E+02  0.00000000000E+00 0. -1.
         -3    1    6    6    0  501  0.47653082416E+02 -0.21219775317E+02  0.96872975499E+02  0.11002485406E+03  0.00000000000E+00 0.  1.
          5    1    5    5  502    0 -0.44828954302E+02  0.50341049616E+02  0.11837187999E+03  0.13630058104E+03  0.47000000000E+01 0. -1.
         13    1    4    4    0    0 -0.78416551022E+01 -0.49919146355E+02  0.29436422999E+02  0.58480045541E+02  0.00000000000E+00 0. -1.
        -14    1    4    4    0    0 -0.66752364033E+01  0.32265840138E+02  0.18934243623E+02  0.38001957876E+02  0.00000000000E+00 0.  1.
         -5    1    3    3    0  504  0.29844647810E+02  0.18247430004E+02 -0.71949096248E+02  0.80140090813E+02  0.47000000000E+01 0.  1.
<mgrwt>
<rscale>  2 0.17486484E+03</rscale>
<asrwt>0</asrwt>
<pdfrwt beam="1">  1       21 0.50454807E-01 0.17504120E+03</pdfrwt>
<pdfrwt beam="2">  1       21 0.20049261E-01 0.17504120E+03</pdfrwt>
<totfact> 0.86525103E+04</totfact>
</mgrwt>
</event>
<event>
12    1  0.2743855E-001  0.2887627E+03  0.7546771E-02  0.1091014E+00
         21   -1    0    0  502  503  0.00000000000E+00  0.00000000000E+00  0.29502338067E+03  0.29502338067E+03  0.00000000000E+00 0. -1.
         21   -1    0    0  503  504 -0.00000000000E+00 -0.00000000000E+00 -0.28612030512E+03  0.28612030512E+03  0.00000000000E+00 0.  1.
         -6    2    1    2    0  504 -0.11200259725E+03  0.20296761458E+03 -0.28191778211E+02  0.29000814655E+03  0.17195788538E+03 0.  0.
        -24    2    3    3    0    0 -0.45834368429E+02  0.19213100563E+03 -0.51959484840E+02  0.21871536656E+03  0.78240084703E+02 0.  0.
          6    2    1    2  502    0  0.11200259725E+03 -0.20296761458E+03  0.37094853753E+02  0.29113553924E+03  0.17217270305E+03 0.  0.
         24    2    5    5    0    0  0.72352169844E+01 -0.60216835841E+02  0.53965567630E+02  0.11320100132E+03  0.78890864658E+02 0.  0.
          2    1    6    6  501    0  0.88110999683E+01  0.89838266350E+01  0.40858547005E+02  0.42752374051E+02  0.00000000000E+00 0. -1.
         -1    1    6    6    0  501 -0.15758829839E+01 -0.69200662476E+02  0.13107020625E+02  0.70448627268E+02  0.00000000000E+00 0.  1.
          5    1    5    5  502    0  0.10476738027E+03 -0.14275077874E+03 -0.16870713876E+02  0.17793453793E+03  0.47000000000E+01 0. -1.
         13    1    4    4    0    0 -0.29942403576E+02  0.12485593306E+03  0.59556784261E+01  0.12853412643E+03  0.00000000000E+00 0. -1.
        -14    1    4    4    0    0 -0.15891964853E+02  0.67275072566E+02 -0.57915163266E+02  0.90181240132E+02  0.00000000000E+00 0.  1.
         -5    1    3    3    0  504 -0.66168228824E+02  0.10836608959E+02  0.23767706629E+02  0.71292779984E+02  0.47000000000E+01 0.  1.
<mgrwt>
<rscale>  2 0.28873065E+03</rscale>
<asrwt>0</asrwt>
<pdfrwt beam="1">  1       21 0.45388212E-01 0.28876266E+03</pdfrwt>
<pdfrwt beam="2">  1       21 0.44018509E-01 0.28876266E+03</pdfrwt>
<totfact> 0.22012999E+04</totfact>
</mgrwt>
</event>
<event>
12    1  0.2743855E-001  0.2217477E+03  0.7546771E-02  0.1132929E+00
         21   -1    0    0  502  503  0.00000000000E+00  0.00000000000E+00  0.83424614728E+03  0.83424614728E+03  0.00000000000E+00 0. -1.
         21   -1    0    0  503  504 -0.00000000000E+00 -0.00000000000E+00 -0.66302376389E+02  0.66302376389E+02  0.00000000000E+00 0. -1.
         -6    2    1    2    0  504  0.10460243023E+01  0.13608539675E+03  0.22762060307E+03  0.31649274415E+03  0.17273155120E+03 0.  0.
        -24    2    3    3    0    0  0.51197454456E+02  0.58903278612E+02  0.57006669207E+02  0.12257665473E+03  0.75395625709E+02 0.  0.
          6    2    1    2  502    0 -0.10460243023E+01 -0.13608539675E+03  0.54032316782E+03  0.58405577952E+03  0.17507626490E+03 0.  0.
         24    2    5    5    0    0 -0.32262347147E+02 -0.48317690315E+02  0.13417631148E+03  0.16733646389E+03  0.81380288424E+02 0.  0.
          4    1    6    6  501    0 -0.25704613564E+02 -0.42294695151E+02  0.20923492344E+02  0.53734169094E+02  0.00000000000E+00 0. -1.
         -3    1    6    6    0  501 -0.65577335832E+01 -0.60229951640E+01  0.11325281914E+03  0.11360229480E+03  0.00000000000E+00 0.  1.
          5    1    5    5  502    0  0.31216322844E+02 -0.87767706439E+02  0.40614685634E+03  0.41671931563E+03  0.47000000000E+01 0. -1.
         11    1    4    4    0    0  0.28074125275E+02  0.39321514298E+02 -0.97284623848E+01  0.49284693131E+02  0.00000000000E+00 0. -1.
        -12    1    4    4    0    0  0.23123329182E+02  0.19581764314E+02  0.66735131592E+02  0.73291961596E+02  0.00000000000E+00 0.  1.
         -5    1    3    3    0  504 -0.50151430154E+02  0.77182118143E+02  0.17061393386E+03  0.19391608942E+03  0.47000000000E+01 0.  1.
<mgrwt>
<rscale>  2 0.22128459E+03</rscale>
<asrwt>0</asrwt>
<pdfrwt beam="1">  1       21 0.12834555E+00 0.22174767E+03</pdfrwt>
<pdfrwt beam="2">  1       21 0.10200366E-01 0.22174767E+03</pdfrwt>
<totfact> 0.34407532E+04</totfact>
</mgrwt>
</event>
<event>
12    1  0.2743855E-001  0.2175801E+03  0.7546771E-02  0.1135821E+00
         21   -1    0    0  502  503  0.00000000000E+00  0.00000000000E+00  0.84171622286E+02  0.84171622286E+02  0.00000000000E+00 0.  1.
         21   -1    0    0  503  504 -0.00000000000E+00 -0.00000000000E+00 -0.68282566701E+03  0.68282566701E+03  0.00000000000E+00 0.  1.
         -6    2    1    2    0  504  0.19792207044E+02  0.13030274598E+03 -0.46181094802E+03  0.51050019921E+03  0.17312008724E+03 0.  0.
        -24    2    3    3    0    0 -0.12610113471E+02  0.15506829601E+03 -0.39064705676E+03  0.42834405359E+03  0.81659744666E+02 0.  0.
          6    2    1    2  502    0 -0.19792207044E+02 -0.13030274598E+03 -0.13684309670E+03  0.25649709008E+03  0.17232001346E+03 0.  0.
         24    2    5    5    0    0  0.31909471002E+02 -0.71982276132E+02 -0.17655193614E+02  0.11401134709E+03  0.80543273999E+02 0.  0.
          2    1    6    6  501    0  0.25795782497E+02  0.10208138428E+02 -0.15030123705E+02  0.31552069716E+02  0.00000000000E+00 0. -1.
         -1    1    6    6    0  501  0.61136885051E+01 -0.82190414560E+02 -0.26250699088E+01  0.82459277372E+02  0.00000000000E+00 0.  1.
          5    1    5    5  502    0 -0.51701678046E+02 -0.58320469847E+02 -0.11918790308E+03  0.14248574300E+03  0.47000000000E+01 0. -1.
         11    1    4    4    0    0 -0.28456608408E+02  0.10863612017E+02 -0.60777883750E+02  0.67983437552E+02  0.00000000000E+00 0. -1.
        -12    1    4    4    0    0  0.15846494937E+02  0.14420468400E+03 -0.32986917301E+03  0.36036061603E+03  0.00000000000E+00 0.  1.
         -5    1    3    3    0  504  0.32402320515E+02 -0.24765550033E+02 -0.71163891268E+02  0.82156145622E+02  0.47000000000E+01 0.  1.
<mgrwt>
<rscale>  2 0.21742092E+03</rscale>
<asrwt>0</asrwt>
<pdfrwt beam="1">  1       21 0.12949481E-01 0.21758010E+03</pdfrwt>
<pdfrwt beam="2">  1       21 0.10505009E+00 0.21758010E+03</pdfrwt>
<totfact> 0.36857200E+04</totfact>
</mgrwt>
</event>
<event>
12    1  0.2743855E-001  0.2161741E+03  0.7546771E-02  0.1137385E+00
         21   -1    0    0  502  503  0.00000000000E+00  0.00000000000E+00  0.12059692440E+03  0.12059692440E+03  0.00000000000E+00 0.  1.
         21   -1    0    0  503  504 -0.00000000000E+00 -0.00000000000E+00 -0.59262574888E+03  0.59262574888E+03  0.00000000000E+00 0.  1.
         -6    2    1    2    0  504  0.11607299784E+03 -0.40051958001E+02 -0.44986190051E+03  0.49910616959E+03  0.17791610052E+03 0.  0.
        -24    2    3    3    0    0  0.35095792916E+02 -0.72546663791E+02 -0.17430216779E+03  0.21002405337E+03  0.85053654772E+02 0.  0.
          6    2    1    2  502    0 -0.11607299784E+03  0.40051958001E+02 -0.22166923965E+02  0.21411650369E+03  0.17400403577E+03 0.  0.
         24    2    5    5    0    0 -0.90061428442E+02  0.85444142035E+02 -0.47928032812E+02  0.15561200093E+03  0.80661243497E+02 0.  0.
          2    1    6    6  501    0 -0.27305335612E+02  0.70303995667E+02 -0.50896375955E+02  0.90987220229E+02  0.00000000000E+00 0. -1.
         -1    1    6    6    0  501 -0.62756092831E+02  0.15140146368E+02  0.29683431431E+01  0.64624780700E+02  0.00000000000E+00 0.  1.
          5    1    5    5  502    0 -0.26011569402E+02 -0.45392184034E+02  0.25761108847E+02  0.58504502760E+02  0.47000000000E+01 0. -1.
         13    1    4    4    0    0 -0.81612139492E+01 -0.32081357895E+02 -0.88169058700E+01  0.34257214811E+02  0.00000000000E+00 0. -1.
        -14    1    4    4    0    0  0.43257006865E+02 -0.40465305897E+02 -0.16548526192E+03  0.17576683856E+03  0.00000000000E+00 0.  1.
         -5    1    3    3    0  504  0.80977204929E+02  0.32494705791E+02 -0.27555973272E+03  0.28908211622E+03  0.47000000000E+01 0.  1.
<mgrwt>
<rscale>  2 0.21536756E+03</rscale>
<asrwt>0</asrwt>
<pdfrwt beam="1">  1       21 0.18553373E-01 0.21617409E+03</pdfrwt>
<pdfrwt beam="2">  1       21 0.91173190E-01 0.21617409E+03</pdfrwt>
<totfact> 0.26704269E+04</totfact>
</mgrwt>
</event>
<event>
12    1  0.2743855E-001  0.1828219E+03  0.7546771E-02  0.1165129E+00
         21   -1    0    0  502  503  0.00000000000E+00  0.00000000000E+00  0.28981448010E+03  0.28981448010E+03  0.00000000000E+00 0.  1.
         21   -1    0    0  503  504 -0.00000000000E+00 -0.00000000000E+00 -0.17583958672E+03  0.17583958672E+03  0.00000000000E+00 0. -1.
         -6    2    1    2    0  504 -0.49857352760E+02 -0.29926115767E+02 -0.79669239819E+02  0.19942679275E+03  0.17332781041E+03 0.  0.
        -24    2    3    3    0    0 -0.59505688378E+02  0.27222729888E+02 -0.93292925282E+02  0.13970430330E+03  0.80819047764E+02 0.  0.
          6    2    1    2  502    0  0.49857352760E+02  0.29926115767E+02  0.19364413319E+03  0.26622727407E+03  0.17319810366E+03 0.  0.
         24    2    5    5    0    0  0.21523897892E+02  0.74803550253E+02  0.17917901732E+03  0.21101768824E+03  0.79777786323E+02 0.  0.
          4    1    6    6  501    0  0.35947537758E+02  0.23445392393E+02  0.29398132820E+02  0.52020785352E+02  0.00000000000E+00 0. -1.
         -3    1    6    6    0  501 -0.14423639866E+02  0.51358157860E+02  0.14978088450E+03  0.15899690289E+03  0.00000000000E+00 0.  1.
          5    1    5    5  502    0  0.28333454868E+02 -0.44877434486E+02  0.14465115873E+02  0.55209585835E+02  0.47000000000E+01 0. -1.
         11    1    4    4    0    0 -0.58740262312E+02 -0.96772055444E+00 -0.94728683429E+02  0.11146693843E+03  0.00000000000E+00 0. -1.
        -12    1    4    4    0    0 -0.76542606536E+00  0.28190450442E+02  0.14357581475E+01  0.28237364867E+02  0.00000000000E+00 0.  1.
         -5    1    3    3    0  504  0.96483356179E+01 -0.57148845655E+02  0.13623685463E+02  0.59722489445E+02  0.47000000000E+01 0.  1.
<mgrwt>
<rscale>  2 0.18279118E+03</rscale>
<asrwt>0</asrwt>
<pdfrwt beam="1">  1       21 0.44586843E-01 0.18282193E+03</pdfrwt>
<pdfrwt beam="2">  1       21 0.27052244E-01 0.18282193E+03</pdfrwt>
<totfact> 0.63150405E+04</totfact>
</mgrwt>
</event>
<event>
12    1  0.2743855E-001  0.1876558E+03  0.7546771E-02  0.1160820E+00
         21   -1    0    0  502  503  0.00000000000E+00  0.00000000000E+00  0.74128840294E+03  0.74128840294E+03  0.00000000000E+00 0.  1.
         21   -1    0    0  503  504 -0.00000000000E+00 -0.00000000000E+00 -0.47322748826E+02  0.47322748826E+02  0.00000000000E+00 0.  1.
         -6    2    1    2    0  504 -0.75902515914E+02  0.11320290560E+01  0.33116129752E+03  0.38014856428E+03  0.17053636720E+03 0.  0.
        -24    2    3    3    0    0 -0.49533418374E+02  0.37524710582E+02  0.91290282955E+02  0.13605851901E+03  0.79475413762E+02 0.  0.
          6    2    1    2  502    0  0.75902515914E+02 -0.11320290560E+01  0.36280435659E+03  0.40846258748E+03  0.17161646424E+03 0.  0.
         24    2    5    5    0    0  0.13344176900E+02 -0.54191824973E+02  0.13758892754E+03  0.16872738521E+03  0.80146095276E+02 0.  0.
          4    1    6    6  501    0  0.84905678254E+01 -0.67157886068E+02  0.13920254051E+03  0.15478894885E+03  0.00000000000E+00 0. -1.
         -3    1    6    6    0  501  0.48536090743E+01  0.12966061095E+02 -0.16136129679E+01  0.13938436360E+02  0.00000000000E+00 0.  1.
          5    1    5    5  502    0  0.62558339015E+02  0.53059795917E+02  0.22521542906E+03  0.23973520227E+03  0.47000000000E+01 0. -1.
         11    1    4    4    0    0 -0.18269726672E+02  0.56250332186E+02  0.76578839203E+02  0.96758469383E+02  0.00000000000E+00 0. -1.
        -12    1    4    4    0    0 -0.31263691702E+02 -0.18725621604E+02  0.14711443752E+02  0.39300049626E+02  0.00000000000E+00 0.  1.
         -5    1    3    3    0  504 -0.26369097540E+02 -0.36392681526E+02  0.23987101456E+03  0.24409004527E+03  0.47000000000E+01 0.  1.
<mgrwt>
<rscale>  2 0.18740845E+03</rscale>
<asrwt>0</asrwt>
<pdfrwt beam="1">  1       21 0.11404436E+00 0.18765576E+03</pdfrwt>
<pdfrwt beam="2">  1       21 0.72804235E-02 0.18765576E+03</pdfrwt>
<totfact> 0.84748268E+04</totfact>
</mgrwt>
</event>
<event>
12    1  0.2743855E-001  0.1949614E+03  0.7546771E-02  0.1154223E+00
         21   -1    0    0  502  503  0.00000000000E+00  0.00000000000E+00  0.12887440628E+03  0.12887440628E+03  0.00000000000E+00 0.  1.
         21   -1    0    0  503  504 -0.00000000000E+00 -0.00000000000E+00 -0.35632236176E+03  0.35632236176E+03  0.00000000000E+00 0. -1.
         -6    2    1    2    0  504  0.46238555712E+01 -0.88524506626E+02 -0.21515219779E+03  0.28984802734E+03  0.17281042337E+03 0.  0.
        -24    2    3    3    0    0  0.53587548606E+02 -0.81588075645E+01 -0.68546791929E+02  0.11557432350E+03  0.75634450239E+02 0.  0.
          6    2    1    2  502    0 -0.46238555712E+01  0.88524506626E+02 -0.12295757690E+02  0.19534874069E+03  0.17364324496E+03 0.  0.
         24    2    5    5    0    0  0.56573659586E+02  0.89619932808E+02 -0.34090329479E+01  0.13332132984E+03  0.80812401092E+02 0.  0.
          2    1    6    6  501    0  0.17011949114E+02 -0.45436208365E+01  0.21894812648E+02  0.28096863238E+02  0.00000000000E+00 0. -1.
         -1    1    6    6    0  501  0.39561710472E+02  0.94163553645E+02 -0.25303845596E+02  0.10522446661E+03  0.00000000000E+00 0.  1.
          5    1    5    5  502    0 -0.61197515157E+02 -0.10954261822E+01 -0.88867247419E+01  0.62027410849E+02  0.47000000000E+01 0. -1.
         11    1    4    4    0    0  0.54777394859E+02  0.76735444370E+01 -0.79092149126E+02  0.96514321865E+02  0.00000000000E+00 0. -1.
        -12    1    4    4    0    0 -0.11898462530E+01 -0.15832352002E+02  0.10545357197E+02  0.19060001638E+02  0.00000000000E+00 0.  1.
         -5    1    3    3    0  504 -0.48963693035E+02 -0.80365699062E+02 -0.14660540587E+03  0.17427370384E+03  0.47000000000E+01 0.  1.
<mgrwt>
<rscale>  2 0.19477578E+03</rscale>
<asrwt>0</asrwt>
<pdfrwt beam="1">  1       21 0.19826832E-01 0.19496139E+03</pdfrwt>
<pdfrwt beam="2">  1       21 0.54818825E-01 0.19496139E+03</pdfrwt>
<totfact> 0.73619491E+04</totfact>
</mgrwt>
</event>
<event>
12    1  0.2743855E-001  0.2372815E+03  0.7546771E-02  0.1122203E+00
         21   -1    0    0  502  503  0.00000000000E+00  0.00000000000E+00  0.54124221669E+02  0.54124221669E+02  0.00000000000E+00 0. -1.
         21   -1    0    0  503  504 -0.00000000000E+00 -0.00000000000E+00 -0.12608709443E+04  0.12608709443E+04  0.00000000000E+00 0.  1.
         -6    2    1    2    0  504 -0.96991988193E+02  0.12356686751E+03 -0.89118936905E+03  0.92223694927E+03  0.17783779851E+03 0.  0.
        -24    2    3    3    0    0 -0.73796344596E+02  0.15816000813E+03 -0.66818561271E+03  0.69532840249E+03  0.80926421125E+02 0.  0.
          6    2    1    2  502    0  0.96991988193E+02 -0.12356686751E+03 -0.31555735355E+03  0.39275821666E+03  0.17322343045E+03 0.  0.
         24    2    5    5    0    0  0.13120477703E+03 -0.12634070960E+03 -0.26222118594E+03  0.32915754139E+03  0.80050410870E+02 0.  0.
          2    1    6    6  501    0  0.43814377035E+02 -0.24229377426E+02 -0.23739052167E+02  0.55410332639E+02  0.00000000000E+00 0. -1.
         -1    1    6    6    0  501  0.87390399991E+02 -0.10211133218E+03 -0.23848213378E+03  0.27374720875E+03  0.00000000000E+00 0.  1.
          5    1    5    5  502    0 -0.34212788833E+02  0.27738420920E+01 -0.53336167603E+02  0.63600675266E+02  0.47000000000E+01 0. -1.
         11    1    4    4    0    0 -0.25428781853E+02  0.13726718739E+03 -0.49439521160E+03  0.51372709577E+03  0.00000000000E+00 0. -1.
        -12    1    4    4    0    0 -0.48367562743E+02  0.20892820736E+02 -0.17379040111E+03  0.18160130672E+03  0.00000000000E+00 0.  1.
         -5    1    3    3    0  504 -0.23195643597E+02 -0.34593140619E+02 -0.22300375634E+03  0.22690854678E+03  0.47000000000E+01 0.  1.
<mgrwt>
<rscale>  2 0.23641716E+03</rscale>
<asrwt>0</asrwt>
<pdfrwt beam="1">  1       21 0.83268042E-02 0.23728148E+03</pdfrwt>
<pdfrwt beam="2">  1       21 0.19398012E+00 0.23728148E+03</pdfrwt>
<totfact> 0.15916850E+04</totfact>
</mgrwt>
</event>
<event>
12    1  0.2743855E-001  0.2173765E+03  0.7546771E-02  0.1135969E+00
         21   -1    0    0  502  503  0.00000000000E+00  0.00000000000E+00  0.17004833053E+03  0.17004833053E+03  0.00000000000E+00 0. -1.
         21   -1    0    0  503  504 -0.00000000000E+00 -0.00000000000E+00 -0.28221747281E+03  0.28221747281E+03  0.00000000000E+00 0.  1.
         -6    2    1    2    0  504 -0.10919828022E+03  0.72422821320E+02 -0.86599493365E+02  0.23399149296E+03  0.17344514141E+03 0.  0.
        -24    2    3    3    0    0 -0.71607571767E+02  0.11772423693E+03 -0.62374814819E+02  0.17016199611E+03  0.77960548352E+02 0.  0.
          6    2    1    2  502    0  0.10919828022E+03 -0.72422821320E+02 -0.25569648921E+02  0.21827431038E+03  0.17268624199E+03 0.  0.
         24    2    5    5    0    0  0.16220290745E+02 -0.89325878720E+02 -0.18574934118E+02  0.12339735895E+03  0.81484167654E+02 0.  0.
          2    1    6    6  501    0 -0.11268582199E+02  0.36893439831E+01 -0.23455878934E+02  0.26282512444E+02  0.00000000000E+00 0. -1.
         -1    1    6    6    0  501  0.27488872944E+02 -0.93015222703E+02  0.48809448163E+01  0.97114846509E+02  0.00000000000E+00 0.  1.
          5    1    5    5  502    0  0.92977989476E+02  0.16903057400E+02 -0.69947148029E+01  0.94876951424E+02  0.47000000000E+01 0. -1.
         11    1    4    4    0    0 -0.60893218341E+02  0.28358402989E+02 -0.16640687297E+02  0.69203291350E+02  0.00000000000E+00 0. -1.
        -12    1    4    4    0    0 -0.10714353426E+02  0.89365833943E+02 -0.45734127523E+02  0.10095870476E+03  0.00000000000E+00 0.  1.
         -5    1    3    3    0  504 -0.37590708454E+02 -0.45301415612E+02 -0.24224678546E+02  0.63829496858E+02  0.47000000000E+01 0.  1.
<mgrwt>
<rscale>  2 0.21722509E+03</rscale>
<asrwt>0</asrwt>
<pdfrwt beam="1">  1       21 0.26161282E-01 0.21737651E+03</pdfrwt>
<pdfrwt beam="2">  1       21 0.43418072E-01 0.21737651E+03</pdfrwt>
<totfact> 0.70047272E+04</totfact>
</mgrwt>
</event>
<event>
12    1  0.2743855E-001  0.2155864E+03  0.7546771E-02  0.1137692E+00
         21   -1    0    0  502  503  0.00000000000E+00  0.00000000000E+00  0.10376199561E+03  0.10376199561E+03  0.00000000000E+00 0. -1.
         21   -1    0    0  503  504 -0.00000000000E+00 -0.00000000000E+00 -0.44344132736E+03  0.44344132736E+03  0.00000000000E+00 0.  1.
         -6    2    1    2    0  504 -0.11801832071E+03 -0.47599039989E+02 -0.18109729621E+03  0.28155592547E+03  0.17402159590E+03 0.  0.
        -24    2    3    3    0    0 -0.59432087996E+02 -0.95179248256E+02 -0.10111014843E+03  0.17148205622E+03  0.81188491217E+02 0.  0.
          6    2    1    2  502    0  0.11801832071E+03  0.47599039989E+02 -0.15858203554E+03  0.26564739750E+03  0.17095696878E+03 0.  0.
         24    2    5    5    0    0  0.68071276107E+02  0.85771948303E+02 -0.14942090227E+03  0.20194579190E+03  0.80405043909E+02 0.  0.
          4    1    6    6  501    0  0.13213640875E+02 -0.45938790698E+01 -0.65483799661E+02  0.66961422088E+02  0.00000000000E+00 0. -1.
         -3    1    6    6    0  501  0.54857635231E+02  0.90365827373E+02 -0.83937102607E+02  0.13498436981E+03  0.00000000000E+00 0.  1.
          5    1    5    5  502    0  0.49947044602E+02 -0.38172908314E+02 -0.91611332678E+01  0.63701605603E+02  0.47000000000E+01 0. -1.
         13    1    4    4    0    0 -0.46580840479E+02 -0.33246744735E+02 -0.63899977672E+01  0.57584310421E+02  0.00000000000E+00 0. -1.
        -14    1    4    4    0    0 -0.12851247517E+02 -0.61932503522E+02 -0.94720150666E+02  0.11389774580E+03  0.00000000000E+00 0.  1.
         -5    1    3    3    0  504 -0.58586232713E+02  0.47580208267E+02 -0.79987147775E+02  0.11007386925E+03  0.47000000000E+01 0.  1.
<mgrwt>
<rscale>  2 0.21496724E+03</rscale>
<asrwt>0</asrwt>
<pdfrwt beam="1">  1       21 0.15963384E-01 0.21558643E+03</pdfrwt>
<pdfrwt beam="2">  1       21 0.68221742E-01 0.21558643E+03</pdfrwt>
<totfact> 0.67954344E+04</totfact>
</mgrwt>
</event>
<event>
12    1  0.2743855E-001  0.1937746E+03  0.7546771E-02  0.1155382E+00
         21   -1    0    0  502  503  0.00000000000E+00  0.00000000000E+00  0.34842391123E+03  0.34842391123E+03  0.00000000000E+00 0.  1.
         21   -1    0    0  503  504 -0.00000000000E+00 -0.00000000000E+00 -0.20432678348E+03  0.20432678348E+03  0.00000000000E+00 0.  1.
         -6    2    1    2    0  504 -0.51590598918E+02  0.69009589462E+02  0.26261221386E+03  0.32560660855E+03  0.17213534015E+03 0.  0.
        -24    2    3    3    0    0 -0.91631074908E+02  0.84927696420E+02  0.19902227833E+03  0.24864950526E+03  0.81288016861E+02 0.  0.
          6    2    1    2  502    0  0.51590598918E+02 -0.69009589462E+02 -0.11851508612E+03  0.22714408616E+03  0.17356467643E+03 0.  0.
         24    2    5    5    0    0  0.45985231398E+01 -0.77812702622E+02 -0.13562778999E+03  0.17614717820E+03  0.80975106463E+02 0.  0.
          2    1    6    6  501    0  0.12761466522E+01 -0.96864850955E+00 -0.82849154226E+02  0.82864643764E+02  0.00000000000E+00 0. -1.
         -1    1    6    6    0  501  0.33223764876E+01 -0.76844054113E+02 -0.52778635761E+02  0.93282534436E+02  0.00000000000E+00 0.  1.
          5    1    5    5  502    0  0.46992075778E+02  0.88031131600E+01  0.17112703870E+02  0.50996907955E+02  0.47000000000E+01 0. -1.
         13    1    4    4    0    0 -0.71398885701E+02  0.14840744103E+02  0.12503547407E+03  0.14474777490E+03  0.00000000000E+00 0. -1.
        -14    1    4    4    0    0 -0.20232189207E+02  0.70086952317E+02  0.73986804263E+02  0.10390173035E+03  0.00000000000E+00 0.  1.
         -5    1    3    3    0  504  0.40040475990E+02 -0.15918106958E+02  0.63589935532E+02  0.76957103295E+02  0.47000000000E+01 0.  1.
<mgrwt>
<rscale>  2 0.19345404E+03</rscale>
<asrwt>0</asrwt>
<pdfrwt beam="1">  1       21 0.53603679E-01 0.19377464E+03</pdfrwt>
<pdfrwt beam="2">  1       21 0.31434890E-01 0.19377464E+03</pdfrwt>
<totfact> 0.32013519E+04</totfact>
</mgrwt>
</event>
<event>
12    1  0.2743855E-001  0.1775202E+03  0.7546771E-02  0.1170430E+00
         21   -1    0    0  502  503  0.00000000000E+00  0.00000000000E+00  0.31093716206E+03  0.31093716206E+03  0.00000000000E+00 0. -1.
         21   -1    0    0  503  504 -0.00000000000E+00 -0.00000000000E+00 -0.10117403423E+03  0.10117403423E+03  0.00000000000E+00 0. -1.
         -6    2    1    2    0  504  0.24945450897E+02 -0.25847595982E+02  0.93448965208E+02  0.19987926358E+03  0.17299895137E+03 0.  0.
        -24    2    3    3    0    0  0.88260913533E+01  0.49893022181E+02  0.26302162366E+02  0.97276836108E+02  0.78763986358E+02 0.  0.
          6    2    1    2  502    0 -0.24945450897E+02  0.25847595982E+02  0.11631416262E+03  0.21223193271E+03  0.17384773538E+03 0.  0.
         24    2    5    5    0    0 -0.14507750645E+02 -0.38441961588E+02  0.11524918947E+03  0.14692253854E+03  0.81336322864E+02 0.  0.
          4    1    6    6  501    0 -0.17899440752E+02  0.22638369590E+02  0.48033064980E+02  0.56036247986E+02  0.00000000000E+00 0. -1.
         -3    1    6    6    0  501  0.33916901069E+01 -0.61080331178E+02  0.67216124494E+02  0.90886290554E+02  0.00000000000E+00 0.  1.
          5    1    5    5  502    0 -0.10437700252E+02  0.64289557570E+02  0.10649731422E+01  0.65309394170E+02  0.47000000000E+01 0. -1.
         11    1    4    4    0    0  0.28519751576E+02 -0.41814058068E+01 -0.84640237343E+01  0.30041639141E+02  0.00000000000E+00 0. -1.
        -12    1    4    4    0    0 -0.19693660223E+02  0.54074427988E+02  0.34766186101E+02  0.67235196967E+02  0.00000000000E+00 0.  1.
         -5    1    3    3    0  504  0.16119359544E+02 -0.75740618163E+02  0.67146802841E+02  0.10260242747E+03  0.47000000000E+01 0.  1.
<mgrwt>
<rscale>  2 0.17731201E+03</rscale>
<asrwt>0</asrwt>
<pdfrwt beam="1">  1       21 0.47836486E-01 0.17752016E+03</pdfrwt>
<pdfrwt beam="2">  1       21 0.15565236E-01 0.17752016E+03</pdfrwt>
<totfact> 0.15393085E+05</totfact>
</mgrwt>
</event>
<event>
12    1  0.2743855E-001  0.2471499E+03  0.7546771E-02  0.1115170E+00
         21   -1    0    0  502  503  0.00000000000E+00  0.00000000000E+00  0.61632334428E+03  0.61632334428E+03  0.00000000000E+00 0. -1.
         21   -1    0    0  503  504 -0.00000000000E+00 -0.00000000000E+00 -0.11019663666E+03  0.11019663666E+03  0.00000000000E+00 0.  1.
         -6    2    1    2    0  504 -0.13097709444E+03 -0.11816002101E+03  0.13704136812E+03  0.28232741229E+03  0.17266047990E+03 0.  0.
        -24    2    3    3    0    0 -0.37267528760E+02 -0.12316941176E+03  0.83235311032E+02  0.17405110613E+03  0.82499077870E+02 0.  0.
          6    2    1    2  502    0  0.13097709444E+03  0.11816002101E+03  0.36908533949E+03  0.44419256865E+03  0.17310765545E+03 0.  0.
         24    2    5    5    0    0  0.71612237707E+02  0.13767796202E+02  0.94360173089E+02  0.14432938339E+03  0.81297379062E+02 0.  0.
          2    1    6    6  501    0 -0.17100242979E+02  0.92036648642E+01  0.24836729743E+02  0.31527589524E+02  0.00000000000E+00 0. -1.
         -1    1    6    6    0  501  0.88712480686E+02  0.45641313381E+01  0.69523443346E+02  0.11280179386E+03  0.00000000000E+00 0.  1.
          5    1    5    5  502    0  0.59364856736E+02  0.10439222481E+03  0.27472516640E+03  0.29986318526E+03  0.47000000000E+01 0. -1.
         13    1    4    4    0    0  0.12793091798E+02 -0.53288937498E+01  0.34284344542E+02  0.36979407608E+02  0.00000000000E+00 0. -1.
        -14    1    4    4    0    0 -0.50060620558E+02 -0.11784051801E+03  0.48950966489E+02  0.13707169852E+03  0.00000000000E+00 0.  1.
         -5    1    3    3    0  504 -0.93709565683E+02  0.50093907450E+01  0.53806057093E+02  0.10827630616E+03  0.47000000000E+01 0.  1.
<mgrwt>
<rscale>  2 0.24707157E+03</rscale>
<asrwt>0</asrwt>
<pdfrwt beam="1">  1       21 0.94818974E-01 0.24714985E+03</pdfrwt>
<pdfrwt beam="2">  1       21 0.16953329E-01 0.24714985E+03</pdfrwt>
<totfact> 0.28350084E+04</totfact>
</mgrwt>
</event>
<event>
12    1  0.2743855E-001  0.2205778E+03  0.7546771E-02  0.1133847E+00
         21   -1    0    0  502  503  0.00000000000E+00  0.00000000000E+00  0.78779783742E+03  0.78779783742E+03  0.00000000000E+00 0.  1.
         21   -1    0    0  503  504 -0.00000000000E+00 -0.00000000000E+00 -0.13234998007E+03  0.13234998007E+03  0.00000000000E+00 0. -1.
         -6    2    1    2    0  504  0.13270814001E+03 -0.26207032561E+02 -0.10401875804E+02  0.21871325164E+03  0.17154890977E+03 0.  0.
        -24    2    3    3    0    0 -0.33472058233E+01 -0.58775530286E+01 -0.73923660021E+01  0.81034306206E+02  0.80412451092E+02 0.  0.
          6    2    1    2  502    0 -0.13270814001E+03  0.26207032561E+02  0.66584973315E+03  0.70143456585E+03  0.17423066337E+03 0.  0.
         24    2    5    5    0    0 -0.14084424101E+03 -0.28007143926E+02  0.48610794632E+03  0.51345963932E+03  0.81965635483E+02 0.  0.
          2    1    6    6  501    0 -0.33253866348E+02  0.71384217323E+01  0.36780217564E+02  0.50095519719E+02  0.00000000000E+00 0. -1.
         -1    1    6    6    0  501 -0.10759037466E+03 -0.35145565659E+02  0.44932772876E+03  0.46336411960E+03  0.00000000000E+00 0.  1.
          5    1    5    5  502    0  0.81361010002E+01  0.54214176487E+02  0.17974178683E+03  0.18797492653E+03  0.47000000000E+01 0. -1.
         13    1    4    4    0    0  0.38387382731E+02 -0.21645619117E+01 -0.72975130801E+01  0.39134769431E+02  0.00000000000E+00 0. -1.
        -14    1    4    4    0    0 -0.41734588555E+02 -0.37129911169E+01 -0.94852922018E-01  0.41899536775E+02  0.00000000000E+00 0.  1.
         -5    1    3    3    0  504  0.13605534583E+03 -0.20329479533E+02 -0.30095098020E+01  0.13767894544E+03  0.47000000000E+01 0.  1.
<mgrwt>
<rscale>  2 0.22004791E+03</rscale>
<asrwt>0</asrwt>
<pdfrwt beam="1">  1       21 0.12119966E+00 0.22057784E+03</pdfrwt>
<pdfrwt beam="2">  1       21 0.20361536E-01 0.22057784E+03</pdfrwt>
<totfact> 0.11283330E+04</totfact>
</mgrwt>
</event>
<event>
12    1  0.2743855E-001  0.1958903E+03  0.7546771E-02  0.1153323E+00
         21   -1    0    0  502  503  0.00000000000E+00  0.00000000000E+00  0.10847450025E+04  0.10847450025E+04  0.00000000000E+00 0. -1.
         21   -1    0    0  503  504 -0.00000000000E+00 -0.00000000000E+00 -0.31505630498E+03  0.31505630498E+03  0.00000000000E+00 0. -1.
         -6    2    1    2    0  504  0.84303949757E+02 -0.38352850801E+02 -0.27469749736E+03  0.33720282477E+03  0.17224672091E+03 0.  0.
        -24    2    3    3    0    0  0.66941281775E+02  0.43279703411E+02 -0.15185934106E+03  0.18862073032E+03  0.78500015962E+02 0.  0.
          6    2    1    2  502    0 -0.84303949757E+02  0.38352850801E+02  0.10443861949E+04  0.10625984827E+04  0.17261203406E+03 0.  0.
         24    2    5    5    0    0  0.13413129072E+02 -0.18660957229E+02  0.46260637317E+03  0.46990205725E+03  0.79215803734E+02 0.  0.
          2    1    6    6  501    0  0.36104812047E+02 -0.30067867071E+02  0.39315423856E+03  0.39595187761E+03  0.00000000000E+00 0. -1.
         -1    1    6    6    0  501 -0.22691682975E+02  0.11406909842E+02  0.69452134605E+02  0.73950179645E+02  0.00000000000E+00 0.  1.
          5    1    5    5  502    0 -0.97717078829E+02  0.57013808031E+02  0.58177982173E+03  0.59269642548E+03  0.47000000000E+01 0. -1.
         13    1    4    4    0    0  0.79386546153E+02  0.15401530923E+02 -0.10214760949E+03  0.13028263503E+03  0.00000000000E+00 0. -1.
        -14    1    4    4    0    0 -0.12445264378E+02  0.27878172488E+02 -0.49711731572E+02  0.58338095295E+02  0.00000000000E+00 0.  1.
         -5    1    3    3    0  504  0.17362667981E+02 -0.81632554212E+02 -0.12283815630E+03  0.14858209444E+03  0.47000000000E+01 0.  1.
<mgrwt>
<rscale>  2 0.19580980E+03</rscale>
<asrwt>0</asrwt>
<pdfrwt beam="1">  1       21 0.16688384E+00 0.19589030E+03</pdfrwt>
<pdfrwt beam="2">  1       21 0.48470201E-01 0.19589030E+03</pdfrwt>
<totfact> 0.90934177E+02</totfact>
</mgrwt>
</event>
<event>
12    1  0.2743855E-001  0.1920527E+03  0.7546771E-02  0.1156813E+00
         21   -1    0    0  502  503  0.00000000000E+00  0.00000000000E+00  0.65027631087E+03  0.65027631087E+03  0.00000000000E+00 0. -1.
         21   -1    0    0  503  504 -0.00000000000E+00 -0.00000000000E+00 -0.59880786578E+02  0.59880786578E+02  0.00000000000E+00 0. -1.
         -6    2    1    2    0  504  0.32601900599E+01 -0.82598767576E+02  0.37932590069E+03  0.42478954580E+03  0.17240891521E+03 0.  0.
        -24    2    3    3    0    0  0.38929660311E+02 -0.31307207560E+02  0.33289359178E+03  0.34680759566E+03  0.83436833970E+02 0.  0.
          6    2    1    2  502    0 -0.32601900599E+01  0.82598767576E+02  0.21106962361E+03  0.28536755165E+03  0.17335243950E+03 0.  0.
         24    2    5    5    0    0 -0.64246550705E+01  0.74320312163E+01  0.20974536059E+02  0.80872357568E+02  0.77484809962E+02 0.  0.
          2    1    6    6  501    0  0.13598156624E+02 -0.27148336808E+02  0.26789920795E+02  0.40492492035E+02  0.00000000000E+00 0. -1.
         -1    1    6    6    0  501 -0.20022811694E+02  0.34580368024E+02 -0.58153847361E+01  0.40379865533E+02  0.00000000000E+00 0.  1.
          5    1    5    5  502    0  0.31644650106E+01  0.75166736360E+02  0.19009508755E+03  0.20449519408E+03  0.47000000000E+01 0. -1.
         11    1    4    4    0    0 -0.16094868136E+02 -0.36826346007E+02  0.17347976888E+03  0.17807429559E+03  0.00000000000E+00 0. -1.
        -12    1    4    4    0    0  0.55024528447E+02  0.55191384477E+01  0.15941382290E+03  0.16873330007E+03  0.00000000000E+00 0.  1.
         -5    1    3    3    0  504 -0.35669470251E+02 -0.51291560016E+02  0.46432308908E+02  0.77981950139E+02  0.47000000000E+01 0.  1.
<mgrwt>
<rscale>  2 0.19183958E+03</rscale>
<asrwt>0</asrwt>
<pdfrwt beam="1">  1       21 0.10004250E+00 0.19205274E+03</pdfrwt>
<pdfrwt beam="2">  1       21 0.92124292E-02 0.19205274E+03</pdfrwt>
<totfact> 0.76922446E+04</totfact>
</mgrwt>
</event>
<event>
12    1  0.2743855E-001  0.1769242E+03  0.7546771E-02  0.1171256E+00
         21   -1    0    0  502  503  0.00000000000E+00  0.00000000000E+00  0.37169337715E+03  0.37169337715E+03  0.00000000000E+00 0.  1.
         21   -1    0    0  503  504 -0.00000000000E+00 -0.00000000000E+00 -0.11823570121E+03  0.11823570121E+03  0.00000000000E+00 0.  1.
         -6    2    1    2    0  504  0.17788953320E+01  0.29324768538E+02 -0.58400377411E+01  0.17702058607E+03  0.17446797796E+03 0.  0.
        -24    2    3    3    0    0 -0.10292777203E+02  0.84065915006E+02  0.11710639330E+02  0.11809321840E+03  0.81460725698E+02 0.  0.
          6    2    1    2  502    0 -0.17788953320E+01 -0.29324768538E+02  0.25929771368E+03  0.31290849229E+03  0.17266532283E+03 0.  0.
         24    2    5    5    0    0 -0.43846151713E+02 -0.12685910609E+02  0.25074280784E+03  0.26662910091E+03  0.78330737401E+02 0.  0.
          4    1    6    6  501    0 -0.12017653497E+02  0.32134358649E+02  0.74672774295E+02  0.82177029773E+02  0.00000000000E+00 0. -1.
         -3    1    6    6    0  501 -0.31828498216E+02 -0.44820269259E+02  0.17607003354E+03  0.18445207114E+03  0.00000000000E+00 0.  1.
          5    1    5    5  502    0  0.42067256381E+02 -0.16638857929E+02  0.85549058436E+01  0.46279391381E+02  0.47000000000E+01 0. -1.
         11    1    4    4    0    0 -0.73669219374E+01  0.25952719927E+02  0.43951793523E+02  0.51571071002E+02  0.00000000000E+00 0. -1.
        -12    1    4    4    0    0 -0.29258552656E+01  0.58113195079E+02 -0.32241154193E+02  0.66522147402E+02  0.00000000000E+00 0.  1.
         -5    1    3    3    0  504  0.12071672535E+02 -0.54741146467E+02 -0.17550677071E+02  0.58927367666E+02  0.47000000000E+01 0.  1.
<mgrwt>
<rscale>  2 0.17647820E+03</rscale>
<asrwt>0</asrwt>
<pdfrwt beam="1">  1       21 0.57183596E-01 0.17692423E+03</pdfrwt>
<pdfrwt beam="2">  1       21 0.18190108E-01 0.17692423E+03</pdfrwt>
<totfact> 0.79593286E+04</totfact>
</mgrwt>
</event>
<event>
12    1  0.2743855E-001  0.3329564E+03  0.7546771E-02  0.1069854E+00
         21   -1    0    0  502  503  0.00000000000E+00  0.00000000000E+00  0.35016200660E+03  0.35016200660E+03  0.00000000000E+00 0.  1.
         21   -1    0    0  503  504 -0.00000000000E+00 -0.00000000000E+00 -0.31944291258E+03  0.31944291258E+03  0.00000000000E+00 0. -1.
         -6    2    1    2    0  504  0.43253692236E+02 -0.28126510896E+03  0.47820009171E+02  0.33637287768E+03  0.17285547764E+03 0.  0.
        -24    2    3    3    0    0 -0.11673502929E+02 -0.14437503054E+03 -0.31589654709E+02  0.16879043511E+03  0.80696248900E+02 0.  0.
          6    2    1    2  502    0 -0.43253692236E+02  0.28126510896E+03 -0.17100915152E+02  0.33323204151E+03  0.17254045549E+03 0.  0.
         24    2    5    5    0    0 -0.73049614085E+02  0.97538667116E+02 -0.19228641467E+02  0.14703370744E+03  0.79994579628E+02 0.  0.
          2    1    6    6  501    0 -0.78170970374E+02  0.10072964259E+03 -0.33251180270E+02  0.13176798737E+03  0.00000000000E+00 0. -1.
         -1    1    6    6    0  501  0.51213562887E+01 -0.31909754786E+01  0.14022538802E+02  0.15265720068E+02  0.00000000000E+00 0.  1.
          5    1    5    5  502    0  0.29795921849E+02  0.18372644184E+03  0.21277263156E+01  0.18619833407E+03  0.47000000000E+01 0. -1.
         13    1    4    4    0    0 -0.35719223727E+02 -0.34831039978E+02 -0.26573566623E+02  0.56526265866E+02  0.00000000000E+00 0. -1.
        -14    1    4    4    0    0  0.24045720798E+02 -0.10954399056E+03 -0.50160880854E+01  0.11226416925E+03  0.00000000000E+00 0.  1.
         -5    1    3    3    0  504  0.54927195165E+02 -0.13689007842E+03  0.79409663879E+02  0.16758244257E+03  0.47000000000E+01 0.  1.
<mgrwt>
<rscale>  2 0.33291553E+03</rscale>
<asrwt>0</asrwt>
<pdfrwt beam="1">  1       21 0.53871078E-01 0.33295639E+03</pdfrwt>
<pdfrwt beam="2">  1       21 0.49145063E-01 0.33295639E+03</pdfrwt>
<totfact> 0.11979148E+04</totfact>
</mgrwt>
</event>
<event>
12    1  0.2743855E-001  0.3009356E+03  0.7546771E-02  0.1085068E+00
         21   -1    0    0  502  503  0.00000000000E+00  0.00000000000E+00  0.10566869055E+03  0.10566869055E+03  0.00000000000E+00 0. -1.
         21   -1    0    0  503  504 -0.00000000000E+00 -0.00000000000E+00 -0.12368321427E+04  0.12368321427E+04  0.00000000000E+00 0. -1.
         -6    2    1    2    0  504  0.23958950319E+03  0.41092619216E+02 -0.94233697178E+03  0.98922252819E+03  0.17739929119E+03 0.  0.
        -24    2    3    3    0    0  0.24779261048E+03  0.24617795831E+01 -0.79179476763E+03  0.83351550212E+03  0.80011874477E+02 0.  0.
          6    2    1    2  502    0 -0.23958950319E+03 -0.41092619216E+02 -0.18882648038E+03  0.35327830506E+03  0.17337354971E+03 0.  0.
         24    2    5    5    0    0 -0.96558882084E+02  0.35729085969E+02 -0.48935903337E+02  0.13891693609E+03  0.79391480674E+02 0.  0.
          2    1    6    6  501    0 -0.69940506526E+02 -0.75760111104E+01 -0.52768614843E+02  0.87940872806E+02  0.00000000000E+00 0. -1.
         -1    1    6    6    0  501 -0.26618375558E+02  0.43305097079E+02  0.38327115055E+01  0.50976063284E+02  0.00000000000E+00 0.  1.
          5    1    5    5  502    0 -0.14303062110E+03 -0.76821705185E+02 -0.13989057704E+03  0.21436136897E+03  0.47000000000E+01 0. -1.
         13    1    4    4    0    0  0.14899608552E+02 -0.11108668694E+01 -0.15035675784E+03  0.15109727658E+03  0.00000000000E+00 0. -1.
        -14    1    4    4    0    0  0.23289300193E+03  0.35726464525E+01 -0.64143800979E+03  0.68241822554E+03  0.00000000000E+00 0.  1.
         -5    1    3    3    0  504 -0.82031072893E+01  0.38630839633E+02 -0.15054220415E+03  0.15570702608E+03  0.47000000000E+01 0.  1.
<mgrwt>
<rscale>  2 0.30034502E+03</rscale>
<asrwt>0</asrwt>
<pdfrwt beam="1">  1       21 0.16256722E-01 0.30093561E+03</pdfrwt>
<pdfrwt beam="2">  1       21 0.19028187E+00 0.30093561E+03</pdfrwt>
<totfact> 0.48576457E+03</totfact>
</mgrwt>
</event>
<event>
12    1  0.2743855E-001  0.1829393E+03  0.7546771E-02  0.1165613E+00
         21   -1    0    0  502  503  0.00000000000E+00  0.00000000000E+00  0.64268241201E+02  0.64268241201E+02  0.00000000000E+00 0. -1.
         21   -1    0    0  503  504 -0.00000000000E+00 -0.00000000000E+00 -0.53875571185E+03  0.53875571185E+03  0.00000000000E+00 0. -1.
         -6    2    1    2    0  504  0.59629489748E+02  0.47917932498E+00 -0.17010421661E+03  0.24789585343E+03  0.17017932889E+03 0.  0.
        -24    2    3    3    0    0  0.66427316426E+02  0.41401782826E+02 -0.17192356122E+03  0.20610745864E+03  0.82437113096E+02 0.  0.
          6    2    1    2  502    0 -0.59629489748E+02 -0.47917932498E+00 -0.30438325403E+03  0.35512809961E+03  0.17294766879E+03 0.  0.
         24    2    5    5    0    0  0.25941201117E+02  0.20614336162E+02 -0.96877381044E+02  0.12963296251E+03  0.79508372147E+02 0.  0.
          4    1    6    6  501    0 -0.21132624124E+02  0.30718732621E+02 -0.50588586068E+02  0.62844517474E+02  0.00000000000E+00 0. -1.
         -3    1    6    6    0  501  0.47073825241E+02 -0.10104396458E+02 -0.46288794976E+02  0.66788445041E+02  0.00000000000E+00 0.  1.
          5    1    5    5  502    0 -0.85570690865E+02 -0.21093515487E+02 -0.20750587299E+03  0.22549513710E+03  0.47000000000E+01 0. -1.
         11    1    4    4    0    0  0.30104891824E+02  0.36085836079E+02 -0.16113131170E+03  0.16784454620E+03  0.00000000000E+00 0. -1.
        -12    1    4    4    0    0  0.36322424602E+02  0.53159467473E+01 -0.10792249515E+02  0.38262912440E+02  0.00000000000E+00 0.  1.
         -5    1    3    3    0  504 -0.67978266782E+01 -0.40922603501E+02  0.18193446053E+01  0.41788394796E+02  0.47000000000E+01 0.  1.
<mgrwt>
<rscale>  2 0.18228208E+03</rscale>
<asrwt>0</asrwt>
<pdfrwt beam="1">  1       21 0.98874213E-02 0.18293934E+03</pdfrwt>
<pdfrwt beam="2">  1       21 0.82885498E-01 0.18293934E+03</pdfrwt>
<totfact> 0.10546191E+05</totfact>
</mgrwt>
</event>
<event>
12    1  0.2743855E-001  0.1778010E+03  0.7546771E-02  0.1169994E+00
         21   -1    0    0  502  503  0.00000000000E+00  0.00000000000E+00  0.54654190585E+02  0.54654190585E+02  0.00000000000E+00 0. -1.
         21   -1    0    0  503  504 -0.00000000000E+00 -0.00000000000E+00 -0.57781484406E+03  0.57781484406E+03  0.00000000000E+00 0. -1.
         -6    2    1    2    0  504  0.10903390836E+02 -0.40499152970E+02 -0.26165690903E+03  0.31635034278E+03  0.17278349461E+03 0.  0.
        -24    2    3    3    0    0  0.62116573163E+02 -0.35339049375E+02 -0.10003188392E+03  0.14666193583E+03  0.79975174569E+02 0.  0.
          6    2    1    2  502    0 -0.10903390836E+02  0.40499152970E+02 -0.26150374445E+03  0.31611869187E+03  0.17259129081E+03 0.  0.
         24    2    5    5    0    0 -0.43071170933E+01 -0.29748549531E+02 -0.21540357523E+03  0.23170562335E+03  0.79907873303E+02 0.  0.
          4    1    6    6  501    0 -0.95310172561E+01 -0.35801246008E+02 -0.21958121345E+03  0.22268470717E+03  0.00000000000E+00 0. -1.
         -3    1    6    6    0  501  0.52239001628E+01  0.60526964763E+01  0.41776382297E+01  0.90209161798E+01  0.00000000000E+00 0.  1.
          5    1    5    5  502    0 -0.65962737423E+01  0.70247702502E+02 -0.46100169222E+02  0.84413068516E+02  0.47000000000E+01 0. -1.
         13    1    4    4    0    0  0.29446474903E+02  0.23143012287E+02 -0.20565713055E+02  0.42727537437E+02  0.00000000000E+00 0. -1.
        -14    1    4    4    0    0  0.32670098260E+02 -0.58482061662E+02 -0.79466170868E+02  0.10393439839E+03  0.00000000000E+00 0.  1.
         -5    1    3    3    0  504 -0.51213182327E+02 -0.51601035955E+01 -0.16162502510E+03  0.16968840695E+03  0.47000000000E+01 0.  1.
<mgrwt>
<rscale>  2 0.17775430E+03</rscale>
<asrwt>0</asrwt>
<pdfrwt beam="1">  1       21 0.84083375E-02 0.17780102E+03</pdfrwt>
<pdfrwt beam="2">  1       21 0.88894586E-01 0.17780102E+03</pdfrwt>
<totfact> 0.11961449E+05</totfact>
</mgrwt>
</event>
<event>
12    1  0.2743855E-001  0.1830798E+03  0.7546771E-02  0.1165474E+00
         21   -1    0    0  502  503  0.00000000000E+00  0.00000000000E+00  0.11890852667E+04  0.11890852667E+04  0.00000000000E+00 0. -1.
         21   -1    0    0  503  504 -0.00000000000E+00 -0.00000000000E+00 -0.32119026099E+02  0.32119026099E+02  0.00000000000E+00 0. -1.
         -6    2    1    2    0  504 -0.50318145319E+02  0.11653297030E+02  0.35074637969E+03  0.39445845250E+03  0.17293563198E+03 0.  0.
        -24    2    3    3    0    0 -0.90633349179E+02 -0.96788141042E+00  0.31971953393E+03  0.34183369631E+03  0.80089667080E+02 0.  0.
          6    2    1    2  502    0  0.50318145319E+02 -0.11653297030E+02  0.80621986087E+03  0.82674584025E+03  0.17564311894E+03 0.  0.
         24    2    5    5    0    0  0.14871879067E+02  0.46008612973E+02  0.64647624677E+03  0.65319052946E+03  0.79927247489E+02 0.  0.
          2    1    6    6  501    0  0.40770748763E+01  0.15030725336E+02  0.56695046845E+03  0.56716433150E+03  0.00000000000E+00 0. -1.
         -1    1    6    6    0  501  0.10794804190E+02  0.30977887637E+02  0.79525778312E+02  0.86026197964E+02  0.00000000000E+00 0.  1.
          5    1    5    5  502    0  0.35446266252E+02 -0.57661910002E+02  0.15974361410E+03  0.17355531079E+03  0.47000000000E+01 0. -1.
         13    1    4    4    0    0 -0.37926372459E+02  0.24565561352E+02  0.23200250218E+03  0.23636208992E+03  0.00000000000E+00 0. -1.
        -14    1    4    4    0    0 -0.52706976720E+02 -0.25533442762E+02  0.87717031753E+02  0.10547160639E+03  0.00000000000E+00 0.  1.
         -5    1    3    3    0  504  0.40315203860E+02  0.12621178440E+02  0.31026845751E+02  0.52624756197E+02  0.47000000000E+01 0.  1.
<mgrwt>
<rscale>  2 0.18242737E+03</rscale>
<asrwt>0</asrwt>
<pdfrwt beam="1">  1       21 0.18293616E+00 0.18307982E+03</pdfrwt>
<pdfrwt beam="2">  1       21 0.49413895E-02 0.18307982E+03</pdfrwt>
<totfact> 0.47985142E+04</totfact>
</mgrwt>
</event>
<event>
12    1  0.2743855E-001  0.2459211E+03  0.7546771E-02  0.1116738E+00
         21   -1    0    0  502  503  0.00000000000E+00  0.00000000000E+00  0.11693741650E+03  0.11693741650E+03  0.00000000000E+00 0.  1.
         21   -1    0    0  503  504 -0.00000000000E+00 -0.00000000000E+00 -0.89950845596E+03  0.89950845596E+03  0.00000000000E+00 0.  1.
         -6    2    1    2    0  504 -0.98673452512E+02 -0.14425444955E+03 -0.72488442451E+03  0.76384950085E+03  0.16571914373E+03 0.  0.
        -24    2    3    3    0    0 -0.65002800311E+02 -0.14903478645E+03 -0.69518005446E+03  0.71845121849E+03  0.80374831993E+02 0.  0.
          6    2    1    2  502    0  0.98673452512E+02  0.14425444955E+03 -0.57686614951E+02  0.25259637162E+03  0.17300689283E+03 0.  0.
         24    2    5    5    0    0  0.12548798284E+03  0.10497624025E+03 -0.68758778729E+01  0.18284239134E+03  0.81343822882E+02 0.  0.
          2    1    6    6  501    0  0.55528360071E+02  0.10439898367E+01 -0.14261936923E+02  0.57340138923E+02  0.00000000000E+00 0. -1.
         -1    1    6    6    0  501  0.69959622766E+02  0.10393225041E+03  0.73860590496E+01  0.12550225242E+03  0.00000000000E+00 0.  1.
          5    1    5    5  502    0 -0.26814530325E+02  0.39278209303E+02 -0.50810737078E+02  0.69753980281E+02  0.47000000000E+01 0. -1.
         11    1    4    4    0    0 -0.16348892120E+02 -0.70497213825E+00 -0.22060515902E+02  0.27467246333E+02  0.00000000000E+00 0. -1.
        -12    1    4    4    0    0 -0.48653908190E+02 -0.14832981431E+03 -0.67311953856E+03  0.69098397216E+03  0.00000000000E+00 0.  1.
         -5    1    3    3    0  504 -0.33670652201E+02  0.47803368940E+01 -0.29704370051E+02  0.45398282353E+02  0.47000000000E+01 0.  1.
<mgrwt>
<rscale>  2 0.24464334E+03</rscale>
<asrwt>0</asrwt>
<pdfrwt beam="1">  1       21 0.17990372E-01 0.24592109E+03</pdfrwt>
<pdfrwt beam="2">  1       21 0.13838592E+00 0.24592109E+03</pdfrwt>
<totfact> 0.99950984E+03</totfact>
</mgrwt>
</event>
<event>
12    1  0.2743855E-001  0.2299691E+03  0.7546771E-02  0.1126885E+00
         21   -1    0    0  502  503  0.00000000000E+00  0.00000000000E+00  0.44841145728E+03  0.44841145728E+03  0.00000000000E+00 0.  1.
         21   -1    0    0  503  504 -0.00000000000E+00 -0.00000000000E+00 -0.12745085143E+03  0.12745085143E+03  0.00000000000E+00 0.  1.
         -6    2    1    2    0  504 -0.14345543170E+03 -0.38691703412E+02  0.24217290917E+03  0.33396634677E+03  0.17552576462E+03 0.  0.
        -24    2    3    3    0    0 -0.14461091914E+02 -0.26998848715E+02  0.14908408664E+03  0.17439228426E+03  0.85138375068E+02 0.  0.
          6    2    1    2  502    0  0.14345543170E+03  0.38691703412E+02  0.78787696677E+02  0.24189596193E+03  0.17386674913E+03 0.  0.
         24    2    5    5    0    0  0.15818664810E+03  0.68007641489E+02  0.45137305692E+02  0.19466385658E+03  0.78794579483E+02 0.  0.
          2    1    6    6  501    0  0.10871355121E+03  0.58024238981E+02 -0.52575670123E+01  0.12334135777E+03  0.00000000000E+00 0. -1.
         -1    1    6    6    0  501  0.49473096889E+02  0.99834025085E+01  0.50394872705E+02  0.71322498809E+02  0.00000000000E+00 0.  1.
          5    1    5    5  502    0 -0.14731216403E+02 -0.29315938077E+02  0.33650390985E+02  0.47232105347E+02  0.47000000000E+01 0. -1.
         11    1    4    4    0    0  0.28846910799E+01 -0.55222285640E+02  0.11030563131E+03  0.12339025315E+03  0.00000000000E+00 0. -1.
        -12    1    4    4    0    0 -0.17345782994E+02  0.28223436925E+02  0.38778455328E+02  0.51002031109E+02  0.00000000000E+00 0.  1.
         -5    1    3    3    0  504 -0.12899433978E+03 -0.11692854698E+02  0.93088822533E+02  0.15957406251E+03  0.47000000000E+01 0.  1.
<mgrwt>
<rscale>  2 0.22965255E+03</rscale>
<asrwt>0</asrwt>
<pdfrwt beam="1">  1       21 0.68986377E-01 0.22996913E+03</pdfrwt>
<pdfrwt beam="2">  1       21 0.19607824E-01 0.22996913E+03</pdfrwt>
<totfact> 0.45012455E+04</totfact>
</mgrwt>
</event>
<event>
12    1  0.2743855E-001  0.1821177E+03  0.7546771E-02  0.1165873E+00
         21   -1    0    0  502  503  0.00000000000E+00  0.00000000000E+00  0.82217795395E+03  0.82217795395E+03  0.00000000000E+00 0.  1.
         21   -1    0    0  503  504 -0.00000000000E+00 -0.00000000000E+00 -0.47611246546E+02  0.47611246546E+02  0.00000000000E+00 0.  1.
         -6    2    1    2    0  504  0.49578247843E+02  0.26621490511E+02  0.21659938160E+03  0.28298786367E+03  0.17320546314E+03 0.  0.
        -24    2    3    3    0    0  0.75088700106E+01  0.75960811457E+02  0.16889383286E+03  0.20235219834E+03  0.81208727299E+02 0.  0.
          6    2    1    2  502    0 -0.49578247843E+02 -0.26621490511E+02  0.55796732580E+03  0.58680133682E+03  0.17274711522E+03 0.  0.
         24    2    5    5    0    0 -0.91778998361E+02  0.15021282323E+02  0.36031789717E+03  0.38039782302E+03  0.78895457857E+02 0.  0.
          4    1    6    6  501    0 -0.22791113626E+02  0.23987181657E+02  0.36814326129E+02  0.49498629804E+02  0.00000000000E+00 0. -1.
         -3    1    6    6    0  501 -0.68987884735E+02 -0.89658993341E+01  0.32350357104E+03  0.33089919321E+03  0.00000000000E+00 0.  1.
          5    1    5    5  502    0  0.42200750517E+02 -0.41642772834E+02  0.19764942863E+03  0.20640351380E+03  0.47000000000E+01 0. -1.
         11    1    4    4    0    0  0.26488292557E+01 -0.80877446800E+01  0.77985861451E+02  0.78448852743E+02  0.00000000000E+00 0. -1.
        -12    1    4    4    0    0  0.48600407549E+01  0.84048556137E+02  0.90907971411E+02  0.12390334560E+03  0.00000000000E+00 0.  1.
         -5    1    3    3    0  504  0.42069377833E+02 -0.49339320946E+02  0.47705548738E+02  0.80635665329E+02  0.47000000000E+01 0.  1.
<mgrwt>
<rscale>  2 0.18200859E+03</rscale>
<asrwt>0</asrwt>
<pdfrwt beam="1">  1       21 0.12648891E+00 0.18211765E+03</pdfrwt>
<pdfrwt beam="2">  1       21 0.73248078E-02 0.18211765E+03</pdfrwt>
<totfact> 0.65100805E+04</totfact>
</mgrwt>
</event>
<event>
12    1  0.2743855E-001  0.2450538E+03  0.7546771E-02  0.1116631E+00
         21   -1    0    0  502  503  0.00000000000E+00  0.00000000000E+00  0.23148429625E+03  0.23148429625E+03  0.00000000000E+00 0.  1.
         21   -1    0    0  503  504 -0.00000000000E+00 -0.00000000000E+00 -0.26929142806E+03  0.26929142806E+03  0.00000000000E+00 0.  1.
         -6    2    1    2    0  504 -0.35294475310E+01 -0.17354334001E+03 -0.69275158202E+02  0.25370969468E+03  0.17158034202E+03 0.  0.
        -24    2    3    3    0    0  0.10069622208E+01 -0.13508992083E+03 -0.11394611848E+03  0.19440683511E+03  0.80993820386E+02 0.  0.
          6    2    1    2  502    0  0.35294475310E+01  0.17354334001E+03  0.31468026392E+02  0.24706602964E+03  0.17297872255E+03 0.  0.
         24    2    5    5    0    0 -0.49456545131E+00  0.32187408937E+02  0.56648023282E+02  0.10335168041E+03  0.80226538084E+02 0.  0.
          4    1    6    6  501    0 -0.11632688127E+02 -0.17888015766E+02 -0.62048263632E+01  0.22221620357E+02  0.00000000000E+00 0. -1.
         -3    1    6    6    0  501  0.11138122676E+02  0.50075424702E+02  0.62852849645E+02  0.81130060054E+02  0.00000000000E+00 0.  1.
          5    1    5    5  502    0  0.40240129823E+01  0.14135593107E+03 -0.25179996890E+02  0.14371434923E+03  0.47000000000E+01 0. -1.
         13    1    4    4    0    0  0.19569867749E+02 -0.75872906837E+02 -0.18419301134E+02  0.80491914935E+02  0.00000000000E+00 0. -1.
        -14    1    4    4    0    0 -0.18562905528E+02 -0.59217013990E+02 -0.95526817344E+02  0.11391492018E+03  0.00000000000E+00 0.  1.
         -5    1    3    3    0  504 -0.45364097518E+01 -0.38453419184E+02  0.44670960276E+02  0.59302859563E+02  0.47000000000E+01 0.  1.
<mgrwt>
<rscale>  2 0.24480720E+03</rscale>
<asrwt>0</asrwt>
<pdfrwt beam="1">  1       21 0.35612969E-01 0.24505384E+03</pdfrwt>
<pdfrwt beam="2">  1       21 0.41429450E-01 0.24505384E+03</pdfrwt>
<totfact> 0.41615682E+04</totfact>
</mgrwt>
</event>
<event>
12    1  0.2743855E-001  0.1786726E+03  0.7546771E-02  0.1169365E+00
         21   -1    0    0  502  503  0.00000000000E+00  0.00000000000E+00  0.55355637839E+03  0.55355637839E+03  0.00000000000E+00 0.  1.
         21   -1    0    0  503  504 -0.00000000000E+00 -0.00000000000E+00 -0.61904670403E+02  0.61904670403E+02  0.00000000000E+00 0.  1.
         -6    2    1    2    0  504  0.38988534401E+02 -0.28639136336E+00  0.16132001388E+03  0.23990424081E+03  0.17323310897E+03 0.  0.
        -24    2    3    3    0    0 -0.18717722658E+02 -0.39496064754E+02  0.13974302753E+03  0.16672591798E+03  0.79744126496E+02 0.  0.
          6    2    1    2  502    0 -0.38988534401E+02  0.28639136336E+00  0.33033169411E+03  0.37555680799E+03  0.17436656807E+03 0.  0.
         24    2    5    5    0    0  0.24417104079E+01 -0.26172415696E+01  0.56839420458E+02  0.98889119208E+02  0.80842601867E+02 0.  0.
          2    1    6    6  501    0 -0.74704226653E+00  0.35148666868E+02  0.48800828168E+02  0.60145720419E+02  0.00000000000E+00 0. -1.
         -1    1    6    6    0  501  0.31887526744E+01 -0.37765908438E+02  0.80385922892E+01  0.38743398789E+02  0.00000000000E+00 0.  1.
          5    1    5    5  502    0 -0.41430244809E+02  0.29036329329E+01  0.27349227365E+03  0.27666768878E+03  0.47000000000E+01 0. -1.
         13    1    4    4    0    0  0.23418265737E+02 -0.40174999028E+02  0.91717563460E+02  0.10283266584E+03  0.00000000000E+00 0. -1.
        -14    1    4    4    0    0 -0.42135988395E+02  0.67893427477E+00  0.48025464074E+02  0.63893252142E+02  0.00000000000E+00 0.  1.
         -5    1    3    3    0  504  0.57706257059E+02  0.39209673390E+02  0.21576986346E+02  0.73178322821E+02  0.47000000000E+01 0.  1.
<mgrwt>
<rscale>  2 0.17839543E+03</rscale>
<asrwt>0</asrwt>
<pdfrwt beam="1">  1       21 0.85162516E-01 0.17867257E+03</pdfrwt>
<pdfrwt beam="2">  1       21 0.95237958E-02 0.17867257E+03</pdfrwt>
<totfact> 0.10608718E+05</totfact>
</mgrwt>
</event>
<event>
12    1  0.2743855E-001  0.1784644E+03  0.7546771E-02  0.1169536E+00
         21   -1    0    0  502  503  0.00000000000E+00  0.00000000000E+00  0.34638390008E+03  0.34638390008E+03  0.00000000000E+00 0.  1.
         21   -1    0    0  503  504 -0.00000000000E+00 -0.00000000000E+00 -0.32778569453E+03  0.32778569453E+03  0.00000000000E+00 0.  1.
         -6    2    1    2    0  504 -0.34860936463E+02  0.18279336429E+02 -0.27691959509E+03  0.32944498454E+03  0.17406928697E+03 0.  0.
        -24    2    3    3    0    0 -0.14571653924E+02 -0.10994232731E+02 -0.45117511266E+02  0.94875393798E+02  0.81440433901E+02 0.  0.
          6    2    1    2  502    0  0.34860936463E+02 -0.18279336429E+02  0.29551780065E+03  0.34472461006E+03  0.17307474470E+03 0.  0.
         24    2    5    5    0    0 -0.25953668657E+02 -0.59881518181E+02  0.17496104623E+03  0.20335566454E+03  0.80515647338E+02 0.  0.
          4    1    6    6  501    0  0.15731801409E+01 -0.52219291757E+02  0.41080759169E+02  0.66460199377E+02  0.00000000000E+00 0. -1.
         -3    1    6    6    0  501 -0.27526848797E+02 -0.76622264241E+01  0.13388028706E+03  0.13689546516E+03  0.00000000000E+00 0.  1.
          5    1    5    5  502    0  0.60814605120E+02  0.41602181752E+02  0.12055675442E+03  0.14136894552E+03  0.47000000000E+01 0. -1.
         13    1    4    4    0    0  0.33804692049E+02 -0.48162491595E+01 -0.23964484980E+02  0.41716303778E+02  0.00000000000E+00 0. -1.
        -14    1    4    4    0    0 -0.48376345973E+02 -0.61779835714E+01 -0.21153026285E+02  0.53159090020E+02  0.00000000000E+00 0.  1.
         -5    1    3    3    0  504 -0.20289282539E+02  0.29273569160E+02 -0.23180208383E+03  0.23456959075E+03  0.47000000000E+01 0.  1.
<mgrwt>
<rscale>  2 0.17822141E+03</rscale>
<asrwt>0</asrwt>
<pdfrwt beam="1">  1       21 0.53289831E-01 0.17846438E+03</pdfrwt>
<pdfrwt beam="2">  1       21 0.50428568E-01 0.17846438E+03</pdfrwt>
<totfact> 0.12598437E+04</totfact>
</mgrwt>
</event>
<event>
12    1  0.2743855E-001  0.2476882E+03  0.7546771E-02  0.1114862E+00
         21   -1    0    0  502  503  0.00000000000E+00  0.00000000000E+00  0.94207828961E+02  0.94207828961E+02  0.00000000000E+00 0. -1.
         21   -1    0    0  503  504 -0.00000000000E+00 -0.00000000000E+00 -0.75187558993E+03  0.75187558993E+03  0.00000000000E+00 0.  1.
         -6    2    1    2    0  504  0.15669119935E+03 -0.81896568478E+02 -0.48440566928E+03  0.54381001143E+03  0.17268843686E+03 0.  0.
        -24    2    3    3    0    0  0.45849145590E+02  0.92321632796E+01 -0.11192675017E+03  0.14461952832E+03  0.78739021942E+02 0.  0.
          6    2    1    2  502    0 -0.15669119935E+03  0.81896568478E+02 -0.17326209169E+03  0.30227340745E+03  0.17346550250E+03 0.  0.
         24    2    5    5    0    0 -0.14011231989E+03  0.93684548975E+02 -0.19642650913E+03  0.27108853991E+03  0.80606240937E+02 0.  0.
          4    1    6    6  501    0 -0.15073226024E+02  0.36933512425E+02 -0.86279652266E+02  0.95055062348E+02  0.00000000000E+00 0. -1.
         -3    1    6    6    0  501 -0.12503909387E+03  0.56751036550E+02 -0.11014685687E+03  0.17603347756E+03  0.00000000000E+00 0.  1.
          5    1    5    5  502    0 -0.16578879452E+02 -0.11787980497E+02  0.23164417446E+02  0.31184867543E+02  0.47000000000E+01 0. -1.
         11    1    4    4    0    0 -0.14282741207E+02 -0.20102110457E+02 -0.28926643473E+02  0.38011080540E+02  0.00000000000E+00 0. -1.
        -12    1    4    4    0    0  0.60131886797E+02  0.29334273737E+02 -0.83000106701E+02  0.10660844778E+03  0.00000000000E+00 0.  1.
         -5    1    3    3    0  504  0.11084205376E+03 -0.91128731758E+02 -0.37247891910E+03  0.39919048311E+03  0.47000000000E+01 0.  1.
<mgrwt>
<rscale>  2 0.24755222E+03</rscale>
<asrwt>0</asrwt>
<pdfrwt beam="1">  1       21 0.14493513E-01 0.24768823E+03</pdfrwt>
<pdfrwt beam="2">  1       21 0.11567316E+00 0.24768823E+03</pdfrwt>
<totfact> 0.23399325E+04</totfact>
</mgrwt>
</event>
<event>
12    1  0.2743855E-001  0.2651909E+03  0.7546771E-02  0.1104319E+00
         21   -1    0    0  502  503  0.00000000000E+00  0.00000000000E+00  0.38784991610E+03  0.38784991610E+03  0.00000000000E+00 0. -1.
         21   -1    0    0  503  504 -0.00000000000E+00 -0.00000000000E+00 -0.54423466251E+03  0.54423466251E+03  0.00000000000E+00 0.  1.
         -6    2    1    2    0  504  0.14011124194E+03 -0.14105444422E+03 -0.45929648442E+03  0.52949079378E+03  0.17285752441E+03 0.  0.
        -24    2    3    3    0    0  0.12784993885E+03 -0.66665859754E+02 -0.19825256923E+03  0.25773719820E+03  0.79589185262E+02 0.  0.
          6    2    1    2  502    0 -0.14011124194E+03  0.14105444422E+03  0.30291173800E+03  0.40259378484E+03  0.17549563590E+03 0.  0.
         24    2    5    5    0    0 -0.15063915441E+03  0.58037402327E+02  0.18655468517E+03  0.25919322720E+03  0.79485744383E+02 0.  0.
          2    1    6    6  501    0 -0.84209532444E+02  0.19752995005E+02  0.15245026604E+03  0.17527837797E+03  0.00000000000E+00 0. -1.
         -1    1    6    6    0  501 -0.66429621967E+02  0.38284407322E+02  0.34104419123E+02  0.83914849237E+02  0.00000000000E+00 0.  1.
          5    1    5    5  502    0  0.10527912475E+02  0.83017041892E+02  0.11635705284E+03  0.14340055764E+03  0.47000000000E+01 0. -1.
         13    1    4    4    0    0  0.13995894328E+02 -0.40959645527E+02 -0.28854563999E+02  0.52020798565E+02  0.00000000000E+00 0. -1.
        -14    1    4    4    0    0  0.11385404452E+03 -0.25706214226E+02 -0.16939800523E+03  0.20571639964E+03  0.00000000000E+00 0.  1.
         -5    1    3    3    0  504  0.12261303087E+02 -0.74388584464E+02 -0.26104391518E+03  0.27175359557E+03  0.47000000000E+01 0.  1.
<mgrwt>
<rscale>  2 0.26475527E+03</rscale>
<asrwt>0</asrwt>
<pdfrwt beam="1">  1       21 0.59669218E-01 0.26519094E+03</pdfrwt>
<pdfrwt beam="2">  1       21 0.83728409E-01 0.26519094E+03</pdfrwt>
<totfact> 0.30830966E+03</totfact>
</mgrwt>
</event>
<event>
12    1  0.2743855E-001  0.2242343E+03  0.7546771E-02  0.1131324E+00
         21   -1    0    0  502  503  0.00000000000E+00  0.00000000000E+00  0.65280389574E+03  0.65280389574E+03  0.00000000000E+00 0. -1.
         21   -1    0    0  503  504 -0.00000000000E+00 -0.00000000000E+00 -0.13571163752E+03  0.13571163752E+03  0.00000000000E+00 0. -1.
         -6    2    1    2    0  504  0.11865574478E+03  0.64760021433E+02 -0.20243753775E+01  0.22424344514E+03  0.17890773725E+03 0.  0.
        -24    2    3    3    0    0  0.13935506292E+02  0.57807615817E+01 -0.47891118956E+02  0.95516099144E+02  0.81253617647E+02 0.  0.
          6    2    1    2  502    0 -0.11865574478E+03 -0.64760021433E+02  0.51911663359E+03  0.56427208812E+03  0.17506531356E+03 0.  0.
         24    2    5    5    0    0 -0.37357087016E+02 -0.28533793555E+02  0.10376397854E+03  0.13946421461E+03  0.80458527133E+02 0.  0.
          4    1    6    6  501    0  0.10127145615E+02  0.18299016654E+02  0.72238642600E+01  0.22126845768E+02  0.00000000000E+00 0. -1.
         -3    1    6    6    0  501 -0.47484232631E+02 -0.46832810209E+02  0.96540114285E+02  0.11733736884E+03  0.00000000000E+00 0.  1.
          5    1    5    5  502    0 -0.81298657764E+02 -0.36226227879E+02  0.41535265505E+03  0.42480787351E+03  0.47000000000E+01 0. -1.
         13    1    4    4    0    0  0.37377301182E+02  0.11496430293E+02  0.29739546146E+01  0.39218298780E+02  0.00000000000E+00 0. -1.
        -14    1    4    4    0    0 -0.23441794890E+02 -0.57156687109E+01 -0.50865073571E+02  0.56297800364E+02  0.00000000000E+00 0.  1.
         -5    1    3    3    0  504  0.10472023849E+03  0.58979259852E+02  0.45866743579E+02  0.12872734600E+03  0.47000000000E+01 0.  1.
<mgrwt>
<rscale>  2 0.22346698E+03</rscale>
<asrwt>0</asrwt>
<pdfrwt beam="1">  1       21 0.10043137E+00 0.22423431E+03</pdfrwt>
<pdfrwt beam="2">  1       21 0.20878714E-01 0.22423431E+03</pdfrwt>
<totfact> 0.16973577E+04</totfact>
</mgrwt>
</event>
<event>
12    1  0.2743855E-001  0.2139588E+03  0.7546771E-02  0.1138571E+00
         21   -1    0    0  502  503  0.00000000000E+00  0.00000000000E+00  0.38503593492E+02  0.38503593492E+02  0.00000000000E+00 0.  1.
         21   -1    0    0  503  504 -0.00000000000E+00 -0.00000000000E+00 -0.11995247886E+04  0.11995247886E+04  0.00000000000E+00 0.  1.
         -6    2    1    2    0  504  0.12376798639E+03 -0.24791060403E+02 -0.51552228449E+03  0.55815909699E+03  0.17275775125E+03 0.  0.
        -24    2    3    3    0    0 -0.24342893236E+01 -0.21348444982E+02 -0.25985407750E+03  0.27297987604E+03  0.80821960273E+02 0.  0.
          6    2    1    2  502    0 -0.12376798639E+03  0.24791060403E+02 -0.64549891064E+03  0.67986928512E+03  0.17210546209E+03 0.  0.
         24    2    5    5    0    0 -0.35505396930E+02  0.48712663436E+02 -0.18960428087E+03  0.21486978916E+03  0.81152240756E+02 0.  0.
          2    1    6    6  501    0 -0.62832528781E+01  0.62757951039E+02 -0.88362966936E+02  0.10856359247E+03  0.00000000000E+00 0. -1.
         -1    1    6    6    0  501 -0.29222144052E+02 -0.14045287603E+02 -0.10124131393E+03  0.10630619668E+03  0.00000000000E+00 0.  1.
          5    1    5    5  502    0 -0.88262589463E+02 -0.23921603033E+02 -0.45589462977E+03  0.46499949596E+03  0.47000000000E+01 0. -1.
         11    1    4    4    0    0 -0.37369151367E+02 -0.87639789566E+01 -0.19032305713E+03  0.19415490434E+03  0.00000000000E+00 0. -1.
        -12    1    4    4    0    0  0.34934862043E+02 -0.12584466025E+02 -0.69531020367E+02  0.78824971706E+02  0.00000000000E+00 0.  1.
         -5    1    3    3    0  504  0.12620227572E+03 -0.34426154209E+01 -0.25566820699E+03  0.28517922095E+03  0.47000000000E+01 0.  1.
<mgrwt>
<rscale>  2 0.21382706E+03</rscale>
<asrwt>0</asrwt>
<pdfrwt beam="1">  1       21 0.59236312E-02 0.21395876E+03</pdfrwt>
<pdfrwt beam="2">  1       21 0.18454223E+00 0.21395876E+03</pdfrwt>
<totfact> 0.33698247E+04</totfact>
</mgrwt>
</event>
<event>
12    1  0.2743855E-001  0.2296643E+03  0.7546771E-02  0.1127243E+00
         21   -1    0    0  502  503  0.00000000000E+00  0.00000000000E+00  0.32154861187E+02  0.32154861187E+02  0.00000000000E+00 0.  1.
         21   -1    0    0  503  504 -0.00000000000E+00 -0.00000000000E+00 -0.18556714866E+04  0.18556714866E+04  0.00000000000E+00 0.  1.
         -6    2    1    2    0  504 -0.20114416487E+02  0.14987579950E+03 -0.12405004808E+04  0.12612056545E+04  0.17009090260E+03 0.  0.
        -24    2    3    3    0    0 -0.45960571717E+02  0.19477748398E+02 -0.47845536280E+03  0.48763825131E+03  0.79873481909E+02 0.  0.
          6    2    1    2  502    0  0.20114416487E+02 -0.14987579950E+03 -0.58301614463E+03  0.62662069326E+03  0.17285347351E+03 0.  0.
         24    2    5    5    0    0 -0.52165030990E+02 -0.11166611920E+03 -0.36988574062E+03  0.39829864590E+03  0.81460650520E+02 0.  0.
          2    1    6    6  501    0 -0.35109513717E+02 -0.87228445297E+02 -0.15452048319E+03  0.18088134052E+03  0.00000000000E+00 0. -1.
         -1    1    6    6    0  501 -0.17055517273E+02 -0.24437673899E+02 -0.21536525742E+03  0.21741730538E+03  0.00000000000E+00 0.  1.
          5    1    5    5  502    0  0.72279447477E+02 -0.38209680302E+02 -0.21313040401E+03  0.22832204736E+03  0.47000000000E+01 0. -1.
         13    1    4    4    0    0 -0.13334182086E+01 -0.25598664691E+01  0.26780152073E+01  0.39373450330E+01  0.00000000000E+00 0. -1.
        -14    1    4    4    0    0 -0.44627153508E+02  0.22037614867E+02 -0.48113337801E+03  0.48370090628E+03  0.00000000000E+00 0.  1.
         -5    1    3    3    0  504  0.25846155230E+02  0.13039805110E+03 -0.76204511798E+03  0.77356740321E+03  0.47000000000E+01 0.  1.
<mgrwt>
<rscale>  2 0.22914450E+03</rscale>
<asrwt>0</asrwt>
<pdfrwt beam="1">  1       21 0.49469025E-02 0.22966425E+03</pdfrwt>
<pdfrwt beam="2">  1       21 0.28548788E+00 0.22966425E+03</pdfrwt>
<totfact> 0.10936049E+04</totfact>
</mgrwt>
</event>
<event>
12    1  0.2743855E-001  0.4516885E+03  0.7546771E-02  0.1027291E+00
         21   -1    0    0  502  503  0.00000000000E+00  0.00000000000E+00  0.26869518162E+03  0.26869518162E+03  0.00000000000E+00 0.  1.
         21   -1    0    0  503  504 -0.00000000000E+00 -0.00000000000E+00 -0.17504453700E+04  0.17504453700E+04  0.00000000000E+00 0. -1.
         -6    2    1    2    0  504 -0.38941444360E+03  0.14939523101E+03 -0.15015084470E+04  0.15679764297E+04  0.17337797966E+03 0.  0.
        -24    2    3    3    0    0 -0.40192139363E+03  0.13312943342E+03 -0.14322393998E+04  0.14955796696E+04  0.78642210159E+02 0.  0.
          6    2    1    2  502    0  0.38941444360E+03 -0.14939523101E+03  0.19758258596E+02  0.45116412191E+03  0.17086875718E+03 0.  0.
         24    2    5    5    0    0  0.33174777119E+03 -0.10957671230E+03  0.69645462339E+02  0.36501435327E+03  0.79506905995E+02 0.  0.
          4    1    6    6  501    0  0.15468194686E+03 -0.77364565736E+02  0.26304078107E+01  0.17297022796E+03  0.00000000000E+00 0. -1.
         -3    1    6    6    0  501  0.17706582432E+03 -0.32212146561E+02  0.67015054528E+02  0.19204412530E+03  0.00000000000E+00 0.  1.
          5    1    5    5  502    0  0.57666672412E+02 -0.39818518718E+02 -0.49887203743E+02  0.86149768643E+02  0.47000000000E+01 0. -1.
         13    1    4    4    0    0 -0.24793418999E+03  0.11574674080E+03 -0.98257279303E+03  0.10199597856E+04  0.00000000000E+00 0. -1.
        -14    1    4    4    0    0 -0.15398720363E+03  0.17382692625E+02 -0.44966660676E+03  0.47561988407E+03  0.00000000000E+00 0.  1.
         -5    1    3    3    0  504  0.12506950027E+02  0.16265797591E+02 -0.69269047228E+02  0.72396760108E+02  0.47000000000E+01 0.  1.
<mgrwt>
<rscale>  2 0.45144897E+03</rscale>
<asrwt>0</asrwt>
<pdfrwt beam="1">  1       21 0.41337720E-01 0.45168846E+03</pdfrwt>
<pdfrwt beam="2">  1       21 0.26929929E+00 0.45168846E+03</pdfrwt>
<totfact> 0.22921012E+02</totfact>
</mgrwt>
</event>
<event>
12    1  0.2743855E-001  0.1753996E+03  0.7546771E-02  0.1173184E+00
         21   -1    0    0  502  503  0.00000000000E+00  0.00000000000E+00  0.18861642012E+03  0.18861642012E+03  0.00000000000E+00 0.  1.
         21   -1    0    0  503  504 -0.00000000000E+00 -0.00000000000E+00 -0.16595312287E+03  0.16595312287E+03  0.00000000000E+00 0.  1.
         -6    2    1    2    0  504 -0.26116089720E+02  0.16724025841E+02 -0.22383969212E+02  0.17347768020E+03  0.16920910220E+03 0.  0.
        -24    2    3    3    0    0 -0.73920678647E+02 -0.18555187712E+02 -0.22464861426E+02  0.11387903781E+03  0.81579430809E+02 0.  0.
          6    2    1    2  502    0  0.26116089720E+02 -0.16724025841E+02  0.45047266456E+02  0.18109186279E+03  0.17263621686E+03 0.  0.
         24    2    5    5    0    0 -0.32857494284E+01 -0.41797229372E+02 -0.30901268437E+02  0.95749003490E+02  0.80344127016E+02 0.  0.
          2    1    6    6  501    0  0.38232011032E+01 -0.18129332458E+02 -0.56923041114E+02  0.59862527274E+02  0.00000000000E+00 0. -1.
         -1    1    6    6    0  501 -0.71089505316E+01 -0.23667896913E+02  0.26021772677E+02  0.35886476216E+02  0.00000000000E+00 0.  1.
          5    1    5    5  502    0  0.29401839149E+02  0.25073203531E+02  0.75948534892E+02  0.85342859297E+02  0.47000000000E+01 0. -1.
         13    1    4    4    0    0 -0.83588487223E+02 -0.45330588884E+01 -0.36966147268E+02  0.91509998705E+02  0.00000000000E+00 0. -1.
        -14    1    4    4    0    0  0.96678085763E+01 -0.14022128824E+02  0.14501285843E+02  0.22369039105E+02  0.00000000000E+00 0.  1.
         -5    1    3    3    0  504  0.47804588927E+02  0.35279213553E+02  0.80892214018E-01  0.59598642391E+02  0.47000000000E+01 0.  1.
<mgrwt>
<rscale>  2 0.17455040E+03</rscale>
<asrwt>0</asrwt>
<pdfrwt beam="1">  1       21 0.29017911E-01 0.17539956E+03</pdfrwt>
<pdfrwt beam="2">  1       21 0.25531250E-01 0.17539956E+03</pdfrwt>
<totfact> 0.16630485E+05</totfact>
</mgrwt>
</event>
<event>
12    1  0.2743855E-001  0.2887513E+03  0.7546771E-02  0.1091084E+00
         21   -1    0    0  502  503  0.00000000000E+00  0.00000000000E+00  0.29972587011E+03  0.29972587011E+03  0.00000000000E+00 0. -1.
         21   -1    0    0  503  504 -0.00000000000E+00 -0.00000000000E+00 -0.29274449526E+03  0.29274449526E+03  0.00000000000E+00 0.  1.
         -6    2    1    2    0  504 -0.21125594573E+03  0.92523311408E+02 -0.63925022532E+02  0.29514052998E+03  0.17271909614E+03 0.  0.
        -24    2    3    3    0    0 -0.21156305606E+03  0.64236703858E+02 -0.10802103685E+02  0.23477198693E+03  0.78204345088E+02 0.  0.
          6    2    1    2  502    0  0.21125594573E+03 -0.92523311408E+02  0.70906397381E+02  0.29732983538E+03  0.17374601020E+03 0.  0.
         24    2    5    5    0    0  0.98659265228E+02 -0.57067419925E+02 -0.28841317613E+02  0.14271150094E+03  0.80897526947E+02 0.  0.
          2    1    6    6  501    0  0.27098042047E+02  0.14374192090E+02 -0.28086255816E+02  0.41590372044E+02  0.00000000000E+00 0. -1.
         -1    1    6    6    0  501  0.71561223181E+02 -0.71441612015E+02 -0.75506179698E+00  0.10112112889E+03  0.00000000000E+00 0.  1.
          5    1    5    5  502    0  0.11259668050E+03 -0.35455891483E+02  0.99747714994E+02  0.15461833445E+03  0.47000000000E+01 0. -1.
         11    1    4    4    0    0 -0.81025676760E+02  0.41898061694E+02  0.30279257266E+02  0.96111608501E+02  0.00000000000E+00 0. -1.
        -12    1    4    4    0    0 -0.13053737930E+03  0.22338642164E+02 -0.41081360951E+02  0.13866037842E+03  0.00000000000E+00 0.  1.
         -5    1    3    3    0  504  0.30711032828E+00  0.28286607550E+02 -0.53122918847E+02  0.60368543052E+02  0.47000000000E+01 0.  1.
<mgrwt>
<rscale>  2 0.28859699E+03</rscale>
<asrwt>0</asrwt>
<pdfrwt beam="1">  1       21 0.46111672E-01 0.28875130E+03</pdfrwt>
<pdfrwt beam="2">  1       21 0.45037615E-01 0.28875130E+03</pdfrwt>
<totfact> 0.20315147E+04</totfact>
</mgrwt>
</event>
<event>
12    1  0.2743855E-001  0.1930839E+03  0.7546771E-02  0.1155882E+00
         21   -1    0    0  502  503  0.00000000000E+00  0.00000000000E+00  0.16666577780E+03  0.16666577780E+03  0.00000000000E+00 0.  1.
         21   -1    0    0  503  504 -0.00000000000E+00 -0.00000000000E+00 -0.38395242794E+03  0.38395242794E+03  0.00000000000E+00 0. -1.
         -6    2    1    2    0  504 -0.84645583668E+00  0.85027064417E+02 -0.28688515364E+03  0.34537360498E+03  0.17248048430E+03 0.  0.
        -24    2    3    3    0    0  0.10644108309E+02  0.12517754608E+03 -0.21507417696E+03  0.26216903410E+03  0.81810670217E+02 0.  0.
          6    2    1    2  502    0  0.84645583668E+00 -0.85027064417E+02  0.69598503496E+02  0.20524460077E+03  0.17335246259E+03 0.  0.
         24    2    5    5    0    0 -0.16402551311E+02 -0.28109709283E+02 -0.28098787793E+02  0.90772052581E+02  0.79942630736E+02 0.  0.
          2    1    6    6  501    0  0.48836124599E+00 -0.59968631228E+01 -0.53054558216E+02  0.53394634670E+02  0.00000000000E+00 0. -1.
         -1    1    6    6    0  501 -0.16890912557E+02 -0.22112846160E+02  0.24955770423E+02  0.37377417911E+02  0.00000000000E+00 0.  1.
          5    1    5    5  502    0  0.17249007147E+02 -0.56917355134E+02  0.97697291289E+02  0.11447254819E+03  0.47000000000E+01 0. -1.
         13    1    4    4    0    0  0.29512885466E+02  0.11138807136E+03 -0.20794014574E+03  0.23773392072E+03  0.00000000000E+00 0. -1.
        -14    1    4    4    0    0 -0.18868777157E+02  0.13789474725E+02 -0.71340312192E+01  0.24435113382E+02  0.00000000000E+00 0.  1.
         -5    1    3    3    0  504 -0.11490564146E+02 -0.40150481668E+02 -0.71810976676E+02  0.83204570870E+02  0.47000000000E+01 0.  1.
<mgrwt>
<rscale>  2 0.19288799E+03</rscale>
<asrwt>0</asrwt>
<pdfrwt beam="1">  1       21 0.25640889E-01 0.19308391E+03</pdfrwt>
<pdfrwt beam="2">  1       21 0.59069604E-01 0.19308391E+03</pdfrwt>
<totfact> 0.38663185E+04</totfact>
</mgrwt>
</event>
<event>
12    1  0.2743855E-001  0.1971043E+03  0.7546771E-02  0.1152217E+00
         21   -1    0    0  502  503  0.00000000000E+00  0.00000000000E+00  0.27348748550E+03  0.27348748550E+03  0.00000000000E+00 0. -1.
         21   -1    0    0  503  504 -0.00000000000E+00 -0.00000000000E+00 -0.27577807476E+03  0.27577807476E+03  0.00000000000E+00 0. -1.
         -6    2    1    2    0  504 -0.57152834634E+00  0.94559828660E+02 -0.19241239046E+03  0.27544985970E+03  0.17293990103E+03 0.  0.
        -24    2    3    3    0    0 -0.28159513280E+02  0.11505686761E+03 -0.19444432638E+03  0.24070156072E+03  0.78087158338E+02 0.  0.
          6    2    1    2  502    0  0.57152834634E+00 -0.94559828660E+02  0.19012180120E+03  0.27381570055E+03  0.17287813840E+03 0.  0.
         24    2    5    5    0    0 -0.59357453321E+02 -0.55516279668E+02  0.13935813250E+03  0.18598107400E+03  0.92535972576E+02 0.  0.
          2    1    6    6  501    0 -0.26646457268E+02 -0.46496403900E+02  0.12997985563E+02  0.55144327806E+02  0.00000000000E+00 0. -1.
         -1    1    6    6    0  501 -0.32710996054E+02 -0.90198757684E+01  0.12636014693E+03  0.13083674620E+03  0.00000000000E+00 0.  1.
          5    1    5    5  502    0  0.59928981668E+02 -0.39043548992E+02  0.50763668699E+02  0.87834626551E+02  0.47000000000E+01 0. -1.
         11    1    4    4    0    0  0.11916412410E+02  0.75196823766E+02 -0.15204940072E+03  0.17004582750E+03  0.00000000000E+00 0. -1.
        -12    1    4    4    0    0 -0.40075925690E+02  0.39860043847E+02 -0.42394925659E+02  0.70655733221E+02  0.00000000000E+00 0.  1.
         -5    1    3    3    0  504  0.27587984933E+02 -0.20497038953E+02  0.20319359267E+01  0.34748298982E+02  0.47000000000E+01 0.  1.
<mgrwt>
<rscale>  2 0.19709073E+03</rscale>
<asrwt>0</asrwt>
<pdfrwt beam="1">  1       21 0.42074998E-01 0.19710428E+03</pdfrwt>
<pdfrwt beam="2">  1       21 0.42427396E-01 0.19710428E+03</pdfrwt>
<totfact> 0.28986313E+04</totfact>
</mgrwt>
</event>
<event>
12    1  0.2743855E-001  0.1875663E+03  0.7546771E-02  0.1161014E+00
         21   -1    0    0  502  503  0.00000000000E+00  0.00000000000E+00  0.40927198147E+03  0.40927198147E+03  0.00000000000E+00 0.  1.
         21   -1    0    0  503  504 -0.00000000000E+00 -0.00000000000E+00 -0.18547401951E+03  0.18547401951E+03  0.00000000000E+00 0.  1.
         -6    2    1    2    0  504 -0.15097837739E+02  0.71328015006E+02 -0.10645536618E+03  0.21567068725E+03  0.17281628951E+03 0.  0.
        -24    2    3    3    0    0  0.51984003615E+02  0.40231108665E+02 -0.28251311461E+02  0.10794438964E+03  0.80826826724E+02 0.  0.
          6    2    1    2  502    0  0.15097837739E+02 -0.71328015006E+02  0.33025332813E+03  0.37907531373E+03  0.17121682834E+03 0.  0.
         24    2    5    5    0    0  0.24878803657E+02 -0.17704067795E+02  0.63552582138E+02  0.10682070326E+03  0.80245517381E+02 0.  0.
          2    1    6    6  501    0  0.49443038994E+02 -0.27420213334E+02  0.29646025281E+02  0.63838616990E+02  0.00000000000E+00 0. -1.
         -1    1    6    6    0  501 -0.24564235337E+02  0.97161455396E+01  0.33906556856E+02  0.42982086265E+02  0.00000000000E+00 0.  1.
          5    1    5    5  502    0 -0.97809659182E+01 -0.53623947211E+02  0.26670074599E+03  0.27225461047E+03  0.47000000000E+01 0. -1.
         11    1    4    4    0    0  0.30715826852E+02 -0.62994202119E+01  0.20348936036E+02  0.37379458423E+02  0.00000000000E+00 0. -1.
        -12    1    4    4    0    0  0.21268176764E+02  0.46530528877E+02 -0.48600247496E+02  0.70564931213E+02  0.00000000000E+00 0.  1.
         -5    1    3    3    0  504 -0.67081841354E+02  0.31096906341E+02 -0.78204054716E+02  0.10772629761E+03  0.47000000000E+01 0.  1.
<mgrwt>
<rscale>  2 0.18719701E+03</rscale>
<asrwt>0</asrwt>
<pdfrwt beam="1">  1       21 0.62964920E-01 0.18756626E+03</pdfrwt>
<pdfrwt beam="2">  1       21 0.28534465E-01 0.18756626E+03</pdfrwt>
<totfact> 0.27506503E+04</totfact>
</mgrwt>
</event>
<event>
12    1  0.2743855E-001  0.1901414E+03  0.7546771E-02  0.1158372E+00
         21   -1    0    0  502  503  0.00000000000E+00  0.00000000000E+00  0.65235184869E+02  0.65235184869E+02  0.00000000000E+00 0.  1.
         21   -1    0    0  503  504 -0.00000000000E+00 -0.00000000000E+00 -0.12280835146E+04  0.12280835146E+04  0.00000000000E+00 0.  1.
         -6    2    1    2    0  504 -0.66814219323E+02  0.44804812714E+02 -0.10605009140E+04  0.10773818188E+04  0.17209818053E+03 0.  0.
        -24    2    3    3    0    0 -0.67167238881E+02  0.18244000765E+02 -0.35651596622E+03  0.37288022331E+03  0.84212500376E+02 0.  0.
          6    2    1    2  502    0  0.66814219323E+02 -0.44804812714E+02 -0.10234741571E+03  0.21593688065E+03  0.17228503062E+03 0.  0.
         24    2    5    5    0    0  0.10200779904E+03  0.47659971821E+01 -0.66907801462E+02  0.14541093149E+03  0.78989741785E+02 0.  0.
          2    1    6    6  501    0  0.18105864306E+02  0.35263964099E+02 -0.24251159971E+02  0.46470294234E+02  0.00000000000E+00 0. -1.
         -1    1    6    6    0  501  0.83901934730E+02 -0.30497966917E+02 -0.42656641491E+02  0.98940637257E+02  0.00000000000E+00 0.  1.
          5    1    5    5  502    0 -0.35193579713E+02 -0.49570809896E+02 -0.35439614251E+02  0.70525949161E+02  0.47000000000E+01 0. -1.
         11    1    4    4    0    0  0.14257165499E+02 -0.15199596727E+02 -0.81394916613E+02  0.84020396090E+02  0.00000000000E+00 0. -1.
        -12    1    4    4    0    0 -0.81424404380E+02  0.33443597492E+02 -0.27512104961E+03  0.28885982722E+03  0.00000000000E+00 0.  1.
         -5    1    3    3    0  504  0.35301955739E+00  0.26560811949E+02 -0.70398494778E+03  0.70450159550E+03  0.47000000000E+01 0.  1.
<mgrwt>
<rscale>  2 0.19009904E+03</rscale>
<asrwt>0</asrwt>
<pdfrwt beam="1">  1       21 0.10036183E-01 0.19014138E+03</pdfrwt>
<pdfrwt beam="2">  1       21 0.18893592E+00 0.19014138E+03</pdfrwt>
<totfact> 0.12806245E+04</totfact>
</mgrwt>
</event>
<event>
12    1  0.2743855E-001  0.1896444E+03  0.7546771E-02  0.1159269E+00
         21   -1    0    0  502  503  0.00000000000E+00  0.00000000000E+00  0.70175397898E+02  0.70175397898E+02  0.00000000000E+00 0.  1.
         21   -1    0    0  503  504 -0.00000000000E+00 -0.00000000000E+00 -0.77356941123E+03  0.77356941123E+03  0.00000000000E+00 0.  1.
         -6    2    1    2    0  504  0.89671735946E+01 -0.77278356960E+02 -0.59815983367E+03  0.62685954483E+03  0.17060289468E+03 0.  0.
        -24    2    3    3    0    0  0.42186783496E+02 -0.96320281891E+02 -0.32491449667E+03  0.35090440069E+03  0.80666888319E+02 0.  0.
          6    2    1    2  502    0 -0.89671735946E+01  0.77278356960E+02 -0.10523417967E+03  0.21688526430E+03  0.17295268325E+03 0.  0.
         24    2    5    5    0    0 -0.58400979220E+02  0.94852284842E+02 -0.75449671532E+02  0.15637286058E+03  0.79700616539E+02 0.  0.
          4    1    6    6  501    0 -0.51408403247E+02  0.36535269530E+02 -0.74526059986E+02  0.97630853018E+02  0.00000000000E+00 0. -1.
         -3    1    6    6    0  501 -0.69925759735E+01  0.58317015312E+02 -0.92361154653E+00  0.58742007558E+02  0.00000000000E+00 0.  1.
          5    1    5    5  502    0  0.49433805626E+02 -0.17573927881E+02 -0.29784508137E+02  0.60512403727E+02  0.47000000000E+01 0. -1.
         11    1    4    4    0    0 -0.16632846052E+01 -0.11246027736E+02  0.82177983352E+00  0.11398025162E+02  0.00000000000E+00 0. -1.
        -12    1    4    4    0    0  0.43850068102E+02 -0.85074254155E+02 -0.32573627651E+03  0.33950637553E+03  0.00000000000E+00 0.  1.
         -5    1    3    3    0  504 -0.33219609902E+02  0.19041924931E+02 -0.27324533700E+03  0.27595514414E+03  0.47000000000E+01 0.  1.
<mgrwt>
<rscale>  2 0.18910696E+03</rscale>
<asrwt>0</asrwt>
<pdfrwt beam="1">  1       21 0.10796215E-01 0.18964437E+03</pdfrwt>
<pdfrwt beam="2">  1       21 0.11901068E+00 0.18964437E+03</pdfrwt>
<totfact> 0.38254347E+04</totfact>
</mgrwt>
</event>
<event>
12    1  0.2743855E-001  0.2356953E+03  0.7546771E-02  0.1123955E+00
         21   -1    0    0  502  503  0.00000000000E+00  0.00000000000E+00  0.51092856096E+03  0.51092856096E+03  0.00000000000E+00 0.  1.
         21   -1    0    0  503  504 -0.00000000000E+00 -0.00000000000E+00 -0.11235735597E+03  0.11235735597E+03  0.00000000000E+00 0.  1.
         -6    2    1    2    0  504 -0.14832320351E+03  0.54967096629E+02  0.12467459537E+03  0.26663837998E+03  0.17473155564E+03 0.  0.
        -24    2    3    3    0    0 -0.29686874951E+02 -0.23746182178E+02  0.23546701363E+02  0.91940641982E+02  0.80333323040E+02 0.  0.
          6    2    1    2  502    0  0.14832320351E+03 -0.54967096629E+02  0.27389660962E+03  0.35664753696E+03  0.16479368449E+03 0.  0.
         24    2    5    5    0    0  0.14895746070E+03 -0.46983732675E+02  0.14492490132E+03  0.22734197667E+03  0.79280206202E+02 0.  0.
          4    1    6    6  501    0  0.60386264804E+02 -0.11340015701E+02  0.10300317946E+02  0.62299225379E+02  0.00000000000E+00 0. -1.
         -3    1    6    6    0  501  0.88571195900E+02 -0.35643716974E+02  0.13462458338E+03  0.16504275129E+03  0.00000000000E+00 0.  1.
          5    1    5    5  502    0 -0.63425719454E+00 -0.79833639540E+01  0.12897170829E+03  0.12930556029E+03  0.47000000000E+01 0. -1.
         11    1    4    4    0    0  0.15233907401E+02  0.17858130515E+02 -0.55967750383E+01  0.24131072314E+02  0.00000000000E+00 0. -1.
        -12    1    4    4    0    0 -0.44920782353E+02 -0.41604312693E+02  0.29143476401E+02  0.67809569668E+02  0.00000000000E+00 0.  1.
         -5    1    3    3    0  504 -0.11863632856E+03  0.78713278806E+02  0.10112789401E+03  0.17469773800E+03  0.47000000000E+01 0.  1.
<mgrwt>
<rscale>  2 0.23385638E+03</rscale>
<asrwt>0</asrwt>
<pdfrwt beam="1">  1       21 0.78604393E-01 0.23569529E+03</pdfrwt>
<pdfrwt beam="2">  1       21 0.17285747E-01 0.23569529E+03</pdfrwt>
<totfact> 0.42397542E+04</totfact>
</mgrwt>
</event>
<event>
12    1  0.2743855E-001  0.1739570E+03  0.7546771E-02  0.1174084E+00
         21   -1    0    0  502  503  0.00000000000E+00  0.00000000000E+00  0.54048756525E+02  0.54048756525E+02  0.00000000000E+00 0.  1.
         21   -1    0    0  503  504 -0.00000000000E+00 -0.00000000000E+00 -0.79613687088E+03  0.79613687088E+03  0.00000000000E+00 0.  1.
         -6    2    1    2    0  504  0.12160282778E+02  0.12120602142E+02 -0.60358372076E+03  0.62782440131E+03  0.17191680965E+03 0.  0.
        -24    2    3    3    0    0 -0.59000135437E+02 -0.44363328865E+01 -0.33847811521E+03  0.35279529501E+03  0.79977426029E+02 0.  0.
          6    2    1    2  502    0 -0.12160282778E+02 -0.12120602142E+02 -0.13850439360E+03  0.22236122610E+03  0.17310767271E+03 0.  0.
         24    2    5    5    0    0  0.45232804894E+02 -0.36851787420E+02 -0.44784256355E+02  0.10961748054E+03  0.81279158139E+02 0.  0.
          4    1    6    6  501    0  0.35814613882E+02 -0.17566725415E+02  0.17632451293E+02  0.43613985692E+02  0.00000000000E+00 0. -1.
         -3    1    6    6    0  501  0.94181910116E+01 -0.19285062005E+02 -0.62416707648E+02  0.66003494847E+02  0.00000000000E+00 0.  1.
          5    1    5    5  502    0 -0.57393087672E+02  0.24731185278E+02 -0.93720137243E+02  0.11274374556E+03  0.47000000000E+01 0. -1.
         13    1    4    4    0    0 -0.35196854915E+02 -0.25803354536E+02 -0.70499894123E+02  0.82914816363E+02  0.00000000000E+00 0. -1.
        -14    1    4    4    0    0 -0.23803280522E+02  0.21367021649E+02 -0.26797822108E+03  0.26988047864E+03  0.00000000000E+00 0.  1.
         -5    1    3    3    0  504  0.71160418215E+02  0.16556935029E+02 -0.26510560555E+03  0.27502910630E+03  0.47000000000E+01 0.  1.
<mgrwt>
<rscale>  2 0.17366002E+03</rscale>
<asrwt>0</asrwt>
<pdfrwt beam="1">  1       21 0.83151929E-02 0.17395703E+03</pdfrwt>
<pdfrwt beam="2">  1       21 0.12248260E+00 0.17395703E+03</pdfrwt>
<totfact> 0.56847586E+04</totfact>
</mgrwt>
</event>
<event>
12    1  0.2743855E-001  0.1763158E+03  0.7546771E-02  0.1172196E+00
         21   -1    0    0  502  503  0.00000000000E+00  0.00000000000E+00  0.36958912353E+03  0.36958912353E+03  0.00000000000E+00 0. -1.
         21   -1    0    0  503  504 -0.00000000000E+00 -0.00000000000E+00 -0.93177586265E+02  0.93177586265E+02  0.00000000000E+00 0. -1.
         -6    2    1    2    0  504 -0.16478531514E+01  0.65348445487E+01  0.59306374550E+02  0.18308492817E+03  0.17308213439E+03 0.  0.
        -24    2    3    3    0    0  0.47446037032E+01  0.32507594034E+02 -0.28571791501E+02  0.91106075767E+02  0.80029462312E+02 0.  0.
          6    2    1    2  502    0  0.16478531514E+01 -0.65348445487E+01  0.21710516271E+03  0.27968178162E+03  0.17618691121E+03 0.  0.
         24    2    5    5    0    0 -0.29775009374E+02 -0.28821686116E+02  0.43004885930E+02  0.10130830834E+03  0.81833442741E+02 0.  0.
          2    1    6    6  501    0 -0.53749572346E+02 -0.35151137466E+02  0.41503860975E+02  0.76466917476E+02  0.00000000000E+00 0. -1.
         -1    1    6    6    0  501  0.23974562972E+02  0.63294513500E+01  0.15010249558E+01  0.24841390863E+02  0.00000000000E+00 0.  1.
          5    1    5    5  502    0  0.31422862526E+02  0.22286841568E+02  0.17410027678E+03  0.17837347328E+03  0.47000000000E+01 0. -1.
         13    1    4    4    0    0 -0.30641389462E+02 -0.59540314439E+01 -0.22526889339E+02  0.38494233099E+02  0.00000000000E+00 0. -1.
        -14    1    4    4    0    0  0.35385993166E+02  0.38461625478E+02 -0.60449021621E+01  0.52611842668E+02  0.00000000000E+00 0.  1.
         -5    1    3    3    0  504 -0.63924568546E+01 -0.25972749486E+02  0.87878166051E+02  0.91978852401E+02  0.47000000000E+01 0.  1.
<mgrwt>
<rscale>  2 0.17553497E+03</rscale>
<asrwt>0</asrwt>
<pdfrwt beam="1">  1       21 0.56859864E-01 0.17631576E+03</pdfrwt>
<pdfrwt beam="2">  1       21 0.14335014E-01 0.17631576E+03</pdfrwt>
<totfact> 0.12454246E+05</totfact>
</mgrwt>
</event>
<event>
12    1  0.2743855E-001  0.1997062E+03  0.7546771E-02  0.1150053E+00
         21   -1    0    0  502  503  0.00000000000E+00  0.00000000000E+00  0.59670964495E+02  0.59670964495E+02  0.00000000000E+00 0.  1.
         21   -1    0    0  503  504 -0.00000000000E+00 -0.00000000000E+00 -0.70867347210E+03  0.70867347210E+03  0.00000000000E+00 0.  1.
         -6    2    1    2    0  504  0.84077588723E+02  0.55491930495E+02 -0.41704888724E+03  0.46226431567E+03  0.17207593650E+03 0.  0.
        -24    2    3    3    0    0  0.78587172167E+02 -0.13330723675E+02 -0.17503367852E+03  0.21054988690E+03  0.85678552947E+02 0.  0.
          6    2    1    2  502    0 -0.84077588723E+02 -0.55491930495E+02 -0.23195362036E+03  0.30608012092E+03  0.17243596825E+03 0.  0.
         24    2    5    5    0    0 -0.36455941658E+01 -0.68185266002E+02 -0.18313228858E+03  0.21102203893E+03  0.79563464833E+02 0.  0.
          2    1    6    6  501    0 -0.24356344527E+02 -0.30354252170E+02 -0.15432604502E+03  0.15915759585E+03  0.00000000000E+00 0. -1.
         -1    1    6    6    0  501  0.20710750361E+02 -0.37831013832E+02 -0.28806243553E+02  0.51864443077E+02  0.00000000000E+00 0.  1.
          5    1    5    5  502    0 -0.80431994557E+02  0.12693335507E+02 -0.48821331786E+02  0.95058081992E+02  0.47000000000E+01 0. -1.
         13    1    4    4    0    0  0.78330915410E+02  0.10758770699E+02 -0.16763981351E+03  0.18534991375E+03  0.00000000000E+00 0. -1.
        -14    1    4    4    0    0  0.25625675696E+00 -0.24089494374E+02 -0.73938650103E+01  0.25199973145E+02  0.00000000000E+00 0.  1.
         -5    1    3    3    0  504  0.54904165553E+01  0.68822654170E+02 -0.24201520872E+03  0.25171442877E+03  0.47000000000E+01 0.  1.
<mgrwt>
<rscale>  2 0.19962844E+03</rscale>
<asrwt>0</asrwt>
<pdfrwt beam="1">  1       21 0.91801484E-02 0.19970618E+03</pdfrwt>
<pdfrwt beam="2">  1       21 0.10902669E+00 0.19970618E+03</pdfrwt>
<totfact> 0.62734476E+04</totfact>
</mgrwt>
</event>
<event>
12    1  0.2743855E-001  0.2157418E+03  0.7546771E-02  0.1137456E+00
         21   -1    0    0  502  503  0.00000000000E+00  0.00000000000E+00  0.10557919213E+03  0.10557919213E+03  0.00000000000E+00 0. -1.
         21   -1    0    0  503  504 -0.00000000000E+00 -0.00000000000E+00 -0.60219430357E+03  0.60219430357E+03  0.00000000000E+00 0.  1.
         -6    2    1    2    0  504  0.11694524385E+03  0.46502685353E+02 -0.63769555695E+02  0.22496905382E+03  0.17523078821E+03 0.  0.
        -24    2    3    3    0    0  0.12980880551E+03 -0.13050017104E+02 -0.57705590739E+02  0.16356174758E+03  0.80011756235E+02 0.  0.
          6    2    1    2  502    0 -0.11694524385E+03 -0.46502685353E+02 -0.43284555575E+03  0.48280444188E+03  0.17293398788E+03 0.  0.
         24    2    5    5    0    0 -0.35857730836E+02  0.11870885612E+01 -0.33876684685E+03  0.34967896434E+03  0.78900035069E+02 0.  0.
          4    1    6    6  501    0 -0.59351048786E+02  0.10783281637E+01 -0.28311861193E+03  0.28927471062E+03  0.00000000000E+00 0. -1.
         -3    1    6    6    0  501  0.23493317950E+02  0.10876039754E+00 -0.55648234925E+02  0.60404253719E+02  0.00000000000E+00 0.  1.
          5    1    5    5  502    0 -0.81087513017E+02 -0.47689773915E+02 -0.94078708897E+02  0.13312547754E+03  0.47000000000E+01 0. -1.
         13    1    4    4    0    0  0.26385524225E+02  0.57565711701E+01  0.19351981521E+02  0.33223985147E+02  0.00000000000E+00 0. -1.
        -14    1    4    4    0    0  0.10342328128E+03 -0.18806588274E+02 -0.77057572260E+02  0.13033776243E+03  0.00000000000E+00 0.  1.
         -5    1    3    3    0  504 -0.12863561652E+02  0.59552702457E+02 -0.60639649562E+01  0.61407306237E+02  0.47000000000E+01 0.  1.
<mgrwt>
<rscale>  2 0.21527494E+03</rscale>
<asrwt>0</asrwt>
<pdfrwt beam="1">  1       21 0.16242952E-01 0.21574179E+03</pdfrwt>
<pdfrwt beam="2">  1       21 0.92645279E-01 0.21574179E+03</pdfrwt>
<totfact> 0.32900235E+04</totfact>
</mgrwt>
</event>
<event>
12    1  0.2743855E-001  0.2478295E+03  0.7546771E-02  0.1114912E+00
         21   -1    0    0  502  503  0.00000000000E+00  0.00000000000E+00  0.56863771406E+03  0.56863771406E+03  0.00000000000E+00 0.  1.
         21   -1    0    0  503  504 -0.00000000000E+00 -0.00000000000E+00 -0.16977664811E+03  0.16977664811E+03  0.00000000000E+00 0. -1.
         -6    2    1    2    0  504  0.13936831084E+03  0.10751653608E+03 -0.24009819056E+02  0.24898985591E+03  0.17445958081E+03 0.  0.
        -24    2    3    3    0    0  0.88921902493E+02 -0.53519734498E+01  0.12577761411E+02  0.11997481181E+03  0.79372583583E+02 0.  0.
          6    2    1    2  502    0 -0.13936831084E+03 -0.10751653608E+03  0.42287088501E+03  0.48942450626E+03  0.17243326346E+03 0.  0.
         24    2    5    5    0    0 -0.49195697796E+02 -0.11246156479E+03  0.31782562225E+03  0.35081660360E+03  0.83614250975E+02 0.  0.
          4    1    6    6  501    0  0.19916857174E+02 -0.51801040210E+01  0.52715811172E+02  0.56590382795E+02  0.00000000000E+00 0. -1.
         -3    1    6    6    0  501 -0.69112554971E+02 -0.10728146077E+03  0.26510981108E+03  0.29422622080E+03  0.00000000000E+00 0.  1.
          5    1    5    5  502    0 -0.90172613047E+02  0.49450287144E+01  0.10504526276E+03  0.13860790266E+03  0.47000000000E+01 0. -1.
         13    1    4    4    0    0  0.96939128949E+02 -0.26069741682E+01  0.29235678104E+02  0.10128531932E+03  0.00000000000E+00 0. -1.
        -14    1    4    4    0    0 -0.80172264553E+01 -0.27449992816E+01 -0.16657916693E+02  0.18689492493E+02  0.00000000000E+00 0.  1.
         -5    1    3    3    0  504  0.50446408350E+02  0.11286850953E+03 -0.36587580467E+02  0.12901504409E+03  0.47000000000E+01 0.  1.
<mgrwt>
<rscale>  2 0.24747321E+03</rscale>
<asrwt>0</asrwt>
<pdfrwt beam="1">  1       21 0.87482724E-01 0.24782953E+03</pdfrwt>
<pdfrwt beam="2">  1       21 0.26119485E-01 0.24782953E+03</pdfrwt>
<totfact> 0.15123943E+04</totfact>
</mgrwt>
</event>
<event>
12    1  0.2743855E-001  0.2143585E+03  0.7546771E-02  0.1141315E+00
         21   -1    0    0  502  503  0.00000000000E+00  0.00000000000E+00  0.11676461564E+04  0.11676461564E+04  0.00000000000E+00 0. -1.
         21   -1    0    0  503  504 -0.00000000000E+00 -0.00000000000E+00 -0.49347901051E+02  0.49347901051E+02  0.00000000000E+00 0. -1.
         -6    2    1    2    0  504  0.39104762244E+02 -0.90847414117E+02  0.23333426081E+03  0.30643882963E+03  0.17227142524E+03 0.  0.
        -24    2    3    3    0    0 -0.30271195395E+02 -0.87638125132E+02  0.10878958292E+03  0.16376160711E+03  0.79911853713E+02 0.  0.
          6    2    1    2  502    0 -0.39104762244E+02  0.90847414117E+02  0.88496399457E+03  0.91055522785E+03  0.19017653959E+03 0.  0.
         24    2    5    5    0    0 -0.89764868527E+02  0.41268007273E+02  0.38692669469E+03  0.40747689795E+03  0.81020832213E+02 0.  0.
          2    1    6    6  501    0 -0.10212802436E+03  0.23046158657E+02  0.33752459767E+03  0.35338946337E+03  0.00000000000E+00 0. -1.
         -1    1    6    6    0  501  0.12363155838E+02  0.18221848616E+02  0.49402097021E+02  0.54087434579E+02  0.00000000000E+00 0.  1.
          5    1    5    5  502    0  0.50660106283E+02  0.49579406845E+02  0.49803729987E+03  0.50307832990E+03  0.47000000000E+01 0. -1.
         11    1    4    4    0    0 -0.78449161627E+01 -0.60428280257E+02  0.13855559117E+02  0.62490769582E+02  0.00000000000E+00 0. -1.
        -12    1    4    4    0    0 -0.22426279232E+02 -0.27209844874E+02  0.94934023799E+02  0.10127083752E+03  0.00000000000E+00 0.  1.
         -5    1    3    3    0  504  0.69375957639E+02 -0.32092889854E+01  0.12454467790E+03  0.14267722252E+03  0.47000000000E+01 0.  1.
<mgrwt>
<rscale>  2 0.21031728E+03</rscale>
<asrwt>0</asrwt>
<pdfrwt beam="1">  1       21 0.17963785E+00 0.21435846E+03</pdfrwt>
<pdfrwt beam="2">  1       21 0.75919857E-02 0.21435846E+03</pdfrwt>
<totfact> 0.23696077E+04</totfact>
</mgrwt>
</event>
<event>
12    1  0.2743855E-001  0.1738687E+03  0.7546771E-02  0.1174630E+00
         21   -1    0    0  502  503  0.00000000000E+00  0.00000000000E+00  0.20019506225E+02  0.20019506225E+02  0.00000000000E+00 0.  1.
         21   -1    0    0  503  504 -0.00000000000E+00 -0.00000000000E+00 -0.14923691908E+04  0.14923691908E+04  0.00000000000E+00 0.  1.
         -6    2    1    2    0  504 -0.83334768147E+00 -0.22280614778E+02 -0.67463764841E+03  0.69594836256E+03  0.16944334287E+03 0.  0.
        -24    2    3    3    0    0  0.27090722712E+02 -0.29191814281E+02 -0.65429840022E+03  0.66040552358E+03  0.80268236398E+02 0.  0.
          6    2    1    2  502    0  0.83334768147E+00  0.22280614778E+02 -0.79771203619E+03  0.81644033449E+03  0.17243319525E+03 0.  0.
         24    2    5    5    0    0 -0.35194630065E+02 -0.39831663583E+02 -0.55082931390E+03  0.55928450844E+03  0.81000030356E+02 0.  0.
          2    1    6    6  501    0 -0.29554870395E+02 -0.23642542493E+02 -0.83912369240E+02  0.92052951561E+02  0.00000000000E+00 0. -1.
         -1    1    6    6    0  501 -0.56397596700E+01 -0.16189121090E+02 -0.46691694466E+03  0.46723155688E+03  0.00000000000E+00 0.  1.
          5    1    5    5  502    0  0.36027977747E+02  0.62112278362E+02 -0.24688272229E+03  0.25715582605E+03  0.47000000000E+01 0. -1.
         11    1    4    4    0    0 -0.73151905401E+01 -0.36132274926E+02 -0.52902737079E+03  0.53031029817E+03  0.00000000000E+00 0. -1.
        -12    1    4    4    0    0  0.34405913252E+02  0.69404606455E+01 -0.12527102943E+03  0.13009522541E+03  0.00000000000E+00 0.  1.
         -5    1    3    3    0  504 -0.27924070393E+02  0.69111995022E+01 -0.20339248191E+02  0.35542838982E+02  0.47000000000E+01 0.  1.
<mgrwt>
<rscale>  2 0.17312274E+03</rscale>
<asrwt>0</asrwt>
<pdfrwt beam="1">  1       21 0.30799226E-02 0.17386871E+03</pdfrwt>
<pdfrwt beam="2">  1       21 0.22959537E+00 0.17386871E+03</pdfrwt>
<totfact> 0.54014147E+04</totfact>
</mgrwt>
</event>
<event>
12    1  0.2743855E-001  0.1840563E+03  0.7546771E-02  0.1165430E+00
         21   -1    0    0  502  503  0.00000000000E+00  0.00000000000E+00  0.36890637275E+03  0.36890637275E+03  0.00000000000E+00 0. -1.
         21   -1    0    0  503  504 -0.00000000000E+00 -0.00000000000E+00 -0.24443532509E+03  0.24443532509E+03  0.00000000000E+00 0. -1.
         -6    2    1    2    0  504  0.28972563114E+01 -0.45016110593E+02 -0.18211441065E+03  0.25892544085E+03  0.17844293499E+03 0.  0.
        -24    2    3    3    0    0 -0.61936729586E+02 -0.57075640480E+02 -0.94563022263E+02  0.14921576217E+03  0.78926492963E+02 0.  0.
          6    2    1    2  502    0 -0.28972563114E+01  0.45016110593E+02  0.30658545831E+03  0.35441625700E+03  0.17199242911E+03 0.  0.
         24    2    5    5    0    0  0.45243996163E+02  0.21241115608E+02  0.12503802998E+03  0.16503730012E+03  0.95418013542E+02 0.  0.
          2    1    6    6  501    0 -0.25037671324E+02 -0.10356094779E+02  0.15831123442E+02  0.31380856487E+02  0.00000000000E+00 0. -1.
         -1    1    6    6    0  501  0.70281667487E+02  0.31597210387E+02  0.10920690654E+03  0.13365644363E+03  0.00000000000E+00 0.  1.
          5    1    5    5  502    0 -0.48141252475E+02  0.23774994985E+02  0.18154742833E+03  0.18937895688E+03  0.47000000000E+01 0. -1.
         13    1    4    4    0    0  0.26758269654E+01 -0.50306286098E+02 -0.38512522323E+02  0.63412119083E+02  0.00000000000E+00 0. -1.
        -14    1    4    4    0    0 -0.64612556552E+02 -0.67693543823E+01 -0.56050499939E+02  0.85803643083E+02  0.00000000000E+00 0.  1.
         -5    1    3    3    0  504  0.64833985898E+02  0.12059529887E+02 -0.87551388385E+02  0.10970967868E+03  0.47000000000E+01 0.  1.
<mgrwt>
<rscale>  2 0.18247434E+03</rscale>
<asrwt>0</asrwt>
<pdfrwt beam="1">  1       21 0.56754826E-01 0.18405631E+03</pdfrwt>
<pdfrwt beam="2">  1       21 0.37605435E-01 0.18405631E+03</pdfrwt>
<totfact> 0.20003033E+04</totfact>
</mgrwt>
</event>
<event>
12    1  0.2743855E-001  0.1752766E+03  0.7546771E-02  0.1172458E+00
         21   -1    0    0  502  503  0.00000000000E+00  0.00000000000E+00  0.85010227440E+03  0.85010227440E+03  0.00000000000E+00 0. -1.
         21   -1    0    0  503  504 -0.00000000000E+00 -0.00000000000E+00 -0.43694090919E+02  0.43694090919E+02  0.00000000000E+00 0. -1.
         -6    2    1    2    0  504  0.17064665761E+02  0.18460608182E+02  0.21735115166E+03  0.27921926180E+03  0.17346433685E+03 0.  0.
        -24    2    3    3    0    0  0.29740043446E+02 -0.45323016439E+02  0.10373417593E+03  0.14822337201E+03  0.90943624013E+02 0.  0.
          6    2    1    2  502    0 -0.17064665761E+02 -0.18460608182E+02  0.58905703182E+03  0.61457710352E+03  0.17344979839E+03 0.  0.
         24    2    5    5    0    0  0.12691300972E+02 -0.75287440796E+02  0.39267661922E+03  0.40793232881E+03  0.79903627864E+02 0.  0.
          4    1    6    6  501    0 -0.12161616569E+02 -0.55238404676E+02  0.11226490269E+03  0.12570837142E+03  0.00000000000E+00 0. -1.
         -3    1    6    6    0  501  0.24852917541E+02 -0.20049036120E+02  0.28041171652E+03  0.28222395739E+03  0.00000000000E+00 0.  1.
          5    1    5    5  502    0 -0.29755966732E+02  0.56826832614E+02  0.19638041261E+03  0.20664477471E+03  0.47000000000E+01 0. -1.
         13    1    4    4    0    0  0.33774422477E+02  0.13061640950E+02  0.74432557842E+02  0.82773931554E+02  0.00000000000E+00 0. -1.
        -14    1    4    4    0    0 -0.40343790305E+01 -0.58384657389E+02  0.29301618092E+02  0.65449440452E+02  0.00000000000E+00 0.  1.
         -5    1    3    3    0  504 -0.12675377686E+02  0.63783624622E+02  0.11361697572E+03  0.13099588979E+03  0.47000000000E+01 0.  1.
<mgrwt>
<rscale>  2 0.17527296E+03</rscale>
<asrwt>0</asrwt>
<pdfrwt beam="1">  1       21 0.13078495E+00 0.17527656E+03</pdfrwt>
<pdfrwt beam="2">  1       21 0.67221685E-02 0.17527656E+03</pdfrwt>
<totfact> 0.69657674E+04</totfact>
</mgrwt>
</event>
<event>
12    1  0.2743855E-001  0.1905232E+03  0.7546771E-02  0.1158328E+00
         21   -1    0    0  502  503  0.00000000000E+00  0.00000000000E+00  0.13852510003E+03  0.13852510003E+03  0.00000000000E+00 0. -1.
         21   -1    0    0  503  504 -0.00000000000E+00 -0.00000000000E+00 -0.31338294333E+03  0.31338294333E+03  0.00000000000E+00 0.  1.
         -6    2    1    2    0  504 -0.56512639461E+02  0.52411216971E+02 -0.18098497816E+03  0.26278249394E+03  0.17423680070E+03 0.  0.
        -24    2    3    3    0    0  0.15203135264E+02 -0.23738265382E+02 -0.69285812182E+02  0.10967896790E+03  0.80214161243E+02 0.  0.
          6    2    1    2  502    0  0.56512639461E+02 -0.52411216971E+02  0.61271348610E+01  0.18912554942E+03  0.17259871836E+03 0.  0.
         24    2    5    5    0    0  0.39834567187E+02 -0.10011087763E+03 -0.13379792234E+02  0.13475620211E+03  0.79820013809E+02 0.  0.
          2    1    6    6  501    0  0.45086881973E+02 -0.19046714208E+02  0.10553572176E+02  0.50069772656E+02  0.00000000000E+00 0. -1.
         -1    1    6    6    0  501 -0.52523147856E+01 -0.81064163423E+02 -0.23933364410E+02  0.84686429456E+02  0.00000000000E+00 0.  1.
          5    1    5    5  502    0  0.16678072273E+02  0.47699660660E+02  0.19506927095E+02  0.54369347306E+02  0.47000000000E+01 0. -1.
         13    1    4    4    0    0 -0.17155810204E+02 -0.38641331619E+02 -0.59025585440E+02  0.72605055399E+02  0.00000000000E+00 0. -1.
        -14    1    4    4    0    0  0.32358945468E+02  0.14903066237E+02 -0.10260226742E+02  0.37073912497E+02  0.00000000000E+00 0.  1.
         -5    1    3    3    0  504 -0.71715774725E+02  0.76149482353E+02 -0.11169916598E+03  0.15310352604E+03  0.47000000000E+01 0.  1.
<mgrwt>
<rscale>  2 0.19014783E+03</rscale>
<asrwt>0</asrwt>
<pdfrwt beam="1">  1       21 0.21311554E-01 0.19052317E+03</pdfrwt>
<pdfrwt beam="2">  1       21 0.48212760E-01 0.19052317E+03</pdfrwt>
<totfact> 0.84303181E+04</totfact>
</mgrwt>
</event>
<event>
12    1  0.2743855E-001  0.3009941E+03  0.7546771E-02  0.1085063E+00
         21   -1    0    0  502  503  0.00000000000E+00  0.00000000000E+00  0.16563357933E+03  0.16563357933E+03  0.00000000000E+00 0.  1.
         21   -1    0    0  503  504 -0.00000000000E+00 -0.00000000000E+00 -0.62908652842E+03  0.62908652842E+03  0.00000000000E+00 0. -1.
         -6    2    1    2    0  504  0.24411526061E+03  0.35115594454E+02 -0.37841256528E+03  0.48194335935E+03  0.16807131409E+03 0.  0.
        -24    2    3    3    0    0  0.24149480262E+03  0.58494310445E+02 -0.37616143045E+03  0.45784794963E+03  0.79912446937E+02 0.  0.
          6    2    1    2  502    0 -0.24411526061E+03 -0.35115594454E+02 -0.85040383813E+02  0.31277674840E+03  0.17254582587E+03 0.  0.
         24    2    5    5    0    0 -0.22768474710E+03  0.14432406970E+02 -0.96772727569E+02  0.25906730687E+03  0.75513377983E+02 0.  0.
          4    1    6    6  501    0 -0.99286799844E+02  0.43388102376E+02 -0.50549753692E+02  0.11956451668E+03  0.00000000000E+00 0. -1.
         -3    1    6    6    0  501 -0.12839794726E+03 -0.28955695406E+02 -0.46222973877E+02  0.13950279019E+03  0.00000000000E+00 0.  1.
          5    1    5    5  502    0 -0.16430513507E+02 -0.49548001425E+02  0.11732343756E+02  0.53709441529E+02  0.47000000000E+01 0. -1.
         13    1    4    4    0    0  0.12982245275E+03 -0.96067386945E+01 -0.19140086872E+03  0.23147451526E+03  0.00000000000E+00 0. -1.
        -14    1    4    4    0    0  0.11167234987E+03  0.68101049139E+02 -0.18476056172E+03  0.22637343437E+03  0.00000000000E+00 0.  1.
         -5    1    3    3    0  504  0.26204579923E+01 -0.23378715991E+02 -0.22511348328E+01  0.24095409718E+02  0.47000000000E+01 0.  1.
<mgrwt>
<rscale>  2 0.30035642E+03</rscale>
<asrwt>0</asrwt>
<pdfrwt beam="1">  1       21 0.25482089E-01 0.30099407E+03</pdfrwt>
<pdfrwt beam="2">  1       21 0.96782543E-01 0.30099407E+03</pdfrwt>
<totfact> 0.12196397E+04</totfact>
</mgrwt>
</event>
<event>
12    1  0.2743855E-001  0.2081571E+03  0.7546771E-02  0.1143205E+00
         21   -1    0    0  502  503  0.00000000000E+00  0.00000000000E+00  0.10310024183E+03  0.10310024183E+03  0.00000000000E+00 0.  1.
         21   -1    0    0  503  504 -0.00000000000E+00 -0.00000000000E+00 -0.87280426650E+03  0.87280426650E+03  0.00000000000E+00 0. -1.
         -6    2    1    2    0  504  0.34845349505E+02 -0.11143794000E+03 -0.73725601972E+03  0.76607821865E+03  0.17232755330E+03 0.  0.
        -24    2    3    3    0    0  0.79365586151E+02 -0.43318333642E+02 -0.52347737128E+03  0.53728632026E+03  0.80452827173E+02 0.  0.
          6    2    1    2  502    0 -0.34845349505E+02  0.11143794000E+03 -0.32448004955E+02  0.20982628968E+03  0.17129385851E+03 0.  0.
         24    2    5    5    0    0  0.17657248935E+02  0.34895279054E+02  0.34540547728E+02  0.95262517142E+02  0.79702188142E+02 0.  0.
          2    1    6    6  501    0  0.30939482013E+02  0.34735188241E+02 -0.11020895393E+02  0.47804236053E+02  0.00000000000E+00 0. -1.
         -1    1    6    6    0  501 -0.13282233079E+02  0.16009081301E+00  0.45561443121E+02  0.47458281089E+02  0.00000000000E+00 0.  1.
          5    1    5    5  502    0 -0.52502598439E+02  0.76542660946E+02 -0.66988552683E+02  0.11456377254E+03  0.47000000000E+01 0. -1.
         13    1    4    4    0    0  0.55266299603E+01  0.52204085735E+01 -0.24516696408E+03  0.24528480707E+03  0.00000000000E+00 0. -1.
        -14    1    4    4    0    0  0.73838956190E+02 -0.48538742215E+02 -0.27831040720E+03  0.29200151319E+03  0.00000000000E+00 0.  1.
         -5    1    3    3    0  504 -0.44520236646E+02 -0.68119606358E+02 -0.21377864843E+03  0.22879189839E+03  0.47000000000E+01 0.  1.
<mgrwt>
<rscale>  2 0.20794308E+03</rscale>
<asrwt>0</asrwt>
<pdfrwt beam="1">  1       21 0.15861575E-01 0.20815715E+03</pdfrwt>
<pdfrwt beam="2">  1       21 0.13427759E+00 0.20815715E+03</pdfrwt>
<totfact> 0.13958040E+04</totfact>
</mgrwt>
</event>
<event>
12    1  0.2743855E-001  0.2051424E+03  0.7546771E-02  0.1146099E+00
         21   -1    0    0  502  503  0.00000000000E+00  0.00000000000E+00  0.45195818196E+03  0.45195818196E+03  0.00000000000E+00 0.  1.
         21   -1    0    0  503  504 -0.00000000000E+00 -0.00000000000E+00 -0.36775254619E+03  0.36775254619E+03  0.00000000000E+00 0. -1.
         -6    2    1    2    0  504 -0.10493025785E+03 -0.34777646806E+02 -0.31289183452E+03  0.37414529784E+03  0.17281076372E+03 0.  0.
        -24    2    3    3    0    0 -0.10595783176E+03 -0.67181337144E+01 -0.12438747419E+03  0.18350328766E+03  0.83240719690E+02 0.  0.
          6    2    1    2  502    0  0.10493025785E+03  0.34777646806E+02  0.39709747030E+03  0.44556543031E+03  0.16918128751E+03 0.  0.
         24    2    5    5    0    0  0.91610186220E+02  0.35920191048E+02  0.40854696752E+03  0.42734701375E+03  0.77666975920E+02 0.  0.
          2    1    6    6  501    0 -0.21485552233E+00 -0.18131237839E+02  0.45281076647E+02  0.48776673224E+02  0.00000000000E+00 0. -1.
         -1    1    6    6    0  501  0.91825041742E+02  0.54051428887E+02  0.36326589087E+03  0.37857034052E+03  0.00000000000E+00 0.  1.
          5    1    5    5  502    0  0.13320071628E+02 -0.11425442415E+01 -0.11449497219E+02  0.18218416564E+02  0.47000000000E+01 0. -1.
         13    1    4    4    0    0 -0.24256507671E+02  0.15952192058E+02  0.43467262982E+01  0.29355487143E+02  0.00000000000E+00 0. -1.
        -14    1    4    4    0    0 -0.81701324085E+02 -0.22670325773E+02 -0.12873420049E+03  0.15414780052E+03  0.00000000000E+00 0.  1.
         -5    1    3    3    0  504  0.10275739092E+01 -0.28059513092E+02 -0.18850436033E+03  0.19064201018E+03  0.47000000000E+01 0.  1.
<mgrwt>
<rscale>  2 0.20437612E+03</rscale>
<asrwt>0</asrwt>
<pdfrwt beam="1">  1       21 0.69532028E-01 0.20514240E+03</pdfrwt>
<pdfrwt beam="2">  1       21 0.56577315E-01 0.20514240E+03</pdfrwt>
<totfact> 0.54718628E+03</totfact>
</mgrwt>
</event>
<event>
12    1  0.2743855E-001  0.1989490E+03  0.7546771E-02  0.1151094E+00
         21   -1    0    0  502  503  0.00000000000E+00  0.00000000000E+00  0.14501579755E+04  0.14501579755E+04  0.00000000000E+00 0. -1.
         21   -1    0    0  503  504 -0.00000000000E+00 -0.00000000000E+00 -0.27282616102E+02  0.27282616102E+02  0.00000000000E+00 0.  1.
         -6    2    1    2    0  504  0.92874933000E+02 -0.25579266726E+02  0.63965137494E+03  0.66987653286E+03  0.17407077801E+03 0.  0.
        -24    2    3    3    0    0 -0.16397049849E+02 -0.18628909462E+01  0.34243843965E+03  0.35229118745E+03  0.81071956944E+02 0.  0.
          6    2    1    2  502    0 -0.92874933000E+02  0.25579266726E+02  0.78322398449E+03  0.80756405876E+03  0.17158043906E+03 0.  0.
         24    2    5    5    0    0  0.60583125835E+01  0.41329614402E+02  0.28300076726E+03  0.29738642540E+03  0.81267530810E+02 0.  0.
          2    1    6    6  501    0  0.37652001750E+02  0.17922965069E+02  0.21349879597E+03  0.21753308207E+03  0.00000000000E+00 0. -1.
         -1    1    6    6    0  501 -0.31593689167E+02  0.23406649333E+02  0.69501971285E+02  0.79853343328E+02  0.00000000000E+00 0.  1.
          5    1    5    5  502    0 -0.98933245584E+02 -0.15750347676E+02  0.50022321723E+03  0.51017763337E+03  0.47000000000E+01 0. -1.
         11    1    4    4    0    0  0.23850069105E+02  0.13710775578E+02  0.23352062587E+03  0.23513547982E+03  0.00000000000E+00 0. -1.
        -12    1    4    4    0    0 -0.40247118954E+02 -0.15573666524E+02  0.10891781377E+03  0.11715570763E+03  0.00000000000E+00 0.  1.
         -5    1    3    3    0  504  0.10927198285E+03 -0.23716375780E+02  0.29721293529E+03  0.31758534541E+03  0.47000000000E+01 0.  1.
<mgrwt>
<rscale>  2 0.19840291E+03</rscale>
<asrwt>0</asrwt>
<pdfrwt beam="1">  1       21 0.22310117E+00 0.19894896E+03</pdfrwt>
<pdfrwt beam="2">  1       21 0.41973267E-02 0.19894896E+03</pdfrwt>
<totfact> 0.34641394E+04</totfact>
</mgrwt>
</event>
<event>
12    1  0.2743855E-001  0.1773410E+03  0.7546771E-02  0.1170786E+00
         21   -1    0    0  502  503  0.00000000000E+00  0.00000000000E+00  0.11213545890E+03  0.11213545890E+03  0.00000000000E+00 0. -1.
         21   -1    0    0  503  504 -0.00000000000E+00 -0.00000000000E+00 -0.37686468347E+03  0.37686468347E+03  0.00000000000E+00 0. -1.
         -6    2    1    2    0  504  0.22493820707E+02  0.29489185929E+02 -0.25715612993E+03  0.31149747680E+03  0.17183078548E+03 0.  0.
        -24    2    3    3    0    0  0.55222769070E+02  0.68550721145E+02 -0.15230032541E+03  0.19481921261E+03  0.83728017347E+02 0.  0.
          6    2    1    2  502    0 -0.22493820707E+02 -0.29489185929E+02 -0.75730946358E+01  0.17750266557E+03  0.17341931975E+03 0.  0.
         24    2    5    5    0    0 -0.26385788982E+02  0.26312486949E+02 -0.55467129401E+02  0.10371308175E+03  0.79317362874E+02 0.  0.
          4    1    6    6  501    0 -0.43016306915E+02 -0.15826246726E+01 -0.56729828254E+02  0.71212223496E+02  0.00000000000E+00 0. -1.
         -3    1    6    6    0  501  0.16630517933E+02  0.27895111622E+02  0.12626988527E+01  0.32500858258E+02  0.00000000000E+00 0.  1.
          5    1    5    5  502    0  0.38919682750E+01 -0.55801672879E+02  0.47894034765E+02  0.73789583813E+02  0.47000000000E+01 0. -1.
         11    1    4    4    0    0 -0.18012116871E+02  0.89290490634E+00 -0.44313936146E+02  0.47843061880E+02  0.00000000000E+00 0. -1.
        -12    1    4    4    0    0  0.73234885941E+02  0.67657816239E+02 -0.10798638926E+03  0.14697615073E+03  0.00000000000E+00 0.  1.
         -5    1    3    3    0  504 -0.32728948363E+02 -0.39061535216E+02 -0.10485580452E+03  0.11667826420E+03  0.47000000000E+01 0.  1.
<mgrwt>
<rscale>  2 0.17695149E+03</rscale>
<asrwt>0</asrwt>
<pdfrwt beam="1">  1       21 0.17251609E-01 0.17734104E+03</pdfrwt>
<pdfrwt beam="2">  1       21 0.57979184E-01 0.17734104E+03</pdfrwt>
<totfact> 0.85196078E+04</totfact>
</mgrwt>
</event>
<event>
12    1  0.2743855E-001  0.1714867E+03  0.7546771E-02  0.1179147E+00
         21   -1    0    0  502  503  0.00000000000E+00  0.00000000000E+00  0.20906979080E+03  0.20906979080E+03  0.00000000000E+00 0.  1.
         21   -1    0    0  503  504 -0.00000000000E+00 -0.00000000000E+00 -0.18552447717E+03  0.18552447717E+03  0.00000000000E+00 0. -1.
         -6    2    1    2    0  504 -0.34662504430E+02 -0.38631347262E+01 -0.94371002953E+02  0.18647902295E+03  0.15700995757E+03 0.  0.
        -24    2    3    3    0    0 -0.10783420905E+02  0.49693941681E+02 -0.81812202062E+02  0.12632601352E+03  0.81726710929E+02 0.  0.
          6    2    1    2  502    0  0.34662504430E+02  0.38631347262E+01  0.11791631658E+03  0.20811524502E+03  0.16790260413E+03 0.  0.
         24    2    5    5    0    0 -0.17653074112E+02  0.18320582340E+01  0.13030170252E+03  0.15411031178E+03  0.80352144054E+02 0.  0.
          2    1    6    6  501    0 -0.86943889082E+01  0.31179117572E+02  0.11567500513E+03  0.12011842732E+03  0.00000000000E+00 0. -1.
         -1    1    6    6    0  501 -0.89586852033E+01 -0.29347059338E+02  0.14626697393E+02  0.33991884458E+02  0.00000000000E+00 0.  1.
          5    1    5    5  502    0  0.52315578541E+02  0.20310764921E+01 -0.12385385943E+02  0.54004933245E+02  0.47000000000E+01 0. -1.
         13    1    4    4    0    0 -0.32943788469E+02  0.28388372532E+02 -0.52262482304E+01  0.43800759860E+02  0.00000000000E+00 0. -1.
        -14    1    4    4    0    0  0.22160367564E+02  0.21305569148E+02 -0.76585953832E+02  0.82525253660E+02  0.00000000000E+00 0.  1.
         -5    1    3    3    0  504 -0.23879083524E+02 -0.53557076407E+02 -0.12558800891E+02  0.60153009426E+02  0.47000000000E+01 0.  1.
<mgrwt>
<rscale>  2 0.16875994E+03</rscale>
<asrwt>0</asrwt>
<pdfrwt beam="1">  1       21 0.32164583E-01 0.17148673E+03</pdfrwt>
<pdfrwt beam="2">  1       21 0.28542227E-01 0.17148673E+03</pdfrwt>
<totfact> 0.11001046E+05</totfact>
</mgrwt>
</event>
<event>
12    1  0.2743855E-001  0.2072996E+03  0.7546771E-02  0.1143933E+00
         21   -1    0    0  502  503  0.00000000000E+00  0.00000000000E+00  0.45070132572E+02  0.45070132572E+02  0.00000000000E+00 0.  1.
         21   -1    0    0  503  504 -0.00000000000E+00 -0.00000000000E+00 -0.22382160746E+04  0.22382160746E+04  0.00000000000E+00 0.  1.
         -6    2    1    2    0  504 -0.36668425771E+02 -0.10730847234E+03 -0.19619538843E+04  0.19727658222E+04  0.17228541330E+03 0.  0.
        -24    2    3    3    0    0 -0.25827135798E+02 -0.13916551932E+03 -0.13265829428E+04  0.13364870089E+04  0.79631263539E+02 0.  0.
          6    2    1    2  502    0  0.36668425771E+02  0.10730847234E+03 -0.23119205774E+03  0.31052038494E+03  0.17353230308E+03 0.  0.
         24    2    5    5    0    0  0.35441711000E+02  0.94632240127E+02 -0.61740431423E+02  0.14052586928E+03  0.75658861433E+02 0.  0.
          2    1    6    6  501    0 -0.17690904137E+02  0.35319879230E+02 -0.43641014246E+02  0.58864251311E+02  0.00000000000E+00 0. -1.
         -1    1    6    6    0  501  0.53132615136E+02  0.59312360897E+02 -0.18099417177E+02  0.81661617964E+02  0.00000000000E+00 0.  1.
          5    1    5    5  502    0  0.12267147717E+01  0.12676232208E+02 -0.16945162632E+03  0.16999451566E+03  0.47000000000E+01 0. -1.
         13    1    4    4    0    0  0.17043359661E+02 -0.72311202243E+00 -0.11286514225E+03  0.11414700756E+03  0.00000000000E+00 0. -1.
        -14    1    4    4    0    0 -0.42870495459E+02 -0.13844240730E+03 -0.12137178006E+04  0.12223400014E+04  0.00000000000E+00 0.  1.
         -5    1    3    3    0  504 -0.10841289973E+02  0.31857046983E+02 -0.63537094144E+03  0.63627881328E+03  0.47000000000E+01 0.  1.
<mgrwt>
<rscale>  2 0.20703849E+03</rscale>
<asrwt>0</asrwt>
<pdfrwt beam="1">  1       21 0.69338675E-02 0.20729964E+03</pdfrwt>
<pdfrwt beam="2">  1       21 0.34434089E+00 0.20729964E+03</pdfrwt>
<totfact> 0.28494424E+03</totfact>
</mgrwt>
</event>
<event>
12    1  0.2743855E-001  0.2149589E+03  0.7546771E-02  0.1138390E+00
         21   -1    0    0  502  503  0.00000000000E+00  0.00000000000E+00  0.16509339585E+04  0.16509339585E+04  0.00000000000E+00 0.  1.
         21   -1    0    0  503  504 -0.00000000000E+00 -0.00000000000E+00 -0.44445939153E+02  0.44445939153E+02  0.00000000000E+00 0.  1.
         -6    2    1    2    0  504 -0.12222323521E+03 -0.58038910559E+01  0.28439555599E+03  0.35649423788E+03  0.17673456083E+03 0.  0.
        -24    2    3    3    0    0 -0.11813250965E+03  0.44337552909E+02  0.17227576652E+03  0.23351523304E+03  0.94495057526E+02 0.  0.
          6    2    1    2  502    0  0.12222323521E+03  0.58038910559E+01  0.13220924633E+04  0.13388856598E+04  0.17237785219E+03 0.  0.
         24    2    5    5    0    0 -0.15318826806E+01 -0.78096325960E+01  0.45797791929E+03  0.46583543643E+03  0.84826542118E+02 0.  0.
          4    1    6    6  501    0 -0.35341468584E+02 -0.33074977600E+01  0.97730703752E+02  0.10397715806E+03  0.00000000000E+00 0. -1.
         -3    1    6    6    0  501  0.33809585903E+02 -0.45021348361E+01  0.36024721554E+03  0.36185827836E+03  0.00000000000E+00 0.  1.
          5    1    5    5  502    0  0.12375511789E+03  0.13613523652E+02  0.86411454404E+03  0.87305022333E+03  0.47000000000E+01 0. -1.
         11    1    4    4    0    0 -0.10105920354E+03  0.57072819436E+02  0.17703735388E+03  0.21168961714E+03  0.00000000000E+00 0. -1.
        -12    1    4    4    0    0 -0.17073306110E+02 -0.12735266527E+02 -0.47615873576E+01  0.21825615895E+02  0.00000000000E+00 0.  1.
         -5    1    3    3    0  504 -0.40907255555E+01 -0.50141443965E+02  0.11211978948E+03  0.12297900484E+03  0.47000000000E+01 0.  1.
<mgrwt>
<rscale>  2 0.21406139E+03</rscale>
<asrwt>0</asrwt>
<pdfrwt beam="1">  1       21 0.25398979E+00 0.21495886E+03</pdfrwt>
<pdfrwt beam="2">  1       21 0.68378381E-02 0.21495886E+03</pdfrwt>
<totfact> 0.97194418E+03</totfact>
</mgrwt>
</event>
<event>
12    1  0.2743855E-001  0.1875265E+03  0.7546771E-02  0.1160892E+00
         21   -1    0    0  502  503  0.00000000000E+00  0.00000000000E+00  0.18519656836E+02  0.18519656836E+02  0.00000000000E+00 0.  1.
         21   -1    0    0  503  504 -0.00000000000E+00 -0.00000000000E+00 -0.18966843749E+04  0.18966843749E+04  0.00000000000E+00 0.  1.
         -6    2    1    2    0  504  0.30336493101E+02 -0.62797219825E+02 -0.88417171681E+03  0.90367633271E+03  0.17322671809E+03 0.  0.
        -24    2    3    3    0    0  0.75442705024E+02 -0.80458800892E+02 -0.57649569059E+03  0.59217492194E+03  0.78476980861E+02 0.  0.
          6    2    1    2  502    0 -0.30336493101E+02  0.62797219825E+02 -0.99399300123E+03  0.10115276990E+04  0.17407586198E+03 0.  0.
         24    2    5    5    0    0  0.42753575924E+02  0.20149770401E+01 -0.42467890425E+03  0.43431260023E+03  0.80270384450E+02 0.  0.
          4    1    6    6  501    0  0.43221356519E+02 -0.23560200305E+02 -0.37704756713E+03  0.38024733605E+03  0.00000000000E+00 0. -1.
         -3    1    6    6    0  501 -0.46778059580E+00  0.25575177345E+02 -0.47631337123E+02  0.54065264182E+02  0.00000000000E+00 0.  1.
          5    1    5    5  502    0 -0.73090069025E+02  0.60782242785E+02 -0.56931409698E+03  0.57721509877E+03  0.47000000000E+01 0. -1.
         11    1    4    4    0    0  0.73363893563E+02 -0.24242104124E+02 -0.28424749836E+03  0.29456167574E+03  0.00000000000E+00 0. -1.
        -12    1    4    4    0    0  0.20788114615E+01 -0.56216696768E+02 -0.29224819223E+03  0.29761324620E+03  0.00000000000E+00 0.  1.
         -5    1    3    3    0  504 -0.45106211923E+02  0.17661581067E+02 -0.30767602622E+03  0.31150141077E+03  0.47000000000E+01 0.  1.
<mgrwt>
<rscale>  2 0.18732923E+03</rscale>
<asrwt>0</asrwt>
<pdfrwt beam="1">  1       21 0.28491777E-02 0.18752653E+03</pdfrwt>
<pdfrwt beam="2">  1       21 0.29179762E+00 0.18752653E+03</pdfrwt>
<totfact> 0.26351561E+04</totfact>
</mgrwt>
</event>
<event>
12    1  0.2743855E-001  0.2171646E+03  0.7546771E-02  0.1136093E+00
         21   -1    0    0  502  503  0.00000000000E+00  0.00000000000E+00  0.14186248496E+03  0.14186248496E+03  0.00000000000E+00 0.  1.
         21   -1    0    0  503  504 -0.00000000000E+00 -0.00000000000E+00 -0.40924684141E+03  0.40924684141E+03  0.00000000000E+00 0.  1.
         -6    2    1    2    0  504  0.12706445618E+03  0.32234328764E+02 -0.25366189273E+03  0.33392334111E+03  0.17313582511E+03 0.  0.
        -24    2    3    3    0    0  0.38926826515E+02  0.72130926405E+02 -0.17970793369E+03  0.21205760218E+03  0.77170699391E+02 0.  0.
          6    2    1    2  502    0 -0.12706445618E+03 -0.32234328764E+02 -0.13722463714E+02  0.21718598526E+03  0.17261812827E+03 0.  0.
         24    2    5    5    0    0 -0.33704392123E+02  0.36414945263E+02  0.24748478791E+02  0.94993809555E+02  0.77131720871E+02 0.  0.
          2    1    6    6  501    0 -0.27513120759E+02  0.27118679857E+02  0.52440740643E+02  0.65133907378E+02  0.00000000000E+00 0. -1.
         -1    1    6    6    0  501 -0.61912713645E+01  0.92962654053E+01 -0.27692261852E+02  0.29859902178E+02  0.00000000000E+00 0.  1.
          5    1    5    5  502    0 -0.93360064061E+02 -0.68649274027E+02 -0.38470942504E+02  0.12219217570E+03  0.47000000000E+01 0. -1.
         11    1    4    4    0    0  0.14588437656E+01  0.17114458989E+02  0.31485875524E+01  0.17462718436E+02  0.00000000000E+00 0. -1.
        -12    1    4    4    0    0  0.37467982749E+02  0.55016467416E+02 -0.18285652124E+03  0.19459488375E+03  0.00000000000E+00 0.  1.
         -5    1    3    3    0  504  0.88137629670E+02 -0.39896597641E+02 -0.73953959042E+02  0.12186573893E+03  0.47000000000E+01 0.  1.
<mgrwt>
<rscale>  2 0.21706135E+03</rscale>
<asrwt>0</asrwt>
<pdfrwt beam="1">  1       21 0.21824998E-01 0.21716455E+03</pdfrwt>
<pdfrwt beam="2">  1       21 0.62961052E-01 0.21716455E+03</pdfrwt>
<totfact> 0.45218835E+04</totfact>
</mgrwt>
</event>
<event>
12    1  0.2743855E-001  0.2561593E+03  0.7546771E-02  0.1109634E+00
         21   -1    0    0  502  503  0.00000000000E+00  0.00000000000E+00  0.49433793536E+03  0.49433793536E+03  0.00000000000E+00 0.  1.
         21   -1    0    0  503  504 -0.00000000000E+00 -0.00000000000E+00 -0.14088030148E+03  0.14088030148E+03  0.00000000000E+00 0.  1.
         -6    2    1    2    0  504 -0.18815991126E+03  0.10227073984E+02  0.25525259781E+03  0.36087940016E+03  0.17196309931E+03 0.  0.
        -24    2    3    3    0    0 -0.56184786221E+02  0.45227191562E+02  0.51031609304E+02  0.11517481330E+03  0.73883580112E+02 0.  0.
          6    2    1    2  502    0  0.18815991126E+03 -0.10227073984E+02  0.98205036071E+02  0.27433883667E+03  0.17351894119E+03 0.  0.
         24    2    5    5    0    0  0.51572961109E+02  0.47913429285E+02  0.44235815009E+02  0.11631643354E+03  0.81346409617E+02 0.  0.
          2    1    6    6  501    0  0.13428192656E+02  0.56255232703E+02  0.50488457381E+02  0.76772728837E+02  0.00000000000E+00 0. -1.
         -1    1    6    6    0  501  0.38144768454E+02 -0.83418034182E+01 -0.62526423717E+01  0.39543704699E+02  0.00000000000E+00 0.  1.
          5    1    5    5  502    0  0.13658695015E+03 -0.58140503269E+02  0.53969221062E+02  0.15802240314E+03  0.47000000000E+01 0. -1.
         11    1    4    4    0    0 -0.25913419106E+02  0.66692488198E+01 -0.16717264776E+02  0.31550770374E+02  0.00000000000E+00 0. -1.
        -12    1    4    4    0    0 -0.30271367115E+02  0.38557942743E+02  0.67748874080E+02  0.83624042922E+02  0.00000000000E+00 0.  1.
         -5    1    3    3    0  504 -0.13197512504E+03 -0.35000117579E+02  0.20422098851E+03  0.24570458686E+03  0.47000000000E+01 0.  1.
<mgrwt>
<rscale>  2 0.25589602E+03</rscale>
<asrwt>0</asrwt>
<pdfrwt beam="1">  1       21 0.76051989E-01 0.25615926E+03</pdfrwt>
<pdfrwt beam="2">  1       21 0.21673893E-01 0.25615926E+03</pdfrwt>
<totfact> 0.29637641E+04</totfact>
</mgrwt>
</event>
<event>
12    1  0.2743855E-001  0.2328233E+03  0.7546771E-02  0.1124736E+00
         21   -1    0    0  502  503  0.00000000000E+00  0.00000000000E+00  0.13299762436E+03  0.13299762436E+03  0.00000000000E+00 0. -1.
         21   -1    0    0  503  504 -0.00000000000E+00 -0.00000000000E+00 -0.42536243748E+03  0.42536243748E+03  0.00000000000E+00 0. -1.
         -6    2    1    2    0  504 -0.14245721585E+03  0.60952226128E+02 -0.20448353106E+03  0.30987129186E+03  0.17377419494E+03 0.  0.
        -24    2    3    3    0    0 -0.13422596559E+03  0.15430543306E+02 -0.21063542618E+03  0.26296806274E+03  0.80809700873E+02 0.  0.
          6    2    1    2  502    0  0.14245721585E+03 -0.60952226128E+02 -0.87881282069E+02  0.24848876998E+03  0.17324640501E+03 0.  0.
         24    2    5    5    0    0  0.60145204259E+02  0.44540341808E+01 -0.97216920945E+02  0.14283608287E+03  0.85520365038E+02 0.  0.
          2    1    6    6  501    0 -0.36201545551E+01 -0.31289048759E+02 -0.31308262274E+02  0.44410779974E+02  0.00000000000E+00 0. -1.
         -1    1    6    6    0  501  0.63765358814E+02  0.35743082940E+02 -0.65908658671E+02  0.98425302898E+02  0.00000000000E+00 0.  1.
          5    1    5    5  502    0  0.82312011593E+02 -0.65406260309E+02  0.93356388762E+01  0.10565268711E+03  0.47000000000E+01 0. -1.
         11    1    4    4    0    0 -0.13420765932E+03  0.28302705383E+02 -0.16010099405E+03  0.21081998778E+03  0.00000000000E+00 0. -1.
        -12    1    4    4    0    0 -0.18306273038E-01 -0.12872162077E+02 -0.50534432132E+02  0.52148074965E+02  0.00000000000E+00 0.  1.
         -5    1    3    3    0  504 -0.82312502638E+01  0.45521682821E+02  0.61518951243E+01  0.46903229115E+02  0.47000000000E+01 0.  1.
<mgrwt>
<rscale>  2 0.23272485E+03</rscale>
<asrwt>0</asrwt>
<pdfrwt beam="1">  1       21 0.20461173E-01 0.23282333E+03</pdfrwt>
<pdfrwt beam="2">  1       21 0.65440376E-01 0.23282333E+03</pdfrwt>
<totfact> 0.46609944E+04</totfact>
</mgrwt>
</event>
<event>
12    1  0.2743855E-001  0.2021264E+03  0.7546771E-02  0.1150007E+00
         21   -1    0    0  502  503  0.00000000000E+00  0.00000000000E+00  0.11159712499E+03  0.11159712499E+03  0.00000000000E+00 0.  1.
         21   -1    0    0  503  504 -0.00000000000E+00 -0.00000000000E+00 -0.40543631194E+03  0.40543631194E+03  0.00000000000E+00 0.  1.
         -6    2    1    2    0  504 -0.70252948145E+02  0.34483133915E+02 -0.47341886342E+02  0.19826078010E+03  0.17590201670E+03 0.  0.
        -24    2    3    3    0    0 -0.89962374465E+02  0.66575126862E+02 -0.69142173980E+02  0.15449206938E+03  0.81004215590E+02 0.  0.
          6    2    1    2  502    0  0.70252948145E+02 -0.34483133915E+02 -0.24649730061E+03  0.31877265682E+03  0.18636127355E+03 0.  0.
         24    2    5    5    0    0  0.10389256077E+03  0.18116816559E+02 -0.20261975580E+03  0.24231543174E+03  0.80871007130E+02 0.  0.
          2    1    6    6  501    0  0.58298239628E+02  0.43995872635E+02 -0.76668252379E+02  0.10588834910E+03  0.00000000000E+00 0. -1.
         -1    1    6    6    0  501  0.45594321145E+02 -0.25879056077E+02 -0.12595150342E+03  0.13642708264E+03  0.00000000000E+00 0.  1.
          5    1    5    5  502    0 -0.33639612628E+02 -0.52599950474E+02 -0.43877544814E+02  0.76457225077E+02  0.47000000000E+01 0. -1.
         11    1    4    4    0    0 -0.64392320232E+02  0.22528811276E+02 -0.77095056847E+02  0.10294448034E+03  0.00000000000E+00 0. -1.
        -12    1    4    4    0    0 -0.25570054233E+02  0.44046315586E+02  0.79528828667E+01  0.51547589042E+02  0.00000000000E+00 0.  1.
         -5    1    3    3    0  504  0.19709426320E+02 -0.32091992947E+02  0.21800287638E+02  0.43768710722E+02  0.47000000000E+01 0.  1.
<mgrwt>
<rscale>  2 0.19968222E+03</rscale>
<asrwt>0</asrwt>
<pdfrwt beam="1">  1       21 0.17168788E-01 0.20212641E+03</pdfrwt>
<pdfrwt beam="2">  1       21 0.62374818E-01 0.20212641E+03</pdfrwt>
<totfact> 0.72704124E+04</totfact>
</mgrwt>
</event>
<event>
12    1  0.2743855E-001  0.2054083E+03  0.7546771E-02  0.1146011E+00
         21   -1    0    0  502  503  0.00000000000E+00  0.00000000000E+00  0.42229928885E+03  0.42229928885E+03  0.00000000000E+00 0.  1.
         21   -1    0    0  503  504 -0.00000000000E+00 -0.00000000000E+00 -0.73133965168E+03  0.73133965168E+03  0.00000000000E+00 0.  1.
         -6    2    1    2    0  504 -0.33564797258E+02  0.98477275387E+02 -0.69105766735E+03  0.71989962147E+03  0.17283054131E+03 0.  0.
        -24    2    3    3    0    0 -0.58069666901E+01 -0.14334179757E+02 -0.21244929268E+03  0.22737044683E+03  0.79519988430E+02 0.  0.
          6    2    1    2  502    0  0.33564797258E+02 -0.98477275387E+02  0.38201730452E+03  0.43373931906E+03  0.17711071839E+03 0.  0.
         24    2    5    5    0    0  0.46131038520E+02 -0.20835001569E+02  0.89010625216E+02  0.13032337153E+03  0.80617118282E+02 0.  0.
          4    1    6    6  501    0 -0.39321211746E+01 -0.10643283016E+01 -0.13738373724E+02  0.14329594699E+02  0.00000000000E+00 0. -1.
         -3    1    6    6    0  501  0.50063159695E+02 -0.19770673267E+02  0.10274899894E+03  0.11599377683E+03  0.00000000000E+00 0.  1.
          5    1    5    5  502    0 -0.12566241262E+02 -0.77642273818E+02  0.29300667930E+03  0.30341594753E+03  0.47000000000E+01 0. -1.
         11    1    4    4    0    0  0.59574896311E+01 -0.14242283315E+02 -0.86815120584E+00  0.15462470800E+02  0.00000000000E+00 0. -1.
        -12    1    4    4    0    0 -0.11764456321E+02 -0.91896441439E-01 -0.21158114147E+03  0.21190797603E+03  0.00000000000E+00 0.  1.
         -5    1    3    3    0  504 -0.27757830568E+02  0.11281145514E+03 -0.47860837467E+03  0.49252917464E+03  0.47000000000E+01 0.  1.
<mgrwt>
<rscale>  2 0.20448235E+03</rscale>
<asrwt>0</asrwt>
<pdfrwt beam="1">  1       21 0.64969122E-01 0.20540832E+03</pdfrwt>
<pdfrwt beam="2">  1       21 0.11251379E+00 0.20540832E+03</pdfrwt>
<totfact> 0.13325126E+03</totfact>
</mgrwt>
</event>
<event>
12    1  0.2743855E-001  0.2253291E+03  0.7546771E-02  0.1130154E+00
         21   -1    0    0  502  503  0.00000000000E+00  0.00000000000E+00  0.14823934730E+04  0.14823934730E+04  0.00000000000E+00 0. -1.
         21   -1    0    0  503  504 -0.00000000000E+00 -0.00000000000E+00 -0.43033408209E+02  0.43033408209E+02  0.00000000000E+00 0. -1.
         -6    2    1    2    0  504  0.42372109873E+02  0.13817897205E+03  0.37085074312E+03  0.43341708875E+03  0.17155545790E+03 0.  0.
        -24    2    3    3    0    0  0.23331639802E+02  0.16639446662E+03  0.27820425884E+03  0.33460355382E+03  0.79564091505E+02 0.  0.
          6    2    1    2  502    0 -0.42372109873E+02 -0.13817897205E+03  0.10685093217E+04  0.10920097925E+04  0.17287102800E+03 0.  0.
         24    2    5    5    0    0  0.13047936279E+02 -0.22077366500E+02  0.25255395879E+03  0.26596124150E+03  0.79336127509E+02 0.  0.
          4    1    6    6  501    0  0.21526379697E+02 -0.83769926116E+01  0.24819884059E+03  0.24927138524E+03  0.00000000000E+00 0. -1.
         -3    1    6    6    0  501 -0.84784434171E+01 -0.13700373888E+02  0.43551181941E+01  0.16689856259E+02  0.00000000000E+00 0.  1.
          5    1    5    5  502    0 -0.55420046153E+02 -0.11610160555E+03  0.81595536287E+03  0.82604855095E+03  0.47000000000E+01 0. -1.
         11    1    4    4    0    0 -0.18563190965E+02  0.11562970260E+03  0.14819512997E+03  0.18888254744E+03  0.00000000000E+00 0. -1.
        -12    1    4    4    0    0  0.41894830767E+02  0.50764764027E+02  0.13000912887E+03  0.14572100638E+03  0.00000000000E+00 0.  1.
         -5    1    3    3    0  504  0.19040470071E+02 -0.28215494574E+02  0.92646484280E+02  0.98813534923E+02  0.47000000000E+01 0.  1.
<mgrwt>
<rscale>  2 0.22507678E+03</rscale>
<asrwt>0</asrwt>
<pdfrwt beam="1">  1       21 0.22806050E+00 0.22532913E+03</pdfrwt>
<pdfrwt beam="2">  1       21 0.66205255E-02 0.22532913E+03</pdfrwt>
<totfact> 0.14568576E+04</totfact>
</mgrwt>
</event>
<event>
12    1  0.2743855E-001  0.3246578E+03  0.7546771E-02  0.1073537E+00
         21   -1    0    0  502  503  0.00000000000E+00  0.00000000000E+00  0.11679215200E+03  0.11679215200E+03  0.00000000000E+00 0.  1.
         21   -1    0    0  503  504 -0.00000000000E+00 -0.00000000000E+00 -0.10263525358E+04  0.10263525358E+04  0.00000000000E+00 0. -1.
         -6    2    1    2    0  504 -0.98002382886E-02 -0.27511709387E+03 -0.25592203288E+03  0.41331884505E+03  0.17218294144E+03 0.  0.
        -24    2    3    3    0    0 -0.42575463150E+02 -0.10512943952E+03 -0.65107423867E+02  0.15420507988E+03  0.81702881833E+02 0.  0.
          6    2    1    2  502    0  0.98002382886E-02  0.27511709387E+03 -0.65363835088E+03  0.72982584271E+03  0.17237532166E+03 0.  0.
         24    2    5    5    0    0  0.53000165829E+02  0.14692246599E+03 -0.45336020245E+03  0.48615543376E+03  0.80102459486E+02 0.  0.
          4    1    6    6  501    0  0.36267707144E+02  0.14116222175E+03 -0.44128835911E+03  0.46473383277E+03  0.00000000000E+00 0. -1.
         -3    1    6    6    0  501  0.16732458685E+02  0.57602442458E+01 -0.12071843336E+02  0.21421600989E+02  0.00000000000E+00 0.  1.
          5    1    5    5  502    0 -0.52990365591E+02  0.12819462788E+03 -0.20027814843E+03  0.24367040895E+03  0.47000000000E+01 0. -1.
         13    1    4    4    0    0 -0.48237919234E+02 -0.19436519648E+02 -0.37064274125E+02  0.63862630422E+02  0.00000000000E+00 0. -1.
        -14    1    4    4    0    0  0.56624560843E+01 -0.85692919875E+02 -0.28043149742E+02  0.90342449453E+02  0.00000000000E+00 0.  1.
         -5    1    3    3    0  504  0.42565662912E+02 -0.16998765434E+03 -0.19081460901E+03  0.25911376517E+03  0.47000000000E+01 0.  1.
<mgrwt>
<rscale>  2 0.32463224E+03</rscale>
<asrwt>0</asrwt>
<pdfrwt beam="1">  1       21 0.17968023E-01 0.32465777E+03</pdfrwt>
<pdfrwt beam="2">  1       21 0.15790040E+00 0.32465777E+03</pdfrwt>
<totfact> 0.67571574E+03</totfact>
</mgrwt>
</event>
<event>
12    1  0.2743855E-001  0.1917635E+03  0.7546771E-02  0.1157238E+00
         21   -1    0    0  502  503  0.00000000000E+00  0.00000000000E+00  0.11899110163E+03  0.11899110163E+03  0.00000000000E+00 0. -1.
         21   -1    0    0  503  504 -0.00000000000E+00 -0.00000000000E+00 -0.34540490481E+03  0.34540490481E+03  0.00000000000E+00 0. -1.
         -6    2    1    2    0  504 -0.54544637759E+01 -0.80526889194E+02 -0.19157948113E+03  0.27106441777E+03  0.17395082620E+03 0.  0.
        -24    2    3    3    0    0 -0.41856256613E+02 -0.98582186201E+02 -0.18896836939E+03  0.23007671015E+03  0.75867346524E+02 0.  0.
          6    2    1    2  502    0  0.54544637759E+01  0.80526889194E+02 -0.34834322057E+02  0.19333158867E+03  0.17218984327E+03 0.  0.
         24    2    5    5    0    0  0.14360672285E+02 -0.65322735434E+01  0.25312948446E+02  0.87037644742E+02  0.81767394095E+02 0.  0.
          4    1    6    6  501    0 -0.75650932431E+01  0.24303273437E+01  0.51278879468E+02  0.51890852819E+02  0.00000000000E+00 0. -1.
         -3    1    6    6    0  501  0.21925765528E+02 -0.89626008871E+01 -0.25965931022E+02  0.35146791923E+02  0.00000000000E+00 0.  1.
          5    1    5    5  502    0 -0.89062085091E+01  0.87059162737E+02 -0.60147270504E+02  0.10629394393E+03  0.47000000000E+01 0. -1.
         13    1    4    4    0    0 -0.50447326949E+02 -0.81896326921E+02 -0.18812657149E+03  0.21129019868E+03  0.00000000000E+00 0. -1.
        -14    1    4    4    0    0  0.85910703366E+01 -0.16685859280E+02 -0.84179790616E+00  0.18786511468E+02  0.00000000000E+00 0.  1.
         -5    1    3    3    0  504  0.36401792837E+02  0.18055297007E+02 -0.26111117372E+01  0.40987707623E+02  0.47000000000E+01 0.  1.
<mgrwt>
<rscale>  2 0.19136321E+03</rscale>
<asrwt>0</asrwt>
<pdfrwt beam="1">  1       21 0.18306324E-01 0.19176345E+03</pdfrwt>
<pdfrwt beam="2">  1       21 0.53139215E-01 0.19176345E+03</pdfrwt>
<totfact> 0.91310813E+04</totfact>
</mgrwt>
</event>
<event>
12    1  0.2743855E-001  0.1787529E+03  0.7546771E-02  0.1169228E+00
         21   -1    0    0  502  503  0.00000000000E+00  0.00000000000E+00  0.24271260478E+02  0.24271260478E+02  0.00000000000E+00 0. -1.
         21   -1    0    0  503  504 -0.00000000000E+00 -0.00000000000E+00 -0.13354552648E+04  0.13354552648E+04  0.00000000000E+00 0. -1.
         -6    2    1    2    0  504 -0.26963664161E+02  0.33604530911E+02 -0.56036199119E+03  0.58791937445E+03  0.17259005187E+03 0.  0.
        -24    2    3    3    0    0 -0.71758836518E+02  0.55516193336E+01 -0.47757374954E+03  0.48958547252E+03  0.80231524691E+02 0.  0.
          6    2    1    2  502    0  0.26963664161E+02 -0.33604530911E+02 -0.75082201309E+03  0.77180715078E+03  0.17348279158E+03 0.  0.
         24    2    5    5    0    0 -0.38158062104E+02 -0.29171832945E+02 -0.54385446737E+03  0.55474001135E+03  0.98243396551E+02 0.  0.
          4    1    6    6  501    0 -0.15155002591E+02 -0.61027147131E+02 -0.23018884516E+03  0.23862290592E+03  0.00000000000E+00 0. -1.
         -3    1    6    6    0  501 -0.23003059514E+02  0.31855314186E+02 -0.31366562221E+03  0.31611710543E+03  0.00000000000E+00 0.  1.
          5    1    5    5  502    0  0.65121726265E+02 -0.44326979661E+01 -0.20696754572E+03  0.21706713943E+03  0.47000000000E+01 0. -1.
         13    1    4    4    0    0 -0.51091941138E+02  0.23101596258E+02 -0.13836437391E+03  0.14929424023E+03  0.00000000000E+00 0. -1.
        -14    1    4    4    0    0 -0.20666895380E+02 -0.17549976925E+02 -0.33920937563E+03  0.34029123229E+03  0.00000000000E+00 0.  1.
         -5    1    3    3    0  504  0.44795172357E+02  0.28052911577E+02 -0.82788241646E+02  0.98333901933E+02  0.47000000000E+01 0.  1.
<mgrwt>
<rscale>  2 0.17853589E+03</rscale>
<asrwt>0</asrwt>
<pdfrwt beam="1">  1       21 0.37340388E-02 0.17875285E+03</pdfrwt>
<pdfrwt beam="2">  1       21 0.20545473E+00 0.17875285E+03</pdfrwt>
<totfact> 0.54998393E+04</totfact>
</mgrwt>
</event>
<event>
12    1  0.2743855E-001  0.1734734E+03  0.7546771E-02  0.1174494E+00
         21   -1    0    0  502  503  0.00000000000E+00  0.00000000000E+00  0.71295953273E+02  0.71295953273E+02  0.00000000000E+00 0. -1.
         21   -1    0    0  503  504 -0.00000000000E+00 -0.00000000000E+00 -0.64793784111E+03  0.64793784111E+03  0.00000000000E+00 0. -1.
         -6    2    1    2    0  504 -0.72301070688E+01  0.22171346378E+02 -0.50115733934E+03  0.53004890896E+03  0.17102433764E+03 0.  0.
        -24    2    3    3    0    0 -0.33373652528E+02  0.63641353511E+01 -0.48929577748E+03  0.49694091084E+03  0.79910000028E+02 0.  0.
          6    2    1    2  502    0  0.72301070688E+01 -0.22171346378E+02 -0.75484548502E+02  0.18918488543E+03  0.17189869332E+03 0.  0.
         24    2    5    5    0    0 -0.23523792402E+02  0.24869773326E+02 -0.96655107217E+02  0.12894410330E+03  0.78182463442E+02 0.  0.
          4    1    6    6  501    0 -0.18417908964E+02 -0.14970497605E+02 -0.83300806993E+02  0.86616162549E+02  0.00000000000E+00 0. -1.
         -3    1    6    6    0  501 -0.51058834386E+01  0.39840270931E+02 -0.13354300224E+02  0.42327940748E+02  0.00000000000E+00 0.  1.
          5    1    5    5  502    0  0.30753899471E+02 -0.47041119704E+02  0.21170558715E+02  0.60240782133E+02  0.47000000000E+01 0. -1.
         11    1    4    4    0    0  0.38744296957E+01  0.29796809024E+02 -0.83047615618E+02  0.88316292344E+02  0.00000000000E+00 0. -1.
        -12    1    4    4    0    0 -0.37248082224E+02 -0.23432673673E+02 -0.40624816186E+03  0.40862461850E+03  0.00000000000E+00 0.  1.
         -5    1    3    3    0  504  0.26143545459E+02  0.15807211027E+02 -0.11861561859E+02  0.33107998118E+02  0.47000000000E+01 0.  1.
<mgrwt>
<rscale>  2 0.17325635E+03</rscale>
<asrwt>0</asrwt>
<pdfrwt beam="1">  1       21 0.10968608E-01 0.17347335E+03</pdfrwt>
<pdfrwt beam="2">  1       21 0.99682746E-01 0.17347335E+03</pdfrwt>
<totfact> 0.57513070E+04</totfact>
</mgrwt>
</event>
<event>
12    1  0.2743855E-001  0.2379449E+03  0.7546771E-02  0.1121187E+00
         21   -1    0    0  502  503  0.00000000000E+00  0.00000000000E+00  0.83689791019E+02  0.83689791019E+02  0.00000000000E+00 0. -1.
         21   -1    0    0  503  504 -0.00000000000E+00 -0.00000000000E+00 -0.69914019586E+03  0.69914019586E+03  0.00000000000E+00 0. -1.
         -6    2    1    2    0  504  0.14202501558E+03  0.80291027102E+02 -0.23692056213E+03  0.33578139547E+03  0.17320519247E+03 0.  0.
        -24    2    3    3    0    0  0.12768623822E+03  0.12311103272E+03 -0.20029005461E+03  0.27744583600E+03  0.73484584315E+02 0.  0.
          6    2    1    2  502    0 -0.14202501558E+03 -0.80291027102E+02 -0.37852984271E+03  0.44704859141E+03  0.17306024147E+03 0.  0.
         24    2    5    5    0    0 -0.10185673847E+03 -0.12213832704E+03 -0.29866017168E+03  0.34822581394E+03  0.82284586874E+02 0.  0.
          2    1    6    6  501    0 -0.19545536627E+02 -0.83470174006E+02 -0.11668377331E+03  0.14479088682E+03  0.00000000000E+00 0. -1.
         -1    1    6    6    0  501 -0.82311201844E+02 -0.38668153037E+02 -0.18197639837E+03  0.20343492712E+03  0.00000000000E+00 0.  1.
          5    1    5    5  502    0 -0.40168277107E+02  0.41847299941E+02 -0.79869671026E+02  0.98822777475E+02  0.47000000000E+01 0. -1.
         13    1    4    4    0    0  0.28517844181E+02  0.45585705200E+02 -0.19596392049E+02  0.57230608390E+02  0.00000000000E+00 0. -1.
        -14    1    4    4    0    0  0.99168394039E+02  0.77525327515E+02 -0.18069366256E+03  0.22021522761E+03  0.00000000000E+00 0.  1.
         -5    1    3    3    0  504  0.14338777358E+02 -0.42820005614E+02 -0.36630507524E+02  0.58335559467E+02  0.47000000000E+01 0.  1.
<mgrwt>
<rscale>  2 0.23791856E+03</rscale>
<asrwt>0</asrwt>
<pdfrwt beam="1">  1       21 0.12875353E-01 0.23794494E+03</pdfrwt>
<pdfrwt beam="2">  1       21 0.10756003E+00 0.23794494E+03</pdfrwt>
<totfact> 0.34821362E+04</totfact>
</mgrwt>
</event>
<event>
12    1  0.2743855E-001  0.1909563E+03  0.7546771E-02  0.1157904E+00
         21   -1    0    0  502  503  0.00000000000E+00  0.00000000000E+00  0.41122710758E+03  0.41122710758E+03  0.00000000000E+00 0.  1.
         21   -1    0    0  503  504 -0.00000000000E+00 -0.00000000000E+00 -0.96825748957E+02  0.96825748957E+02  0.00000000000E+00 0.  1.
         -6    2    1    2    0  504 -0.61772084612E+02 -0.52114073113E+02  0.81221984099E+02  0.20751217087E+03  0.17301047166E+03 0.  0.
        -24    2    3    3    0    0 -0.98861004122E+02 -0.32462956513E+01  0.41543273441E+02  0.13429920956E+03  0.80786122253E+02 0.  0.
          6    2    1    2  502    0  0.61772084612E+02  0.52114073113E+02  0.23317937453E+03  0.30054068567E+03  0.17152380588E+03 0.  0.
         24    2    5    5    0    0  0.10077028625E+03  0.61468358259E+02  0.20857882263E+03  0.25325813567E+03  0.81862985367E+02 0.  0.
          2    1    6    6  501    0  0.19523779770E+02  0.59207909458E+02  0.88178003734E+02  0.10799127215E+03  0.00000000000E+00 0. -1.
         -1    1    6    6    0  501  0.81246506476E+02  0.22604488014E+01  0.12040081890E+03  0.14526686351E+03  0.00000000000E+00 0.  1.
          5    1    5    5  502    0 -0.38998201634E+02 -0.93542851457E+01  0.24600551895E+02  0.47282550003E+02  0.47000000000E+01 0. -1.
         11    1    4    4    0    0 -0.84563460185E+02  0.30198203839E+02  0.19893028126E+02  0.91970880617E+02  0.00000000000E+00 0. -1.
        -12    1    4    4    0    0 -0.14297543937E+02 -0.33444499491E+02  0.21650245315E+02  0.42328328942E+02  0.00000000000E+00 0.  1.
         -5    1    3    3    0  504  0.37088919510E+02 -0.48867777462E+02  0.39678710658E+02  0.73212961312E+02  0.47000000000E+01 0.  1.
<mgrwt>
<rscale>  2 0.19061888E+03</rscale>
<asrwt>0</asrwt>
<pdfrwt beam="1">  1       21 0.63265708E-01 0.19095625E+03</pdfrwt>
<pdfrwt beam="2">  1       21 0.14896269E-01 0.19095625E+03</pdfrwt>
<totfact> 0.91886250E+04</totfact>
</mgrwt>
</event>
<event>
12    1  0.2743855E-001  0.1858325E+03  0.7546771E-02  0.1162438E+00
         21   -1    0    0  502  503  0.00000000000E+00  0.00000000000E+00  0.41958253970E+02  0.41958253970E+02  0.00000000000E+00 0. -1.
         21   -1    0    0  503  504 -0.00000000000E+00 -0.00000000000E+00 -0.90014731616E+03  0.90014731616E+03  0.00000000000E+00 0. -1.
         -6    2    1    2    0  504  0.32414344376E+02  0.57844823264E+02 -0.57044004035E+03  0.59994628133E+03  0.17360007933E+03 0.  0.
        -24    2    3    3    0    0  0.11809429275E+02  0.48258477497E+02 -0.14067199981E+03  0.16955213729E+03  0.80566571597E+02 0.  0.
          6    2    1    2  502    0 -0.32414344376E+02 -0.57844823264E+02 -0.28774902184E+03  0.34215928881E+03  0.17284896889E+03 0.  0.
         24    2    5    5    0    0  0.30936887199E+02 -0.51207887422E+01 -0.21599236516E+03  0.23277779980E+03  0.80928912061E+02 0.  0.
          2    1    6    6  501    0  0.52923734990E+02 -0.20197133190E+02 -0.11316870045E+03  0.12655433883E+03  0.00000000000E+00 0. -1.
         -1    1    6    6    0  501 -0.21986847791E+02  0.15076344448E+02 -0.10282366470E+03  0.10622346097E+03  0.00000000000E+00 0.  1.
          5    1    5    5  502    0 -0.63351231575E+02 -0.52724034522E+02 -0.71756656688E+02  0.10938148901E+03  0.47000000000E+01 0. -1.
         13    1    4    4    0    0 -0.80033334525E+01  0.19397370533E+02 -0.13177061007E+03  0.13343089975E+03  0.00000000000E+00 0. -1.
        -14    1    4    4    0    0  0.19812762727E+02  0.28861106964E+02 -0.89013897401E+01  0.36121237540E+02  0.00000000000E+00 0.  1.
         -5    1    3    3    0  504  0.20604915102E+02  0.95863457671E+01 -0.42976804054E+03  0.43039414403E+03  0.47000000000E+01 0.  1.
<mgrwt>
<rscale>  2 0.18565684E+03</rscale>
<asrwt>0</asrwt>
<pdfrwt beam="1">  1       21 0.64551158E-02 0.18583245E+03</pdfrwt>
<pdfrwt beam="2">  1       21 0.13848421E+00 0.18583245E+03</pdfrwt>
<totfact> 0.64235242E+04</totfact>
</mgrwt>
</event>
<event>
12    1  0.2743855E-001  0.1745097E+03  0.7546771E-02  0.1173778E+00
         21   -1    0    0  502  503  0.00000000000E+00  0.00000000000E+00  0.25228515303E+03  0.25228515303E+03  0.00000000000E+00 0.  1.
         21   -1    0    0  503  504 -0.00000000000E+00 -0.00000000000E+00 -0.24083541795E+03  0.24083541795E+03  0.00000000000E+00 0.  1.
         -6    2    1    2    0  504  0.18128942856E+02  0.48474854965E+01 -0.16951001600E+03  0.24172431466E+03  0.17130336275E+03 0.  0.
        -24    2    3    3    0    0  0.49686164072E+02  0.86970323671E+00 -0.30893128329E+02  0.99427397931E+02  0.80386260004E+02 0.  0.
          6    2    1    2  502    0 -0.18128942856E+02 -0.48474854965E+01  0.18095975108E+03  0.25139625632E+03  0.17349780833E+03 0.  0.
         24    2    5    5    0    0 -0.96702047523E+01  0.64590712651E+02  0.12773578485E+03  0.16337299693E+03  0.78159019788E+02 0.  0.
          2    1    6    6  501    0  0.24901369766E+02  0.53347504388E+02  0.10533700375E+03  0.12067277572E+03  0.00000000000E+00 0. -1.
         -1    1    6    6    0  501 -0.34571574518E+02  0.11243208263E+02  0.22398781100E+02  0.42700221211E+02  0.00000000000E+00 0.  1.
          5    1    5    5  502    0 -0.84587381035E+01 -0.69438198148E+02  0.53223966224E+02  0.88023259386E+02  0.47000000000E+01 0. -1.
         13    1    4    4    0    0 -0.14274641135E+02  0.22104860584E+02 -0.29789196061E+01  0.26481393524E+02  0.00000000000E+00 0. -1.
        -14    1    4    4    0    0  0.63960805207E+02 -0.21235157347E+02 -0.27914208723E+02  0.72946004407E+02  0.00000000000E+00 0.  1.
         -5    1    3    3    0  504 -0.31557221217E+02  0.39777822597E+01 -0.13861688767E+03  0.14229691673E+03  0.47000000000E+01 0.  1.
<mgrwt>
<rscale>  2 0.17396177E+03</rscale>
<asrwt>0</asrwt>
<pdfrwt beam="1">  1       21 0.38813101E-01 0.17450973E+03</pdfrwt>
<pdfrwt beam="2">  1       21 0.37051603E-01 0.17450973E+03</pdfrwt>
<totfact> 0.45366356E+04</totfact>
</mgrwt>
</event>
<event>
12    1  0.2743855E-001  0.2135872E+03  0.7546771E-02  0.1139442E+00
         21   -1    0    0  502  503  0.00000000000E+00  0.00000000000E+00  0.59738162818E+02  0.59738162818E+02  0.00000000000E+00 0.  1.
         21   -1    0    0  503  504 -0.00000000000E+00 -0.00000000000E+00 -0.80116011985E+03  0.80116011985E+03  0.00000000000E+00 0.  1.
         -6    2    1    2    0  504 -0.52164095336E+02  0.10669670135E+03 -0.26606425843E+03  0.34118863903E+03  0.17752244609E+03 0.  0.
        -24    2    3    3    0    0  0.20848641519E+02  0.37193994620E+01 -0.14424048477E+03  0.16569417679E+03  0.78744796591E+02 0.  0.
          6    2    1    2  502    0  0.52164095336E+02 -0.10669670135E+03 -0.47535769860E+03  0.51970964363E+03  0.17328558264E+03 0.  0.
         24    2    5    5    0    0 -0.30243148034E+02 -0.61908206714E+02 -0.32530336747E+03  0.34269169171E+03  0.82873642503E+02 0.  0.
          4    1    6    6  501    0 -0.37928395066E+02 -0.24417021631E+02 -0.27898442433E+03  0.28260761333E+03  0.00000000000E+00 0. -1.
         -3    1    6    6    0  501  0.76852470318E+01 -0.37491185083E+02 -0.46318943139E+02  0.60084078377E+02  0.00000000000E+00 0.  1.
          5    1    5    5  502    0  0.82407243370E+02 -0.44788494638E+02 -0.15005433113E+03  0.17701795192E+03  0.47000000000E+01 0. -1.
         11    1    4    4    0    0 -0.16259572570E+02  0.19695106391E+02 -0.13570576156E+02  0.28921124686E+02  0.00000000000E+00 0. -1.
        -12    1    4    4    0    0  0.37108214089E+02 -0.15975706929E+02 -0.13066990861E+03  0.13677305210E+03  0.00000000000E+00 0.  1.
         -5    1    3    3    0  504 -0.73012736854E+02  0.10297730189E+03 -0.12182377367E+03  0.17549446224E+03  0.47000000000E+01 0.  1.
<mgrwt>
<rscale>  2 0.21270470E+03</rscale>
<asrwt>0</asrwt>
<pdfrwt beam="1">  1       21 0.91904867E-02 0.21358721E+03</pdfrwt>
<pdfrwt beam="2">  1       21 0.12325540E+00 0.21358721E+03</pdfrwt>
<totfact> 0.46001945E+04</totfact>
</mgrwt>
</event>
<event>
12    1  0.2743855E-001  0.1820607E+03  0.7546771E-02  0.1165866E+00
         21   -1    0    0  502  503  0.00000000000E+00  0.00000000000E+00  0.35753447308E+03  0.35753447308E+03  0.00000000000E+00 0.  1.
         21   -1    0    0  503  504 -0.00000000000E+00 -0.00000000000E+00 -0.94470983580E+02  0.94470983580E+02  0.00000000000E+00 0.  1.
         -6    2    1    2    0  504  0.28148650952E+02  0.48730572941E+02  0.99929183045E+02  0.20768234871E+03  0.17314474018E+03 0.  0.
        -24    2    3    3    0    0 -0.63988183947E+01  0.30423850772E+02  0.13149238018E+03  0.15721464490E+03  0.80371904009E+02 0.  0.
          6    2    1    2  502    0 -0.28148650952E+02 -0.48730572941E+02  0.16313430645E+03  0.24432310795E+03  0.17295653745E+03 0.  0.
         24    2    5    5    0    0 -0.37365100494E+02  0.30538914709E+02  0.12348803093E+03  0.15509020047E+03  0.80466766132E+02 0.  0.
          4    1    6    6  501    0 -0.23484001085E+02  0.58199781946E+02  0.78957958038E+02  0.10086164813E+03  0.00000000000E+00 0. -1.
         -3    1    6    6    0  501 -0.13881099409E+02 -0.27660867237E+02  0.44530072893E+02  0.54228552341E+02  0.00000000000E+00 0.  1.
          5    1    5    5  502    0  0.92164495416E+01 -0.79269487650E+02  0.39646275521E+02  0.89232907479E+02  0.47000000000E+01 0. -1.
         13    1    4    4    0    0 -0.16092848090E+02  0.54521158736E+02  0.68105403056E+02  0.88712357849E+02  0.00000000000E+00 0. -1.
        -14    1    4    4    0    0  0.96940296956E+01 -0.24097307964E+02  0.63386977120E+02  0.68502287052E+02  0.00000000000E+00 0.  1.
         -5    1    3    3    0  504  0.34547469347E+02  0.18306722169E+02 -0.31563197131E+02  0.50467703811E+02  0.47000000000E+01 0.  1.
<mgrwt>
<rscale>  2 0.18201599E+03</rscale>
<asrwt>0</asrwt>
<pdfrwt beam="1">  1       21 0.55005303E-01 0.18206075E+03</pdfrwt>
<pdfrwt beam="2">  1       21 0.14533998E-01 0.18206075E+03</pdfrwt>
<totfact> 0.13003671E+05</totfact>
</mgrwt>
</event>
<event>
12    1  0.2743855E-001  0.2469882E+03  0.7546771E-02  0.1116281E+00
         21   -1    0    0  502  503  0.00000000000E+00  0.00000000000E+00  0.46138848546E+03  0.46138848546E+03  0.00000000000E+00 0.  1.
         21   -1    0    0  503  504 -0.00000000000E+00 -0.00000000000E+00 -0.15759730541E+03  0.15759730541E+03  0.00000000000E+00 0.  1.
         -6    2    1    2    0  504 -0.91454372981E+02 -0.14796404134E+03  0.21173966661E+02  0.24789417060E+03  0.17534515416E+03 0.  0.
        -24    2    3    3    0    0 -0.57758682392E+01 -0.86941951862E+01  0.22125844198E+02  0.84309659435E+02  0.80682191397E+02 0.  0.
          6    2    1    2  502    0  0.91454372981E+02  0.14796404134E+03  0.28261721339E+03  0.37109162027E+03  0.16606998964E+03 0.  0.
         24    2    5    5    0    0  0.95268590337E+02  0.11623385931E+03  0.29139755015E+03  0.33761719691E+03  0.80538345284E+02 0.  0.
          2    1    6    6  501    0  0.11228892269E+02  0.55061258624E+02  0.16302113974E+03  0.17243468974E+03  0.00000000000E+00 0. -1.
         -1    1    6    6    0  501  0.84039698068E+02  0.61172600685E+02  0.12837641041E+03  0.16518250717E+03  0.00000000000E+00 0.  1.
          5    1    5    5  502    0 -0.38142173556E+01  0.31730182032E+02 -0.87803367534E+01  0.33474423360E+02  0.47000000000E+01 0. -1.
         11    1    4    4    0    0  0.15297269623E+02  0.13549915939E+02  0.42743778012E+02  0.47377602711E+02  0.00000000000E+00 0. -1.
        -12    1    4    4    0    0 -0.21073137863E+02 -0.22244111125E+02 -0.20617933814E+02  0.36932056724E+02  0.00000000000E+00 0.  1.
         -5    1    3    3    0  504 -0.85678504742E+02 -0.13926984615E+03 -0.95187753670E+00  0.16358451117E+03  0.47000000000E+01 0.  1.
<mgrwt>
<rscale>  2 0.24534795E+03</rscale>
<asrwt>0</asrwt>
<pdfrwt beam="1">  1       21 0.70982843E-01 0.24698822E+03</pdfrwt>
<pdfrwt beam="2">  1       21 0.24245740E-01 0.24698822E+03</pdfrwt>
<totfact> 0.28053460E+04</totfact>
</mgrwt>
</event>
<event>
12    1  0.2743855E-001  0.1864812E+03  0.7546771E-02  0.1162126E+00
         21   -1    0    0  502  503  0.00000000000E+00  0.00000000000E+00  0.28297223242E+02  0.28297223242E+02  0.00000000000E+00 0. -1.
         21   -1    0    0  503  504 -0.00000000000E+00 -0.00000000000E+00 -0.25827482035E+04  0.25827482035E+04  0.00000000000E+00 0. -1.
         -6    2    1    2    0  504  0.63445652898E+01  0.67674773008E+02 -0.22300255018E+04  0.22378089691E+04  0.17365228164E+03 0.  0.
        -24    2    3    3    0    0 -0.17426530054E+02 -0.95038446360E+01 -0.61622191371E+03  0.62197923950E+03  0.82065342388E+02 0.  0.
          6    2    1    2  502    0 -0.63445652898E+01 -0.67674773008E+02 -0.32442547845E+03  0.37323645767E+03  0.17156174940E+03 0.  0.
         24    2    5    5    0    0 -0.32232129195E+02 -0.12289703661E+02 -0.70871817413E+02  0.11237400178E+03  0.80094661515E+02 0.  0.
          2    1    6    6  501    0 -0.25903369184E+01  0.28298011863E+02 -0.39629962768E+01  0.28691334236E+02  0.00000000000E+00 0. -1.
         -1    1    6    6    0  501 -0.29641792276E+02 -0.40587715524E+02 -0.66908821137E+02  0.83682667540E+02  0.00000000000E+00 0.  1.
          5    1    5    5  502    0  0.25887563905E+02 -0.55385069347E+02 -0.25355366103E+03  0.26086245589E+03  0.47000000000E+01 0. -1.
         13    1    4    4    0    0 -0.75415049591E+01 -0.14795728517E+02 -0.60762112037E+03  0.60784801867E+03  0.00000000000E+00 0. -1.
        -14    1    4    4    0    0 -0.98850250947E+01  0.52918838807E+01 -0.86007933388E+01  0.14131220831E+02  0.00000000000E+00 0.  1.
         -5    1    3    3    0  504  0.23771095344E+02  0.77178617644E+02 -0.16138035881E+04  0.16158297296E+04  0.47000000000E+01 0.  1.
<mgrwt>
<rscale>  2 0.18599302E+03</rscale>
<asrwt>0</asrwt>
<pdfrwt beam="1">  1       21 0.43534176E-02 0.18648121E+03</pdfrwt>
<pdfrwt beam="2">  1       21 0.39734601E+00 0.18648121E+03</pdfrwt>
<totfact> 0.31035034E+03</totfact>
</mgrwt>
</event>
<event>
12    1  0.2743855E-001  0.2177441E+03  0.7546771E-02  0.1135681E+00
         21   -1    0    0  502  503  0.00000000000E+00  0.00000000000E+00  0.30435240532E+03  0.30435240532E+03  0.00000000000E+00 0.  1.
         21   -1    0    0  503  504 -0.00000000000E+00 -0.00000000000E+00 -0.15766326562E+03  0.15766326562E+03  0.00000000000E+00 0. -1.
         -6    2    1    2    0  504 -0.13068212058E+03 -0.20356179116E+02  0.45495159158E+02  0.22190585994E+03  0.17227945467E+03 0.  0.
        -24    2    3    3    0    0 -0.13776524381E+03  0.21223612766E+02  0.23894657701E+01  0.16141420324E+03  0.81358043995E+02 0.  0.
          6    2    1    2  502    0  0.13068212058E+03  0.20356179116E+02  0.10119398054E+03  0.24010981100E+03  0.17297487960E+03 0.  0.
         24    2    5    5    0    0  0.12337159284E+02  0.87539891735E+01 -0.15755626910E+01  0.82871744072E+02  0.81464137766E+02 0.  0.
          2    1    6    6  501    0  0.18618807193E+02 -0.96955585763E+01 -0.36942561304E+02  0.42490195023E+02  0.00000000000E+00 0. -1.
         -1    1    6    6    0  501 -0.62816479096E+01  0.18449547750E+02  0.35366998613E+02  0.40381549048E+02  0.00000000000E+00 0.  1.
          5    1    5    5  502    0  0.11834496130E+03  0.11602189942E+02  0.10276954323E+03  0.15723806693E+03  0.47000000000E+01 0. -1.
         13    1    4    4    0    0 -0.24534347069E+02  0.16646941596E+02 -0.31375115970E+02  0.43167728140E+02  0.00000000000E+00 0. -1.
        -14    1    4    4    0    0 -0.11323089674E+03  0.45766711698E+01  0.33764581740E+02  0.11824647510E+03  0.00000000000E+00 0.  1.
         -5    1    3    3    0  504  0.70831232264E+01 -0.41579791881E+02  0.43105693387E+02  0.60491656697E+02  0.47000000000E+01 0.  1.
<mgrwt>
<rscale>  2 0.21760598E+03</rscale>
<asrwt>0</asrwt>
<pdfrwt beam="1">  1       21 0.46823447E-01 0.21774412E+03</pdfrwt>
<pdfrwt beam="2">  1       21 0.24255887E-01 0.21774412E+03</pdfrwt>
<totfact> 0.69292944E+04</totfact>
</mgrwt>
</event>
<event>
12    1  0.2743855E-001  0.2114342E+03  0.7546771E-02  0.1140467E+00
         21   -1    0    0  502  503  0.00000000000E+00  0.00000000000E+00  0.20993812022E+03  0.20993812022E+03  0.00000000000E+00 0.  1.
         21   -1    0    0  503  504 -0.00000000000E+00 -0.00000000000E+00 -0.35667432986E+03  0.35667432986E+03  0.00000000000E+00 0.  1.
         -6    2    1    2    0  504 -0.11130688014E+03  0.49826384141E+02 -0.25329849611E+03  0.32984261155E+03  0.17252283948E+03 0.  0.
        -24    2    3    3    0    0 -0.79613989650E+02  0.99651418488E+02 -0.16760475595E+03  0.22566737238E+03  0.81028489953E+02 0.  0.
          6    2    1    2  502    0  0.11130688014E+03 -0.49826384141E+02  0.10656228646E+03  0.23676983853E+03  0.17272100457E+03 0.  0.
         24    2    5    5    0    0  0.92575407739E+02 -0.82770332529E+02  0.12550257967E+03  0.19414359661E+03  0.80744687343E+02 0.  0.
          2    1    6    6  501    0  0.97826742067E+02 -0.41445781801E+02  0.85276172737E+02  0.13623454015E+03  0.00000000000E+00 0. -1.
         -1    1    6    6    0  501 -0.52513343284E+01 -0.41324550728E+02  0.40226406934E+02  0.57909056459E+02  0.00000000000E+00 0.  1.
          5    1    5    5  502    0  0.18731472401E+02  0.32943948387E+02 -0.18940293211E+02  0.42626241924E+02  0.47000000000E+01 0. -1.
         13    1    4    4    0    0  0.83397190902E+01  0.44855703135E+02 -0.35735344115E+02  0.57953428176E+02  0.00000000000E+00 0. -1.
        -14    1    4    4    0    0 -0.87953708741E+02  0.54795715353E+02 -0.13186941183E+03  0.16771394420E+03  0.00000000000E+00 0.  1.
         -5    1    3    3    0  504 -0.31692890489E+02 -0.49825034347E+02 -0.85693740155E+02  0.10417523917E+03  0.47000000000E+01 0.  1.
<mgrwt>
<rscale>  2 0.21139376E+03</rscale>
<asrwt>0</asrwt>
<pdfrwt beam="1">  1       21 0.32298173E-01 0.21143423E+03</pdfrwt>
<pdfrwt beam="2">  1       21 0.54872973E-01 0.21143423E+03</pdfrwt>
<totfact> 0.28611097E+04</totfact>
</mgrwt>
</event>
<event>
12    1  0.2743855E-001  0.1960356E+03  0.7546771E-02  0.1153222E+00
         21   -1    0    0  502  503  0.00000000000E+00  0.00000000000E+00  0.26800234923E+03  0.26800234923E+03  0.00000000000E+00 0. -1.
         21   -1    0    0  503  504 -0.00000000000E+00 -0.00000000000E+00 -0.14332737376E+03  0.14332737376E+03  0.00000000000E+00 0. -1.
         -6    2    1    2    0  504 -0.38900536606E+02  0.83330699123E+02  0.70999901797E+02  0.20849684513E+03  0.17312622912E+03 0.  0.
        -24    2    3    3    0    0 -0.69670005020E+02  0.48238321924E+02  0.99174175806E+02  0.15377833967E+03  0.81433502341E+02 0.  0.
          6    2    1    2  502    0  0.38900536606E+02 -0.83330699123E+02  0.53675073665E+02  0.20283287786E+03  0.17263518078E+03 0.  0.
         24    2    5    5    0    0  0.16605949966E+02  0.26945324692E+02  0.19229707987E+02  0.85077099917E+02  0.76593231842E+02 0.  0.
          4    1    6    6  501    0  0.40036528269E+02 -0.64089332967E+01  0.17825036542E+02  0.44291420722E+02  0.00000000000E+00 0. -1.
         -3    1    6    6    0  501 -0.23430578303E+02  0.33354257988E+02  0.14046714446E+01  0.40785679195E+02  0.00000000000E+00 0.  1.
          5    1    5    5  502    0  0.22294586641E+02 -0.11027602382E+03  0.34445365678E+02  0.11775577794E+03  0.47000000000E+01 0. -1.
         13    1    4    4    0    0 -0.27400409027E+02  0.59466142357E+02  0.30194064166E+02  0.72101914070E+02  0.00000000000E+00 0. -1.
        -14    1    4    4    0    0 -0.42269595992E+02 -0.11227820432E+02  0.68980111640E+02  0.81676425601E+02  0.00000000000E+00 0.  1.
         -5    1    3    3    0  504  0.30769468413E+02  0.35092377199E+02 -0.28174274009E+02  0.54718505461E+02  0.47000000000E+01 0.  1.
<mgrwt>
<rscale>  2 0.19592711E+03</rscale>
<asrwt>0</asrwt>
<pdfrwt beam="1">  1       21 0.41231131E-01 0.19603558E+03</pdfrwt>
<pdfrwt beam="2">  1       21 0.22050365E-01 0.19603558E+03</pdfrwt>
<totfact> 0.10873954E+05</totfact>
</mgrwt>
</event>
<event>
12    1  0.2743855E-001  0.2009485E+03  0.7546771E-02  0.1149231E+00
         21   -1    0    0  502  503  0.00000000000E+00  0.00000000000E+00  0.62426998028E+02  0.62426998028E+02  0.00000000000E+00 0. -1.
         21   -1    0    0  503  504 -0.00000000000E+00 -0.00000000000E+00 -0.70589264840E+03  0.70589264840E+03  0.00000000000E+00 0.  1.
         -6    2    1    2    0  504 -0.87435483985E+02  0.51478295476E+02 -0.43793143614E+03  0.48183426357E+03  0.17345124969E+03 0.  0.
        -24    2    3    3    0    0 -0.18463195597E+02  0.33391675773E+01 -0.35448671261E+03  0.36326080918E+03  0.77107369528E+02 0.  0.
          6    2    1    2  502    0  0.87435483985E+02 -0.51478295476E+02 -0.20553421423E+03  0.28648538286E+03  0.17185628475E+03 0.  0.
         24    2    5    5    0    0  0.54001651375E+02 -0.37892852304E+02 -0.22313327611E+03  0.24606011343E+03  0.80031705648E+02 0.  0.
          2    1    6    6  501    0  0.74067519129E+02 -0.19957267274E+02 -0.16048560830E+03  0.17787613774E+03  0.00000000000E+00 0. -1.
         -1    1    6    6    0  501 -0.20065867754E+02 -0.17935585030E+02 -0.62647667806E+02  0.68183975688E+02  0.00000000000E+00 0.  1.
          5    1    5    5  502    0  0.33433832610E+02 -0.13585443172E+02  0.17599061880E+02  0.40425269427E+02  0.47000000000E+01 0. -1.
         13    1    4    4    0    0 -0.40032833107E+02 -0.18463983912E+02 -0.14539455202E+03  0.15193130745E+03  0.00000000000E+00 0. -1.
        -14    1    4    4    0    0  0.21569637510E+02  0.21803151490E+02 -0.20909216060E+03  0.21132950173E+03  0.00000000000E+00 0.  1.
         -5    1    3    3    0  504 -0.68972288388E+02  0.48139127899E+02 -0.83444723533E+02  0.11857345439E+03  0.47000000000E+01 0.  1.
<mgrwt>
<rscale>  2 0.20060388E+03</rscale>
<asrwt>0</asrwt>
<pdfrwt beam="1">  1       21 0.96041538E-02 0.20094854E+03</pdfrwt>
<pdfrwt beam="2">  1       21 0.10859887E+00 0.20094854E+03</pdfrwt>
<totfact> 0.58457052E+04</totfact>
</mgrwt>
</event>
<event>
12    1  0.2743855E-001  0.1749787E+03  0.7546771E-02  0.1172975E+00
         21   -1    0    0  502  503  0.00000000000E+00  0.00000000000E+00  0.82271921690E+03  0.82271921690E+03  0.00000000000E+00 0. -1.
         21   -1    0    0  503  504 -0.00000000000E+00 -0.00000000000E+00 -0.77487652027E+02  0.77487652027E+02  0.00000000000E+00 0. -1.
         -6    2    1    2    0  504 -0.19203824964E+02  0.55577799500E+01  0.47823439194E+02  0.18139634277E+03  0.17383289683E+03 0.  0.
        -24    2    3    3    0    0 -0.21510565873E+01  0.61708076328E+02  0.21049739517E+02  0.11672352245E+03  0.96792434787E+02 0.  0.
          6    2    1    2  502    0  0.19203824964E+02 -0.55577799500E+01  0.69740812568E+03  0.71881052616E+03  0.17294739936E+03 0.  0.
         24    2    5    5    0    0 -0.11063885671E+02  0.24938022987E+02  0.64666053124E+03  0.65215066834E+03  0.79914560560E+02 0.  0.
          2    1    6    6  501    0 -0.25216344107E+02 -0.16192354596E+01  0.55703862059E+03  0.55761143349E+03  0.00000000000E+00 0. -1.
         -1    1    6    6    0  501  0.14152458435E+02  0.26557258446E+02  0.89621910653E+02  0.94539234845E+02  0.00000000000E+00 0.  1.
          5    1    5    5  502    0  0.30267710636E+02 -0.30495802937E+02  0.50747594437E+02  0.66659857823E+02  0.47000000000E+01 0. -1.
         13    1    4    4    0    0 -0.37962411017E+02  0.43035814375E+01 -0.13794116840E+02  0.40619491908E+02  0.00000000000E+00 0. -1.
        -14    1    4    4    0    0  0.35811354430E+02  0.57404494891E+02  0.34843856357E+02  0.76104030547E+02  0.00000000000E+00 0.  1.
         -5    1    3    3    0  504 -0.17052768377E+02 -0.56150296378E+02  0.26773699678E+02  0.64672820312E+02  0.47000000000E+01 0.  1.
<mgrwt>
<rscale>  2 0.17475839E+03</rscale>
<asrwt>0</asrwt>
<pdfrwt beam="1">  1       21 0.12657218E+00 0.17497872E+03</pdfrwt>
<pdfrwt beam="2">  1       21 0.11921178E-01 0.17497872E+03</pdfrwt>
<totfact> 0.27748712E+04</totfact>
</mgrwt>
</event>
<event>
12    1  0.2743855E-001  0.2174877E+03  0.7546771E-02  0.1135803E+00
         21   -1    0    0  502  503  0.00000000000E+00  0.00000000000E+00  0.77562539404E+03  0.77562539404E+03  0.00000000000E+00 0. -1.
         21   -1    0    0  503  504 -0.00000000000E+00 -0.00000000000E+00 -0.21165715532E+03  0.21165715532E+03  0.00000000000E+00 0.  1.
         -6    2    1    2    0  504  0.10599386727E+03 -0.77408449668E+02 -0.13461213529E+03  0.25563000230E+03  0.17320364642E+03 0.  0.
        -24    2    3    3    0    0  0.12870280007E+03 -0.53400220947E+02 -0.55782183951E+02  0.17002426708E+03  0.79878689323E+02 0.  0.
          6    2    1    2  502    0 -0.10599386727E+03  0.77408449668E+02  0.69858037401E+03  0.73165254706E+03  0.17341898020E+03 0.  0.
         24    2    5    5    0    0 -0.18318983734E+02  0.76389339744E+02  0.53107046729E+03  0.54252406524E+03  0.78266236301E+02 0.  0.
          2    1    6    6  501    0 -0.19730280611E+02  0.73381779040E+02  0.53319378456E+03  0.53858126718E+03  0.00000000000E+00 0. -1.
         -1    1    6    6    0  501  0.14112968765E+01  0.30075607046E+01 -0.21233172710E+01  0.39427980546E+01  0.00000000000E+00 0.  1.
          5    1    5    5  502    0 -0.87674883535E+02  0.10191099238E+01  0.16750990672E+03  0.18912848183E+03  0.47000000000E+01 0. -1.
         11    1    4    4    0    0  0.57320737521E+02 -0.13656904709E+02  0.16227859203E+02  0.61118912053E+02  0.00000000000E+00 0. -1.
        -12    1    4    4    0    0  0.71382062544E+02 -0.39743316238E+02 -0.72010043154E+02  0.10890535503E+03  0.00000000000E+00 0.  1.
         -5    1    3    3    0  504 -0.22708932796E+02 -0.24008228721E+02 -0.78829951337E+02  0.85605735221E+02  0.47000000000E+01 0.  1.
<mgrwt>
<rscale>  2 0.21744480E+03</rscale>
<asrwt>0</asrwt>
<pdfrwt beam="1">  1       21 0.11932698E+00 0.21748773E+03</pdfrwt>
<pdfrwt beam="2">  1       21 0.32562640E-01 0.21748773E+03</pdfrwt>
<totfact> 0.47661510E+03</totfact>
</mgrwt>
</event>
<event>
12    1  0.2743855E-001  0.1930975E+03  0.7546771E-02  0.1155820E+00
         21   -1    0    0  502  503  0.00000000000E+00  0.00000000000E+00  0.15840240234E+03  0.15840240234E+03  0.00000000000E+00 0.  1.
         21   -1    0    0  503  504 -0.00000000000E+00 -0.00000000000E+00 -0.26055931780E+03  0.26055931780E+03  0.00000000000E+00 0.  1.
         -6    2    1    2    0  504  0.72557062984E+02  0.46598844937E+02 -0.11712046830E+03  0.22584028247E+03  0.17277340464E+03 0.  0.
        -24    2    3    3    0    0  0.36684344309E+01 -0.30978160300E+02 -0.73874642421E+02  0.11334083206E+03  0.80097300788E+02 0.  0.
          6    2    1    2  502    0 -0.72557062984E+02 -0.46598844937E+02  0.14963552848E+02  0.19312143767E+03  0.17215110233E+03 0.  0.
         24    2    5    5    0    0  0.13150539276E+02 -0.26231311886E+02  0.49527357827E+02  0.98372421300E+02  0.79769390699E+02 0.  0.
          4    1    6    6  501    0  0.11513135462E+02  0.18476186903E+02 -0.99599932182E+01  0.23939992389E+02  0.00000000000E+00 0. -1.
         -3    1    6    6    0  501  0.16374038137E+01 -0.44707498789E+02  0.59487351046E+02  0.74432428911E+02  0.00000000000E+00 0.  1.
          5    1    5    5  502    0 -0.85707602260E+02 -0.20367533051E+02 -0.34563804979E+02  0.94749016366E+02  0.47000000000E+01 0. -1.
         11    1    4    4    0    0  0.38880776739E+02 -0.18357833461E+02 -0.19185189483E+02  0.47082866785E+02  0.00000000000E+00 0. -1.
        -12    1    4    4    0    0 -0.35212342308E+02 -0.12620326839E+02 -0.54689452938E+02  0.66257965280E+02  0.00000000000E+00 0.  1.
         -5    1    3    3    0  504  0.68888628553E+02  0.77577005237E+02 -0.43245825882E+02  0.11249945041E+03  0.47000000000E+01 0.  1.
<mgrwt>
<rscale>  2 0.19295816E+03</rscale>
<asrwt>0</asrwt>
<pdfrwt beam="1">  1       21 0.24369600E-01 0.19309746E+03</pdfrwt>
<pdfrwt beam="2">  1       21 0.40086049E-01 0.19309746E+03</pdfrwt>
<totfact> 0.95364917E+04</totfact>
</mgrwt>
</event>
<event>
12    1  0.2743855E-001  0.1981600E+03  0.7546771E-02  0.1151574E+00
         21   -1    0    0  502  503  0.00000000000E+00  0.00000000000E+00  0.65618186806E+03  0.65618186806E+03  0.00000000000E+00 0.  1.
         21   -1    0    0  503  504 -0.00000000000E+00 -0.00000000000E+00 -0.10191444394E+03  0.10191444394E+03  0.00000000000E+00 0.  1.
         -6    2    1    2    0  504 -0.44930471177E+02  0.82450055704E+02  0.33004466688E+02  0.20088972275E+03  0.17450108011E+03 0.  0.
        -24    2    3    3    0    0 -0.27158663354E+02 -0.20568117009E+02  0.43961289301E+02  0.95672219339E+02  0.77845604653E+02 0.  0.
          6    2    1    2  502    0  0.44930471177E+02 -0.82450055704E+02  0.52126295743E+03  0.55720658925E+03  0.17305303636E+03 0.  0.
         24    2    5    5    0    0  0.59820621277E+02 -0.75285532753E+01  0.15845848050E+03  0.18641806924E+03  0.77507552220E+02 0.  0.
          4    1    6    6  501    0  0.10767858891E+02  0.25133804992E+02  0.14689158155E+02  0.31039109294E+02  0.00000000000E+00 0. -1.
         -3    1    6    6    0  501  0.49052762385E+02 -0.32662358267E+02  0.14376932234E+03  0.15537895994E+03  0.00000000000E+00 0.  1.
          5    1    5    5  502    0 -0.14890150100E+02 -0.74921502428E+02  0.36280447693E+03  0.37078852002E+03  0.47000000000E+01 0. -1.
         11    1    4    4    0    0  0.13106349612E+02  0.22483622617E+02  0.13132506495E+02  0.29150513083E+02  0.00000000000E+00 0. -1.
        -12    1    4    4    0    0 -0.40265012966E+02 -0.43051739626E+02  0.30828782806E+02  0.66521706256E+02  0.00000000000E+00 0.  1.
         -5    1    3    3    0  504 -0.17771807823E+02  0.10301817271E+03 -0.10956822612E+02  0.10521750341E+03  0.47000000000E+01 0.  1.
<mgrwt>
<rscale>  2 0.19784074E+03</rscale>
<asrwt>0</asrwt>
<pdfrwt beam="1">  1       21 0.10095105E+00 0.19816000E+03</pdfrwt>
<pdfrwt beam="2">  1       21 0.15679146E-01 0.19816000E+03</pdfrwt>
<totfact> 0.28951954E+04</totfact>
</mgrwt>
</event>
<event>
12    1  0.2743855E-001  0.1855814E+03  0.7546771E-02  0.1162982E+00
         21   -1    0    0  502  503  0.00000000000E+00  0.00000000000E+00  0.60666312848E+02  0.60666312848E+02  0.00000000000E+00 0. -1.
         21   -1    0    0  503  504 -0.00000000000E+00 -0.00000000000E+00 -0.70913489025E+03  0.70913489025E+03  0.00000000000E+00 0.  1.
         -6    2    1    2    0  504  0.66615403905E+02  0.83991244597E+01 -0.50125415900E+03  0.53450556664E+03  0.17300957060E+03 0.  0.
        -24    2    3    3    0    0  0.44126868813E+02 -0.33447275028E+02 -0.14062825961E+03  0.17073368114E+03  0.79421544426E+02 0.  0.
          6    2    1    2  502    0 -0.66615403905E+02 -0.83991244597E+01 -0.14721441840E+03  0.23529563646E+03  0.17083264976E+03 0.  0.
         24    2    5    5    0    0 -0.49222476625E+02  0.60615723014E+02 -0.94652303630E+02  0.14669298977E+03  0.80390649857E+02 0.  0.
          4    1    6    6  501    0 -0.56908716962E+02  0.75897803357E+02 -0.77893196596E+02  0.12274538157E+03  0.00000000000E+00 0. -1.
         -3    1    6    6    0  501  0.76862403368E+01 -0.15282080342E+02 -0.16759107034E+02  0.23947608204E+02  0.00000000000E+00 0.  1.
          5    1    5    5  502    0 -0.17392927279E+02 -0.69014847474E+02 -0.52562114772E+02  0.88602646690E+02  0.47000000000E+01 0. -1.
         13    1    4    4    0    0 -0.10924572673E+02 -0.25138651659E+02 -0.10781055689E+02  0.29453849614E+02  0.00000000000E+00 0. -1.
        -14    1    4    4    0    0  0.55051441486E+02 -0.83086233688E+01 -0.12984720392E+03  0.14127983153E+03  0.00000000000E+00 0.  1.
         -5    1    3    3    0  504  0.22488535092E+02  0.41846399487E+02 -0.36062589939E+03  0.36377188549E+03  0.47000000000E+01 0.  1.
<mgrwt>
<rscale>  2 0.18507240E+03</rscale>
<asrwt>0</asrwt>
<pdfrwt beam="1">  1       21 0.93332785E-02 0.18558143E+03</pdfrwt>
<pdfrwt beam="2">  1       21 0.10909768E+00 0.18558143E+03</pdfrwt>
<totfact> 0.61261084E+04</totfact>
</mgrwt>
</event>
<event>
12    1  0.2743855E-001  0.1834108E+03  0.7546771E-02  0.1164906E+00
         21   -1    0    0  502  503  0.00000000000E+00  0.00000000000E+00  0.69657194267E+02  0.69657194267E+02  0.00000000000E+00 0.  1.
         21   -1    0    0  503  504 -0.00000000000E+00 -0.00000000000E+00 -0.52059012782E+03  0.52059012782E+03  0.00000000000E+00 0.  1.
         -6    2    1    2    0  504  0.51133902215E+02  0.22845219172E+02 -0.30810805374E+03  0.35778558225E+03  0.17304152706E+03 0.  0.
        -24    2    3    3    0    0  0.42747739399E+02 -0.49638522086E+02 -0.14034326767E+03  0.17477920553E+03  0.80994973959E+02 0.  0.
          6    2    1    2  502    0 -0.51133902215E+02 -0.22845219172E+02 -0.14282487981E+03  0.23246173984E+03  0.17465089236E+03 0.  0.
         24    2    5    5    0    0 -0.68784089303E+02 -0.57898152001E+02 -0.29171977039E+02  0.11213173729E+03  0.60324748799E+02 0.  0.
          4    1    6    6  501    0 -0.61880923027E+02 -0.15873161523E+02 -0.74306307816E+01  0.64315007309E+02  0.00000000000E+00 0. -1.
         -3    1    6    6    0  501 -0.69031662763E+01 -0.42024990478E+02 -0.21741346257E+02  0.47816729984E+02  0.00000000000E+00 0.  1.
          5    1    5    5  502    0  0.17650187088E+02  0.35052932829E+02 -0.11365290277E+03  0.12033000255E+03  0.47000000000E+01 0. -1.
         11    1    4    4    0    0 -0.11571416910E+02 -0.48180175832E+02 -0.60538625593E+02  0.78231401759E+02  0.00000000000E+00 0. -1.
        -12    1    4    4    0    0  0.54319156308E+02 -0.14583462538E+01 -0.79804642074E+02  0.96547803768E+02  0.00000000000E+00 0.  1.
         -5    1    3    3    0  504  0.83861628162E+01  0.72483741258E+02 -0.16776478608E+03  0.18300637672E+03  0.47000000000E+01 0.  1.
<mgrwt>
<rscale>  2 0.18302662E+03</rscale>
<asrwt>0</asrwt>
<pdfrwt beam="1">  1       21 0.10716492E-01 0.18341078E+03</pdfrwt>
<pdfrwt beam="2">  1       21 0.80090786E-01 0.18341078E+03</pdfrwt>
<totfact> 0.98839370E+04</totfact>
</mgrwt>
</event>
<event>
12    1  0.2743855E-001  0.2165445E+03  0.7546771E-02  0.1136720E+00
         21   -1    0    0  502  503  0.00000000000E+00  0.00000000000E+00  0.30541473435E+03  0.30541473435E+03  0.00000000000E+00 0.  1.
         21   -1    0    0  503  504 -0.00000000000E+00 -0.00000000000E+00 -0.19515320957E+03  0.19515320957E+03  0.00000000000E+00 0.  1.
         -6    2    1    2    0  504  0.10166807701E+03 -0.80181191822E+02 -0.61530255708E+02  0.22511659455E+03  0.17356868199E+03 0.  0.
        -24    2    3    3    0    0  0.66817961848E+02  0.22951560136E+02 -0.39699559881E+02  0.11398800087E+03  0.80161057558E+02 0.  0.
          6    2    1    2  502    0 -0.10166807701E+03  0.80181191822E+02  0.17179178049E+03  0.27545134937E+03  0.17203374268E+03 0.  0.
         24    2    5    5    0    0 -0.10423387014E+03 -0.92772946997E+01  0.83585772129E+02  0.14970639314E+03  0.66892861838E+02 0.  0.
          2    1    6    6  501    0 -0.73847864726E+02  0.90274783927E+01  0.20235575479E+02  0.77100460476E+02  0.00000000000E+00 0. -1.
         -1    1    6    6    0  501 -0.30386005410E+02 -0.18304773092E+02  0.63350196650E+02  0.72605932667E+02  0.00000000000E+00 0.  1.
          5    1    5    5  502    0  0.25657931285E+01  0.89458486522E+02  0.88206008357E+02  0.12574495622E+03  0.47000000000E+01 0. -1.
         11    1    4    4    0    0  0.87490274227E+00  0.38466771728E+02 -0.84970296373E+01  0.39403775132E+02  0.00000000000E+00 0. -1.
        -12    1    4    4    0    0  0.65943059106E+02 -0.15515211592E+02 -0.31202530244E+02  0.74584225736E+02  0.00000000000E+00 0.  1.
         -5    1    3    3    0  504  0.34850115159E+02 -0.10313275196E+03 -0.21830695828E+02  0.11112859368E+03  0.47000000000E+01 0.  1.
<mgrwt>
<rscale>  2 0.21623673E+03</rscale>
<asrwt>0</asrwt>
<pdfrwt beam="1">  1       21 0.46986882E-01 0.21654447E+03</pdfrwt>
<pdfrwt beam="2">  1       21 0.30023571E-01 0.21654447E+03</pdfrwt>
<totfact> 0.45590477E+04</totfact>
</mgrwt>
</event>
<event>
12    1  0.2743855E-001  0.1949334E+03  0.7546771E-02  0.1154104E+00
         21   -1    0    0  502  503  0.00000000000E+00  0.00000000000E+00  0.84333702029E+02  0.84333702029E+02  0.00000000000E+00 0.  1.
         21   -1    0    0  503  504 -0.00000000000E+00 -0.00000000000E+00 -0.47586081432E+03  0.47586081432E+03  0.00000000000E+00 0.  1.
         -6    2    1    2    0  504 -0.86895619656E+02  0.29080725218E+02 -0.26053866741E+03  0.32533925339E+03  0.17195550381E+03 0.  0.
        -24    2    3    3    0    0 -0.85699645945E+02  0.14844108886E+02 -0.83447936736E+02  0.14761101003E+03  0.85209596021E+02 0.  0.
          6    2    1    2  502    0  0.86895619656E+02 -0.29080725218E+02 -0.13098844489E+03  0.23485526296E+03  0.17205372577E+03 0.  0.
         24    2    5    5    0    0  0.87809890539E+02 -0.54380354308E+02 -0.15166828969E+02  0.11620601586E+03  0.51049051019E+02 0.  0.
          2    1    6    6  501    0  0.41283151393E+02 -0.24058291763E+02 -0.32779523912E+02  0.57944776981E+02  0.00000000000E+00 0. -1.
         -1    1    6    6    0  501  0.46526739146E+02 -0.30322062545E+02  0.17612694943E+02  0.58261238879E+02  0.00000000000E+00 0.  1.
          5    1    5    5  502    0 -0.91427088273E+00  0.25299629091E+02 -0.11582161592E+03  0.11864924710E+03  0.47000000000E+01 0. -1.
         13    1    4    4    0    0  0.10531511080E+02  0.21807647472E+02 -0.93566419767E+01  0.25962144807E+02  0.00000000000E+00 0. -1.
        -14    1    4    4    0    0 -0.96231157024E+02 -0.69635385866E+01 -0.74091294759E+02  0.12164886523E+03  0.00000000000E+00 0.  1.
         -5    1    3    3    0  504 -0.11959737114E+01  0.14236616332E+02 -0.17709073067E+03  0.17772824336E+03  0.47000000000E+01 0.  1.
<mgrwt>
<rscale>  2 0.19491170E+03</rscale>
<asrwt>0</asrwt>
<pdfrwt beam="1">  1       21 0.12974416E-01 0.19493338E+03</pdfrwt>
<pdfrwt beam="2">  1       21 0.73209356E-01 0.19493338E+03</pdfrwt>
<totfact> 0.85509694E+04</totfact>
</mgrwt>
</event>
<event>
12    1  0.2743855E-001  0.1844330E+03  0.7546771E-02  0.1164056E+00
         21   -1    0    0  502  503  0.00000000000E+00  0.00000000000E+00  0.82391303102E+03  0.82391303102E+03  0.00000000000E+00 0.  1.
         21   -1    0    0  503  504 -0.00000000000E+00 -0.00000000000E+00 -0.94970866093E+02  0.94970866093E+02  0.00000000000E+00 0.  1.
         -6    2    1    2    0  504 -0.14887313479E+02  0.64318526473E+02  0.18456439257E+02  0.18535421914E+03  0.17221219891E+03 0.  0.
        -24    2    3    3    0    0  0.24168506694E+01  0.10608916226E+03 -0.45895265182E+01  0.13438926403E+03  0.82332612100E+02 0.  0.
          6    2    1    2  502    0  0.14887313479E+02 -0.64318526473E+02  0.71048572567E+03  0.73352967797E+03  0.17005092512E+03 0.  0.
         24    2    5    5    0    0 -0.28253098093E+01 -0.53691499486E+02  0.70525242758E+03  0.71170885912E+03  0.79105967273E+02 0.  0.
          4    1    6    6  501    0  0.36413743387E+02 -0.32544037489E+02  0.44438802298E+03  0.44706351903E+03  0.00000000000E+00 0. -1.
         -3    1    6    6    0  501 -0.39239053197E+02 -0.21147461996E+02  0.26086440460E+03  0.26464534009E+03  0.00000000000E+00 0.  1.
          5    1    5    5  502    0  0.17712623289E+02 -0.10627026988E+02  0.52332980943E+01  0.21820818850E+02  0.47000000000E+01 0. -1.
         11    1    4    4    0    0 -0.88653193887E+01  0.84479249872E+02  0.31705474040E+02  0.90667384604E+02  0.00000000000E+00 0. -1.
        -12    1    4    4    0    0  0.11282170058E+02  0.21609912391E+02 -0.36295000558E+02  0.43721879423E+02  0.00000000000E+00 0.  1.
         -5    1    3    3    0  504 -0.17304164149E+02 -0.41770635790E+02  0.23045965775E+02  0.50964955113E+02  0.47000000000E+01 0.  1.
<mgrwt>
<rscale>  2 0.18392685E+03</rscale>
<asrwt>0</asrwt>
<pdfrwt beam="1">  1       21 0.12675585E+00 0.18443304E+03</pdfrwt>
<pdfrwt beam="2">  1       21 0.14610903E-01 0.18443304E+03</pdfrwt>
<totfact> 0.19055932E+04</totfact>
</mgrwt>
</event>
<event>
12    1  0.2743855E-001  0.1779847E+03  0.7546771E-02  0.1169976E+00
         21   -1    0    0  502  503  0.00000000000E+00  0.00000000000E+00  0.17639864698E+04  0.17639864698E+04  0.00000000000E+00 0.  1.
         21   -1    0    0  503  504 -0.00000000000E+00 -0.00000000000E+00 -0.86321380201E+02  0.86321380201E+02  0.00000000000E+00 0.  1.
         -6    2    1    2    0  504  0.26383055280E+02 -0.20698977303E+02  0.15420533128E+02  0.17865146416E+03  0.17479713824E+03 0.  0.
        -24    2    3    3    0    0  0.67545479728E+02  0.44385459677E+01 -0.33220765458E+02  0.10999065882E+03  0.80076421293E+02 0.  0.
          6    2    1    2  502    0 -0.26383055280E+02  0.20698977303E+02  0.16622445564E+04  0.16716563858E+04  0.17393560169E+03 0.  0.
         24    2    5    5    0    0 -0.82053279679E+02  0.44393399956E+01  0.12268724328E+04  0.12324132575E+04  0.82909725283E+02 0.  0.
          2    1    6    6  501    0 -0.90136431341E+02  0.23017592035E+02  0.86840139226E+03  0.87337011849E+03  0.00000000000E+00 0. -1.
         -1    1    6    6    0  501  0.80831516625E+01 -0.18578252039E+02  0.35847104053E+03  0.35904313903E+03  0.00000000000E+00 0.  1.
          5    1    5    5  502    0  0.55670224399E+02  0.16259637307E+02  0.43537212364E+03  0.43924312827E+03  0.47000000000E+01 0. -1.
         11    1    4    4    0    0  0.61446633716E+02  0.16384758027E+01  0.13381086927E+02  0.62908082830E+02  0.00000000000E+00 0. -1.
        -12    1    4    4    0    0  0.60988460111E+01  0.28000701649E+01 -0.46601852386E+02  0.47082575985E+02  0.00000000000E+00 0.  1.
         -5    1    3    3    0  504 -0.41162424448E+02 -0.25137523270E+02  0.48641298586E+02  0.68660805346E+02  0.47000000000E+01 0.  1.
<mgrwt>
<rscale>  2 0.17777281E+03</rscale>
<asrwt>0</asrwt>
<pdfrwt beam="1">  1       21 0.27138251E+00 0.17798470E+03</pdfrwt>
<pdfrwt beam="2">  1       21 0.13280214E-01 0.17798470E+03</pdfrwt>
<totfact> 0.24851441E+03</totfact>
</mgrwt>
</event>
<event>
12    1  0.2743855E-001  0.1849406E+03  0.7546771E-02  0.1163490E+00
         21   -1    0    0  502  503  0.00000000000E+00  0.00000000000E+00  0.16958317021E+03  0.16958317021E+03  0.00000000000E+00 0. -1.
         21   -1    0    0  503  504 -0.00000000000E+00 -0.00000000000E+00 -0.20167753316E+03  0.20167753316E+03  0.00000000000E+00 0. -1.
         -6    2    1    2    0  504 -0.24105085242E+01  0.64203724845E+02 -0.33524174688E+02  0.18795447613E+03  0.17342169983E+03 0.  0.
        -24    2    3    3    0    0 -0.33658374349E+01 -0.56351015570E+01 -0.73126333348E+02  0.10752565482E+03  0.78557129430E+02 0.  0.
          6    2    1    2  502    0  0.24105085242E+01 -0.64203724845E+02  0.14298117385E+01  0.18330622725E+03  0.17167177914E+03 0.  0.
         24    2    5    5    0    0 -0.65170842754E+02 -0.36142333242E+02 -0.13594818822E+02  0.10845630900E+03  0.77617297458E+02 0.  0.
          4    1    6    6  501    0 -0.61656278347E+02 -0.43322918415E+02  0.16650200162E+02  0.77172541004E+02  0.00000000000E+00 0. -1.
         -3    1    6    6    0  501 -0.35145644069E+01  0.71805851737E+01 -0.30245018984E+02  0.31283767991E+02  0.00000000000E+00 0.  1.
          5    1    5    5  502    0  0.67581351278E+02 -0.28061391603E+02  0.15024630561E+02  0.74849918255E+02  0.47000000000E+01 0. -1.
         11    1    4    4    0    0 -0.10704646418E+02  0.35278822106E+02 -0.39772520423E+02  0.54231338956E+02  0.00000000000E+00 0. -1.
        -12    1    4    4    0    0  0.73388089832E+01 -0.40913923663E+02 -0.33353812925E+02  0.53294315864E+02  0.00000000000E+00 0.  1.
         -5    1    3    3    0  504  0.95532891071E+00  0.69838826402E+02  0.39602158660E+02  0.80428821308E+02  0.47000000000E+01 0.  1.
<mgrwt>
<rscale>  2 0.18452922E+03</rscale>
<asrwt>0</asrwt>
<pdfrwt beam="1">  1       21 0.26089718E-01 0.18494057E+03</pdfrwt>
<pdfrwt beam="2">  1       21 0.31027313E-01 0.18494057E+03</pdfrwt>
<totfact> 0.13964182E+05</totfact>
</mgrwt>
</event>
<event>
12    1  0.2743855E-001  0.2737490E+03  0.7546771E-02  0.1099224E+00
         21   -1    0    0  502  503  0.00000000000E+00  0.00000000000E+00  0.32781012330E+03  0.32781012330E+03  0.00000000000E+00 0. -1.
         21   -1    0    0  503  504 -0.00000000000E+00 -0.00000000000E+00 -0.23177017996E+03  0.23177017996E+03  0.00000000000E+00 0. -1.
         -6    2    1    2    0  504  0.15805816431E+02  0.21167373449E+03  0.13238558980E+02  0.27406893157E+03  0.17286678716E+03 0.  0.
        -24    2    3    3    0    0  0.68649688918E+01  0.15218661763E+03 -0.56657583854E+02  0.18173141693E+03  0.81291645988E+02 0.  0.
          6    2    1    2  502    0 -0.15805816431E+02 -0.21167373449E+03  0.82801384365E+02  0.28551137168E+03  0.17206126932E+03 0.  0.
         24    2    5    5    0    0 -0.13084049562E+02 -0.11226509436E+03 -0.23408301739E+02  0.13993639729E+03  0.79117652455E+02 0.  0.
          2    1    6    6  501    0 -0.33379061049E+02 -0.94642513384E+02  0.54445701564E+01  0.10050378302E+03  0.00000000000E+00 0. -1.
         -1    1    6    6    0  501  0.20295011488E+02 -0.17622580979E+02 -0.28852871896E+02  0.39432614271E+02  0.00000000000E+00 0.  1.
          5    1    5    5  502    0 -0.27217668695E+01 -0.99408640132E+02  0.10620968610E+03  0.14557497439E+03  0.47000000000E+01 0. -1.
         11    1    4    4    0    0 -0.20390651821E+02  0.21381510022E+02  0.11539408944E+02  0.31719167884E+02  0.00000000000E+00 0. -1.
        -12    1    4    4    0    0  0.27255620713E+02  0.13080510761E+03 -0.68196992798E+02  0.15001224905E+03  0.00000000000E+00 0.  1.
         -5    1    3    3    0  504  0.89408475395E+01  0.59487116860E+02  0.69896142834E+02  0.92337514642E+02  0.47000000000E+01 0.  1.
<mgrwt>
<rscale>  2 0.27362193E+03</rscale>
<asrwt>0</asrwt>
<pdfrwt beam="1">  1       21 0.50432327E-01 0.27374901E+03</pdfrwt>
<pdfrwt beam="2">  1       21 0.35656951E-01 0.27374901E+03</pdfrwt>
<totfact> 0.27285469E+04</totfact>
</mgrwt>
</event>
<event>
12    1  0.2743855E-001  0.1940812E+03  0.7546771E-02  0.1155055E+00
         21   -1    0    0  502  503  0.00000000000E+00  0.00000000000E+00  0.19524177653E+03  0.19524177653E+03  0.00000000000E+00 0.  1.
         21   -1    0    0  503  504 -0.00000000000E+00 -0.00000000000E+00 -0.52720892251E+03  0.52720892251E+03  0.00000000000E+00 0. -1.
         -6    2    1    2    0  504  0.76462158173E+02  0.38856163406E+02 -0.45389441742E+03  0.49324820803E+03  0.17296644036E+03 0.  0.
        -24    2    3    3    0    0 -0.24922706926E+02  0.46697169572E+02 -0.16839639396E+03  0.19014495228E+03  0.70682320352E+02 0.  0.
          6    2    1    2  502    0 -0.76462158173E+02 -0.38856163406E+02  0.12192727144E+03  0.22920249102E+03  0.17410129035E+03 0.  0.
         24    2    5    5    0    0 -0.11636261710E+03 -0.39886880851E+01  0.88931942174E+02  0.16660401491E+03  0.79321114165E+02 0.  0.
          4    1    6    6  501    0 -0.11124157009E+03  0.22479192399E+02  0.76849802275E+02  0.13706163984E+03  0.00000000000E+00 0. -1.
         -3    1    6    6    0  501 -0.51210470144E+01 -0.26467880484E+02  0.12082139900E+02  0.29542375064E+02  0.00000000000E+00 0.  1.
          5    1    5    5  502    0  0.39900458932E+02 -0.34867475321E+02  0.32995329266E+02  0.62598476112E+02  0.47000000000E+01 0. -1.
         13    1    4    4    0    0  0.25341959292E+01  0.49131351919E+02 -0.56562827268E+02  0.74964427024E+02  0.00000000000E+00 0. -1.
        -14    1    4    4    0    0 -0.27456902856E+02 -0.24341823467E+01 -0.11183356670E+03  0.11518052525E+03  0.00000000000E+00 0.  1.
         -5    1    3    3    0  504  0.10138486510E+03 -0.78410061659E+01 -0.28549802345E+03  0.30310325575E+03  0.47000000000E+01 0.  1.
<mgrwt>
<rscale>  2 0.19382638E+03</rscale>
<asrwt>0</asrwt>
<pdfrwt beam="1">  1       21 0.30037197E-01 0.19408123E+03</pdfrwt>
<pdfrwt beam="2">  1       21 0.81109063E-01 0.19408123E+03</pdfrwt>
<totfact> 0.14159694E+04</totfact>
</mgrwt>
</event>
<event>
12    1  0.2743855E-001  0.1961572E+03  0.7546771E-02  0.1153426E+00
         21   -1    0    0  502  503  0.00000000000E+00  0.00000000000E+00  0.31081291385E+03  0.31081291385E+03  0.00000000000E+00 0.  1.
         21   -1    0    0  503  504 -0.00000000000E+00 -0.00000000000E+00 -0.18396753828E+03  0.18396753828E+03  0.00000000000E+00 0.  1.
         -6    2    1    2    0  504 -0.23673784156E+02  0.83359812167E+02 -0.79225015065E+02  0.21155198534E+03  0.17597821782E+03 0.  0.
        -24    2    3    3    0    0  0.45221188230E+00  0.12291174708E+03 -0.73435207384E+02  0.16462618099E+03  0.81249909033E+02 0.  0.
          6    2    1    2  502    0  0.23673784156E+02 -0.83359812167E+02  0.20607039063E+03  0.28322846679E+03  0.17390817165E+03 0.  0.
         24    2    5    5    0    0  0.41899734393E+02 -0.43111951380E+02  0.21565569626E+03  0.23777471399E+03  0.80094988552E+02 0.  0.
          4    1    6    6  501    0  0.51787288806E+02 -0.59858687967E+02  0.15440181422E+03  0.17350765412E+03  0.00000000000E+00 0. -1.
         -3    1    6    6    0  501 -0.98875544124E+01  0.16746736587E+02  0.61253882041E+02  0.64267059865E+02  0.00000000000E+00 0.  1.
          5    1    5    5  502    0 -0.18225950238E+02 -0.40247860787E+02 -0.95853056254E+01  0.45453752804E+02  0.47000000000E+01 0. -1.
         11    1    4    4    0    0  0.30375345497E+02  0.14201751513E+02 -0.25408997981E+02  0.42070994028E+02  0.00000000000E+00 0. -1.
        -12    1    4    4    0    0 -0.29923133615E+02  0.10870999557E+03 -0.48026209403E+02  0.12255518696E+03  0.00000000000E+00 0.  1.
         -5    1    3    3    0  504 -0.24125996038E+02 -0.39551934915E+02 -0.57898076809E+01  0.46925804344E+02  0.47000000000E+01 0.  1.
<mgrwt>
<rscale>  2 0.19569179E+03</rscale>
<asrwt>0</asrwt>
<pdfrwt beam="1">  1       21 0.47817371E-01 0.19615718E+03</pdfrwt>
<pdfrwt beam="2">  1       21 0.28302698E-01 0.19615718E+03</pdfrwt>
<totfact> 0.49804048E+04</totfact>
</mgrwt>
</event>
<event>
12    1  0.2743855E-001  0.1927459E+03  0.7546771E-02  0.1158341E+00
         21   -1    0    0  502  503  0.00000000000E+00  0.00000000000E+00  0.77136615997E+03  0.77136615997E+03  0.00000000000E+00 0. -1.
         21   -1    0    0  503  504 -0.00000000000E+00 -0.00000000000E+00 -0.93857350486E+02  0.93857350486E+02  0.00000000000E+00 0.  1.
         -6    2    1    2    0  504 -0.66805293522E+02 -0.29088737404E+01  0.24236787494E+02  0.18411021175E+03  0.16981678189E+03 0.  0.
        -24    2    3    3    0    0  0.26864749171E+02  0.11235692507E+02  0.14434760094E+01  0.86561399859E+02  0.81503599850E+02 0.  0.
          6    2    1    2  502    0  0.66805293522E+02  0.29088737404E+01  0.65327202199E+03  0.68111329871E+03  0.18077494896E+03 0.  0.
         24    2    5    5    0    0  0.31288632817E+02 -0.21024910730E+02  0.62053934568E+03  0.62700435929E+03  0.81512953675E+02 0.  0.
          4    1    6    6  501    0  0.55052013312E+02 -0.29054519145E+02  0.50167778847E+03  0.50552496743E+03  0.00000000000E+00 0. -1.
         -3    1    6    6    0  501 -0.23763380495E+02  0.80296084154E+01  0.11886155721E+03  0.12147939186E+03  0.00000000000E+00 0.  1.
          5    1    5    5  502    0  0.35516660706E+02  0.23933784470E+02  0.32732676316E+02  0.54108939424E+02  0.47000000000E+01 0. -1.
         11    1    4    4    0    0 -0.25531838765E+02 -0.11357782455E+02  0.81501535920E+01  0.29108401135E+02  0.00000000000E+00 0. -1.
        -12    1    4    4    0    0  0.52396587936E+02  0.22593474962E+02 -0.67066775826E+01  0.57452998725E+02  0.00000000000E+00 0.  1.
         -5    1    3    3    0  504 -0.93670042694E+02 -0.14144566247E+02  0.22793311484E+02  0.97548811889E+02  0.47000000000E+01 0.  1.
<mgrwt>
<rscale>  2 0.19013381E+03</rscale>
<asrwt>0</asrwt>
<pdfrwt beam="1">  1       21 0.11867171E+00 0.19274592E+03</pdfrwt>
<pdfrwt beam="2">  1       21 0.14439593E-01 0.19274592E+03</pdfrwt>
<totfact> 0.22822085E+04</totfact>
</mgrwt>
</event>
<event>
12    1  0.2743855E-001  0.4222486E+03  0.7546771E-02  0.1036377E+00
         21   -1    0    0  502  503  0.00000000000E+00  0.00000000000E+00  0.50983935534E+03  0.50983935534E+03  0.00000000000E+00 0. -1.
         21   -1    0    0  503  504 -0.00000000000E+00 -0.00000000000E+00 -0.40548097293E+03  0.40548097293E+03  0.00000000000E+00 0. -1.
         -6    2    1    2    0  504  0.38033907923E+03  0.56587782391E+02 -0.11815296522E+03  0.43846774556E+03  0.17445299768E+03 0.  0.
        -24    2    3    3    0    0  0.89461808500E+02  0.10548708411E+02  0.38389127738E+01  0.11966797884E+03  0.78682891914E+02 0.  0.
          6    2    1    2  502    0 -0.38033907923E+03 -0.56587782391E+02  0.22251134762E+03  0.47685258272E+03  0.17325441846E+03 0.  0.
         24    2    5    5    0    0 -0.32331809473E+03 -0.84889290489E+02  0.13469586404E+03  0.36828915798E+03  0.75849496212E+02 0.  0.
          2    1    6    6  501    0 -0.32615995759E+03 -0.81175269317E+02  0.13714146881E+03  0.36301174189E+03  0.00000000000E+00 0. -1.
         -1    1    6    6    0  501  0.28418628661E+01 -0.37140211728E+01 -0.24456047687E+01  0.52774160824E+01  0.00000000000E+00 0.  1.
          5    1    5    5  502    0 -0.57020984506E+02  0.28301508099E+02  0.87815483580E+02  0.10856342474E+03  0.47000000000E+01 0. -1.
         11    1    4    4    0    0  0.59420379816E+02 -0.63658239541E+01 -0.33775069094E+02  0.68644450208E+02  0.00000000000E+00 0. -1.
        -12    1    4    4    0    0  0.30041428684E+02  0.16914532365E+02  0.37613981867E+02  0.51023528635E+02  0.00000000000E+00 0.  1.
         -5    1    3    3    0  504  0.29087727073E+03  0.46039073980E+02 -0.12199187799E+03  0.31879976672E+03  0.47000000000E+01 0.  1.
<mgrwt>
<rscale>  2 0.42212505E+03</rscale>
<asrwt>0</asrwt>
<pdfrwt beam="1">  1       21 0.78436824E-01 0.42224855E+03</pdfrwt>
<pdfrwt beam="2">  1       21 0.62381688E-01 0.42224855E+03</pdfrwt>
<totfact> 0.30136270E+03</totfact>
</mgrwt>
</event>
<event>
12    1  0.2743855E-001  0.1982165E+03  0.7546771E-02  0.1151419E+00
         21   -1    0    0  502  503  0.00000000000E+00  0.00000000000E+00  0.35242883426E+03  0.35242883426E+03  0.00000000000E+00 0. -1.
         21   -1    0    0  503  504 -0.00000000000E+00 -0.00000000000E+00 -0.13714789056E+03  0.13714789056E+03  0.00000000000E+00 0. -1.
         -6    2    1    2    0  504 -0.14069104090E+02 -0.94210510656E+02  0.67516685544E+00  0.19743735240E+03  0.17293782774E+03 0.  0.
        -24    2    3    3    0    0 -0.63394962186E+02 -0.93834556257E+02  0.27581301140E+02  0.14105285381E+03  0.79443906110E+02 0.  0.
          6    2    1    2  502    0  0.14069104090E+02  0.94210510656E+02  0.21460577685E+03  0.29213937242E+03  0.17382811467E+03 0.  0.
         24    2    5    5    0    0  0.35951872022E+02 -0.12004496526E+02  0.12726949873E+03  0.15281888304E+03  0.75626983739E+02 0.  0.
          4    1    6    6  501    0  0.44150361564E+02 -0.12497720578E+02  0.29161401869E+02  0.54367589654E+02  0.00000000000E+00 0. -1.
         -3    1    6    6    0  501 -0.81984895419E+01  0.49322405193E+00  0.98108096857E+02  0.98451293387E+02  0.00000000000E+00 0.  1.
          5    1    5    5  502    0 -0.21882767932E+02  0.10621500718E+03  0.87336278124E+02  0.13932048937E+03  0.47000000000E+01 0. -1.
         11    1    4    4    0    0  0.44061013951E+01 -0.33222625919E+02 -0.19365604759E+02  0.38706372216E+02  0.00000000000E+00 0. -1.
        -12    1    4    4    0    0 -0.67801063581E+02 -0.60611930339E+02  0.46946905899E+02  0.10234648160E+03  0.00000000000E+00 0.  1.
         -5    1    3    3    0  504  0.49325858096E+02 -0.37595439904E+00 -0.26906134284E+02  0.56384498586E+02  0.47000000000E+01 0.  1.
<mgrwt>
<rscale>  2 0.19802112E+03</rscale>
<asrwt>0</asrwt>
<pdfrwt beam="1">  1       21 0.54219820E-01 0.19821648E+03</pdfrwt>
<pdfrwt beam="2">  1       21 0.21099676E-01 0.19821648E+03</pdfrwt>
<totfact> 0.66961017E+04</totfact>
</mgrwt>
</event>
<event>
12    1  0.2743855E-001  0.1932131E+03  0.7546771E-02  0.1155788E+00
         21   -1    0    0  502  503  0.00000000000E+00  0.00000000000E+00  0.31994717353E+03  0.31994717353E+03  0.00000000000E+00 0.  1.
         21   -1    0    0  503  504 -0.00000000000E+00 -0.00000000000E+00 -0.15779477481E+03  0.15779477481E+03  0.00000000000E+00 0.  1.
         -6    2    1    2    0  504 -0.82709056229E+02  0.21998228123E+02 -0.41771815262E+02  0.19682133623E+03  0.17224704300E+03 0.  0.
        -24    2    3    3    0    0 -0.74267416420E+02  0.76260719323E+02 -0.36446901733E+02  0.14144874429E+03  0.85720616901E+02 0.  0.
          6    2    1    2  502    0  0.82709056229E+02 -0.21998228123E+02  0.20392421398E+03  0.28092061211E+03  0.17322411853E+03 0.  0.
         24    2    5    5    0    0  0.51009650425E+02 -0.14702664227E+02  0.25102045102E+02  0.99103298131E+02  0.79832313384E+02 0.  0.
          4    1    6    6  501    0  0.11140928274E+01 -0.38931969353E+02  0.19460031596E+01  0.38996491750E+02  0.00000000000E+00 0. -1.
         -3    1    6    6    0  501  0.49895557598E+02  0.24229305126E+02  0.23156041942E+02  0.60106806381E+02  0.00000000000E+00 0.  1.
          5    1    5    5  502    0  0.31699405804E+02 -0.72955638958E+01  0.17882216888E+03  0.18181731398E+03  0.47000000000E+01 0. -1.
         11    1    4    4    0    0 -0.19097729128E+02  0.23130485059E+02  0.28237696754E+02  0.41195996346E+02  0.00000000000E+00 0. -1.
        -12    1    4    4    0    0 -0.55169687292E+02  0.53130234264E+02 -0.64684598488E+02  0.10025274794E+03  0.00000000000E+00 0.  1.
         -5    1    3    3    0  504 -0.84416398092E+01 -0.54262491200E+02 -0.53249135287E+01  0.55372591939E+02  0.47000000000E+01 0.  1.
<mgrwt>
<rscale>  2 0.19299386E+03</rscale>
<asrwt>0</asrwt>
<pdfrwt beam="1">  1       21 0.49222642E-01 0.19321311E+03</pdfrwt>
<pdfrwt beam="2">  1       21 0.24276119E-01 0.19321311E+03</pdfrwt>
<totfact> 0.63054061E+04</totfact>
</mgrwt>
</event>
<event>
12    1  0.2743855E-001  0.2002859E+03  0.7546771E-02  0.1149596E+00
         21   -1    0    0  502  503  0.00000000000E+00  0.00000000000E+00  0.38244665944E+03  0.38244665944E+03  0.00000000000E+00 0.  1.
         21   -1    0    0  503  504 -0.00000000000E+00 -0.00000000000E+00 -0.10654820226E+03  0.10654820226E+03  0.00000000000E+00 0.  1.
         -6    2    1    2    0  504 -0.27536913742E+02 -0.95261416406E+02  0.10512295810E+03  0.22578633616E+03  0.17348087560E+03 0.  0.
        -24    2    3    3    0    0  0.17073646729E+02 -0.12256855029E+03  0.73008915308E+02  0.16422999277E+03  0.79540114893E+02 0.  0.
          6    2    1    2  502    0  0.27536913742E+02  0.95261416406E+02  0.17077549908E+03  0.26320852554E+03  0.17401562504E+03 0.  0.
         24    2    5    5    0    0 -0.29121797768E+01  0.18548505605E+02  0.11683048977E+02  0.83919608822E+02  0.80953562369E+02 0.  0.
          4    1    6    6  501    0 -0.32935413223E+02 -0.11918816401E+02  0.20015294172E+02  0.40341190233E+02  0.00000000000E+00 0. -1.
         -3    1    6    6    0  501  0.30023233446E+02  0.30467322006E+02 -0.83322451950E+01  0.43578418590E+02  0.00000000000E+00 0.  1.
          5    1    5    5  502    0  0.30449093519E+02  0.76712910801E+02  0.15909245010E+03  0.17928891672E+03  0.47000000000E+01 0. -1.
         11    1    4    4    0    0  0.35600731558E+02 -0.17997000702E+02  0.28773278155E+02  0.49185421189E+02  0.00000000000E+00 0. -1.
        -12    1    4    4    0    0 -0.18527084829E+02 -0.10457154959E+03  0.44235637154E+02  0.11504457158E+03  0.00000000000E+00 0.  1.
         -5    1    3    3    0  504 -0.44610560471E+02  0.27307133885E+02  0.32114042794E+02  0.61556343387E+02  0.47000000000E+01 0.  1.
<mgrwt>
<rscale>  2 0.20016973E+03</rscale>
<asrwt>0</asrwt>
<pdfrwt beam="1">  1       21 0.58837947E-01 0.20028594E+03</pdfrwt>
<pdfrwt beam="2">  1       21 0.16392031E-01 0.20028594E+03</pdfrwt>
<totfact> 0.89842302E+04</totfact>
</mgrwt>
</event>
<event>
12    1  0.2743855E-001  0.1889580E+03  0.7546771E-02  0.1159622E+00
         21   -1    0    0  502  503  0.00000000000E+00  0.00000000000E+00  0.24542916244E+03  0.24542916244E+03  0.00000000000E+00 0.  1.
         21   -1    0    0  503  504 -0.00000000000E+00 -0.00000000000E+00 -0.17440055073E+03  0.17440055073E+03  0.00000000000E+00 0. -1.
         -6    2    1    2    0  504  0.46282489576E+02 -0.58753817524E+02 -0.50969224328E+02  0.19571149187E+03  0.17352534773E+03 0.  0.
        -24    2    3    3    0    0 -0.42790796121E+02 -0.22477795923E+02 -0.26360389210E+02  0.96324949850E+02  0.79040004441E+02 0.  0.
          6    2    1    2  502    0 -0.46282489576E+02  0.58753817524E+02  0.12199783605E+03  0.22411822130E+03  0.17248601452E+03 0.  0.
         24    2    5    5    0    0  0.37009158911E+02  0.42211432152E+02  0.78711333063E+02  0.12868782488E+03  0.84932911591E+02 0.  0.
          4    1    6    6  501    0  0.17176377785E+02  0.45663178088E+02  0.14088944041E+01  0.48807159007E+02  0.00000000000E+00 0. -1.
         -3    1    6    6    0  501  0.19832781126E+02 -0.34517459358E+01  0.77302438659E+02  0.79880665870E+02  0.00000000000E+00 0.  1.
          5    1    5    5  502    0 -0.83291648487E+02  0.16542385372E+02  0.43286502986E+02  0.95430396427E+02  0.47000000000E+01 0. -1.
         11    1    4    4    0    0 -0.45745106560E+02  0.23698151903E+01 -0.45696123008E+02  0.64702136412E+02  0.00000000000E+00 0. -1.
        -12    1    4    4    0    0  0.29543104393E+01 -0.24847611114E+02  0.19335733798E+02  0.31622813438E+02  0.00000000000E+00 0.  1.
         -5    1    3    3    0  504  0.89073285697E+02 -0.36276021601E+02 -0.24608835119E+02  0.99386542016E+02  0.47000000000E+01 0.  1.
<mgrwt>
<rscale>  2 0.18871905E+03</rscale>
<asrwt>0</asrwt>
<pdfrwt beam="1">  1       21 0.37758333E-01 0.18895800E+03</pdfrwt>
<pdfrwt beam="2">  1       21 0.26830854E-01 0.18895800E+03</pdfrwt>
<totfact> 0.89613646E+04</totfact>
</mgrwt>
</event>
<event>
12    1  0.2743855E-001  0.1923150E+03  0.7546771E-02  0.1157057E+00
         21   -1    0    0  502  503  0.00000000000E+00  0.00000000000E+00  0.10009043692E+03  0.10009043692E+03  0.00000000000E+00 0. -1.
         21   -1    0    0  503  504 -0.00000000000E+00 -0.00000000000E+00 -0.57897047125E+03  0.57897047125E+03  0.00000000000E+00 0. -1.
         -6    2    1    2    0  504 -0.71164575578E+02 -0.38382290000E+02 -0.44524165661E+03  0.48382614881E+03  0.17120167198E+03 0.  0.
        -24    2    3    3    0    0 -0.27276827990E+02  0.24808954521E+02 -0.35123737315E+03  0.36226068051E+03  0.80657292180E+02 0.  0.
          6    2    1    2  502    0  0.71164575578E+02  0.38382290000E+02 -0.33638377733E+02  0.19523475936E+03  0.17449204510E+03 0.  0.
         24    2    5    5    0    0  0.10827217775E+03  0.45786478801E+02 -0.55508231673E+02  0.15127822786E+03  0.77360663937E+02 0.  0.
          2    1    6    6  501    0  0.11944871318E+03  0.33373977342E+02 -0.48845344689E+02  0.13329548058E+03  0.00000000000E+00 0. -1.
         -1    1    6    6    0  501 -0.11176535434E+02  0.12412501458E+02 -0.66628869840E+01  0.17982747280E+02  0.00000000000E+00 0.  1.
          5    1    5    5  502    0 -0.37107602171E+02 -0.74041888009E+01  0.21869853940E+02  0.43956531506E+02  0.47000000000E+01 0. -1.
         11    1    4    4    0    0 -0.27420379776E+02 -0.18201819950E+02 -0.25150163881E+03  0.25364592999E+03  0.00000000000E+00 0. -1.
        -12    1    4    4    0    0  0.14355178635E+00  0.43010774470E+02 -0.99735734339E+02  0.10861475053E+03  0.00000000000E+00 0.  1.
         -5    1    3    3    0  504 -0.43887747589E+02 -0.63191244521E+02 -0.94004283458E+02  0.12156546829E+03  0.47000000000E+01 0.  1.
<mgrwt>
<rscale>  2 0.19156557E+03</rscale>
<asrwt>0</asrwt>
<pdfrwt beam="1">  1       21 0.15398529E-01 0.19231503E+03</pdfrwt>
<pdfrwt beam="2">  1       21 0.89072380E-01 0.19231503E+03</pdfrwt>
<totfact> 0.40250744E+04</totfact>
</mgrwt>
</event>
<event>
12    1  0.2743855E-001  0.2004989E+03  0.7546771E-02  0.1149440E+00
         21   -1    0    0  502  503  0.00000000000E+00  0.00000000000E+00  0.19031996276E+03  0.19031996276E+03  0.00000000000E+00 0.  1.
         21   -1    0    0  503  504 -0.00000000000E+00 -0.00000000000E+00 -0.34277271057E+03  0.34277271057E+03  0.00000000000E+00 0.  1.
         -6    2    1    2    0  504 -0.31510042356E+02  0.97726189756E+02 -0.24180150569E+03  0.31411427688E+03  0.17221068450E+03 0.  0.
        -24    2    3    3    0    0 -0.44891773268E+02  0.25023857852E+02 -0.46108710169E+02  0.10487169039E+03  0.78934108738E+02 0.  0.
          6    2    1    2  502    0  0.31510042356E+02 -0.97726189756E+02  0.89348757877E+02  0.21897839645E+03  0.17153730394E+03 0.  0.
         24    2    5    5    0    0  0.54107330549E+02 -0.10999434253E+03  0.11200196451E+03  0.18438934071E+03  0.80178739740E+02 0.  0.
          4    1    6    6  501    0 -0.95186208401E+01 -0.41585849089E+02  0.69960832895E+02  0.81942083977E+02  0.00000000000E+00 0. -1.
         -3    1    6    6    0  501  0.63625951389E+02 -0.68408493437E+02  0.42041131615E+02  0.10244725673E+03  0.00000000000E+00 0.  1.
          5    1    5    5  502    0 -0.22597288193E+02  0.12268152769E+02 -0.22653206633E+02  0.34589055737E+02  0.47000000000E+01 0. -1.
         13    1    4    4    0    0 -0.12691310463E+01 -0.19986571629E+02 -0.36258588815E+02  0.41421721379E+02  0.00000000000E+00 0. -1.
        -14    1    4    4    0    0 -0.43622642222E+02  0.45010429481E+02 -0.98501213537E+01  0.63449969008E+02  0.00000000000E+00 0.  1.
         -5    1    3    3    0  504  0.13381730912E+02  0.72702331904E+02 -0.19569279552E+03  0.20924258650E+03  0.47000000000E+01 0.  1.
<mgrwt>
<rscale>  2 0.20035423E+03</rscale>
<asrwt>0</asrwt>
<pdfrwt beam="1">  1       21 0.29279994E-01 0.20049890E+03</pdfrwt>
<pdfrwt beam="2">  1       21 0.52734263E-01 0.20049890E+03</pdfrwt>
<totfact> 0.37924405E+04</totfact>
</mgrwt>
</event>
<event>
12    1  0.2743855E-001  0.2516955E+03  0.7546771E-02  0.1112381E+00
         21   -1    0    0  502  503  0.00000000000E+00  0.00000000000E+00  0.97778262100E+02  0.97778262100E+02  0.00000000000E+00 0. -1.
         21   -1    0    0  503  504 -0.00000000000E+00 -0.00000000000E+00 -0.64561644219E+03  0.64561644219E+03  0.00000000000E+00 0.  1.
         -6    2    1    2    0  504 -0.16675078365E+03 -0.69408170376E+02 -0.27103481681E+03  0.36987905957E+03  0.17529212424E+03 0.  0.
        -24    2    3    3    0    0 -0.82751676764E+02 -0.10425876084E+03 -0.13368879024E+03  0.20508696440E+03  0.80437808983E+02 0.  0.
          6    2    1    2  502    0  0.16675078365E+03  0.69408170376E+02 -0.27680336328E+03  0.37351564472E+03  0.17398424345E+03 0.  0.
         24    2    5    5    0    0  0.24791448529E+02  0.57326105539E+02 -0.15276276970E+03  0.18455377562E+03  0.82599842577E+02 0.  0.
          4    1    6    6  501    0  0.85152237802E+01  0.50862754869E+02 -0.28222180732E+02  0.58787926942E+02  0.00000000000E+00 0. -1.
         -3    1    6    6    0  501  0.16276224749E+02  0.64633506700E+01 -0.12454058897E+03  0.12576584868E+03  0.00000000000E+00 0.  1.
          5    1    5    5  502    0  0.14195933512E+03  0.12082064837E+02 -0.12404059358E+03  0.18896186910E+03  0.47000000000E+01 0. -1.
         13    1    4    4    0    0  0.62338988973E+01 -0.31039384873E+02 -0.45111469617E+01  0.31978983031E+02  0.00000000000E+00 0. -1.
        -14    1    4    4    0    0 -0.88985575661E+02 -0.73219375967E+02 -0.12917764327E+03  0.17310798137E+03  0.00000000000E+00 0.  1.
         -5    1    3    3    0  504 -0.83999106884E+02  0.34850590465E+02 -0.13734602658E+03  0.16479209517E+03  0.47000000000E+01 0.  1.
<mgrwt>
<rscale>  2 0.25146796E+03</rscale>
<asrwt>0</asrwt>
<pdfrwt beam="1">  1       21 0.15042809E-01 0.25169554E+03</pdfrwt>
<pdfrwt beam="2">  1       21 0.99325608E-01 0.25169554E+03</pdfrwt>
<totfact> 0.31583858E+04</totfact>
</mgrwt>
</event>
<event>
12    1  0.2743855E-001  0.1919083E+03  0.7546771E-02  0.1157327E+00
         21   -1    0    0  502  503  0.00000000000E+00  0.00000000000E+00  0.19298750831E+03  0.19298750831E+03  0.00000000000E+00 0.  1.
         21   -1    0    0  503  504 -0.00000000000E+00 -0.00000000000E+00 -0.18900091951E+03  0.18900091951E+03  0.00000000000E+00 0.  1.
         -6    2    1    2    0  504  0.79629818172E+02 -0.19794740970E+02 -0.97202520712E+01  0.18959124612E+03  0.17063885136E+03 0.  0.
        -24    2    3    3    0    0  0.52215574084E+02 -0.75537785656E+02 -0.26306639521E+02  0.12512399817E+03  0.80818020246E+02 0.  0.
          6    2    1    2  502    0 -0.79629818172E+02  0.19794740970E+02  0.13706840879E+02  0.19239718170E+03  0.17348215564E+03 0.  0.
         24    2    5    5    0    0 -0.56678641392E+01  0.17710073464E+02 -0.46447340910E+02  0.96922933498E+02  0.83011614695E+02 0.  0.
          2    1    6    6  501    0 -0.40850197053E+01  0.18793622430E+02 -0.70356059898E+02  0.72937389550E+02  0.00000000000E+00 0. -1.
         -1    1    6    6    0  501 -0.15828444339E+01 -0.10835489659E+01  0.23908718988E+02  0.23985543948E+02  0.00000000000E+00 0.  1.
          5    1    5    5  502    0 -0.73961954033E+02  0.20846675064E+01  0.60154181789E+02  0.95474248202E+02  0.47000000000E+01 0. -1.
         11    1    4    4    0    0  0.68516260347E+02 -0.76067002008E+02 -0.11363079925E+02  0.10300381698E+03  0.00000000000E+00 0. -1.
        -12    1    4    4    0    0 -0.16300686264E+02  0.52921635211E+00 -0.14943559596E+02  0.22120181193E+02  0.00000000000E+00 0.  1.
         -5    1    3    3    0  504  0.27414244089E+02  0.55743044686E+02  0.16586387450E+02  0.64467247951E+02  0.47000000000E+01 0.  1.
<mgrwt>
<rscale>  2 0.19126346E+03</rscale>
<asrwt>0</asrwt>
<pdfrwt beam="1">  1       21 0.29690386E-01 0.19190831E+03</pdfrwt>
<pdfrwt beam="2">  1       21 0.29077064E-01 0.19190831E+03</pdfrwt>
<totfact> 0.12317365E+05</totfact>
</mgrwt>
</event>
<event>
12    1  0.2743855E-001  0.2028203E+03  0.7546771E-02  0.1147423E+00
         21   -1    0    0  502  503  0.00000000000E+00  0.00000000000E+00  0.50038241430E+02  0.50038241430E+02  0.00000000000E+00 0.  1.
         21   -1    0    0  503  504 -0.00000000000E+00 -0.00000000000E+00 -0.19231372112E+04  0.19231372112E+04  0.00000000000E+00 0. -1.
         -6    2    1    2    0  504  0.46813347892E+02  0.95601130204E+02 -0.16831339837E+04  0.16952855934E+04  0.17240119097E+03 0.  0.
        -24    2    3    3    0    0 -0.33320765747E+01  0.48872846661E+02 -0.14285805697E+04  0.14316236382E+04  0.79398610850E+02 0.  0.
          6    2    1    2  502    0 -0.46813347892E+02 -0.95601130204E+02 -0.18996498612E+03  0.27788985923E+03  0.17264128206E+03 0.  0.
         24    2    5    5    0    0  0.14472324091E+02 -0.11253970331E+03 -0.12329237461E+03  0.18563924419E+03  0.79914243782E+02 0.  0.
          4    1    6    6  501    0 -0.12665002987E+02 -0.61430811322E+02 -0.10943651657E+03  0.12613682269E+03  0.00000000000E+00 0. -1.
         -3    1    6    6    0  501  0.27137327078E+02 -0.51108891991E+02 -0.13855858038E+02  0.59502421493E+02  0.00000000000E+00 0.  1.
          5    1    5    5  502    0 -0.61285671984E+02  0.16938573110E+02 -0.66672611512E+02  0.92250615041E+02  0.47000000000E+01 0. -1.
         11    1    4    4    0    0 -0.22457821290E+02 -0.14227562235E+02 -0.49892110828E+03  0.49962891184E+03  0.00000000000E+00 0. -1.
        -12    1    4    4    0    0  0.19125744716E+02  0.63100408896E+02 -0.92965946141E+03  0.93199472633E+03  0.00000000000E+00 0.  1.
         -5    1    3    3    0  504  0.50145424467E+02  0.46728283542E+02 -0.25455341399E+03  0.26366195526E+03  0.47000000000E+01 0.  1.
<mgrwt>
<rscale>  2 0.20276921E+03</rscale>
<asrwt>0</asrwt>
<pdfrwt beam="1">  1       21 0.76981898E-02 0.20282031E+03</pdfrwt>
<pdfrwt beam="2">  1       21 0.29586731E+00 0.20282031E+03</pdfrwt>
<totfact> 0.45730911E+03</totfact>
</mgrwt>
</event>
<event>
12    1  0.2743855E-001  0.1830755E+03  0.7546771E-02  0.1164903E+00
         21   -1    0    0  502  503  0.00000000000E+00  0.00000000000E+00  0.24454810531E+03  0.24454810531E+03  0.00000000000E+00 0. -1.
         21   -1    0    0  503  504 -0.00000000000E+00 -0.00000000000E+00 -0.40746503176E+03  0.40746503176E+03  0.00000000000E+00 0. -1.
         -6    2    1    2    0  504 -0.41384012160E+02  0.41653891788E+02 -0.34711831855E+03  0.39243825358E+03  0.17340407330E+03 0.  0.
        -24    2    3    3    0    0  0.37176571474E+02 -0.95749622939E+01 -0.20497401859E+03  0.22207613103E+03  0.76352356244E+02 0.  0.
          6    2    1    2  502    0  0.41384012160E+02 -0.41653891788E+02  0.18420139210E+03  0.25957488349E+03  0.17320878767E+03 0.  0.
         24    2    5    5    0    0  0.39891653118E+02 -0.31020407210E+02  0.17279097804E+02  0.92241562058E+02  0.75208569312E+02 0.  0.
          2    1    6    6  501    0 -0.16496958526E+02  0.39190308451E+00 -0.12940086087E+02  0.20970194481E+02  0.00000000000E+00 0. -1.
         -1    1    6    6    0  501  0.56388611645E+02 -0.31412310294E+02  0.30219183890E+02  0.71271367577E+02  0.00000000000E+00 0.  1.
          5    1    5    5  502    0  0.14923590420E+01 -0.10633484579E+02  0.16692229430E+03  0.16733332144E+03  0.47000000000E+01 0. -1.
         13    1    4    4    0    0  0.17377427562E+02  0.24472506018E+02 -0.15776623451E+03  0.16059596288E+03  0.00000000000E+00 0. -1.
        -14    1    4    4    0    0  0.19799143912E+02 -0.34047468312E+02 -0.47207784080E+02  0.61480168151E+02  0.00000000000E+00 0.  1.
         -5    1    3    3    0  504 -0.78560583634E+02  0.51228854082E+02 -0.14214429995E+03  0.17036212255E+03  0.47000000000E+01 0.  1.
<mgrwt>
<rscale>  2 0.18302929E+03</rscale>
<asrwt>0</asrwt>
<pdfrwt beam="1">  1       21 0.37622786E-01 0.18307555E+03</pdfrwt>
<pdfrwt beam="2">  1       21 0.62686927E-01 0.18307555E+03</pdfrwt>
<totfact> 0.16160828E+04</totfact>
</mgrwt>
</event>
<event>
12    1  0.2743855E-001  0.2010894E+03  0.7546771E-02  0.1149733E+00
         21   -1    0    0  502  503  0.00000000000E+00  0.00000000000E+00  0.20843061345E+03  0.20843061345E+03  0.00000000000E+00 0.  1.
         21   -1    0    0  503  504 -0.00000000000E+00 -0.00000000000E+00 -0.96296981369E+03  0.96296981369E+03  0.00000000000E+00 0.  1.
         -6    2    1    2    0  504 -0.82308562763E+02  0.46097790544E+02 -0.90285319389E+03  0.92497612508E+03  0.17758726434E+03 0.  0.
        -24    2    3    3    0    0 -0.31044117225E+02 -0.46630697685E+02 -0.45551812428E+03  0.46523992854E+03  0.76244805603E+02 0.  0.
          6    2    1    2  502    0  0.82308562763E+02 -0.46097790544E+02  0.14831399365E+03  0.24642430206E+03  0.17270839625E+03 0.  0.
         24    2    5    5    0    0 -0.19242053916E+02  0.84280113967E+01  0.56638526695E+02  0.99074133867E+02  0.78526895267E+02 0.  0.
          2    1    6    6  501    0 -0.22671808548E+02  0.21141444099E+01 -0.14876473177E+02  0.27199080198E+02  0.00000000000E+00 0. -1.
         -1    1    6    6    0  501  0.34297546324E+01  0.63138669868E+01  0.71514999873E+02  0.71875053669E+02  0.00000000000E+00 0.  1.
          5    1    5    5  502    0  0.10155061668E+03 -0.54525801941E+02  0.91675466953E+02  0.14735016819E+03  0.47000000000E+01 0. -1.
         13    1    4    4    0    0 -0.27331706274E+02 -0.50165842121E+02 -0.16379407746E+03  0.17347084393E+03  0.00000000000E+00 0. -1.
        -14    1    4    4    0    0 -0.37124109507E+01  0.35351444361E+01 -0.29172404682E+03  0.29176908461E+03  0.00000000000E+00 0.  1.
         -5    1    3    3    0  504 -0.51264445539E+02  0.92728488229E+02 -0.44733506961E+03  0.45973619654E+03  0.47000000000E+01 0.  1.
<mgrwt>
<rscale>  2 0.20000684E+03</rscale>
<asrwt>0</asrwt>
<pdfrwt beam="1">  1       21 0.32066248E-01 0.20108939E+03</pdfrwt>
<pdfrwt beam="2">  1       21 0.14814920E+00 0.20108939E+03</pdfrwt>
<totfact> 0.28667176E+03</totfact>
</mgrwt>
</event>
<event>
12    1  0.2743855E-001  0.2235756E+03  0.7546771E-02  0.1131318E+00
         21   -1    0    0  502  503  0.00000000000E+00  0.00000000000E+00  0.33447399669E+03  0.33447399669E+03  0.00000000000E+00 0.  1.
         21   -1    0    0  503  504 -0.00000000000E+00 -0.00000000000E+00 -0.34804785425E+03  0.34804785425E+03  0.00000000000E+00 0. -1.
         -6    2    1    2    0  504 -0.14146172225E+03  0.20911369851E+01 -0.26474830171E+03  0.34652233001E+03  0.17311923701E+03 0.  0.
        -24    2    3    3    0    0 -0.12773584630E+03  0.51777957631E+02 -0.24101001495E+03  0.28957695202E+03  0.82289613593E+02 0.  0.
          6    2    1    2  502    0  0.14146172225E+03 -0.20911369851E+01  0.25117444414E+03  0.33599952093E+03  0.17260152074E+03 0.  0.
         24    2    5    5    0    0  0.35587806059E+02  0.48194106967E+02  0.14505611551E+03  0.17781898622E+03  0.83601144305E+02 0.  0.
          2    1    6    6  501    0 -0.15041926590E+02  0.48917988920E+02  0.60310230061E+02  0.79098375745E+02  0.00000000000E+00 0. -1.
         -1    1    6    6    0  501  0.50629732649E+02 -0.72388195243E+00  0.84745885447E+02  0.98720610480E+02  0.00000000000E+00 0.  1.
          5    1    5    5  502    0  0.10587391619E+03 -0.50285243952E+02  0.10611832863E+03  0.15818053471E+03  0.47000000000E+01 0. -1.
         13    1    4    4    0    0 -0.73069232332E+01  0.35538459941E+01 -0.90551389647E+02  0.90915208384E+02  0.00000000000E+00 0. -1.
        -14    1    4    4    0    0 -0.12042892307E+03  0.48224111637E+02 -0.15045862531E+03  0.19866174364E+03  0.00000000000E+00 0.  1.
         -5    1    3    3    0  504 -0.13725875946E+02 -0.49686820646E+02 -0.23738286754E+02  0.56945377990E+02  0.47000000000E+01 0.  1.
<mgrwt>
<rscale>  2 0.22347540E+03</rscale>
<asrwt>0</asrwt>
<pdfrwt beam="1">  1       21 0.51457538E-01 0.22357563E+03</pdfrwt>
<pdfrwt beam="2">  1       21 0.53545824E-01 0.22357563E+03</pdfrwt>
<totfact> 0.11610997E+04</totfact>
</mgrwt>
</event>
<event>
12    1  0.2743855E-001  0.2335426E+03  0.7546771E-02  0.1124910E+00
         21   -1    0    0  502  503  0.00000000000E+00  0.00000000000E+00  0.10995134040E+04  0.10995134040E+04  0.00000000000E+00 0. -1.
         21   -1    0    0  503  504 -0.00000000000E+00 -0.00000000000E+00 -0.63839198546E+02  0.63839198546E+02  0.00000000000E+00 0. -1.
         -6    2    1    2    0  504  0.45842010092E+01  0.15059114543E+03  0.23103822566E+03  0.32550940521E+03  0.17285544014E+03 0.  0.
        -24    2    3    3    0    0 -0.36289036539E+02  0.20178695876E+02  0.61339374174E+02  0.10756946225E+03  0.78003823264E+02 0.  0.
          6    2    1    2  502    0 -0.45842010092E+01 -0.15059114543E+03  0.80463597982E+03  0.83784319736E+03  0.17844734617E+03 0.  0.
         24    2    5    5    0    0  0.27570066226E+02 -0.56412405087E+01  0.33253675690E+03  0.34292488276E+03  0.78897708355E+02 0.  0.
          4    1    6    6  501    0  0.35192814218E+02 -0.11540961522E+02  0.62025110661E+02  0.72241555340E+02  0.00000000000E+00 0. -1.
         -3    1    6    6    0  501 -0.76227479917E+01  0.58997210137E+01  0.27051164624E+03  0.27068332742E+03  0.00000000000E+00 0.  1.
          5    1    5    5  502    0 -0.32154267235E+02 -0.14494990492E+03  0.47209922293E+03  0.49491831460E+03  0.47000000000E+01 0. -1.
         11    1    4    4    0    0 -0.71899936749E+01  0.42149570273E+02  0.88599627486E+01  0.43666706117E+02  0.00000000000E+00 0. -1.
        -12    1    4    4    0    0 -0.29099042864E+02 -0.21970874397E+02  0.52479411425E+02  0.63902756129E+02  0.00000000000E+00 0.  1.
         -5    1    3    3    0  504  0.40873237548E+02  0.13041244955E+03  0.16969885148E+03  0.21793994296E+03  0.47000000000E+01 0.  1.
<mgrwt>
<rscale>  2 0.23247424E+03</rscale>
<asrwt>0</asrwt>
<pdfrwt beam="1">  1       21 0.16915589E+00 0.23354264E+03</pdfrwt>
<pdfrwt beam="2">  1       21 0.98214160E-02 0.23354264E+03</pdfrwt>
<totfact> 0.17626456E+04</totfact>
</mgrwt>
</event>
<event>
12    1  0.2743855E-001  0.1962532E+03  0.7546771E-02  0.1153169E+00
         21   -1    0    0  502  503  0.00000000000E+00  0.00000000000E+00  0.12643758026E+03  0.12643758026E+03  0.00000000000E+00 0. -1.
         21   -1    0    0  503  504 -0.00000000000E+00 -0.00000000000E+00 -0.18057780568E+04  0.18057780568E+04  0.00000000000E+00 0.  1.
         -6    2    1    2    0  504 -0.47322108934E+02 -0.77555775479E+02 -0.17213910646E+04  0.17325422173E+04  0.17395705535E+03 0.  0.
        -24    2    3    3    0    0  0.32738752015E+01 -0.55682330915E+01 -0.35560874455E+03  0.36392043037E+03  0.77063460621E+02 0.  0.
          6    2    1    2  502    0  0.47322108934E+02  0.77555775479E+02  0.42050588030E+02  0.19967341980E+03  0.17276267628E+03 0.  0.
         24    2    5    5    0    0 -0.35171562854E+02  0.88362073750E+00  0.19633100145E+02  0.84745359860E+02  0.74555333661E+02 0.  0.
          2    1    6    6  501    0  0.62278217369E+01 -0.57449545952E+01 -0.23265839024E+02  0.24760644830E+02  0.00000000000E+00 0. -1.
         -1    1    6    6    0  501 -0.41399384591E+02  0.66285753327E+01  0.42898939169E+02  0.59984715030E+02  0.00000000000E+00 0.  1.
          5    1    5    5  502    0  0.82493671788E+02  0.76672154741E+02  0.22417487885E+02  0.11492805994E+03  0.47000000000E+01 0. -1.
         11    1    4    4    0    0  0.50115598873E+01 -0.40863995638E+02 -0.16463667529E+03  0.16970626601E+03  0.00000000000E+00 0. -1.
        -12    1    4    4    0    0 -0.17376846858E+01  0.35295762547E+02 -0.19097206926E+03  0.19421416436E+03  0.00000000000E+00 0.  1.
         -5    1    3    3    0  504 -0.50595984136E+02 -0.71987542387E+02 -0.13657823200E+04  0.13686217869E+04  0.47000000000E+01 0.  1.
<mgrwt>
<rscale>  2 0.19598824E+03</rscale>
<asrwt>0</asrwt>
<pdfrwt beam="1">  1       21 0.19451936E-01 0.19625325E+03</pdfrwt>
<pdfrwt beam="2">  1       21 0.27781200E+00 0.19625325E+03</pdfrwt>
<totfact> 0.11086565E+03</totfact>
</mgrwt>
</event>
<event>
12    1  0.2743855E-001  0.1824779E+03  0.7546771E-02  0.1165485E+00
         21   -1    0    0  502  503  0.00000000000E+00  0.00000000000E+00  0.38881265358E+03  0.38881265358E+03  0.00000000000E+00 0.  1.
         21   -1    0    0  503  504 -0.00000000000E+00 -0.00000000000E+00 -0.12403027436E+03  0.12403027436E+03  0.00000000000E+00 0.  1.
         -6    2    1    2    0  504 -0.56876209506E+02  0.91917139750E+01  0.27532856278E+03  0.33030895070E+03  0.17314385526E+03 0.  0.
        -24    2    3    3    0    0 -0.35792250242E+02  0.27821934730E+02  0.28538072312E+03  0.30006404384E+03  0.80877240574E+02 0.  0.
          6    2    1    2  502    0  0.56876209506E+02 -0.91917139750E+01 -0.10546183558E+02  0.18253397724E+03  0.17288157810E+03 0.  0.
         24    2    5    5    0    0  0.69686532738E+02  0.51074885885E+02  0.11461468528E+02  0.11693981447E+03  0.77966006272E+02 0.  0.
          2    1    6    6  501    0  0.33273096931E+02  0.58669957203E+02  0.31774282373E+02  0.74557815673E+02  0.00000000000E+00 0. -1.
         -1    1    6    6    0  501  0.36413435807E+02 -0.75950713181E+01 -0.20312813845E+02  0.42381998796E+02  0.00000000000E+00 0.  1.
          5    1    5    5  502    0 -0.12810323232E+02 -0.60266599860E+02 -0.22007652086E+02  0.65594162776E+02  0.47000000000E+01 0. -1.
         13    1    4    4    0    0 -0.11693211399E+02 -0.16453293653E+02  0.19922431604E+03  0.20024427624E+03  0.00000000000E+00 0. -1.
        -14    1    4    4    0    0 -0.24099038843E+02  0.44275228383E+02  0.86156407086E+02  0.99819767599E+02  0.00000000000E+00 0.  1.
         -5    1    3    3    0  504 -0.21083959264E+02 -0.18630220755E+02 -0.10052160340E+02  0.30244906863E+02  0.47000000000E+01 0.  1.
<mgrwt>
<rscale>  2 0.18241566E+03</rscale>
<asrwt>0</asrwt>
<pdfrwt beam="1">  1       21 0.59817331E-01 0.18247790E+03</pdfrwt>
<pdfrwt beam="2">  1       21 0.19081581E-01 0.18247790E+03</pdfrwt>
<totfact> 0.66010620E+04</totfact>
</mgrwt>
</event>
<event>
12    1  0.2743855E-001  0.2630816E+03  0.7546771E-02  0.1105346E+00
         21   -1    0    0  502  503  0.00000000000E+00  0.00000000000E+00  0.42219181957E+03  0.42219181957E+03  0.00000000000E+00 0. -1.
         21   -1    0    0  503  504 -0.00000000000E+00 -0.00000000000E+00 -0.22195744017E+03  0.22195744017E+03  0.00000000000E+00 0. -1.
         -6    2    1    2    0  504 -0.55634710932E+02 -0.19077539285E+03 -0.64758237728E+02  0.27093463962E+03  0.17239918218E+03 0.  0.
        -24    2    3    3    0    0 -0.86299464771E+02 -0.19116586465E+03 -0.77507331567E+02  0.23739199527E+03  0.79721938921E+02 0.  0.
          6    2    1    2  502    0  0.55634710932E+02  0.19077539285E+03  0.26499261712E+03  0.37321462012E+03  0.17198137681E+03 0.  0.
         24    2    5    5    0    0 -0.67393591791E+01  0.13505461576E+03  0.23508453698E+03  0.28426568601E+03  0.85188452959E+02 0.  0.
          4    1    6    6  501    0 -0.39992455455E+02  0.55553832504E+02  0.14064550631E+03  0.15641861540E+03  0.00000000000E+00 0. -1.
         -3    1    6    6    0  501  0.33253096276E+02  0.79500783252E+02  0.94439030674E+02  0.12784707061E+03  0.00000000000E+00 0.  1.
          5    1    5    5  502    0  0.62374070111E+02  0.55720777090E+02  0.29908080140E+02  0.88948934110E+02  0.47000000000E+01 0. -1.
         13    1    4    4    0    0  0.11076818473E+02 -0.52427741039E+02 -0.79374786540E+01  0.54169802523E+02  0.00000000000E+00 0. -1.
        -14    1    4    4    0    0 -0.97376283244E+02 -0.13873812361E+03 -0.69569852913E+02  0.18322219275E+03  0.00000000000E+00 0.  1.
         -5    1    3    3    0  504  0.30664753839E+02  0.39047180138E+00  0.12749093839E+02  0.33542644349E+02  0.47000000000E+01 0.  1.
<mgrwt>
<rscale>  2 0.26301321E+03</rscale>
<asrwt>0</asrwt>
<pdfrwt beam="1">  1       21 0.64952587E-01 0.26308164E+03</pdfrwt>
<pdfrwt beam="2">  1       21 0.34147299E-01 0.26308164E+03</pdfrwt>
<totfact> 0.17356848E+04</totfact>
</mgrwt>
</event>
<event>
12    1  0.2743855E-001  0.1888754E+03  0.7546771E-02  0.1159684E+00
         21   -1    0    0  502  503  0.00000000000E+00  0.00000000000E+00  0.11575293377E+03  0.11575293377E+03  0.00000000000E+00 0.  1.
         21   -1    0    0  503  504 -0.00000000000E+00 -0.00000000000E+00 -0.30676842356E+03  0.30676842356E+03  0.00000000000E+00 0.  1.
         -6    2    1    2    0  504  0.40894185117E+02  0.60702516508E+02 -0.97651742467E+02  0.21183029870E+03  0.17314468734E+03 0.  0.
        -24    2    3    3    0    0 -0.29973056376E+02 -0.10290988345E+02 -0.56781442746E+02  0.10341113505E+03  0.80407972625E+02 0.  0.
          6    2    1    2  502    0 -0.40894185117E+02 -0.60702516508E+02 -0.93363747320E+02  0.21069105863E+03  0.17411721049E+03 0.  0.
         24    2    5    5    0    0  0.27195803818E+01 -0.10106118782E+03 -0.59231522197E+02  0.14200276500E+03  0.80222517070E+02 0.  0.
          2    1    6    6  501    0  0.27158711832E+01  0.12206931405E+02  0.28656311870E+01  0.12829535171E+02  0.00000000000E+00 0. -1.
         -1    1    6    6    0  501  0.37091985968E-02 -0.11326811922E+03 -0.62097153384E+02  0.12917322983E+03  0.00000000000E+00 0.  1.
          5    1    5    5  502    0 -0.43613765499E+02  0.40358671307E+02 -0.34132225123E+02  0.68688293636E+02  0.47000000000E+01 0. -1.
         11    1    4    4    0    0 -0.55844254879E+02  0.15278842098E+01 -0.26385367773E+02  0.61782706849E+02  0.00000000000E+00 0. -1.
        -12    1    4    4    0    0  0.25871198503E+02 -0.11818872555E+02 -0.30396074973E+02  0.41628428197E+02  0.00000000000E+00 0.  1.
         -5    1    3    3    0  504  0.70867241493E+02  0.70993504853E+02 -0.40870299721E+02  0.10841916365E+03  0.47000000000E+01 0.  1.
<mgrwt>
<rscale>  2 0.18865100E+03</rscale>
<asrwt>0</asrwt>
<pdfrwt beam="1">  1       21 0.17808144E-01 0.18887544E+03</pdfrwt>
<pdfrwt beam="2">  1       21 0.47195141E-01 0.18887544E+03</pdfrwt>
<totfact> 0.12318103E+05</totfact>
</mgrwt>
</event>
<event>
12    1  0.2743855E-001  0.2073325E+03  0.7546771E-02  0.1144168E+00
         21   -1    0    0  502  503  0.00000000000E+00  0.00000000000E+00  0.13110707321E+03  0.13110707321E+03  0.00000000000E+00 0.  1.
         21   -1    0    0  503  504 -0.00000000000E+00 -0.00000000000E+00 -0.39686129902E+03  0.39686129902E+03  0.00000000000E+00 0. -1.
         -6    2    1    2    0  504 -0.11083147895E+03 -0.67083717209E+01 -0.24522011741E+03  0.31962152543E+03  0.17232641863E+03 0.  0.
        -24    2    3    3    0    0 -0.13480125720E+03 -0.29692694719E+02 -0.21287140541E+03  0.27302368705E+03  0.10086953647E+03 0.  0.
          6    2    1    2  502    0  0.11083147895E+03  0.67083717209E+01 -0.20534108395E+02  0.20834684680E+03  0.17509466008E+03 0.  0.
         24    2    5    5    0    0  0.45745366240E+02 -0.46211926267E+02  0.33309581394E+02  0.10855710316E+03  0.80292812702E+02 0.  0.
          2    1    6    6  501    0  0.54057114101E+00 -0.55506425116E+02  0.84854788473E+01  0.56153884973E+02  0.00000000000E+00 0. -1.
         -1    1    6    6    0  501  0.45204795099E+02  0.92944988490E+01  0.24824102547E+02  0.52403218184E+02  0.00000000000E+00 0.  1.
          5    1    5    5  502    0  0.65086112707E+02  0.52920297988E+02 -0.53843689789E+02  0.99789743644E+02  0.47000000000E+01 0. -1.
         11    1    4    4    0    0 -0.45021014610E+01  0.17445092729E+02 -0.76559695989E+02  0.78651047214E+02  0.00000000000E+00 0. -1.
        -12    1    4    4    0    0 -0.13029915574E+03 -0.47137787447E+02 -0.13631170942E+03  0.19437263983E+03  0.00000000000E+00 0.  1.
         -5    1    3    3    0  504  0.23969778254E+02  0.22984322998E+02 -0.32348712003E+02  0.46597838377E+02  0.47000000000E+01 0.  1.
<mgrwt>
<rscale>  2 0.20674690E+03</rscale>
<asrwt>0</asrwt>
<pdfrwt beam="1">  1       21 0.20170319E-01 0.20733248E+03</pdfrwt>
<pdfrwt beam="2">  1       21 0.61055584E-01 0.20733248E+03</pdfrwt>
<totfact> 0.56311641E+04</totfact>
</mgrwt>
</event>
<event>
12    1  0.2743855E-001  0.1863890E+03  0.7546771E-02  0.1161785E+00
         21   -1    0    0  502  503  0.00000000000E+00  0.00000000000E+00  0.91995229983E+02  0.91995229983E+02  0.00000000000E+00 0.  1.
         21   -1    0    0  503  504 -0.00000000000E+00 -0.00000000000E+00 -0.95048310045E+03  0.95048310045E+03  0.00000000000E+00 0.  1.
         -6    2    1    2    0  504  0.69459401960E+02  0.20212064908E+01 -0.83402931361E+03  0.85460269852E+03  0.17295138783E+03 0.  0.
        -24    2    3    3    0    0  0.23343544688E+01  0.57195461823E+02 -0.43595395959E+03  0.44712748709E+03  0.81181061592E+02 0.  0.
          6    2    1    2  502    0 -0.69459401960E+02 -0.20212064908E+01 -0.24458556861E+02  0.18787563192E+03  0.17283037427E+03 0.  0.
         24    2    5    5    0    0 -0.22451274299E+02  0.52845606146E+02 -0.50804862481E+02  0.11082792582E+03  0.80031101978E+02 0.  0.
          4    1    6    6  501    0  0.19687772988E+02  0.20411172237E+02  0.99821253091E+01  0.30064383962E+02  0.00000000000E+00 0. -1.
         -3    1    6    6    0  501 -0.42139047288E+02  0.32434433909E+02 -0.60786987790E+02  0.80763541861E+02  0.00000000000E+00 0.  1.
          5    1    5    5  502    0 -0.47008127661E+02 -0.54866812637E+02  0.26346305620E+02  0.77047706098E+02  0.47000000000E+01 0. -1.
         11    1    4    4    0    0 -0.26517535011E+02  0.88098524978E+01 -0.27851465193E+03  0.27991285162E+03  0.00000000000E+00 0. -1.
        -12    1    4    4    0    0  0.28851889480E+02  0.48385609325E+02 -0.15743930766E+03  0.16721463546E+03  0.00000000000E+00 0.  1.
         -5    1    3    3    0  504  0.67125047491E+02 -0.55174255332E+02 -0.39807535402E+03  0.40747521143E+03  0.47000000000E+01 0.  1.
<mgrwt>
<rscale>  2 0.18636097E+03</rscale>
<asrwt>0</asrwt>
<pdfrwt beam="1">  1       21 0.14153113E-01 0.18638905E+03</pdfrwt>
<pdfrwt beam="2">  1       21 0.14622816E+00 0.18638905E+03</pdfrwt>
<totfact> 0.13993496E+04</totfact>
</mgrwt>
</event>
<event>
12    1  0.2743855E-001  0.3092428E+03  0.7546771E-02  0.1080720E+00
         21   -1    0    0  502  503  0.00000000000E+00  0.00000000000E+00  0.81371174749E+03  0.81371174749E+03  0.00000000000E+00 0.  1.
         21   -1    0    0  503  504 -0.00000000000E+00 -0.00000000000E+00 -0.16569868946E+03  0.16569868946E+03  0.00000000000E+00 0. -1.
         -6    2    1    2    0  504  0.51317259932E+02  0.25078086135E+03  0.59837851233E+02  0.31489468449E+03  0.17335971935E+03 0.  0.
        -24    2    3    3    0    0  0.15307551859E+01  0.23338456881E+03  0.18831198910E+02  0.24792482124E+03  0.81494802080E+02 0.  0.
          6    2    1    2  502    0 -0.51317259932E+02 -0.25078086135E+03  0.58817520679E+03  0.66451575246E+03  0.17351256379E+03 0.  0.
         24    2    5    5    0    0 -0.42377417784E+02 -0.21737350454E+03  0.33486011726E+03  0.40880772198E+03  0.77106221568E+02 0.  0.
          4    1    6    6  501    0 -0.30980639238E+02 -0.17911647672E+03  0.21012060552E+03  0.27783660865E+03  0.00000000000E+00 0. -1.
         -3    1    6    6    0  501 -0.11396778546E+02 -0.38257027825E+02  0.12473951174E+03  0.13097111334E+03  0.00000000000E+00 0.  1.
          5    1    5    5  502    0 -0.89398421475E+01 -0.33407356809E+02  0.25331508953E+03  0.25570803048E+03  0.47000000000E+01 0. -1.
         13    1    4    4    0    0  0.18436494846E+02  0.12903631028E+03 -0.26319206810E+02  0.13297734529E+03  0.00000000000E+00 0. -1.
        -14    1    4    4    0    0 -0.16905739660E+02  0.10434825853E+03  0.45150405720E+02  0.11494747596E+03  0.00000000000E+00 0.  1.
         -5    1    3    3    0  504  0.49786504746E+02  0.17396292541E+02  0.41006652323E+02  0.66969863250E+02  0.47000000000E+01 0.  1.
<mgrwt>
<rscale>  2 0.30922137E+03</rscale>
<asrwt>0</asrwt>
<pdfrwt beam="1">  1       21 0.12518642E+00 0.30924280E+03</pdfrwt>
<pdfrwt beam="2">  1       21 0.25492107E-01 0.30924280E+03</pdfrwt>
<totfact> 0.64485494E+03</totfact>
</mgrwt>
</event>
<event>
12    1  0.2743855E-001  0.2908553E+03  0.7546771E-02  0.1089952E+00
         21   -1    0    0  502  503  0.00000000000E+00  0.00000000000E+00  0.49857992303E+03  0.49857992303E+03  0.00000000000E+00 0.  1.
         21   -1    0    0  503  504 -0.00000000000E+00 -0.00000000000E+00 -0.28517600600E+03  0.28517600600E+03  0.00000000000E+00 0. -1.
         -6    2    1    2    0  504 -0.88478273280E+02 -0.21587662184E+03 -0.14288472863E+03  0.32405687231E+03  0.17368272832E+03 0.  0.
        -24    2    3    3    0    0  0.86401633877E+01 -0.14395250246E+03 -0.11407539416E+03  0.19973013568E+03  0.77986897340E+02 0.  0.
          6    2    1    2  502    0  0.88478273280E+02  0.21587662184E+03  0.35628864566E+03  0.45969905671E+03  0.17306213627E+03 0.  0.
         24    2    5    5    0    0  0.50371339481E+02  0.19459627370E+03  0.35449405802E+03  0.41576385254E+03  0.82392732281E+02 0.  0.
          2    1    6    6  501    0  0.11005151198E+02  0.14672737627E+03  0.29594418934E+03  0.33050415958E+03  0.00000000000E+00 0. -1.
         -1    1    6    6    0  501  0.39366188283E+02  0.47868897424E+02  0.58549868680E+02  0.85259692956E+02  0.00000000000E+00 0.  1.
          5    1    5    5  502    0  0.38106933799E+02  0.21280348145E+02  0.17945876485E+01  0.43935204171E+02  0.47000000000E+01 0. -1.
         11    1    4    4    0    0  0.34946350230E+02 -0.66083798589E+02 -0.25719525003E+02  0.79055738543E+02  0.00000000000E+00 0. -1.
        -12    1    4    4    0    0 -0.26306186842E+02 -0.77868703874E+02 -0.88355869162E+02  0.12067439714E+03  0.00000000000E+00 0.  1.
         -5    1    3    3    0  504 -0.97118436667E+02 -0.71924119381E+02 -0.28809334469E+02  0.12432673663E+03  0.47000000000E+01 0.  1.
<mgrwt>
<rscale>  2 0.29076273E+03</rscale>
<asrwt>0</asrwt>
<pdfrwt beam="1">  1       21 0.76704604E-01 0.29085531E+03</pdfrwt>
<pdfrwt beam="2">  1       21 0.43873232E-01 0.29085531E+03</pdfrwt>
<totfact> 0.71079893E+03</totfact>
</mgrwt>
</event>
<event>
12    1  0.2743855E-001  0.2092991E+03  0.7546771E-02  0.1142294E+00
         21   -1    0    0  502  503  0.00000000000E+00  0.00000000000E+00  0.32831362861E+03  0.32831362861E+03  0.00000000000E+00 0.  1.
         21   -1    0    0  503  504 -0.00000000000E+00 -0.00000000000E+00 -0.13375425538E+03  0.13375425538E+03  0.00000000000E+00 0. -1.
         -6    2    1    2    0  504 -0.11417101440E+03  0.25129556153E+02  0.78398182495E+02  0.22269469155E+03  0.17256921946E+03 0.  0.
        -24    2    3    3    0    0 -0.65334739571E+02  0.80083134561E+02  0.34890120159E+02  0.13713816633E+03  0.83112090245E+02 0.  0.
          6    2    1    2  502    0  0.11417101440E+03 -0.25129556153E+02  0.11616119073E+03  0.23937319243E+03  0.17360756868E+03 0.  0.
         24    2    5    5    0    0  0.20703164195E+02 -0.29984670895E+02  0.11586280204E+03  0.14566091898E+03  0.80406547767E+02 0.  0.
          2    1    6    6  501    0 -0.93932077377E+01 -0.26308278831E+02  0.21975081063E+01  0.28021187136E+02  0.00000000000E+00 0. -1.
         -1    1    6    6    0  501  0.30096371932E+02 -0.36763920643E+01  0.11366529393E+03  0.11763973184E+03  0.00000000000E+00 0.  1.
          5    1    5    5  502    0  0.93467850204E+02  0.48551147416E+01  0.29838868832E+00  0.93712273459E+02  0.47000000000E+01 0. -1.
         13    1    4    4    0    0 -0.85523367113E+02  0.65251803941E+02  0.28065799603E+02  0.11117433763E+03  0.00000000000E+00 0. -1.
        -14    1    4    4    0    0  0.20188627542E+02  0.14831330621E+02  0.68243205568E+01  0.25963828706E+02  0.00000000000E+00 0.  1.
         -5    1    3    3    0  504 -0.48836274829E+02 -0.54953578408E+02  0.43508062336E+02  0.85556525217E+02  0.47000000000E+01 0.  1.
<mgrwt>
<rscale>  2 0.20908362E+03</rscale>
<asrwt>0</asrwt>
<pdfrwt beam="1">  1       21 0.50509789E-01 0.20929908E+03</pdfrwt>
<pdfrwt beam="2">  1       21 0.20577578E-01 0.20929908E+03</pdfrwt>
<totfact> 0.81069631E+04</totfact>
</mgrwt>
</event>
<event>
12    1  0.2743855E-001  0.2042763E+03  0.7546771E-02  0.1146325E+00
         21   -1    0    0  502  503  0.00000000000E+00  0.00000000000E+00  0.10927557498E+03  0.10927557498E+03  0.00000000000E+00 0. -1.
         21   -1    0    0  503  504 -0.00000000000E+00 -0.00000000000E+00 -0.66329502980E+03  0.66329502980E+03  0.00000000000E+00 0.  1.
         -6    2    1    2    0  504 -0.10752168849E+03 -0.14669296021E+02 -0.52948793282E+03  0.56752645932E+03  0.17306851036E+03 0.  0.
        -24    2    3    3    0    0  0.11782130241E+02 -0.40699649208E+01 -0.13852604489E+03  0.15860221841E+03  0.76222144842E+02 0.  0.
          6    2    1    2  502    0  0.10752168849E+03  0.14669296021E+02 -0.24531522000E+02  0.20504414547E+03  0.17223589718E+03 0.  0.
         24    2    5    5    0    0  0.11299364939E+03  0.47452221103E+02 -0.58181792915E+02  0.15751422578E+03  0.80039566500E+02 0.  0.
          2    1    6    6  501    0  0.86317949141E+02 -0.18449567873E+01 -0.17088148266E+02  0.88012482187E+02  0.00000000000E+00 0. -1.
         -1    1    6    6    0  501  0.26675700250E+02  0.49297177891E+02 -0.41093644649E+02  0.69501743592E+02  0.00000000000E+00 0.  1.
          5    1    5    5  502    0 -0.54719608991E+01 -0.32782925083E+02  0.33650270915E+02  0.47529919690E+02  0.47000000000E+01 0. -1.
         11    1    4    4    0    0  0.54109806658E+01  0.85054687799E+01  0.70779126612E+01  0.12317408760E+02  0.00000000000E+00 0. -1.
        -12    1    4    4    0    0  0.63711495756E+01 -0.12575433701E+02 -0.14560395755E+03  0.14628480965E+03  0.00000000000E+00 0.  1.
         -5    1    3    3    0  504 -0.11930381873E+03 -0.10599331100E+02 -0.39096188793E+03  0.40892424090E+03  0.47000000000E+01 0.  1.
<mgrwt>
<rscale>  2 0.20409985E+03</rscale>
<asrwt>0</asrwt>
<pdfrwt beam="1">  1       21 0.16811627E-01 0.20427631E+03</pdfrwt>
<pdfrwt beam="2">  1       21 0.10204539E+00 0.20427631E+03</pdfrwt>
<totfact> 0.24738302E+04</totfact>
</mgrwt>
</event>
<event>
12    1  0.2743855E-001  0.2037403E+03  0.7546771E-02  0.1147890E+00
         21   -1    0    0  502  503  0.00000000000E+00  0.00000000000E+00  0.17800169431E+03  0.17800169431E+03  0.00000000000E+00 0. -1.
         21   -1    0    0  503  504 -0.00000000000E+00 -0.00000000000E+00 -0.26442719342E+03  0.26442719342E+03  0.00000000000E+00 0.  1.
         -6    2    1    2    0  504 -0.31802188336E+02 -0.89233703085E+02 -0.12775028742E+03  0.24047919273E+03  0.18037758523E+03 0.  0.
        -24    2    3    3    0    0 -0.66674902583E+02 -0.11187480358E+03 -0.12572289162E+03  0.19858735625E+03  0.81665037037E+02 0.  0.
          6    2    1    2  502    0  0.31802188336E+02  0.89233703085E+02  0.41324788306E+02  0.20194969499E+03  0.17349901507E+03 0.  0.
         24    2    5    5    0    0  0.16064738760E+02  0.33282310055E+02  0.91570113453E+02  0.12497626841E+03  0.76604138226E+02 0.  0.
          4    1    6    6  501    0 -0.30193670762E+02  0.22167734297E+02  0.38982516644E+02  0.54062027356E+02  0.00000000000E+00 0. -1.
         -3    1    6    6    0  501  0.46258409522E+02  0.11114575758E+02  0.52587596809E+02  0.70914241052E+02  0.00000000000E+00 0.  1.
          5    1    5    5  502    0  0.15737449576E+02  0.55951393030E+02 -0.50245325147E+02  0.76973426585E+02  0.47000000000E+01 0. -1.
         11    1    4    4    0    0 -0.40147882913E+02 -0.22707795488E+02 -0.53181074961E+01  0.46430364479E+02  0.00000000000E+00 0. -1.
        -12    1    4    4    0    0 -0.26527019670E+02 -0.89167008090E+02 -0.12040478412E+03  0.15215699177E+03  0.00000000000E+00 0.  1.
         -5    1    3    3    0  504  0.34872714247E+02  0.22641100492E+02 -0.20273957987E+01  0.41891836486E+02  0.47000000000E+01 0.  1.
<mgrwt>
<rscale>  2 0.20220709E+03</rscale>
<asrwt>0</asrwt>
<pdfrwt beam="1">  1       21 0.27384876E-01 0.20374029E+03</pdfrwt>
<pdfrwt beam="2">  1       21 0.40681107E-01 0.20374029E+03</pdfrwt>
<totfact> 0.73672380E+04</totfact>
</mgrwt>
</event>
<event>
12    1  0.2743855E-001  0.2909743E+03  0.7546771E-02  0.1090406E+00
         21   -1    0    0  502  503  0.00000000000E+00  0.00000000000E+00  0.37503193251E+03  0.37503193251E+03  0.00000000000E+00 0. -1.
         21   -1    0    0  503  504 -0.00000000000E+00 -0.00000000000E+00 -0.27920251990E+03  0.27920251990E+03  0.00000000000E+00 0.  1.
         -6    2    1    2    0  504 -0.22832797216E+03 -0.51514271853E+01 -0.99307638137E+02  0.30745410339E+03  0.18029370102E+03 0.  0.
        -24    2    3    3    0    0 -0.10299803192E+03  0.35650644826E+02  0.98157716887E+01  0.13627463157E+03  0.81208760490E+02 0.  0.
          6    2    1    2  502    0  0.22832797216E+03  0.51514271853E+01  0.19513705075E+03  0.34678034902E+03  0.17325686659E+03 0.  0.
         24    2    5    5    0    0  0.24894178223E+03  0.61949793847E+00  0.19311340452E+03  0.32506278257E+03  0.80003942943E+02 0.  0.
          4    1    6    6  501    0  0.23576449816E+03 -0.10469702393E+02  0.19699191604E+03  0.30740905687E+03  0.00000000000E+00 0. -1.
         -3    1    6    6    0  501  0.13177284067E+02  0.11089200332E+02 -0.38785115148E+01  0.17653725696E+02  0.00000000000E+00 0.  1.
          5    1    5    5  502    0 -0.20613810076E+02  0.45319292468E+01  0.20236462309E+01  0.21717566452E+02  0.47000000000E+01 0. -1.
         13    1    4    4    0    0 -0.54561465545E+01 -0.21515956402E+02  0.66467173674E+01  0.23170773981E+02  0.00000000000E+00 0. -1.
        -14    1    4    4    0    0 -0.97541885363E+02  0.57166601228E+02  0.31690543213E+01  0.11310385759E+03  0.00000000000E+00 0.  1.
         -5    1    3    3    0  504 -0.12532994024E+03 -0.40802072011E+02 -0.10912340983E+03  0.17117947182E+03  0.47000000000E+01 0.  1.
<mgrwt>
<rscale>  2 0.28989149E+03</rscale>
<asrwt>0</asrwt>
<pdfrwt beam="1">  1       21 0.57697220E-01 0.29097426E+03</pdfrwt>
<pdfrwt beam="2">  1       21 0.42954234E-01 0.29097426E+03</pdfrwt>
<totfact> 0.13928602E+04</totfact>
</mgrwt>
</event>
<event>
12    1  0.2743855E-001  0.2256934E+03  0.7546771E-02  0.1129860E+00
         21   -1    0    0  502  503  0.00000000000E+00  0.00000000000E+00  0.63274992718E+02  0.63274992718E+02  0.00000000000E+00 0. -1.
         21   -1    0    0  503  504 -0.00000000000E+00 -0.00000000000E+00 -0.10274632128E+04  0.10274632128E+04  0.00000000000E+00 0.  1.
         -6    2    1    2    0  504 -0.31023125415E+02  0.14110354140E+03 -0.73825892340E+03  0.77198687380E+03  0.17339219026E+03 0.  0.
        -24    2    3    3    0    0 -0.15964412609E+02  0.14111836350E+03 -0.38502726202E+03  0.41840313316E+03  0.81522600241E+02 0.  0.
          6    2    1    2  502    0  0.31023125415E+02 -0.14110354140E+03 -0.22592929666E+03  0.31875133169E+03  0.17229544585E+03 0.  0.
         24    2    5    5    0    0  0.18090516661E+02 -0.55004841873E+02 -0.20926522454E+03  0.22998185648E+03  0.75808447331E+02 0.  0.
          4    1    6    6  501    0  0.98278749224E+01  0.11200824150E+02 -0.10597229319E+03  0.10701482379E+03  0.00000000000E+00 0. -1.
         -3    1    6    6    0  501  0.82626417384E+01 -0.66205666022E+02 -0.10329293135E+03  0.12296703269E+03  0.00000000000E+00 0.  1.
          5    1    5    5  502    0  0.12932608754E+02 -0.86098699526E+02 -0.16664072121E+02  0.88769475209E+02  0.47000000000E+01 0. -1.
         11    1    4    4    0    0 -0.48954057236E+02  0.74014270253E+02 -0.22017778708E+03  0.23738759413E+03  0.00000000000E+00 0. -1.
        -12    1    4    4    0    0  0.32989644627E+02  0.67104093244E+02 -0.16484947494E+03  0.18101553903E+03  0.00000000000E+00 0.  1.
         -5    1    3    3    0  504 -0.15058712806E+02 -0.14822098344E-01 -0.35323166137E+03  0.35358374064E+03  0.47000000000E+01 0.  1.
<mgrwt>
<rscale>  2 0.22548270E+03</rscale>
<asrwt>0</asrwt>
<pdfrwt beam="1">  1       21 0.97346141E-02 0.22569337E+03</pdfrwt>
<pdfrwt beam="2">  1       21 0.15807127E+00 0.22569337E+03</pdfrwt>
<totfact> 0.21658793E+04</totfact>
</mgrwt>
</event>
<event>
12    1  0.2743855E-001  0.2067565E+03  0.7546771E-02  0.1144512E+00
         21   -1    0    0  502  503  0.00000000000E+00  0.00000000000E+00  0.59772556236E+03  0.59772556236E+03  0.00000000000E+00 0.  1.
         21   -1    0    0  503  504 -0.00000000000E+00 -0.00000000000E+00 -0.16476251930E+03  0.16476251930E+03  0.00000000000E+00 0.  1.
         -6    2    1    2    0  504 -0.88305873655E+02 -0.63687041931E+02 -0.70846653639E+02  0.21855775358E+03  0.17576767816E+03 0.  0.
        -24    2    3    3    0    0 -0.10526539802E+03 -0.47262425312E+02 -0.10623421732E+03  0.17575865124E+03  0.79314902061E+02 0.  0.
          6    2    1    2  502    0  0.88305873655E+02  0.63687041931E+02  0.50380969671E+03  0.54393032808E+03  0.17372974609E+03 0.  0.
         24    2    5    5    0    0  0.28669882759E+02  0.25006703858E+02  0.44062612601E+03  0.44871019592E+03  0.75777038596E+02 0.  0.
          2    1    6    6  501    0  0.33175620718E+01 -0.19807864151E+02  0.26317184457E+03  0.26393707105E+03  0.00000000000E+00 0. -1.
         -1    1    6    6    0  501  0.25352320687E+02  0.44814568010E+02  0.17745428145E+03  0.18477312487E+03  0.00000000000E+00 0.  1.
          5    1    5    5  502    0  0.59635990896E+02  0.38680338073E+02  0.63183570692E+02  0.95220132162E+02  0.47000000000E+01 0. -1.
         11    1    4    4    0    0 -0.88731922730E+00  0.93865148466E+01 -0.37233709874E+02  0.38408894118E+02  0.00000000000E+00 0. -1.
        -12    1    4    4    0    0 -0.10437807879E+03 -0.56648940158E+02 -0.69000507450E+02  0.13734975712E+03  0.00000000000E+00 0.  1.
         -5    1    3    3    0  504  0.16959524363E+02 -0.16424616620E+02  0.35387563685E+02  0.42799102341E+02  0.47000000000E+01 0.  1.
<mgrwt>
<rscale>  2 0.20632270E+03</rscale>
<asrwt>0</asrwt>
<pdfrwt beam="1">  1       21 0.91957778E-01 0.20675648E+03</pdfrwt>
<pdfrwt beam="2">  1       21 0.25348080E-01 0.20675648E+03</pdfrwt>
<totfact> 0.14608844E+04</totfact>
</mgrwt>
</event>
<event>
12    1  0.2743855E-001  0.2184465E+03  0.7546771E-02  0.1136997E+00
         21   -1    0    0  502  503  0.00000000000E+00  0.00000000000E+00  0.26085470156E+03  0.26085470156E+03  0.00000000000E+00 0. -1.
         21   -1    0    0  503  504 -0.00000000000E+00 -0.00000000000E+00 -0.17885835933E+03  0.17885835933E+03  0.00000000000E+00 0. -1.
         -6    2    1    2    0  504  0.55745367979E+02 -0.98773638386E+02  0.74103458643E+02  0.22112398368E+03  0.17475902233E+03 0.  0.
        -24    2    3    3    0    0  0.65131649766E+02  0.36242114169E+01  0.19194267642E+02  0.10445980243E+03  0.79297942623E+02 0.  0.
          6    2    1    2  502    0 -0.55745367979E+02  0.98773638386E+02  0.78928835855E+01  0.21858907722E+03  0.18669523126E+03 0.  0.
         24    2    5    5    0    0  0.42747624803E+01  0.92462354459E+02  0.61983925854E+02  0.13740915840E+03  0.80446933826E+02 0.  0.
          4    1    6    6  501    0  0.91152431040E+01  0.10630040025E+03  0.60559957664E+02  0.12267995444E+03  0.00000000000E+00 0. -1.
         -3    1    6    6    0  501 -0.48404806238E+01 -0.13838045788E+02  0.14239681895E+01  0.14729203960E+02  0.00000000000E+00 0.  1.
          5    1    5    5  502    0 -0.60020130459E+02  0.63112839264E+01 -0.54091042268E+02  0.81179918815E+02  0.47000000000E+01 0. -1.
         11    1    4    4    0    0  0.51718872506E+02 -0.33387837965E+02  0.22501282022E+01  0.61600751409E+02  0.00000000000E+00 0. -1.
        -12    1    4    4    0    0  0.13412777260E+02  0.37012049381E+02  0.16944139440E+02  0.42859051023E+02  0.00000000000E+00 0.  1.
         -5    1    3    3    0  504 -0.93862817867E+01 -0.10239784980E+03  0.54909191001E+02  0.11666418125E+03  0.47000000000E+01 0.  1.
<mgrwt>
<rscale>  2 0.21587418E+03</rscale>
<asrwt>0</asrwt>
<pdfrwt beam="1">  1       21 0.40131493E-01 0.21844653E+03</pdfrwt>
<pdfrwt beam="2">  1       21 0.27516670E-01 0.21844653E+03</pdfrwt>
<totfact> 0.74569861E+04</totfact>
</mgrwt>
</event>
<event>
12    1  0.2743855E-001  0.2406468E+03  0.7546771E-02  0.1120078E+00
         21   -1    0    0  502  503  0.00000000000E+00  0.00000000000E+00  0.51116870070E+02  0.51116870070E+02  0.00000000000E+00 0.  1.
         21   -1    0    0  503  504 -0.00000000000E+00 -0.00000000000E+00 -0.12972846965E+04  0.12972846965E+04  0.00000000000E+00 0.  1.
         -6    2    1    2    0  504  0.52314975191E+02 -0.15574429375E+03 -0.87246760788E+03  0.90392127663E+03  0.16994353729E+03 0.  0.
        -24    2    3    3    0    0  0.13788395913E+02 -0.10564266784E+03 -0.30475056068E+03  0.33267771569E+03  0.80318523078E+02 0.  0.
          6    2    1    2  502    0 -0.52314975191E+02  0.15574429375E+03 -0.37370021859E+03  0.44448028998E+03  0.17583439125E+03 0.  0.
         24    2    5    5    0    0 -0.24205766259E+02  0.17577604998E+03 -0.24772306518E+03  0.31377553848E+03  0.74868101764E+02 0.  0.
          2    1    6    6  501    0 -0.46989528722E+02  0.10390765080E+03 -0.12061912852E+03  0.16599334284E+03  0.00000000000E+00 0. -1.
         -1    1    6    6    0  501  0.22783762463E+02  0.71868399176E+02 -0.12710393666E+03  0.14778219564E+03  0.00000000000E+00 0.  1.
          5    1    5    5  502    0 -0.28109208932E+02 -0.20031756226E+02 -0.12597715341E+03  0.13070475150E+03  0.47000000000E+01 0. -1.
         13    1    4    4    0    0  0.15126513943E+02  0.76459245005E+01 -0.20001096073E+02  0.26216701350E+02  0.00000000000E+00 0. -1.
        -14    1    4    4    0    0 -0.13381180303E+01 -0.11328859234E+03 -0.28474946461E+03  0.30646101434E+03  0.00000000000E+00 0.  1.
         -5    1    3    3    0  504  0.38526579278E+02 -0.50101625911E+02 -0.56771704720E+03  0.57124356094E+03  0.47000000000E+01 0.  1.
<mgrwt>
<rscale>  2 0.23957209E+03</rscale>
<asrwt>0</asrwt>
<pdfrwt beam="1">  1       21 0.78641349E-02 0.24064678E+03</pdfrwt>
<pdfrwt beam="2">  1       21 0.19958223E+00 0.24064678E+03</pdfrwt>
<totfact> 0.16133335E+04</totfact>
</mgrwt>
</event>
<event>
12    1  0.2743855E-001  0.3008277E+03  0.7546771E-02  0.1085264E+00
         21   -1    0    0  502  503  0.00000000000E+00  0.00000000000E+00  0.13857395707E+03  0.13857395707E+03  0.00000000000E+00 0. -1.
         21   -1    0    0  503  504 -0.00000000000E+00 -0.00000000000E+00 -0.11581076794E+04  0.11581076794E+04  0.00000000000E+00 0. -1.
         -6    2    1    2    0  504  0.24165146448E+03 -0.58224799328E+01 -0.94274420415E+03  0.98957765965E+03  0.17907534297E+03 0.  0.
        -24    2    3    3    0    0  0.21710389785E+03 -0.58694859800E+02 -0.80980560758E+03  0.84434394442E+03  0.80946805913E+02 0.  0.
          6    2    1    2  502    0 -0.24165146448E+03  0.58224799328E+01 -0.76789518158E+02  0.30710397681E+03  0.17316723396E+03 0.  0.
         24    2    5    5    0    0 -0.16017895024E+03  0.68785824604E+02 -0.65501513750E+02  0.20341375359E+03  0.81840827698E+02 0.  0.
          4    1    6    6  501    0 -0.10867770103E+03  0.71124297449E+02 -0.14154980817E+02  0.13065171974E+03  0.00000000000E+00 0. -1.
         -3    1    6    6    0  501 -0.51501249212E+02 -0.23384728458E+01 -0.51346532933E+02  0.72762033849E+02  0.00000000000E+00 0.  1.
          5    1    5    5  502    0 -0.81472514236E+02 -0.62963344671E+02 -0.11288004407E+02  0.10369022322E+03  0.47000000000E+01 0. -1.
         11    1    4    4    0    0  0.14773080999E+03 -0.44120208630E+01 -0.43869245826E+03  0.46292000506E+03  0.00000000000E+00 0. -1.
        -12    1    4    4    0    0  0.69373087854E+02 -0.54282838937E+02 -0.37111314932E+03  0.38142393937E+03  0.00000000000E+00 0.  1.
         -5    1    3    3    0  504  0.24547566627E+02  0.52872379867E+02 -0.13293859657E+03  0.14523371522E+03  0.47000000000E+01 0.  1.
<mgrwt>
<rscale>  2 0.29995415E+03</rscale>
<asrwt>0</asrwt>
<pdfrwt beam="1">  1       21 0.21319069E-01 0.30082771E+03</pdfrwt>
<pdfrwt beam="2">  1       21 0.17817042E+00 0.30082771E+03</pdfrwt>
<totfact> 0.35371907E+03</totfact>
</mgrwt>
</event>
<event>
12    1  0.2743855E-001  0.1987220E+03  0.7546771E-02  0.1151696E+00
         21   -1    0    0  502  503  0.00000000000E+00  0.00000000000E+00  0.12811887794E+03  0.12811887794E+03  0.00000000000E+00 0.  1.
         21   -1    0    0  503  504 -0.00000000000E+00 -0.00000000000E+00 -0.32192628912E+03  0.32192628912E+03  0.00000000000E+00 0.  1.
         -6    2    1    2    0  504  0.57532035630E+02  0.79187588677E+02 -0.15199808794E+03  0.24697262990E+03  0.16826007208E+03 0.  0.
        -24    2    3    3    0    0  0.99976887954E+02  0.38859485064E+02 -0.92169479271E+02  0.16313067235E+03  0.81307844943E+02 0.  0.
          6    2    1    2  502    0 -0.57532035630E+02 -0.79187588677E+02 -0.41809323243E+02  0.20307253716E+03  0.17294457643E+03 0.  0.
         24    2    5    5    0    0  0.19061799012E+02 -0.15792389588E+02 -0.56279691705E+02  0.10248899807E+03  0.81999019974E+02 0.  0.
          4    1    6    6  501    0  0.29058927596E+01  0.25361754838E+02 -0.52177369883E+02  0.58087354468E+02  0.00000000000E+00 0. -1.
         -3    1    6    6    0  501  0.16155906252E+02 -0.41154144426E+02 -0.41023218218E+01  0.44401643602E+02  0.00000000000E+00 0.  1.
          5    1    5    5  502    0 -0.76593834641E+02 -0.63395199089E+02  0.14470368462E+02  0.10058353909E+03  0.47000000000E+01 0. -1.
         11    1    4    4    0    0  0.30261613248E+02 -0.16050749003E+02 -0.59325262183E+02  0.68504587532E+02  0.00000000000E+00 0. -1.
        -12    1    4    4    0    0  0.69715274706E+02  0.54910234067E+02 -0.32844217089E+02  0.94626084822E+02  0.00000000000E+00 0.  1.
         -5    1    3    3    0  504 -0.42444852324E+02  0.40328103613E+02 -0.59828608667E+02  0.83841957544E+02  0.47000000000E+01 0.  1.
<mgrwt>
<rscale>  2 0.19769833E+03</rscale>
<asrwt>0</asrwt>
<pdfrwt beam="1">  1       21 0.19710597E-01 0.19872201E+03</pdfrwt>
<pdfrwt beam="2">  1       21 0.49527121E-01 0.19872201E+03</pdfrwt>
<totfact> 0.91958393E+04</totfact>
</mgrwt>
</event>
<event>
12    1  0.2743855E-001  0.1839866E+03  0.7546771E-02  0.1165013E+00
         21   -1    0    0  502  503  0.00000000000E+00  0.00000000000E+00  0.76913620825E+02  0.76913620825E+02  0.00000000000E+00 0.  1.
         21   -1    0    0  503  504 -0.00000000000E+00 -0.00000000000E+00 -0.94306053539E+03  0.94306053539E+03  0.00000000000E+00 0.  1.
         -6    2    1    2    0  504 -0.98848772219E+01  0.54453551988E+02 -0.81153474337E+03  0.83212961340E+03  0.17546553417E+03 0.  0.
        -24    2    3    3    0    0  0.46828129720E+02 -0.13964966903E+02 -0.39106895354E+03  0.40234940294E+03  0.81007540347E+02 0.  0.
          6    2    1    2  502    0  0.98848772219E+01 -0.54453551988E+02 -0.54612171197E+02  0.18784454282E+03  0.17099761080E+03 0.  0.
         24    2    5    5    0    0 -0.58791725523E+01 -0.10055559344E+03 -0.53312891822E+02  0.13887841556E+03  0.79365974030E+02 0.  0.
          2    1    6    6  501    0 -0.25427117246E+02 -0.72120305440E+02 -0.13272292335E+01  0.76482928066E+02  0.00000000000E+00 0. -1.
         -1    1    6    6    0  501  0.19547944694E+02 -0.28435287998E+02 -0.51985662589E+02  0.62395487498E+02  0.00000000000E+00 0.  1.
          5    1    5    5  502    0  0.15764049774E+02  0.46102041449E+02 -0.12992793744E+01  0.48966127251E+02  0.47000000000E+01 0. -1.
         13    1    4    4    0    0  0.28542403410E+01 -0.94286771873E-01  0.38244909472E+01  0.47730817010E+01  0.00000000000E+00 0. -1.
        -14    1    4    4    0    0  0.43973889379E+02 -0.13870680131E+02 -0.39489344449E+03  0.39757632124E+03  0.00000000000E+00 0.  1.
         -5    1    3    3    0  504 -0.56713006942E+02  0.68418518891E+02 -0.42046578983E+03  0.42978021046E+03  0.47000000000E+01 0.  1.
<mgrwt>
<rscale>  2 0.18291321E+03</rscale>
<asrwt>0</asrwt>
<pdfrwt beam="1">  1       21 0.11832864E-01 0.18398656E+03</pdfrwt>
<pdfrwt beam="2">  1       21 0.14508624E+00 0.18398656E+03</pdfrwt>
<totfact> 0.19739724E+04</totfact>
</mgrwt>
</event>
<event>
12    1  0.2743855E-001  0.1911891E+03  0.7546771E-02  0.1157500E+00
         21   -1    0    0  502  503  0.00000000000E+00  0.00000000000E+00  0.51794835067E+03  0.51794835067E+03  0.00000000000E+00 0.  1.
         21   -1    0    0  503  504 -0.00000000000E+00 -0.00000000000E+00 -0.11352811097E+03  0.11352811097E+03  0.00000000000E+00 0.  1.
         -6    2    1    2    0  504  0.54715427843E+02  0.59648919676E+02  0.77550637890E+01  0.19134634846E+03  0.17320944660E+03 0.  0.
        -24    2    3    3    0    0  0.18968369337E+02  0.17499156431E+02  0.68317400617E+02  0.10922240935E+03  0.81217288588E+02 0.  0.
          6    2    1    2  502    0 -0.54715427843E+02 -0.59648919676E+02  0.39666517591E+03  0.44013011317E+03  0.17268318701E+03 0.  0.
         24    2    5    5    0    0 -0.34781802956E+02 -0.10659552118E+03  0.29922453962E+03  0.33004786940E+03  0.82606852175E+02 0.  0.
          4    1    6    6  501    0  0.86785849079E+01 -0.44033998823E+02  0.19989549295E+03  0.20487195755E+03  0.00000000000E+00 0. -1.
         -3    1    6    6    0  501 -0.43460387863E+02 -0.62561522362E+02  0.99329046672E+02  0.12517591185E+03  0.00000000000E+00 0.  1.
          5    1    5    5  502    0 -0.19933624887E+02  0.46946601508E+02  0.97440636290E+02  0.11008224378E+03  0.47000000000E+01 0. -1.
         13    1    4    4    0    0 -0.30661599125E+02  0.17901258843E+02  0.26131462852E+02  0.44084487973E+02  0.00000000000E+00 0. -1.
        -14    1    4    4    0    0  0.49629968462E+02 -0.40210241157E+00  0.42185937765E+02  0.65137921375E+02  0.00000000000E+00 0.  1.
         -5    1    3    3    0  504  0.35747058506E+02  0.42149763245E+02 -0.60562336828E+02  0.82123939113E+02  0.47000000000E+01 0.  1.
<mgrwt>
<rscale>  2 0.19106986E+03</rscale>
<asrwt>0</asrwt>
<pdfrwt beam="1">  1       21 0.79684360E-01 0.19118913E+03</pdfrwt>
<pdfrwt beam="2">  1       21 0.17465863E-01 0.19118913E+03</pdfrwt>
<totfact> 0.41220996E+04</totfact>
</mgrwt>
</event>
<event>
12    1  0.2743855E-001  0.2010395E+03  0.7546771E-02  0.1151157E+00
         21   -1    0    0  502  503  0.00000000000E+00  0.00000000000E+00  0.11048182188E+03  0.11048182188E+03  0.00000000000E+00 0. -1.
         21   -1    0    0  503  504 -0.00000000000E+00 -0.00000000000E+00 -0.38448840857E+03  0.38448840857E+03  0.00000000000E+00 0.  1.
         -6    2    1    2    0  504  0.69469723770E+02  0.76809036561E+02 -0.62837945745E+02  0.21063115084E+03  0.17231135674E+03 0.  0.
        -24    2    3    3    0    0  0.37597674825E+00  0.90061466013E+02 -0.64959144495E+01  0.12037547371E+03  0.79604326186E+02 0.  0.
          6    2    1    2  502    0 -0.69469723770E+02 -0.76809036561E+02 -0.21116864094E+03  0.28433907962E+03  0.15978374968E+03 0.  0.
         24    2    5    5    0    0  0.59481109038E+01  0.32732719332E+01 -0.92743115111E+02  0.12263650979E+03  0.79952071890E+02 0.  0.
          2    1    6    6  501    0  0.35085447941E+02 -0.13645102214E+02 -0.20366031054E+02  0.42801316481E+02  0.00000000000E+00 0. -1.
         -1    1    6    6    0  501 -0.29137337037E+02  0.16918374148E+02 -0.72377084058E+02  0.79835193305E+02  0.00000000000E+00 0.  1.
          5    1    5    5  502    0 -0.75417834674E+02 -0.80082308494E+02 -0.11842552583E+03  0.16170256983E+03  0.47000000000E+01 0. -1.
         11    1    4    4    0    0 -0.37160622045E+01  0.50998083045E+02  0.35979788111E+02  0.62523265631E+02  0.00000000000E+00 0. -1.
        -12    1    4    4    0    0  0.40920389528E+01  0.39063382968E+02 -0.42475702561E+02  0.57852208080E+02  0.00000000000E+00 0.  1.
         -5    1    3    3    0  504  0.69093747022E+02 -0.13252429452E+02 -0.56342031295E+02  0.90255677131E+02  0.47000000000E+01 0.  1.
<mgrwt>
<rscale>  2 0.19832811E+03</rscale>
<asrwt>0</asrwt>
<pdfrwt beam="1">  1       21 0.16997203E-01 0.20103948E+03</pdfrwt>
<pdfrwt beam="2">  1       21 0.59152063E-01 0.20103948E+03</pdfrwt>
<totfact> 0.83068111E+04</totfact>
</mgrwt>
</event>
<event>
12    1  0.2743855E-001  0.2144943E+03  0.7546771E-02  0.1138456E+00
         21   -1    0    0  502  503  0.00000000000E+00  0.00000000000E+00  0.22861694083E+03  0.22861694083E+03  0.00000000000E+00 0.  1.
         21   -1    0    0  503  504 -0.00000000000E+00 -0.00000000000E+00 -0.20093802564E+03  0.20093802564E+03  0.00000000000E+00 0.  1.
         -6    2    1    2    0  504  0.12602687618E+03  0.84269619436E+01 -0.54392179482E+01  0.21456328666E+03  0.17336098662E+03 0.  0.
        -24    2    3    3    0    0  0.14927826003E+03 -0.38514105147E+01 -0.37046033419E+02  0.17318133328E+03  0.79501781886E+02 0.  0.
          6    2    1    2  502    0 -0.12602687618E+03 -0.84269619436E+01  0.33118133135E+02  0.21499167981E+03  0.17079468504E+03 0.  0.
         24    2    5    5    0    0 -0.12167526065E+03  0.49882106237E+02  0.24800025973E+02  0.15574503521E+03  0.79676728894E+02 0.  0.
          2    1    6    6  501    0 -0.78184178482E+02 -0.99670530754E+01  0.21464818578E+02  0.81687491996E+02  0.00000000000E+00 0. -1.
         -1    1    6    6    0  501 -0.43491082168E+02  0.59849159312E+02  0.33352073943E+01  0.74057543214E+02  0.00000000000E+00 0.  1.
          5    1    5    5  502    0 -0.43516155263E+01 -0.58309068180E+02  0.83181071620E+01  0.59246644601E+02  0.47000000000E+01 0. -1.
         11    1    4    4    0    0  0.50997501740E+02  0.36558402689E+02 -0.10114455458E+02  0.63557566033E+02  0.00000000000E+00 0. -1.
        -12    1    4    4    0    0  0.98280758291E+02 -0.40409813203E+02 -0.26931577962E+02  0.10962376724E+03  0.00000000000E+00 0.  1.
         -5    1    3    3    0  504 -0.23251383855E+02  0.12278372458E+02  0.31606815471E+02  0.41381953381E+02  0.47000000000E+01 0.  1.
<mgrwt>
<rscale>  2 0.21397525E+03</rscale>
<asrwt>0</asrwt>
<pdfrwt beam="1">  1       21 0.35171837E-01 0.21449433E+03</pdfrwt>
<pdfrwt beam="2">  1       21 0.30913542E-01 0.21449433E+03</pdfrwt>
<totfact> 0.77597104E+04</totfact>
</mgrwt>
</event>
<event>
12    1  0.2743855E-001  0.2053570E+03  0.7546771E-02  0.1145349E+00
         21   -1    0    0  502  503  0.00000000000E+00  0.00000000000E+00  0.16810703705E+03  0.16810703705E+03  0.00000000000E+00 0. -1.
         21   -1    0    0  503  504 -0.00000000000E+00 -0.00000000000E+00 -0.29258615354E+03  0.29258615354E+03  0.00000000000E+00 0.  1.
         -6    2    1    2    0  504  0.10886710028E+03  0.16720471927E+02 -0.14958484021E+03  0.25406124872E+03  0.17332014879E+03 0.  0.
        -24    2    3    3    0    0  0.14138514175E+03 -0.77434414102E+01 -0.10670558648E+03  0.19476009800E+03  0.80595870809E+02 0.  0.
          6    2    1    2  502    0 -0.10886710028E+03 -0.16720471927E+02  0.25105723719E+02  0.20663194187E+03  0.17301688454E+03 0.  0.
         24    2    5    5    0    0 -0.62100584535E+02 -0.71705567852E+02  0.45563287100E+02  0.13145834499E+03  0.78785228793E+02 0.  0.
          2    1    6    6  501    0 -0.43543135052E+02  0.65386602253E+00  0.35294352842E+02  0.56054647385E+02  0.00000000000E+00 0. -1.
         -1    1    6    6    0  501 -0.18557449483E+02 -0.72359433874E+02  0.10268934257E+02  0.75403697606E+02  0.00000000000E+00 0.  1.
          5    1    5    5  502    0 -0.46766515745E+02  0.54985095925E+02 -0.20457563380E+02  0.75173596882E+02  0.47000000000E+01 0. -1.
         11    1    4    4    0    0 -0.16946049859E+01  0.25431452306E+01  0.96069871260E+01  0.10081342934E+02  0.00000000000E+00 0. -1.
        -12    1    4    4    0    0  0.14307974674E+03 -0.10286586641E+02 -0.11631257361E+03  0.18467875506E+03  0.00000000000E+00 0.  1.
         -5    1    3    3    0  504 -0.32518041474E+02  0.24463913337E+02 -0.42879253725E+02  0.59301150723E+02  0.47000000000E+01 0.  1.
<mgrwt>
<rscale>  2 0.20529299E+03</rscale>
<asrwt>0</asrwt>
<pdfrwt beam="1">  1       21 0.25862621E-01 0.20535699E+03</pdfrwt>
<pdfrwt beam="2">  1       21 0.45013254E-01 0.20535699E+03</pdfrwt>
<totfact> 0.66841104E+04</totfact>
</mgrwt>
</event>
<event>
12    1  0.2743855E-001  0.2372686E+03  0.7546771E-02  0.1121816E+00
         21   -1    0    0  502  503  0.00000000000E+00  0.00000000000E+00  0.21896172539E+03  0.21896172539E+03  0.00000000000E+00 0. -1.
         21   -1    0    0  503  504 -0.00000000000E+00 -0.00000000000E+00 -0.31332250680E+03  0.31332250680E+03  0.00000000000E+00 0. -1.
         -6    2    1    2    0  504 -0.15816468915E+03  0.32179147716E+02 -0.16103403200E+03  0.28582585075E+03  0.17237427608E+03 0.  0.
        -24    2    3    3    0    0 -0.14321938368E+03 -0.32069458588E+02 -0.13370234637E+03  0.21426918365E+03  0.80589848001E+02 0.  0.
          6    2    1    2  502    0  0.15816468915E+03 -0.32179147716E+02  0.66673250582E+02  0.24645838144E+03  0.17391045108E+03 0.  0.
         24    2    5    5    0    0  0.96510325764E+02 -0.82626360258E+02  0.68440591705E+02  0.16663736120E+03  0.83321888868E+02 0.  0.
          4    1    6    6  501    0  0.98399413637E+02 -0.90124547087E+02  0.77829402565E+02  0.15447425189E+03  0.00000000000E+00 0. -1.
         -3    1    6    6    0  501 -0.18890878726E+01  0.74981868290E+01 -0.93888108605E+01  0.12163109310E+02  0.00000000000E+00 0.  1.
          5    1    5    5  502    0  0.61654363386E+02  0.50447212543E+02 -0.17673411226E+01  0.79821020242E+02  0.47000000000E+01 0. -1.
         11    1    4    4    0    0 -0.47411845346E+02  0.27043539026E+02 -0.37948349648E+02  0.66477916056E+02  0.00000000000E+00 0. -1.
        -12    1    4    4    0    0 -0.95807538337E+02 -0.59112997613E+02 -0.95753996724E+02  0.14779126760E+03  0.00000000000E+00 0.  1.
         -5    1    3    3    0  504 -0.14945305467E+02  0.64248606303E+02 -0.27331685625E+02  0.71556667100E+02  0.47000000000E+01 0.  1.
<mgrwt>
<rscale>  2 0.23698723E+03</rscale>
<asrwt>0</asrwt>
<pdfrwt beam="1">  1       21 0.33686419E-01 0.23726865E+03</pdfrwt>
<pdfrwt beam="2">  1       21 0.48203463E-01 0.23726865E+03</pdfrwt>
<totfact> 0.34132898E+04</totfact>
</mgrwt>
</event>
<event>
12    1  0.2743855E-001  0.1949413E+03  0.7546771E-02  0.1154104E+00
         21   -1    0    0  502  503  0.00000000000E+00  0.00000000000E+00  0.24665835343E+03  0.24665835343E+03  0.00000000000E+00 0. -1.
         21   -1    0    0  503  504 -0.00000000000E+00 -0.00000000000E+00 -0.33033765804E+03  0.33033765804E+03  0.00000000000E+00 0. -1.
         -6    2    1    2    0  504  0.64472241460E+02  0.61467296134E+02 -0.25263221648E+03  0.31902856039E+03  0.17326652051E+03 0.  0.
        -24    2    3    3    0    0  0.33401583285E+02 -0.32735334594E+02 -0.14695146527E+03  0.17401120759E+03  0.80609548611E+02 0.  0.
          6    2    1    2  502    0 -0.64472241460E+02 -0.61467296134E+02  0.16895291187E+03  0.25796745107E+03  0.17339902240E+03 0.  0.
         24    2    5    5    0    0 -0.92774277534E+02 -0.22502267414E+02  0.59993857233E+02  0.13874730053E+03  0.80858715591E+02 0.  0.
          4    1    6    6  501    0 -0.96559271949E+02 -0.37460176171E+02  0.34906796861E+02  0.10929520696E+03  0.00000000000E+00 0. -1.
         -3    1    6    6    0  501  0.37849944158E+01  0.14957908757E+02  0.25087060372E+02  0.29452093562E+02  0.00000000000E+00 0.  1.
          5    1    5    5  502    0  0.28302036073E+02 -0.38965028720E+02  0.10895905464E+03  0.11922015055E+03  0.47000000000E+01 0. -1.
         11    1    4    4    0    0  0.42729549856E+02 -0.10299277343E+02 -0.14273630953E+03  0.14935040543E+03  0.00000000000E+00 0. -1.
        -12    1    4    4    0    0 -0.93279665709E+01 -0.22436057251E+02 -0.42151557362E+01  0.24660802160E+02  0.00000000000E+00 0.  1.
         -5    1    3    3    0  504  0.31070658176E+02  0.94202630728E+02 -0.10568075121E+03  0.14501735280E+03  0.47000000000E+01 0.  1.
<mgrwt>
<rscale>  2 0.19491185E+03</rscale>
<asrwt>0</asrwt>
<pdfrwt beam="1">  1       21 0.37947439E-01 0.19494132E+03</pdfrwt>
<pdfrwt beam="2">  1       21 0.50821178E-01 0.19494132E+03</pdfrwt>
<totfact> 0.24634327E+04</totfact>
</mgrwt>
</event>
<event>
12    1  0.2743855E-001  0.2247431E+03  0.7546771E-02  0.1130511E+00
         21   -1    0    0  502  503  0.00000000000E+00  0.00000000000E+00  0.18327087987E+03  0.18327087987E+03  0.00000000000E+00 0. -1.
         21   -1    0    0  503  504 -0.00000000000E+00 -0.00000000000E+00 -0.34211845138E+03  0.34211845138E+03  0.00000000000E+00 0.  1.
         -6    2    1    2    0  504 -0.10841217284E+03 -0.93381583076E+02 -0.19584293357E+03  0.29762160062E+03  0.17248432755E+03 0.  0.
        -24    2    3    3    0    0 -0.71359419793E+02 -0.29590108893E+02 -0.32518779661E+02  0.11834770978E+03  0.83552187538E+02 0.  0.
          6    2    1    2  502    0  0.10841217284E+03  0.93381583076E+02  0.36995362056E+02  0.22776773063E+03  0.17330944298E+03 0.  0.
         24    2    5    5    0    0  0.12979897983E+03  0.93723391328E+02  0.65411446967E+02  0.19189188600E+03  0.83138374238E+02 0.  0.
          4    1    6    6  501    0  0.87569892457E+02  0.98701967799E+02  0.69572289666E+02  0.14916724842E+03  0.00000000000E+00 0. -1.
         -3    1    6    6    0  501  0.42229087377E+02 -0.49785764708E+01 -0.41608426990E+01  0.42724637580E+02  0.00000000000E+00 0.  1.
          5    1    5    5  502    0 -0.21386806990E+02 -0.34180825183E+00 -0.28416084912E+02  0.35875844629E+02  0.47000000000E+01 0. -1.
         11    1    4    4    0    0  0.39358087333E+01 -0.10673451644E+02  0.21117271649E+02  0.23986502919E+02  0.00000000000E+00 0. -1.
        -12    1    4    4    0    0 -0.75295228526E+02 -0.18916657249E+02 -0.53636051310E+02  0.94361206861E+02  0.00000000000E+00 0.  1.
         -5    1    3    3    0  504 -0.37052753052E+02 -0.63791474184E+02 -0.16332415391E+03  0.17927389084E+03  0.47000000000E+01 0.  1.
<mgrwt>
<rscale>  2 0.22458406E+03</rscale>
<asrwt>0</asrwt>
<pdfrwt beam="1">  1       21 0.28195520E-01 0.22474315E+03</pdfrwt>
<pdfrwt beam="2">  1       21 0.52633607E-01 0.22474315E+03</pdfrwt>
<totfact> 0.40489570E+04</totfact>
</mgrwt>
</event>
<event>
12    1  0.2743855E-001  0.1961752E+03  0.7546771E-02  0.1153011E+00
         21   -1    0    0  502  503  0.00000000000E+00  0.00000000000E+00  0.44727941758E+02  0.44727941758E+02  0.00000000000E+00 0.  1.
         21   -1    0    0  503  504 -0.00000000000E+00 -0.00000000000E+00 -0.92674830718E+03  0.92674830718E+03  0.00000000000E+00 0.  1.
         -6    2    1    2    0  504 -0.90785007156E+02 -0.20728058738E+02 -0.31094629612E+03  0.36764653722E+03  0.17264068847E+03 0.  0.
        -24    2    3    3    0    0 -0.55270856943E+02 -0.80029149829E+02 -0.20502379526E+03  0.24107821394E+03  0.81390516416E+02 0.  0.
          6    2    1    2  502    0  0.90785007156E+02  0.20728058738E+02 -0.57107406930E+03  0.60382971172E+03  0.17266487246E+03 0.  0.
         24    2    5    5    0    0  0.54798259063E+02 -0.27980184155E+01 -0.54523930289E+03  0.55345067342E+03  0.77531105924E+02 0.  0.
          2    1    6    6  501    0  0.50114974303E+02 -0.35802285821E+02 -0.36290832551E+03  0.36809749665E+03  0.00000000000E+00 0. -1.
         -1    1    6    6    0  501  0.46832847599E+01  0.33004267406E+02 -0.18233097739E+03  0.18535317677E+03  0.00000000000E+00 0.  1.
          5    1    5    5  502    0  0.35986748093E+02  0.23526077154E+02 -0.25834766409E+02  0.50379038299E+02  0.47000000000E+01 0. -1.
         13    1    4    4    0    0 -0.16914275093E+02 -0.37631139848E+01 -0.11766357293E+03  0.11893262851E+03  0.00000000000E+00 0. -1.
        -14    1    4    4    0    0 -0.38356581850E+02 -0.76266035845E+02 -0.87360222332E+02  0.12214558543E+03  0.00000000000E+00 0.  1.
         -5    1    3    3    0  504 -0.35514150213E+02  0.59301091091E+02 -0.10592250086E+03  0.12656832328E+03  0.47000000000E+01 0.  1.
<mgrwt>
<rscale>  2 0.19616993E+03</rscale>
<asrwt>0</asrwt>
<pdfrwt beam="1">  1       21 0.68812225E-02 0.19617525E+03</pdfrwt>
<pdfrwt beam="2">  1       21 0.14257665E+00 0.19617525E+03</pdfrwt>
<totfact> 0.53075074E+04</totfact>
</mgrwt>
</event>
<event>
12    1  0.2743855E-001  0.1975557E+03  0.7546771E-02  0.1152941E+00
         21   -1    0    0  502  503  0.00000000000E+00  0.00000000000E+00  0.12009841876E+04  0.12009841876E+04  0.00000000000E+00 0. -1.
         21   -1    0    0  503  504 -0.00000000000E+00 -0.00000000000E+00 -0.37979258592E+02  0.37979258592E+02  0.00000000000E+00 0. -1.
         -6    2    1    2    0  504  0.15675304688E+02 -0.83531553791E+02  0.32226467693E+03  0.37532439455E+03  0.17259966248E+03 0.  0.
        -24    2    3    3    0    0  0.54143150558E+02 -0.90675366320E+02  0.29989523001E+03  0.33001113624E+03  0.88412093330E+02 0.  0.
          6    2    1    2  502    0 -0.15675304688E+02  0.83531553791E+02  0.84074025209E+03  0.86363905165E+03  0.17833957611E+03 0.  0.
         24    2    5    5    0    0  0.57751824984E+02  0.32246677230E+02  0.36215451632E+03  0.37672214045E+03  0.79928442582E+02 0.  0.
          4    1    6    6  501    0  0.14678227562E+02  0.52483734356E+02  0.15945543639E+03  0.16851121307E+03  0.00000000000E+00 0. -1.
         -3    1    6    6    0  501  0.43073597422E+02 -0.20237057126E+02  0.20269907992E+03  0.20821092737E+03  0.00000000000E+00 0.  1.
          5    1    5    5  502    0 -0.73427129672E+02  0.51284876561E+02  0.47858573577E+03  0.48691691121E+03  0.47000000000E+01 0. -1.
         13    1    4    4    0    0  0.26507253286E+01 -0.83830437003E+02  0.21089341013E+03  0.22695946543E+03  0.00000000000E+00 0. -1.
        -14    1    4    4    0    0  0.51492425230E+02 -0.68449293163E+01  0.89001819880E+02  0.10305167080E+03  0.00000000000E+00 0.  1.
         -5    1    3    3    0  504 -0.38467845870E+02  0.71438125290E+01  0.22369446920E+02  0.45313258312E+02  0.47000000000E+01 0.  1.
<mgrwt>
<rscale>  2 0.19625137E+03</rscale>
<asrwt>0</asrwt>
<pdfrwt beam="1">  1       21 0.18476677E+00 0.19755566E+03</pdfrwt>
<pdfrwt beam="2">  1       21 0.58429638E-02 0.19755566E+03</pdfrwt>
<totfact> 0.34748288E+04</totfact>
</mgrwt>
</event>
<event>
12    1  0.2743855E-001  0.2274246E+03  0.7546771E-02  0.1128492E+00
         21   -1    0    0  502  503  0.00000000000E+00  0.00000000000E+00  0.67367373670E+02  0.67367373670E+02  0.00000000000E+00 0. -1.
         21   -1    0    0  503  504 -0.00000000000E+00 -0.00000000000E+00 -0.92326092834E+03  0.92326092834E+03  0.00000000000E+00 0. -1.
         -6    2    1    2    0  504 -0.10485040344E+03  0.10292668890E+03 -0.63166486005E+03  0.67135864898E+03  0.17359271228E+03 0.  0.
        -24    2    3    3    0    0  0.52881949664E+01  0.47444569341E+02 -0.17265049819E+03  0.19604291093E+03  0.79659752918E+02 0.  0.
          6    2    1    2  502    0  0.10485040344E+03 -0.10292668890E+03 -0.22422869462E+03  0.31926965303E+03  0.17339865473E+03 0.  0.
         24    2    5    5    0    0 -0.19482909185E+01 -0.56188263933E+02 -0.51346891217E+02  0.11070155999E+03  0.80358044434E+02 0.  0.
          4    1    6    6  501    0 -0.22326528298E+02 -0.69324437062E+02 -0.45100887326E+02  0.85664703802E+02  0.00000000000E+00 0. -1.
         -3    1    6    6    0  501  0.20378237380E+02  0.13136173129E+02 -0.62460038913E+01  0.25036856189E+02  0.00000000000E+00 0.  1.
          5    1    5    5  502    0  0.10679869435E+03 -0.46738424971E+02 -0.17288180341E+03  0.20856809304E+03  0.47000000000E+01 0. -1.
         11    1    4    4    0    0 -0.24424189101E+02  0.55990085614E+02 -0.10147144298E+03  0.11843937032E+03  0.00000000000E+00 0. -1.
        -12    1    4    4    0    0  0.29712384068E+02 -0.85455162732E+01 -0.71179055212E+02  0.77603540616E+02  0.00000000000E+00 0.  1.
         -5    1    3    3    0  504 -0.11013859840E+03  0.55482119562E+02 -0.45901436186E+03  0.47531573805E+03  0.47000000000E+01 0.  1.
<mgrwt>
<rscale>  2 0.22738755E+03</rscale>
<asrwt>0</asrwt>
<pdfrwt beam="1">  1       21 0.10364211E-01 0.22742458E+03</pdfrwt>
<pdfrwt beam="2">  1       21 0.14204015E+00 0.22742458E+03</pdfrwt>
<totfact> 0.25706376E+04</totfact>
</mgrwt>
</event>
<event>
12    1  0.2743855E-001  0.2148838E+03  0.7546771E-02  0.1137805E+00
         21   -1    0    0  502  503  0.00000000000E+00  0.00000000000E+00  0.84384324594E+02  0.84384324594E+02  0.00000000000E+00 0.  1.
         21   -1    0    0  503  504 -0.00000000000E+00 -0.00000000000E+00 -0.75940842562E+03  0.75940842562E+03  0.00000000000E+00 0.  1.
         -6    2    1    2    0  504 -0.12630273799E+03  0.20571814621E+02 -0.56101829654E+03  0.60076333505E+03  0.17262524298E+03 0.  0.
        -24    2    3    3    0    0 -0.12645176605E+03  0.36048188712E+02 -0.28112255620E+03  0.32040061316E+03  0.79606157216E+02 0.  0.
          6    2    1    2  502    0  0.12630273799E+03 -0.20571814621E+02 -0.11400580449E+03  0.24302941517E+03  0.17230900150E+03 0.  0.
         24    2    5    5    0    0  0.60308491328E+02 -0.19869446137E+02  0.83920890440E+01  0.10389254638E+03  0.81800519673E+02 0.  0.
          2    1    6    6  501    0  0.26246878323E+02 -0.48580897966E+02 -0.92331548615E+01  0.55984403342E+02  0.00000000000E+00 0. -1.
         -1    1    6    6    0  501  0.34061613005E+02  0.28711451829E+02  0.17625243905E+02  0.47908143038E+02  0.00000000000E+00 0.  1.
          5    1    5    5  502    0  0.65994246659E+02 -0.70236848432E+00 -0.12239789354E+03  0.13913686879E+03  0.47000000000E+01 0. -1.
         13    1    4    4    0    0 -0.12878088687E+03  0.20525816767E+02 -0.27339859449E+03  0.30290694519E+03  0.00000000000E+00 0. -1.
        -14    1    4    4    0    0  0.23291208251E+01  0.15522371945E+02 -0.77239617102E+01  0.17493667972E+02  0.00000000000E+00 0.  1.
         -5    1    3    3    0  504  0.14902805906E+00 -0.15476374090E+02 -0.27989574034E+03  0.28036272189E+03  0.47000000000E+01 0.  1.
<mgrwt>
<rscale>  2 0.21482030E+03</rscale>
<asrwt>0</asrwt>
<pdfrwt beam="1">  1       21 0.12982204E-01 0.21488382E+03</pdfrwt>
<pdfrwt beam="2">  1       21 0.11683206E+00 0.21488382E+03</pdfrwt>
<totfact> 0.28373343E+04</totfact>
</mgrwt>
</event>
<event>
12    1  0.2743855E-001  0.1864022E+03  0.7546771E-02  0.1163386E+00
         21   -1    0    0  502  503  0.00000000000E+00  0.00000000000E+00  0.12097177920E+03  0.12097177920E+03  0.00000000000E+00 0. -1.
         21   -1    0    0  503  504 -0.00000000000E+00 -0.00000000000E+00 -0.27777076784E+03  0.27777076784E+03  0.00000000000E+00 0. -1.
         -6    2    1    2    0  504 -0.49936584716E+02  0.43502280165E+02 -0.64071591360E+02  0.19054994850E+03  0.16678729922E+03 0.  0.
        -24    2    3    3    0    0 -0.90842630021E+02  0.46661941822E+02 -0.28216206389E+02  0.13586003502E+03  0.85041604934E+02 0.  0.
          6    2    1    2  502    0  0.49936584716E+02 -0.43502280165E+02 -0.92727397274E+02  0.20819259854E+03  0.17424028527E+03 0.  0.
         24    2    5    5    0    0  0.98476103449E+02 -0.17843985587E+02 -0.56291423158E+02  0.14213123942E+03  0.83765232202E+02 0.  0.
          2    1    6    6  501    0  0.82140648921E+02 -0.45776686998E+02 -0.56630710686E+02  0.10977080063E+03  0.00000000000E+00 0. -1.
         -1    1    6    6    0  501  0.16335454527E+02  0.27932701411E+02  0.33928752854E+00  0.32360438791E+02  0.00000000000E+00 0.  1.
          5    1    5    5  502    0 -0.48539518732E+02 -0.25658294578E+02 -0.36435974116E+02  0.66061359123E+02  0.47000000000E+01 0. -1.
         13    1    4    4    0    0 -0.30471254320E+01  0.28139085032E+02  0.19367327611E+02  0.34295574913E+02  0.00000000000E+00 0. -1.
        -14    1    4    4    0    0 -0.87795504589E+02  0.18522856791E+02 -0.47583533999E+02  0.10156446011E+03  0.00000000000E+00 0.  1.
         -5    1    3    3    0  504  0.40906045305E+02 -0.31596616569E+01 -0.35855384971E+02  0.54689913473E+02  0.47000000000E+01 0.  1.
<mgrwt>
<rscale>  2 0.18464061E+03</rscale>
<asrwt>0</asrwt>
<pdfrwt beam="1">  1       21 0.18611043E-01 0.18640222E+03</pdfrwt>
<pdfrwt beam="2">  1       21 0.42733964E-01 0.18640222E+03</pdfrwt>
<totfact> 0.13930219E+05</totfact>
</mgrwt>
</event>
<event>
12    1  0.2743855E-001  0.1751843E+03  0.7546771E-02  0.1172690E+00
         21   -1    0    0  502  503  0.00000000000E+00  0.00000000000E+00  0.72696217891E+02  0.72696217891E+02  0.00000000000E+00 0. -1.
         21   -1    0    0  503  504 -0.00000000000E+00 -0.00000000000E+00 -0.52980139278E+03  0.52980139278E+03  0.00000000000E+00 0. -1.
         -6    2    1    2    0  504 -0.17252952412E+02  0.23330147830E+02 -0.91607834112E+02  0.19718559047E+03  0.17218653157E+03 0.  0.
        -24    2    3    3    0    0  0.53189377104E+02 -0.46395069204E+01 -0.74319259960E+02  0.11930486005E+03  0.76548431525E+02 0.  0.
          6    2    1    2  502    0  0.17252952412E+02 -0.23330147830E+02 -0.36549734078E+03  0.40531202020E+03  0.17276448547E+03 0.  0.
         24    2    5    5    0    0  0.85493916528E+01  0.48429327113E+02 -0.14699106366E+03  0.17511154811E+03  0.81481222757E+02 0.  0.
          2    1    6    6  501    0 -0.49272586610E+01  0.69056534859E+02 -0.94718668202E+02  0.11732309658E+03  0.00000000000E+00 0. -1.
         -1    1    6    6    0  501  0.13476650314E+02 -0.20627207747E+02 -0.52272395459E+02  0.57788451529E+02  0.00000000000E+00 0.  1.
          5    1    5    5  502    0  0.87035607596E+01 -0.71759474943E+02 -0.21850627712E+03  0.23020047210E+03  0.47000000000E+01 0. -1.
         11    1    4    4    0    0  0.47382547371E+02 -0.33055105894E+02 -0.68699023730E+02  0.89762473687E+02  0.00000000000E+00 0. -1.
        -12    1    4    4    0    0  0.58068297334E+01  0.28415598974E+02 -0.56202362294E+01  0.29542386360E+02  0.00000000000E+00 0.  1.
         -5    1    3    3    0  504 -0.70442329516E+02  0.27969654751E+02 -0.17288574152E+02  0.77880730420E+02  0.47000000000E+01 0.  1.
<mgrwt>
<rscale>  2 0.17504161E+03</rscale>
<asrwt>0</asrwt>
<pdfrwt beam="1">  1       21 0.11184033E-01 0.17518427E+03</pdfrwt>
<pdfrwt beam="2">  1       21 0.81507909E-01 0.17518427E+03</pdfrwt>
<totfact> 0.88365464E+04</totfact>
</mgrwt>
</event>
<event>
12    1  0.2743855E-001  0.2391072E+03  0.7546771E-02  0.1120496E+00
         21   -1    0    0  502  503  0.00000000000E+00  0.00000000000E+00  0.66419494061E+03  0.66419494061E+03  0.00000000000E+00 0.  1.
         21   -1    0    0  503  504 -0.00000000000E+00 -0.00000000000E+00 -0.18776890992E+03  0.18776890992E+03  0.00000000000E+00 0. -1.
         -6    2    1    2    0  504 -0.19181856348E+02 -0.16136327179E+03 -0.75774059546E+02  0.25021873240E+03  0.17453268132E+03 0.  0.
        -24    2    3    3    0    0  0.43208399154E+02 -0.83968030432E+02 -0.84873647621E+02  0.15028145272E+03  0.80395168263E+02 0.  0.
          6    2    1    2  502    0  0.19181856348E+02  0.16136327179E+03  0.55220009024E+03  0.60174511812E+03  0.17540296015E+03 0.  0.
         24    2    5    5    0    0  0.25658299671E+02  0.18921939559E+03  0.51070854844E+03  0.55113340019E+03  0.80389522589E+02 0.  0.
          4    1    6    6  501    0  0.81593331795E+01  0.18775670456E+03  0.44364791493E+03  0.48181181726E+03  0.00000000000E+00 0. -1.
         -3    1    6    6    0  501  0.17498966492E+02  0.14626910297E+01  0.67060633506E+02  0.69321582928E+02  0.00000000000E+00 0.  1.
          5    1    5    5  502    0 -0.64764433231E+01 -0.27856123805E+02  0.41491541800E+02  0.50611717936E+02  0.47000000000E+01 0. -1.
         11    1    4    4    0    0  0.35313474913E+02 -0.10003189085E+03 -0.73923851054E+02  0.12929871017E+03  0.00000000000E+00 0. -1.
        -12    1    4    4    0    0  0.78949242411E+01  0.16063860415E+02 -0.10949796567E+02  0.20982742554E+02  0.00000000000E+00 0.  1.
         -5    1    3    3    0  504 -0.62390255502E+02 -0.77395241357E+02  0.90995880759E+01  0.99937279678E+02  0.47000000000E+01 0.  1.
<mgrwt>
<rscale>  2 0.23894761E+03</rscale>
<asrwt>0</asrwt>
<pdfrwt beam="1">  1       21 0.10218384E+00 0.23910719E+03</pdfrwt>
<pdfrwt beam="2">  1       21 0.28887525E-01 0.23910719E+03</pdfrwt>
<totfact> 0.86683151E+03</totfact>
</mgrwt>
</event>
<event>
12    1  0.2743855E-001  0.1753538E+03  0.7546771E-02  0.1172442E+00
         21   -1    0    0  502  503  0.00000000000E+00  0.00000000000E+00  0.69166646288E+03  0.69166646288E+03  0.00000000000E+00 0.  1.
         21   -1    0    0  503  504 -0.00000000000E+00 -0.00000000000E+00 -0.65780981759E+02  0.65780981759E+02  0.00000000000E+00 0.  1.
         -6    2    1    2    0  504 -0.24210301681E+02  0.12716698391E+02  0.96818350636E+02  0.20007774486E+03  0.17294351056E+03 0.  0.
        -24    2    3    3    0    0 -0.59434345951E+02  0.59567476412E+02  0.53028783259E+02  0.12676100116E+03  0.78584819377E+02 0.  0.
          6    2    1    2  502    0  0.24210301681E+02 -0.12716698391E+02  0.52906713048E+03  0.55736969978E+03  0.17320825773E+03 0.  0.
         24    2    5    5    0    0  0.72480674076E+02  0.65841926772E-02  0.18955223017E+03  0.21417242662E+03  0.68456790763E+02 0.  0.
          4    1    6    6  501    0  0.35448340326E+02  0.14868942181E+01  0.20230475754E+02  0.40841986185E+02  0.00000000000E+00 0. -1.
         -3    1    6    6    0  501  0.37032333750E+02 -0.14803100254E+01  0.16932175442E+03  0.17333044043E+03  0.00000000000E+00 0.  1.
          5    1    5    5  502    0 -0.48270372395E+02 -0.12723282584E+02  0.33951490031E+03  0.34319727316E+03  0.47000000000E+01 0. -1.
         13    1    4    4    0    0 -0.73438013567E+02  0.31759439583E+02  0.52355833537E+02  0.95618707085E+02  0.00000000000E+00 0. -1.
        -14    1    4    4    0    0  0.14003667616E+02  0.27808036829E+02  0.67294972244E+00  0.31142294076E+02  0.00000000000E+00 0.  1.
         -5    1    3    3    0  504  0.35224044270E+02 -0.46850778021E+02  0.43789567377E+02  0.73316743702E+02  0.47000000000E+01 0.  1.
<mgrwt>
<rscale>  2 0.17528838E+03</rscale>
<asrwt>0</asrwt>
<pdfrwt beam="1">  1       21 0.10641022E+00 0.17535380E+03</pdfrwt>
<pdfrwt beam="2">  1       21 0.10120152E-01 0.17535380E+03</pdfrwt>
<totfact> 0.56697908E+04</totfact>
</mgrwt>
</event>
<event>
12    1  0.2743855E-001  0.7282707E+03  0.7546771E-02  0.9670572E-01
         21   -1    0    0  502  503  0.00000000000E+00  0.00000000000E+00  0.48213687520E+03  0.48213687520E+03  0.00000000000E+00 0. -1.
         21   -1    0    0  503  504 -0.00000000000E+00 -0.00000000000E+00 -0.13022857583E+04  0.13022857583E+04  0.00000000000E+00 0.  1.
         -6    2    1    2    0  504 -0.70324557054E+03  0.62428488973E+02 -0.57164845296E+02  0.73051077389E+03  0.17867994434E+03 0.  0.
        -24    2    3    3    0    0 -0.50230143435E+03  0.66660974706E+02 -0.10670966958E+03  0.52345223284E+03  0.76582439179E+02 0.  0.
          6    2    1    2  502    0  0.70324557054E+03 -0.62428488973E+02 -0.76298403777E+03  0.10539118596E+04  0.17359123582E+03 0.  0.
         24    2    5    5    0    0  0.36574852341E+03  0.11780872302E+02 -0.46744535973E+03  0.59918503352E+03  0.81282032030E+02 0.  0.
          2    1    6    6  501    0  0.20902204147E+02  0.68850893145E+01 -0.67907673880E+02  0.71384583524E+02  0.00000000000E+00 0. -1.
         -1    1    6    6    0  501  0.34484631926E+03  0.48957829880E+01 -0.39953768585E+03  0.52780044999E+03  0.00000000000E+00 0.  1.
          5    1    5    5  502    0  0.33749704713E+03 -0.74209361276E+02 -0.29553867804E+03  0.45472682606E+03  0.47000000000E+01 0. -1.
         11    1    4    4    0    0 -0.30188715997E+03  0.17942355649E+02 -0.32088321909E+02  0.30411748697E+03  0.00000000000E+00 0. -1.
        -12    1    4    4    0    0 -0.20041427438E+03  0.48718619056E+02 -0.74621347672E+02  0.21933474587E+03  0.00000000000E+00 0.  1.
         -5    1    3    3    0  504 -0.20094413619E+03 -0.42324857324E+01  0.49544824285E+02  0.20705854104E+03  0.47000000000E+01 0.  1.
<mgrwt>
<rscale>  2 0.72796253E+03</rscale>
<asrwt>0</asrwt>
<pdfrwt beam="1">  1       21 0.74174905E-01 0.72827067E+03</pdfrwt>
<pdfrwt beam="2">  1       21 0.20035165E+00 0.72827067E+03</pdfrwt>
<totfact> 0.15624152E+02</totfact>
</mgrwt>
</event>
<event>
12    1  0.2743855E-001  0.2846538E+03  0.7546771E-02  0.1093308E+00
         21   -1    0    0  502  503  0.00000000000E+00  0.00000000000E+00  0.26826623306E+03  0.26826623306E+03  0.00000000000E+00 0. -1.
         21   -1    0    0  503  504 -0.00000000000E+00 -0.00000000000E+00 -0.62539065633E+03  0.62539065633E+03  0.00000000000E+00 0.  1.
         -6    2    1    2    0  504 -0.22052709692E+03  0.55206428832E+02 -0.50022837084E+03  0.57505599483E+03  0.16964970950E+03 0.  0.
        -24    2    3    3    0    0 -0.12602009930E+03  0.76667465630E+02 -0.21038173368E+03  0.26940045050E+03  0.80976312304E+02 0.  0.
          6    2    1    2  502    0  0.22052709692E+03 -0.55206428832E+02  0.14310394757E+03  0.31860089456E+03  0.17131211265E+03 0.  0.
         24    2    5    5    0    0  0.19435150571E+03 -0.55067329738E+02  0.17327924910E+03  0.27837876450E+03  0.81634060169E+02 0.  0.
          2    1    6    6  501    0  0.16565497928E+03 -0.14545305039E+02  0.14821513492E+03  0.22275741128E+03  0.00000000000E+00 0. -1.
         -1    1    6    6    0  501  0.28696526424E+02 -0.40522024698E+02  0.25064114184E+02  0.55621353222E+02  0.00000000000E+00 0.  1.
          5    1    5    5  502    0  0.26175591215E+02 -0.13909909412E+00 -0.30175301529E+02  0.40222130058E+02  0.47000000000E+01 0. -1.
         11    1    4    4    0    0 -0.74117275145E+02 -0.18606636849E+01 -0.91931654252E+02  0.11810275864E+03  0.00000000000E+00 0. -1.
        -12    1    4    4    0    0 -0.51902824151E+02  0.78528129315E+02 -0.11845007942E+03  0.15129769187E+03  0.00000000000E+00 0.  1.
         -5    1    3    3    0  504 -0.94506997628E+02 -0.21461036798E+02 -0.28984663717E+03  0.30565554433E+03  0.47000000000E+01 0.  1.
<mgrwt>
<rscale>  2 0.28440414E+03</rscale>
<asrwt>0</asrwt>
<pdfrwt beam="1">  1       21 0.41271728E-01 0.28465381E+03</pdfrwt>
<pdfrwt beam="2">  1       21 0.96213947E-01 0.28465381E+03</pdfrwt>
<totfact> 0.47813813E+03</totfact>
</mgrwt>
</event>
<event>
12    1  0.2743855E-001  0.2547217E+03  0.7546771E-02  0.1110528E+00
         21   -1    0    0  502  503  0.00000000000E+00  0.00000000000E+00  0.35752017345E+03  0.35752017345E+03  0.00000000000E+00 0.  1.
         21   -1    0    0  503  504 -0.00000000000E+00 -0.00000000000E+00 -0.23978192296E+03  0.23978192296E+03  0.00000000000E+00 0. -1.
         -6    2    1    2    0  504 -0.16455142093E+03  0.86114046091E+02 -0.89289157299E+02  0.26991795227E+03  0.17432827734E+03 0.  0.
        -24    2    3    3    0    0 -0.14709439844E+02  0.90281191636E+01 -0.28743210183E+02  0.90801339024E+02  0.84385048917E+02 0.  0.
          6    2    1    2  502    0  0.16455142093E+03 -0.86114046091E+02  0.20702740779E+03  0.32738414415E+03  0.17270562005E+03 0.  0.
         24    2    5    5    0    0  0.11512385268E+03 -0.47282812695E+02  0.21785535270E+03  0.26342881926E+03  0.80278404850E+02 0.  0.
          4    1    6    6  501    0  0.67197390699E+02 -0.66436490199E+02  0.11942748725E+03  0.15228992501E+03  0.00000000000E+00 0. -1.
         -3    1    6    6    0  501  0.47926461978E+02  0.19153677504E+02  0.98427865443E+02  0.11113889425E+03  0.00000000000E+00 0.  1.
          5    1    5    5  502    0  0.49427568258E+02 -0.38831233397E+02 -0.10827944903E+02  0.63955324890E+02  0.47000000000E+01 0. -1.
         13    1    4    4    0    0 -0.25959144868E+02  0.33632420701E+02 -0.42805923479E+02  0.60310563000E+02  0.00000000000E+00 0. -1.
        -14    1    4    4    0    0  0.11249705024E+02 -0.24604301537E+02  0.14062713296E+02  0.30490776024E+02  0.00000000000E+00 0.  1.
         -5    1    3    3    0  504 -0.14984198109E+03  0.77085926928E+02 -0.60545947116E+02  0.17911661324E+03  0.47000000000E+01 0.  1.
<mgrwt>
<rscale>  2 0.25444431E+03</rscale>
<asrwt>0</asrwt>
<pdfrwt beam="1">  1       21 0.55003103E-01 0.25472171E+03</pdfrwt>
<pdfrwt beam="2">  1       21 0.36889527E-01 0.25472171E+03</pdfrwt>
<totfact> 0.21384599E+04</totfact>
</mgrwt>
</event>
<event>
12    1  0.2743855E-001  0.2470570E+03  0.7546771E-02  0.1115339E+00
         21   -1    0    0  502  503  0.00000000000E+00  0.00000000000E+00  0.10695363992E+04  0.10695363992E+04  0.00000000000E+00 0.  1.
         21   -1    0    0  503  504 -0.00000000000E+00 -0.00000000000E+00 -0.63630486192E+02  0.63630486192E+02  0.00000000000E+00 0.  1.
         -6    2    1    2    0  504  0.17362835686E+03  0.26435375405E+02  0.31876050017E+03  0.40329321493E+03  0.17375708721E+03 0.  0.
        -24    2    3    3    0    0  0.19235761990E+03  0.21345096383E+02  0.32068230499E+03  0.38323132149E+03  0.81068106973E+02 0.  0.
          6    2    1    2  502    0 -0.17362835686E+03 -0.26435375405E+02  0.68714541288E+03  0.72987367051E+03  0.17234013194E+03 0.  0.
         24    2    5    5    0    0 -0.77653530089E+02 -0.65440849544E+02  0.26405879760E+03  0.29426264170E+03  0.80937495559E+02 0.  0.
          2    1    6    6  501    0 -0.86874863398E+02 -0.45482923295E+02  0.15805950858E+03  0.18600738279E+03  0.00000000000E+00 0. -1.
         -1    1    6    6    0  501  0.92213333094E+01 -0.19957926249E+02  0.10599928902E+03  0.10825525891E+03  0.00000000000E+00 0.  1.
          5    1    5    5  502    0 -0.95974826776E+02  0.39005474139E+02  0.42308661529E+03  0.43561102881E+03  0.47000000000E+01 0. -1.
         13    1    4    4    0    0  0.10268896571E+02 -0.20203497668E+02  0.42538739241E+02  0.48199334964E+02  0.00000000000E+00 0. -1.
        -14    1    4    4    0    0  0.18208872333E+03  0.41548594051E+02  0.27814356575E+03  0.33503198653E+03  0.00000000000E+00 0.  1.
         -5    1    3    3    0  504 -0.18729263035E+02  0.50902790223E+01 -0.19218048179E+01  0.20061893433E+02  0.47000000000E+01 0.  1.
<mgrwt>
<rscale>  2 0.24680800E+03</rscale>
<asrwt>0</asrwt>
<pdfrwt beam="1">  1       21 0.16454405E+00 0.24705700E+03</pdfrwt>
<pdfrwt beam="2">  1       21 0.97893063E-02 0.24705700E+03</pdfrwt>
<totfact> 0.18983928E+04</totfact>
</mgrwt>
</event>
<event>
12    1  0.2743855E-001  0.1900124E+03  0.7546771E-02  0.1158809E+00
         21   -1    0    0  502  503  0.00000000000E+00  0.00000000000E+00  0.31459489733E+03  0.31459489733E+03  0.00000000000E+00 0.  1.
         21   -1    0    0  503  504 -0.00000000000E+00 -0.00000000000E+00 -0.11789167726E+03  0.11789167726E+03  0.00000000000E+00 0.  1.
         -6    2    1    2    0  504  0.35558189535E+02 -0.67646113781E+02  0.13819224027E+03  0.23366947848E+03  0.17223225119E+03 0.  0.
        -24    2    3    3    0    0  0.27446208498E+02  0.25071835689E+02  0.99514205925E+02  0.13277100114E+03  0.79644022099E+02 0.  0.
          6    2    1    2  502    0 -0.35558189535E+02  0.67646113781E+02  0.58510979804E+02  0.19881709610E+03  0.17396643754E+03 0.  0.
         24    2    5    5    0    0 -0.99225619215E+01  0.11198202234E+03  0.39594563926E+02  0.14401947771E+03  0.80842129518E+02 0.  0.
          2    1    6    6  501    0  0.17580328271E+02  0.31177906809E+02 -0.18964707392E+02  0.40506665397E+02  0.00000000000E+00 0. -1.
         -1    1    6    6    0  501 -0.27502890192E+02  0.80804115535E+02  0.58559271318E+02  0.10351281232E+03  0.00000000000E+00 0.  1.
          5    1    5    5  502    0 -0.25635627614E+02 -0.44335908564E+02  0.18916415878E+02  0.54797618388E+02  0.47000000000E+01 0. -1.
         11    1    4    4    0    0  0.51401598105E+01  0.29992550526E+02 -0.24421348358E+00  0.30430806269E+02  0.00000000000E+00 0. -1.
        -12    1    4    4    0    0  0.22306048687E+02 -0.49207148377E+01  0.99758419408E+02  0.10234019487E+03  0.00000000000E+00 0.  1.
         -5    1    3    3    0  504  0.81119810377E+01 -0.92717949470E+02  0.38678034342E+02  0.10089847735E+03  0.47000000000E+01 0.  1.
<mgrwt>
<rscale>  2 0.18961452E+03</rscale>
<asrwt>0</asrwt>
<pdfrwt beam="1">  1       21 0.48399215E-01 0.19001238E+03</pdfrwt>
<pdfrwt beam="2">  1       21 0.18137181E-01 0.19001238E+03</pdfrwt>
<totfact> 0.11298676E+05</totfact>
</mgrwt>
</event>
<event>
12    1  0.2743855E-001  0.1800824E+03  0.7546771E-02  0.1168342E+00
         21   -1    0    0  502  503  0.00000000000E+00  0.00000000000E+00  0.14530722734E+03  0.14530722734E+03  0.00000000000E+00 0.  1.
         21   -1    0    0  503  504 -0.00000000000E+00 -0.00000000000E+00 -0.22994048627E+03  0.22994048627E+03  0.00000000000E+00 0.  1.
         -6    2    1    2    0  504  0.33868295536E+02 -0.44034583550E+02 -0.81526642940E+02  0.19767714277E+03  0.17129960091E+03 0.  0.
        -24    2    3    3    0    0 -0.34197781953E+01 -0.91332944848E+02 -0.43407384405E+02  0.12624393414E+03  0.75497868766E+02 0.  0.
          6    2    1    2  502    0 -0.33868295536E+02  0.44034583550E+02 -0.31066159896E+01  0.17757057084E+03  0.16862843940E+03 0.  0.
         24    2    5    5    0    0 -0.36805520423E+02 -0.31680292305E+02  0.25826813947E+02  0.96326475155E+02  0.79078936785E+02 0.  0.
          2    1    6    6  501    0 -0.20249681700E+00 -0.12377791622E+02  0.47867198113E+02  0.49442081121E+02  0.00000000000E+00 0. -1.
         -1    1    6    6    0  501 -0.36603023606E+02 -0.19302500684E+02 -0.22040384166E+02  0.46884394034E+02  0.00000000000E+00 0.  1.
          5    1    5    5  502    0  0.29372248866E+01  0.75714875855E+02 -0.28933429936E+02  0.81244095685E+02  0.47000000000E+01 0. -1.
         13    1    4    4    0    0 -0.14464246265E+01 -0.68220794350E+02  0.91007722856E+01  0.68840344146E+02  0.00000000000E+00 0. -1.
        -14    1    4    4    0    0 -0.19733535689E+01 -0.23112150499E+02 -0.52508156691E+02  0.57403589993E+02  0.00000000000E+00 0.  1.
         -5    1    3    3    0  504  0.37288073732E+02  0.47298361298E+02 -0.38119258535E+02  0.71433208631E+02  0.47000000000E+01 0.  1.
<mgrwt>
<rscale>  2 0.17944424E+03</rscale>
<asrwt>0</asrwt>
<pdfrwt beam="1">  1       21 0.22354958E-01 0.18008237E+03</pdfrwt>
<pdfrwt beam="2">  1       21 0.35375460E-01 0.18008237E+03</pdfrwt>
<totfact> 0.14488751E+05</totfact>
</mgrwt>
</event>
<event>
12    1  0.2743855E-001  0.1973016E+03  0.7546771E-02  0.1152262E+00
         21   -1    0    0  502  503  0.00000000000E+00  0.00000000000E+00  0.15107279935E+03  0.15107279935E+03  0.00000000000E+00 0.  1.
         21   -1    0    0  503  504 -0.00000000000E+00 -0.00000000000E+00 -0.30794793580E+03  0.30794793580E+03  0.00000000000E+00 0.  1.
         -6    2    1    2    0  504  0.91339193950E+02  0.19546209070E+01 -0.17224993922E+03  0.26112100596E+03  0.17368785017E+03 0.  0.
        -24    2    3    3    0    0  0.80564570182E+02  0.22376032786E+02 -0.19597976881E+03  0.22767969330E+03  0.80241112564E+02 0.  0.
          6    2    1    2  502    0 -0.91339193950E+02 -0.19546209070E+01  0.15374802778E+02  0.19789972919E+03  0.17487495349E+03 0.  0.
         24    2    5    5    0    0 -0.13077308226E+03 -0.41949058270E+01 -0.58721487098E+01  0.15280457012E+03  0.78711868480E+02 0.  0.
          4    1    6    6  501    0 -0.20300270069E+02 -0.14021330926E+01 -0.33225460719E+02  0.38961496148E+02  0.00000000000E+00 0. -1.
         -3    1    6    6    0  501 -0.11047281219E+03 -0.27927727344E+01  0.27353312009E+02  0.11384307397E+03  0.00000000000E+00 0.  1.
          5    1    5    5  502    0  0.39433888311E+02  0.22402849200E+01  0.21246951488E+02  0.45095159068E+02  0.47000000000E+01 0. -1.
         13    1    4    4    0    0  0.99583510308E+01 -0.27059903067E+02 -0.37814084079E+02  0.47553255030E+02  0.00000000000E+00 0. -1.
        -14    1    4    4    0    0  0.70606219151E+02  0.49435935853E+02 -0.15816568473E+03  0.18012643827E+03  0.00000000000E+00 0.  1.
         -5    1    3    3    0  504  0.10774623768E+02 -0.20421411879E+02  0.23729829586E+02  0.33441312663E+02  0.47000000000E+01 0.  1.
<mgrwt>
<rscale>  2 0.19703822E+03</rscale>
<asrwt>0</asrwt>
<pdfrwt beam="1">  1       21 0.23241969E-01 0.19730159E+03</pdfrwt>
<pdfrwt beam="2">  1       21 0.47376605E-01 0.19730159E+03</pdfrwt>
<totfact> 0.74003994E+04</totfact>
</mgrwt>
</event>
<event>
12    1  0.2743855E-001  0.1783572E+03  0.7546771E-02  0.1170806E+00
         21   -1    0    0  502  503  0.00000000000E+00  0.00000000000E+00  0.25774125068E+03  0.25774125068E+03  0.00000000000E+00 0.  1.
         21   -1    0    0  503  504 -0.00000000000E+00 -0.00000000000E+00 -0.89488888104E+03  0.89488888104E+03  0.00000000000E+00 0.  1.
         -6    2    1    2    0  504  0.36127737850E+02 -0.13012467480E+02 -0.85431982000E+03  0.87160510662E+03  0.16840002759E+03 0.  0.
        -24    2    3    3    0    0  0.47845749313E+02 -0.65547060467E+02 -0.66014196351E+03  0.67005033689E+03  0.81205967190E+02 0.  0.
          6    2    1    2  502    0 -0.36127737850E+02  0.13012467480E+02  0.21717218964E+03  0.28102502510E+03  0.17417453035E+03 0.  0.
         24    2    5    5    0    0 -0.46662876562E+02 -0.43838524360E+02  0.18724400494E+03  0.21575013972E+03  0.85956763185E+02 0.  0.
          4    1    6    6  501    0 -0.50709643663E+02 -0.59403053444E+02  0.99238271888E+02  0.12628707506E+03  0.00000000000E+00 0. -1.
         -3    1    6    6    0  501  0.40467671007E+01  0.15564529084E+02  0.88005733050E+02  0.89463064665E+02  0.00000000000E+00 0.  1.
          5    1    5    5  502    0  0.10535138712E+02  0.56850991840E+02  0.29928184704E+02  0.65274885374E+02  0.47000000000E+01 0. -1.
         13    1    4    4    0    0 -0.45187830394E+01 -0.61147881116E+02 -0.39774274224E+03  0.40244101651E+03  0.00000000000E+00 0. -1.
        -14    1    4    4    0    0  0.52364532353E+02 -0.43991793514E+01 -0.26239922127E+03  0.26760932038E+03  0.00000000000E+00 0.  1.
         -5    1    3    3    0  504 -0.11718011463E+02  0.52534592987E+02 -0.19417785649E+03  0.20155476973E+03  0.47000000000E+01 0.  1.
<mgrwt>
<rscale>  2 0.17693158E+03</rscale>
<asrwt>0</asrwt>
<pdfrwt beam="1">  1       21 0.39652501E-01 0.17835724E+03</pdfrwt>
<pdfrwt beam="2">  1       21 0.13767521E+00 0.17835724E+03</pdfrwt>
<totfact> 0.23218525E+03</totfact>
</mgrwt>
</event>
<event>
12    1  0.2743855E-001  0.1895746E+03  0.7546771E-02  0.1158899E+00
         21   -1    0    0  502  503  0.00000000000E+00  0.00000000000E+00  0.19921040683E+04  0.19921040683E+04  0.00000000000E+00 0.  1.
         21   -1    0    0  503  504 -0.00000000000E+00 -0.00000000000E+00 -0.34011198955E+02  0.34011198955E+02  0.00000000000E+00 0.  1.
         -6    2    1    2    0  504  0.55698104624E+02 -0.52709155614E+02  0.28402962256E+03  0.34135228880E+03  0.17311275122E+03 0.  0.
        -24    2    3    3    0    0  0.86183911284E+02 -0.66367060631E+02  0.27580367082E+03  0.30662939924E+03  0.78241103918E+02 0.  0.
          6    2    1    2  502    0 -0.55698104624E+02  0.52709155614E+02  0.16740632468E+04  0.16847629785E+04  0.17337244700E+03 0.  0.
         24    2    5    5    0    0 -0.13000372200E+02 -0.31701963884E+02  0.10288834154E+04  0.10326683241E+04  0.81417202460E+02 0.  0.
          4    1    6    6  501    0 -0.75749750539E+01 -0.32809700045E+02  0.14859519011E+03  0.15236268306E+03  0.00000000000E+00 0. -1.
         -3    1    6    6    0  501 -0.54253971458E+01  0.11077361609E+01  0.88028822530E+03  0.88030564103E+03  0.00000000000E+00 0.  1.
          5    1    5    5  502    0 -0.42697732424E+02  0.84411119498E+02  0.64517983141E+03  0.65209465441E+03  0.47000000000E+01 0. -1.
         11    1    4    4    0    0  0.74165488789E+02 -0.92177670281E+01  0.17178871813E+03  0.18734153472E+03  0.00000000000E+00 0. -1.
        -12    1    4    4    0    0  0.12018422495E+02 -0.57149293603E+02  0.10401495269E+03  0.11928786452E+03  0.00000000000E+00 0.  1.
         -5    1    3    3    0  504 -0.30485806660E+02  0.13657905017E+02  0.82259517367E+01  0.34722889556E+02  0.47000000000E+01 0.  1.
<mgrwt>
<rscale>  2 0.18951523E+03</rscale>
<asrwt>0</asrwt>
<pdfrwt beam="1">  1       21 0.30647746E+00 0.18957463E+03</pdfrwt>
<pdfrwt beam="2">  1       21 0.52324937E-02 0.18957463E+03</pdfrwt>
<totfact> 0.78279804E+03</totfact>
</mgrwt>
</event>
<event>
12    1  0.2743855E-001  0.2274007E+03  0.7546771E-02  0.1129906E+00
         21   -1    0    0  502  503  0.00000000000E+00  0.00000000000E+00  0.13466977642E+03  0.13466977642E+03  0.00000000000E+00 0.  1.
         21   -1    0    0  503  504 -0.00000000000E+00 -0.00000000000E+00 -0.39504522739E+03  0.39504522739E+03  0.00000000000E+00 0.  1.
         -6    2    1    2    0  504 -0.14584069108E+03  0.74993965208E+01 -0.19781747455E+03  0.30140147687E+03  0.17431393777E+03 0.  0.
        -24    2    3    3    0    0 -0.25814468063E+02 -0.60612518551E+01 -0.28900845782E+02  0.93687483914E+02  0.85082079310E+02 0.  0.
          6    2    1    2  502    0  0.14584069108E+03 -0.74993965208E+01 -0.62557976421E+02  0.22831352694E+03  0.16397505312E+03 0.  0.
         24    2    5    5    0    0  0.12107097542E+03  0.63117164691E+01  0.14419736646E+02  0.14614331357E+03  0.80323847289E+02 0.  0.
          4    1    6    6  501    0  0.12331650944E+02 -0.28566049470E+02  0.55320794222E+01  0.31602099615E+02  0.00000000000E+00 0. -1.
         -3    1    6    6    0  501  0.10873932447E+03  0.34877765939E+02  0.88876572233E+01  0.11454121396E+03  0.00000000000E+00 0.  1.
          5    1    5    5  502    0  0.24769715662E+02 -0.13811112990E+02 -0.76977713067E+02  0.82170213368E+02  0.47000000000E+01 0. -1.
         13    1    4    4    0    0 -0.30767248249E+02  0.28858895722E+02 -0.38525112533E+02  0.57128309294E+02  0.00000000000E+00 0. -1.
        -14    1    4    4    0    0  0.49527801856E+01 -0.34920147577E+02  0.96242667510E+01  0.36559174620E+02  0.00000000000E+00 0.  1.
         -5    1    3    3    0  504 -0.12002622301E+03  0.13560648376E+02 -0.16891662876E+03  0.20771399295E+03  0.47000000000E+01 0.  1.
<mgrwt>
<rscale>  2 0.22541876E+03</rscale>
<asrwt>0</asrwt>
<pdfrwt beam="1">  1       21 0.20718427E-01 0.22740074E+03</pdfrwt>
<pdfrwt beam="2">  1       21 0.60776188E-01 0.22740074E+03</pdfrwt>
<totfact> 0.53597692E+04</totfact>
</mgrwt>
</event>
<event>
12    1  0.2743855E-001  0.2134339E+03  0.7546771E-02  0.1138976E+00
         21   -1    0    0  502  503  0.00000000000E+00  0.00000000000E+00  0.12718392230E+03  0.12718392230E+03  0.00000000000E+00 0.  1.
         21   -1    0    0  503  504 -0.00000000000E+00 -0.00000000000E+00 -0.42361167421E+03  0.42361167421E+03  0.00000000000E+00 0.  1.
         -6    2    1    2    0  504 -0.12088811592E+03 -0.25065849062E+02 -0.25732203467E+03  0.33431818629E+03  0.17410280524E+03 0.  0.
        -24    2    3    3    0    0 -0.42649548897E+02  0.87520316254E+01 -0.40265203010E+02  0.10107865148E+03  0.81853681242E+02 0.  0.
          6    2    1    2  502    0  0.12088811592E+03  0.25065849062E+02 -0.39105717231E+02  0.21647741023E+03  0.17346751470E+03 0.  0.
         24    2    5    5    0    0  0.29826921506E+02 -0.53066298972E+02 -0.20900961171E+02  0.95026692534E+02  0.69910977557E+02 0.  0.
          4    1    6    6  501    0  0.10026524668E+02  0.21905552335E+00  0.21756020342E+02  0.23956285258E+02  0.00000000000E+00 0. -1.
         -3    1    6    6    0  501  0.19800396837E+02 -0.53285354495E+02 -0.42656981513E+02  0.71070407276E+02  0.00000000000E+00 0.  1.
          5    1    5    5  502    0  0.91061194418E+02  0.78132148033E+02 -0.18204756061E+02  0.12145071769E+03  0.47000000000E+01 0. -1.
         13    1    4    4    0    0  0.25549072881E+01 -0.30009252750E+02 -0.26138512035E+02  0.39878623512E+02  0.00000000000E+00 0. -1.
        -14    1    4    4    0    0 -0.45204456185E+02  0.38761284375E+02 -0.14126690975E+02  0.61200027968E+02  0.00000000000E+00 0.  1.
         -5    1    3    3    0  504 -0.78238567026E+02 -0.33817880687E+02 -0.21705683166E+03  0.23323953481E+03  0.47000000000E+01 0.  1.
<mgrwt>
<rscale>  2 0.21330428E+03</rscale>
<asrwt>0</asrwt>
<pdfrwt beam="1">  1       21 0.19566757E-01 0.21343388E+03</pdfrwt>
<pdfrwt beam="2">  1       21 0.65171028E-01 0.21343388E+03</pdfrwt>
<totfact> 0.51590261E+04</totfact>
</mgrwt>
</event>
<event>
12    1  0.2743855E-001  0.1859878E+03  0.7546771E-02  0.1162346E+00
         21   -1    0    0  502  503  0.00000000000E+00  0.00000000000E+00  0.10163519275E+03  0.10163519275E+03  0.00000000000E+00 0.  1.
         21   -1    0    0  503  504 -0.00000000000E+00 -0.00000000000E+00 -0.67800530003E+03  0.67800530003E+03  0.00000000000E+00 0.  1.
         -6    2    1    2    0  504 -0.49303249099E+01  0.67137760944E+02 -0.56361019027E+03  0.59321546202E+03  0.17238431123E+03 0.  0.
        -24    2    3    3    0    0 -0.29945290882E+02  0.52024078541E+01 -0.14373347646E+03  0.16803281741E+03  0.81559364735E+02 0.  0.
          6    2    1    2  502    0  0.49303249099E+01 -0.67137760944E+02 -0.12759917008E+02  0.18642503076E+03  0.17337730407E+03 0.  0.
         24    2    5    5    0    0  0.59365402742E+02 -0.17564692020E+02  0.22127497883E+02  0.10481689037E+03  0.81634458995E+02 0.  0.
          4    1    6    6  501    0  0.18819327118E+02  0.32528197755E+02  0.35526770069E+01  0.37747479866E+02  0.00000000000E+00 0. -1.
         -3    1    6    6    0  501  0.40546075623E+02 -0.50092889775E+02  0.18574820876E+02  0.67069410502E+02  0.00000000000E+00 0.  1.
          5    1    5    5  502    0 -0.54435077832E+02 -0.49573068924E+02 -0.34887414892E+02  0.81608140396E+02  0.47000000000E+01 0. -1.
         13    1    4    4    0    0 -0.20755356490E+02  0.37932293664E+02 -0.40121323363E+02  0.58986136626E+02  0.00000000000E+00 0. -1.
        -14    1    4    4    0    0 -0.91899343918E+01 -0.32729885810E+02 -0.10361215310E+03  0.10904668078E+03  0.00000000000E+00 0.  1.
         -5    1    3    3    0  504  0.25014965972E+02  0.61935353090E+02 -0.41987671380E+03  0.42518264461E+03  0.47000000000E+01 0.  1.
<mgrwt>
<rscale>  2 0.18575608E+03</rscale>
<asrwt>0</asrwt>
<pdfrwt beam="1">  1       21 0.15636184E-01 0.18598784E+03</pdfrwt>
<pdfrwt beam="2">  1       21 0.10430851E+00 0.18598784E+03</pdfrwt>
<totfact> 0.27098401E+04</totfact>
</mgrwt>
</event>
<event>
12    1  0.2743855E-001  0.2222921E+03  0.7546771E-02  0.1132211E+00
         21   -1    0    0  502  503  0.00000000000E+00  0.00000000000E+00  0.15933954938E+03  0.15933954938E+03  0.00000000000E+00 0.  1.
         21   -1    0    0  503  504 -0.00000000000E+00 -0.00000000000E+00 -0.57717533370E+03  0.57717533370E+03  0.00000000000E+00 0.  1.
         -6    2    1    2    0  504  0.13630020240E+03  0.34192999910E+02 -0.45947015185E+03  0.51035742164E+03  0.17206095132E+03 0.  0.
        -24    2    3    3    0    0  0.10384731248E+03  0.81137936330E+02 -0.25863467429E+03  0.30151777942E+03  0.81568667617E+02 0.  0.
          6    2    1    2  502    0 -0.13630020240E+03 -0.34192999910E+02  0.41634367529E+02  0.22615746144E+03  0.17224073383E+03 0.  0.
         24    2    5    5    0    0 -0.12717349457E+03  0.31902715419E+02  0.28856044391E+02  0.15805962063E+03  0.83422367525E+02 0.  0.
          4    1    6    6  501    0 -0.12282560147E+03  0.52612956963E+02  0.19953011568E+02  0.13510134821E+03  0.00000000000E+00 0. -1.
         -3    1    6    6    0  501 -0.43478931033E+01 -0.20710241545E+02  0.89030328233E+01  0.22958272425E+02  0.00000000000E+00 0.  1.
          5    1    5    5  502    0 -0.91267078235E+01 -0.66095715329E+02  0.12778323138E+02  0.68097840808E+02  0.47000000000E+01 0. -1.
         13    1    4    4    0    0  0.99880821252E+02  0.34017459425E+02 -0.20059582466E+03  0.22665403343E+03  0.00000000000E+00 0. -1.
        -14    1    4    4    0    0  0.39664912325E+01  0.47120476904E+02 -0.58038849626E+02  0.74863745981E+02  0.00000000000E+00 0.  1.
         -5    1    3    3    0  504  0.32452889914E+02 -0.46944936420E+02 -0.20083547756E+03  0.20883964222E+03  0.47000000000E+01 0.  1.
<mgrwt>
<rscale>  2 0.22225727E+03</rscale>
<asrwt>0</asrwt>
<pdfrwt beam="1">  1       21 0.24513777E-01 0.22229210E+03</pdfrwt>
<pdfrwt beam="2">  1       21 0.88796205E-01 0.22229210E+03</pdfrwt>
<totfact> 0.16735839E+04</totfact>
</mgrwt>
</event>
<event>
12    1  0.2743855E-001  0.2457952E+03  0.7546771E-02  0.1116009E+00
         21   -1    0    0  502  503  0.00000000000E+00  0.00000000000E+00  0.17503046847E+03  0.17503046847E+03  0.00000000000E+00 0. -1.
         21   -1    0    0  503  504 -0.00000000000E+00 -0.00000000000E+00 -0.43762889997E+03  0.43762889997E+03  0.00000000000E+00 0. -1.
         -6    2    1    2    0  504 -0.17437979275E+03 -0.26103130381E+01 -0.27224211854E+03  0.36678471796E+03  0.17320546286E+03 0.  0.
        -24    2    3    3    0    0 -0.13070279802E+03  0.13924206274E+01 -0.85201248174E+02  0.17461271445E+03  0.78391243837E+02 0.  0.
          6    2    1    2  502    0  0.17437979275E+03  0.26103130381E+01  0.96436870385E+01  0.24587465049E+03  0.17304975354E+03 0.  0.
         24    2    5    5    0    0  0.17752353121E+03  0.42482492917E+02 -0.12765740091E+02  0.19978835921E+03  0.80206346482E+02 0.  0.
          4    1    6    6  501    0  0.15266262384E+03  0.25610784420E+02  0.19125715794E+02  0.15597301690E+03  0.00000000000E+00 0. -1.
         -3    1    6    6    0  501  0.24860907371E+02  0.16871708496E+02 -0.31891455885E+02  0.43815342306E+02  0.00000000000E+00 0.  1.
          5    1    5    5  502    0 -0.31437384606E+01 -0.39872179879E+02  0.22409427130E+02  0.46086291281E+02  0.47000000000E+01 0. -1.
         11    1    4    4    0    0 -0.30059035217E+02  0.28092817138E+02 -0.49881862927E+02  0.64660283189E+02  0.00000000000E+00 0. -1.
        -12    1    4    4    0    0 -0.10064376281E+03 -0.26700396511E+02 -0.35319385246E+02  0.10995243126E+03  0.00000000000E+00 0.  1.
         -5    1    3    3    0  504 -0.43676994726E+02 -0.40027336655E+01 -0.18704087037E+03  0.19217200351E+03  0.47000000000E+01 0.  1.
<mgrwt>
<rscale>  2 0.24576773E+03</rscale>
<asrwt>0</asrwt>
<pdfrwt beam="1">  1       21 0.26927765E-01 0.24579515E+03</pdfrwt>
<pdfrwt beam="2">  1       21 0.67327522E-01 0.24579515E+03</pdfrwt>
<totfact> 0.25784875E+04</totfact>
</mgrwt>
</event>
<event>
12    1  0.2743855E-001  0.3031520E+03  0.7546771E-02  0.1083688E+00
         21   -1    0    0  502  503  0.00000000000E+00  0.00000000000E+00  0.27348816448E+03  0.27348816448E+03  0.00000000000E+00 0. -1.
         21   -1    0    0  503  504 -0.00000000000E+00 -0.00000000000E+00 -0.82482626489E+03  0.82482626489E+03  0.00000000000E+00 0.  1.
         -6    2    1    2    0  504  0.79604498148E+02  0.23619209551E+03 -0.69844416339E+03  0.76135551346E+03  0.17237861349E+03 0.  0.
        -24    2    3    3    0    0  0.29670828148E+02  0.22557246861E+03 -0.63643766841E+03  0.68090028805E+03  0.82516664160E+02 0.  0.
          6    2    1    2  502    0 -0.79604498148E+02 -0.23619209551E+03  0.14710606298E+03  0.33695891592E+03  0.17256168503E+03 0.  0.
         24    2    5    5    0    0 -0.25111302385E+02 -0.21464560463E+03  0.68809069146E+02  0.23904942251E+03  0.75542208826E+02 0.  0.
          2    1    6    6  501    0 -0.11191713219E+02 -0.16173419417E+03  0.83554165454E+02  0.18238558762E+03  0.00000000000E+00 0. -1.
         -1    1    6    6    0  501 -0.13919589167E+02 -0.52911410462E+02 -0.14745096309E+02  0.56663834893E+02  0.00000000000E+00 0.  1.
          5    1    5    5  502    0 -0.54493195763E+02 -0.21546490887E+02  0.78296993838E+02  0.97909493401E+02  0.47000000000E+01 0. -1.
         13    1    4    4    0    0  0.15663834616E+02  0.16209311562E+02 -0.21507654520E+02  0.31155684861E+02  0.00000000000E+00 0. -1.
        -14    1    4    4    0    0  0.14006993531E+02  0.20936315704E+03 -0.61493001389E+03  0.64974460319E+03  0.00000000000E+00 0.  1.
         -5    1    3    3    0  504  0.49933670000E+02  0.10619626909E+02 -0.62006494988E+02  0.80455225412E+02  0.47000000000E+01 0.  1.
<mgrwt>
<rscale>  2 0.30312592E+03</rscale>
<asrwt>0</asrwt>
<pdfrwt beam="1">  1       21 0.42075103E-01 0.30315197E+03</pdfrwt>
<pdfrwt beam="2">  1       21 0.12689635E+00 0.30315197E+03</pdfrwt>
<totfact> 0.23032272E+03</totfact>
</mgrwt>
</event>
<event>
12    1  0.2743855E-001  0.2111798E+03  0.7546771E-02  0.1140768E+00
         21   -1    0    0  502  503  0.00000000000E+00  0.00000000000E+00  0.65041741607E+02  0.65041741607E+02  0.00000000000E+00 0.  1.
         21   -1    0    0  503  504 -0.00000000000E+00 -0.00000000000E+00 -0.74538907650E+03  0.74538907650E+03  0.00000000000E+00 0.  1.
         -6    2    1    2    0  504 -0.41440746413E+02 -0.11374548947E+03 -0.45645522193E+03  0.50265724799E+03  0.17221372620E+03 0.  0.
        -24    2    3    3    0    0  0.43674464986E+02 -0.48033413371E+02 -0.22157828372E+03  0.24429327554E+03  0.79797249111E+02 0.  0.
          6    2    1    2  502    0  0.41440746413E+02  0.11374548947E+03 -0.22389211296E+03  0.30777357012E+03  0.17303618228E+03 0.  0.
         24    2    5    5    0    0  0.76739837803E+02  0.34360548963E+02 -0.16810152911E+03  0.20441654869E+03  0.80363867863E+02 0.  0.
          4    1    6    6  501    0  0.28881947651E+01  0.21623378001E+02 -0.16565126677E+01  0.21878212436E+02  0.00000000000E+00 0. -1.
         -3    1    6    6    0  501  0.73851643038E+02  0.12737170962E+02 -0.16644501645E+03  0.18253833626E+03  0.00000000000E+00 0.  1.
          5    1    5    5  502    0 -0.35299091390E+02  0.79384940507E+02 -0.55790583851E+02  0.10335702143E+03  0.47000000000E+01 0. -1.
         11    1    4    4    0    0  0.19544438604E+02  0.21608128212E+02 -0.65501082872E+02  0.71688828575E+02  0.00000000000E+00 0. -1.
        -12    1    4    4    0    0  0.24130026382E+02 -0.69641541582E+02 -0.15607720085E+03  0.17260444696E+03  0.00000000000E+00 0.  1.
         -5    1    3    3    0  504 -0.85115211399E+02 -0.65712076099E+02 -0.23487693821E+03  0.25836397245E+03  0.47000000000E+01 0.  1.
<mgrwt>
<rscale>  2 0.21101122E+03</rscale>
<asrwt>0</asrwt>
<pdfrwt beam="1">  1       21 0.10006423E-01 0.21117976E+03</pdfrwt>
<pdfrwt beam="2">  1       21 0.11467523E+00 0.21117976E+03</pdfrwt>
<totfact> 0.47382980E+04</totfact>
</mgrwt>
</event>
<event>
12    1  0.2743855E-001  0.2128594E+03  0.7546771E-02  0.1139543E+00
         21   -1    0    0  502  503  0.00000000000E+00  0.00000000000E+00  0.33394296037E+03  0.33394296037E+03  0.00000000000E+00 0.  1.
         21   -1    0    0  503  504 -0.00000000000E+00 -0.00000000000E+00 -0.25787236039E+03  0.25787236039E+03  0.00000000000E+00 0.  1.
         -6    2    1    2    0  504  0.12282323734E+03  0.91303798884E+01 -0.16620687638E+03  0.27006271423E+03  0.17360942485E+03 0.  0.
        -24    2    3    3    0    0  0.64269203074E+02 -0.41002310541E+02 -0.15855406937E+03  0.19245783659E+03  0.78031442494E+02 0.  0.
          6    2    1    2  502    0 -0.12282323734E+03 -0.91303798884E+01  0.24227747636E+03  0.32175260653E+03  0.17221339318E+03 0.  0.
         24    2    5    5    0    0 -0.14159568007E+03 -0.37095844600E+02  0.23223094356E+03  0.28629143560E+03  0.81278143729E+02 0.  0.
          2    1    6    6  501    0  0.51244474051E+01 -0.17632058873E+02  0.36944627127E+02  0.41255968475E+02  0.00000000000E+00 0. -1.
         -1    1    6    6    0  501 -0.14672012748E+03 -0.19463785727E+02  0.19528631643E+03  0.24503546712E+03  0.00000000000E+00 0.  1.
          5    1    5    5  502    0  0.18772442731E+02  0.27965464711E+02  0.10046532801E+02  0.35461170933E+02  0.47000000000E+01 0. -1.
         13    1    4    4    0    0  0.17040217757E+01 -0.59927233322E+01 -0.99164627440E+02  0.99360151764E+02  0.00000000000E+00 0. -1.
        -14    1    4    4    0    0  0.62565181298E+02 -0.35009587209E+02 -0.59389441934E+02  0.93097684829E+02  0.00000000000E+00 0.  1.
         -5    1    3    3    0  504  0.58554034268E+02  0.50132690430E+02 -0.76528070031E+01  0.77604877642E+02  0.47000000000E+01 0.  1.
<mgrwt>
<rscale>  2 0.21257461E+03</rscale>
<asrwt>0</asrwt>
<pdfrwt beam="1">  1       21 0.51375840E-01 0.21285945E+03</pdfrwt>
<pdfrwt beam="2">  1       21 0.39672671E-01 0.21285945E+03</pdfrwt>
<totfact> 0.21792331E+04</totfact>
</mgrwt>
</event>
<event>
12    1  0.2743855E-001  0.1814025E+03  0.7546771E-02  0.1167718E+00
         21   -1    0    0  502  503  0.00000000000E+00  0.00000000000E+00  0.71787558025E+03  0.71787558025E+03  0.00000000000E+00 0. -1.
         21   -1    0    0  503  504 -0.00000000000E+00 -0.00000000000E+00 -0.82120360417E+02  0.82120360417E+02  0.00000000000E+00 0. -1.
         -6    2    1    2    0  504 -0.30120845603E+02 -0.41095948480E+02  0.49789268648E+02  0.18811124568E+03  0.17409976209E+03 0.  0.
        -24    2    3    3    0    0 -0.53369606192E+02 -0.14104535826E+02 -0.29799680607E+02  0.10078695313E+03  0.78884321393E+02 0.  0.
          6    2    1    2  502    0  0.30120845603E+02  0.41095948480E+02  0.58596595118E+03  0.61188469498E+03  0.16867318010E+03 0.  0.
         24    2    5    5    0    0  0.17610965430E+02  0.70080458884E+02  0.56126828902E+03  0.57152799217E+03  0.80004604597E+02 0.  0.
          4    1    6    6  501    0 -0.11553041311E+02  0.75967171854E+02  0.36337448914E+03  0.37141015511E+03  0.00000000000E+00 0. -1.
         -3    1    6    6    0  501  0.29164006741E+02 -0.58867129693E+01  0.19789379987E+03  0.20011783705E+03  0.00000000000E+00 0.  1.
          5    1    5    5  502    0  0.12509880173E+02 -0.28984510405E+02  0.24697662167E+02  0.40356702812E+02  0.47000000000E+01 0. -1.
         13    1    4    4    0    0  0.11638732581E+02  0.19755889854E+02 -0.85385137598E+01  0.24467560100E+02  0.00000000000E+00 0. -1.
        -14    1    4    4    0    0 -0.65008338773E+02 -0.33860425680E+02 -0.21261166847E+02  0.76319393033E+02  0.00000000000E+00 0.  1.
         -5    1    3    3    0  504  0.23248760588E+02 -0.26991412654E+02  0.79588949255E+02  0.87324292550E+02  0.47000000000E+01 0.  1.
<mgrwt>
<rscale>  2 0.18008790E+03</rscale>
<asrwt>0</asrwt>
<pdfrwt beam="1">  1       21 0.11044239E+00 0.18140251E+03</pdfrwt>
<pdfrwt beam="2">  1       21 0.12633902E-01 0.18140251E+03</pdfrwt>
<totfact> 0.34826278E+04</totfact>
</mgrwt>
</event>
<event>
12    1  0.2743855E-001  0.3136645E+03  0.7546771E-02  0.1079429E+00
         21   -1    0    0  502  503  0.00000000000E+00  0.00000000000E+00  0.50021222818E+03  0.50021222818E+03  0.00000000000E+00 0. -1.
         21   -1    0    0  503  504 -0.00000000000E+00 -0.00000000000E+00 -0.20388303071E+03  0.20388303071E+03  0.00000000000E+00 0.  1.
         -6    2    1    2    0  504 -0.51006483760E+02 -0.24834044798E+03  0.66079404524E+02  0.32054936028E+03  0.18469099919E+03 0.  0.
        -24    2    3    3    0    0 -0.29141090049E+02 -0.20953641259E+03  0.11609598071E+03  0.25341072387E+03  0.77356363058E+02 0.  0.
          6    2    1    2  502    0  0.51006483760E+02  0.24834044798E+03  0.23024979295E+03  0.38354589862E+03  0.17267845755E+03 0.  0.
         24    2    5    5    0    0  0.72169345900E+02  0.24858820939E+03  0.23800733159E+03  0.36051988017E+03  0.79514663873E+02 0.  0.
          2    1    6    6  501    0  0.25878370290E+02  0.20642496026E+03  0.18767174935E+03  0.28018144080E+03  0.00000000000E+00 0. -1.
         -1    1    6    6    0  501  0.46290975610E+02  0.42163249134E+02  0.50335582239E+02  0.80338439366E+02  0.00000000000E+00 0.  1.
          5    1    5    5  502    0 -0.21162862140E+02 -0.24776140645E+00 -0.77575386456E+01  0.23026018446E+02  0.47000000000E+01 0. -1.
         11    1    4    4    0    0  0.26653742454E+02 -0.64471875196E+02  0.33189826204E+02  0.77256774729E+02  0.00000000000E+00 0. -1.
        -12    1    4    4    0    0 -0.55794832503E+02 -0.14506453739E+03  0.82906154509E+02  0.17615394914E+03  0.00000000000E+00 0.  1.
         -5    1    3    3    0  504 -0.21865393711E+02 -0.38804035393E+02 -0.50016576189E+02  0.67138636407E+02  0.47000000000E+01 0.  1.
<mgrwt>
<rscale>  2 0.31192011E+03</rscale>
<asrwt>0</asrwt>
<pdfrwt beam="1">  1       21 0.76955727E-01 0.31366448E+03</pdfrwt>
<pdfrwt beam="2">  1       21 0.31366620E-01 0.31366448E+03</pdfrwt>
<totfact> 0.13764691E+04</totfact>
</mgrwt>
</event>
<event>
12    1  0.2743855E-001  0.2123764E+03  0.7546771E-02  0.1140605E+00
         21   -1    0    0  502  503  0.00000000000E+00  0.00000000000E+00  0.21256567699E+04  0.21256567699E+04  0.00000000000E+00 0. -1.
         21   -1    0    0  503  504 -0.00000000000E+00 -0.00000000000E+00 -0.21824095055E+02  0.21824095055E+02  0.00000000000E+00 0. -1.
         -6    2    1    2    0  504  0.77896057541E+02 -0.91945880722E+02  0.82599920886E+03  0.85286483611E+03  0.17487679911E+03 0.  0.
        -24    2    3    3    0    0  0.74923771458E+02  0.98437332196E+01  0.38093761369E+03  0.39627763361E+03  0.78816411741E+02 0.  0.
          6    2    1    2  502    0 -0.77896057541E+02  0.91945880722E+02  0.12778334660E+04  0.12946160289E+04  0.16926445168E+03 0.  0.
         24    2    5    5    0    0 -0.32962060682E+02  0.12486145764E+03  0.89147012863E+03  0.90423004328E+03  0.78968980489E+02 0.  0.
          2    1    6    6  501    0  0.12602759763E+02  0.85054391591E+02  0.63062632341E+03  0.63646102698E+03  0.00000000000E+00 0. -1.
         -1    1    6    6    0  501 -0.45564820445E+02  0.39807066052E+02  0.26084380522E+03  0.26776901630E+03  0.00000000000E+00 0.  1.
          5    1    5    5  502    0 -0.44933996859E+02 -0.32915576922E+02  0.38636333740E+03  0.39038598561E+03  0.47000000000E+01 0. -1.
         11    1    4    4    0    0  0.57959805208E+02 -0.30132593730E+02  0.21112912692E+03  0.22100411864E+03  0.00000000000E+00 0. -1.
        -12    1    4    4    0    0  0.16963966250E+02  0.39976326950E+02  0.16980848677E+03  0.17527351496E+03  0.00000000000E+00 0.  1.
         -5    1    3    3    0  504  0.29722860827E+01 -0.10178961394E+03  0.44506159517E+03  0.45658720250E+03  0.47000000000E+01 0.  1.
<mgrwt>
<rscale>  2 0.21121771E+03</rscale>
<asrwt>0</asrwt>
<pdfrwt beam="1">  1       21 0.32702395E+00 0.21237640E+03</pdfrwt>
<pdfrwt beam="2">  1       21 0.33575548E-02 0.21237640E+03</pdfrwt>
<totfact> 0.12247204E+04</totfact>
</mgrwt>
</event>
<event>
12    1  0.2743855E-001  0.1770379E+03  0.7546771E-02  0.1171176E+00
         21   -1    0    0  502  503  0.00000000000E+00  0.00000000000E+00  0.75542076856E+03  0.75542076856E+03  0.00000000000E+00 0.  1.
         21   -1    0    0  503  504 -0.00000000000E+00 -0.00000000000E+00 -0.31816532513E+03  0.31816532513E+03  0.00000000000E+00 0.  1.
         -6    2    1    2    0  504 -0.87695674733E+00 -0.28709132506E+02 -0.28219299030E+03  0.33312956985E+03  0.17469242454E+03 0.  0.
        -24    2    3    3    0    0  0.13014772625E+02 -0.16248198078E+02 -0.29709411870E+03  0.30879053414E+03  0.81567704160E+02 0.  0.
          6    2    1    2  502    0  0.87695674733E+00  0.28709132506E+02  0.71944843373E+03  0.74045652383E+03  0.17275656727E+03 0.  0.
         24    2    5    5    0    0 -0.46720890089E+02 -0.14083006909E+02  0.58097751821E+03  0.58783605776E+03  0.75067845798E+02 0.  0.
          2    1    6    6  501    0 -0.42932861790E+02 -0.10393076403E+02  0.13949589909E+03  0.14632276830E+03  0.00000000000E+00 0. -1.
         -1    1    6    6    0  501 -0.37880282990E+01 -0.36899305059E+01  0.44148161912E+03  0.44151328946E+03  0.00000000000E+00 0.  1.
          5    1    5    5  502    0  0.47597846837E+02  0.42792139415E+02  0.13847091552E+03  0.15262046607E+03  0.47000000000E+01 0. -1.
         13    1    4    4    0    0  0.22343723306E+02  0.28881102373E+02 -0.10236593048E+03  0.10868368676E+03  0.00000000000E+00 0. -1.
        -14    1    4    4    0    0 -0.93289506815E+01 -0.45129300451E+02 -0.19472818823E+03  0.20010684739E+03  0.00000000000E+00 0.  1.
         -5    1    3    3    0  504 -0.13891729372E+02 -0.12460934428E+02  0.14901128399E+02  0.24339035711E+02  0.47000000000E+01 0.  1.
<mgrwt>
<rscale>  2 0.17655850E+03</rscale>
<asrwt>0</asrwt>
<pdfrwt beam="1">  1       21 0.11621858E+00 0.17703792E+03</pdfrwt>
<pdfrwt beam="2">  1       21 0.48948512E-01 0.17703792E+03</pdfrwt>
<totfact> 0.23090342E+03</totfact>
</mgrwt>
</event>
<event>
12    1  0.2743855E-001  0.1886814E+03  0.7546771E-02  0.1159715E+00
         21   -1    0    0  502  503  0.00000000000E+00  0.00000000000E+00  0.85593000582E+03  0.85593000582E+03  0.00000000000E+00 0. -1.
         21   -1    0    0  503  504 -0.00000000000E+00 -0.00000000000E+00 -0.43054562367E+02  0.43054562367E+02  0.00000000000E+00 0.  1.
         -6    2    1    2    0  504 -0.73042428901E+02 -0.28502641021E+02  0.49059267624E+03  0.52553196574E+03  0.17133323107E+03 0.  0.
        -24    2    3    3    0    0 -0.80410659615E+02 -0.33715842477E+02  0.49864503158E+03  0.51255511250E+03  0.80394300892E+02 0.  0.
          6    2    1    2  502    0  0.73042428901E+02  0.28502641021E+02  0.32228276721E+03  0.37345260245E+03  0.17161895952E+03 0.  0.
         24    2    5    5    0    0 -0.21304115021E+02  0.53200449327E+01  0.89010627292E+02  0.12071423106E+03  0.78529393308E+02 0.  0.
          4    1    6    6  501    0 -0.18952386468E+02 -0.11253000292E+02  0.98863436407E+02  0.10129068085E+03  0.00000000000E+00 0. -1.
         -3    1    6    6    0  501 -0.23517285529E+01  0.16573045225E+02 -0.98528091146E+01  0.19423550207E+02  0.00000000000E+00 0.  1.
          5    1    5    5  502    0  0.94346543922E+02  0.23182596088E+02  0.23327213992E+03  0.25273837139E+03  0.47000000000E+01 0. -1.
         11    1    4    4    0    0 -0.28899635013E+02 -0.52011552389E+02  0.32847984632E+03  0.33382540335E+03  0.00000000000E+00 0. -1.
        -12    1    4    4    0    0 -0.51511024602E+02  0.18295709911E+02  0.17016518526E+03  0.17872970915E+03  0.00000000000E+00 0.  1.
         -5    1    3    3    0  504  0.73682307144E+01  0.52132014565E+01 -0.80523553451E+01  0.12976853235E+02  0.47000000000E+01 0.  1.
<mgrwt>
<rscale>  2 0.18861639E+03</rscale>
<asrwt>0</asrwt>
<pdfrwt beam="1">  1       21 0.13168153E+00 0.18868138E+03</pdfrwt>
<pdfrwt beam="2">  1       21 0.66237795E-02 0.18868138E+03</pdfrwt>
<totfact> 0.69758548E+04</totfact>
</mgrwt>
</event>
<event>
12    1  0.2743855E-001  0.2158091E+03  0.7546771E-02  0.1137364E+00
         21   -1    0    0  502  503  0.00000000000E+00  0.00000000000E+00  0.75080660823E+03  0.75080660823E+03  0.00000000000E+00 0.  1.
         21   -1    0    0  503  504 -0.00000000000E+00 -0.00000000000E+00 -0.94344705574E+02  0.94344705574E+02  0.00000000000E+00 0.  1.
         -6    2    1    2    0  504 -0.10538751481E+03 -0.73084661402E+02  0.78295056162E+02  0.22802048841E+03  0.17150898317E+03 0.  0.
        -24    2    3    3    0    0 -0.12787931478E+03 -0.30860135633E+02  0.24108866569E+02  0.15558413853E+03  0.79496664044E+02 0.  0.
          6    2    1    2  502    0  0.10538751481E+03  0.73084661402E+02  0.57816684649E+03  0.61713082539E+03  0.17356744294E+03 0.  0.
         24    2    5    5    0    0  0.68202775373E+02 -0.19296649806E+02  0.40337931099E+03  0.41591009068E+03  0.72404114075E+02 0.  0.
          4    1    6    6  501    0  0.52132460102E+02 -0.36410379323E+02  0.17262051632E+03  0.18396019073E+03  0.00000000000E+00 0. -1.
         -3    1    6    6    0  501  0.16070315271E+02  0.17113729517E+02  0.23075879467E+03  0.23194989995E+03  0.00000000000E+00 0.  1.
          5    1    5    5  502    0  0.37184739442E+02  0.92381311208E+02  0.17478753550E+03  0.20122073470E+03  0.47000000000E+01 0. -1.
         13    1    4    4    0    0 -0.64321320344E+02  0.23262853942E+02  0.22783589539E+02  0.72093582077E+02  0.00000000000E+00 0. -1.
        -14    1    4    4    0    0 -0.63557994438E+02 -0.54122989575E+02  0.13252770299E+01  0.83490556452E+02  0.00000000000E+00 0.  1.
         -5    1    3    3    0  504  0.22491799968E+02 -0.42224525768E+02  0.54186189593E+02  0.72436349886E+02  0.47000000000E+01 0.  1.
<mgrwt>
<rscale>  2 0.21539486E+03</rscale>
<asrwt>0</asrwt>
<pdfrwt beam="1">  1       21 0.11550871E+00 0.21580907E+03</pdfrwt>
<pdfrwt beam="2">  1       21 0.14514571E-01 0.21580907E+03</pdfrwt>
<totfact> 0.23821163E+04</totfact>
</mgrwt>
</event>
<event>
12    1  0.2743855E-001  0.1774574E+03  0.7546771E-02  0.1170756E+00
         21   -1    0    0  502  503  0.00000000000E+00  0.00000000000E+00  0.35680186156E+03  0.35680186156E+03  0.00000000000E+00 0. -1.
         21   -1    0    0  503  504 -0.00000000000E+00 -0.00000000000E+00 -0.10720478352E+03  0.10720478352E+03  0.00000000000E+00 0. -1.
         -6    2    1    2    0  504  0.51542336116E+01 -0.26328877930E+02  0.25428084021E+02  0.17926999587E+03  0.17541769587E+03 0.  0.
        -24    2    3    3    0    0 -0.12253387673E+02 -0.59173343974E+02  0.69613129256E+02  0.12133734142E+03  0.78899508947E+02 0.  0.
          6    2    1    2  502    0 -0.51542336116E+01  0.26328877930E+02  0.22416899402E+03  0.28473664921E+03  0.17350344546E+03 0.  0.
         24    2    5    5    0    0 -0.16205471575E+02  0.73768516527E+01  0.20535465839E+02  0.79870807840E+02  0.75103963534E+02 0.  0.
          2    1    6    6  501    0  0.11184658951E+02  0.29378536700E+02 -0.10346884258E+02  0.33094607240E+02  0.00000000000E+00 0. -1.
         -1    1    6    6    0  501 -0.27390130526E+02 -0.22001685048E+02  0.30882350097E+02  0.46776200601E+02  0.00000000000E+00 0.  1.
          5    1    5    5  502    0  0.11051237963E+02  0.18952026277E+02  0.20363352818E+03  0.20486584137E+03  0.47000000000E+01 0. -1.
         13    1    4    4    0    0  0.76812081697E+01 -0.59003134204E+02  0.12438936281E+02  0.60787317268E+02  0.00000000000E+00 0. -1.
        -14    1    4    4    0    0 -0.19934595843E+02 -0.17020977019E+00  0.57174192974E+02  0.60550024154E+02  0.00000000000E+00 0.  1.
         -5    1    3    3    0  504  0.17407621285E+02  0.32844466045E+02 -0.44185045234E+02  0.57932654444E+02  0.47000000000E+01 0.  1.
<mgrwt>
<rscale>  2 0.17698254E+03</rscale>
<asrwt>0</asrwt>
<pdfrwt beam="1">  1       21 0.54892594E-01 0.17745744E+03</pdfrwt>
<pdfrwt beam="2">  1       21 0.16493044E-01 0.17745744E+03</pdfrwt>
<totfact> 0.10389584E+05</totfact>
</mgrwt>
</event>
<event>
12    1  0.2743855E-001  0.2533807E+03  0.7546771E-02  0.1111201E+00
         21   -1    0    0  502  503  0.00000000000E+00  0.00000000000E+00  0.30293480441E+03  0.30293480441E+03  0.00000000000E+00 0.  1.
         21   -1    0    0  503  504 -0.00000000000E+00 -0.00000000000E+00 -0.82775339783E+03  0.82775339783E+03  0.00000000000E+00 0. -1.
         -6    2    1    2    0  504  0.85279828121E+02 -0.16426052166E+03 -0.75005669824E+03  0.79166907856E+03  0.17291822144E+03 0.  0.
        -24    2    3    3    0    0  0.61056572982E+02 -0.18788784425E+03 -0.57412914727E+03  0.61245521287E+03  0.80295472534E+02 0.  0.
          6    2    1    2  502    0 -0.85279828121E+02  0.16426052166E+03  0.22523810482E+03  0.33901912368E+03  0.17305373239E+03 0.  0.
         24    2    5    5    0    0 -0.30379072926E+01  0.14157522001E+03  0.17841490505E+03  0.24158782229E+03  0.80498607035E+02 0.  0.
          4    1    6    6  501    0  0.25317287903E+02  0.79085715737E+02  0.52661627091E+02  0.98329865597E+02  0.00000000000E+00 0. -1.
         -3    1    6    6    0  501 -0.28355195196E+02  0.62489504270E+02  0.12575327796E+03  0.14325795670E+03  0.00000000000E+00 0.  1.
          5    1    5    5  502    0 -0.82241920828E+02  0.22685301655E+02  0.46823199768E+02  0.97431301383E+02  0.47000000000E+01 0. -1.
         11    1    4    4    0    0  0.43689539559E+02 -0.62203625276E+02 -0.13034885316E+03  0.15089363931E+03  0.00000000000E+00 0. -1.
        -12    1    4    4    0    0  0.17367033422E+02 -0.12568421898E+03 -0.44378029411E+03  0.46156157356E+03  0.00000000000E+00 0.  1.
         -5    1    3    3    0  504  0.24223255139E+02  0.23627322591E+02 -0.17592755097E+03  0.17921386569E+03  0.47000000000E+01 0.  1.
<mgrwt>
<rscale>  2 0.25335753E+03</rscale>
<asrwt>0</asrwt>
<pdfrwt beam="1">  1       21 0.46605355E-01 0.25338067E+03</pdfrwt>
<pdfrwt beam="2">  1       21 0.12734668E+00 0.25338067E+03</pdfrwt>
<totfact> 0.19082811E+03</totfact>
</mgrwt>
</event>
<event>
12    1  0.2743855E-001  0.2260155E+03  0.7546771E-02  0.1129680E+00
         21   -1    0    0  502  503  0.00000000000E+00  0.00000000000E+00  0.25505625180E+03  0.25505625180E+03  0.00000000000E+00 0.  1.
         21   -1    0    0  503  504 -0.00000000000E+00 -0.00000000000E+00 -0.20026578445E+03  0.20026578445E+03  0.00000000000E+00 0.  1.
         -6    2    1    2    0  504  0.11541871206E+03  0.86503648283E+02  0.43424751882E+02  0.23014936708E+03  0.17400764877E+03 0.  0.
        -24    2    3    3    0    0  0.56567973208E+02  0.22035763017E+02  0.86185495514E+02  0.13283498536E+03  0.80818829819E+02 0.  0.
          6    2    1    2  502    0 -0.11541871206E+03 -0.86503648283E+02  0.11365715466E+02  0.22517266916E+03  0.17253750661E+03 0.  0.
         24    2    5    5    0    0 -0.12085851895E+03 -0.12105086402E+03  0.12637893191E+02  0.18986247162E+03  0.81412213457E+02 0.  0.
          2    1    6    6  501    0 -0.55106715688E+02 -0.29663775740E+02  0.39647290680E+02  0.74085068424E+02  0.00000000000E+00 0. -1.
         -1    1    6    6    0  501 -0.65751803264E+02 -0.91387088283E+02 -0.27009397489E+02  0.11577740319E+03  0.00000000000E+00 0.  1.
          5    1    5    5  502    0  0.54398068872E+01  0.34547215740E+02 -0.12721777246E+01  0.35310197543E+02  0.47000000000E+01 0. -1.
         11    1    4    4    0    0 -0.79837061509E+01 -0.16699801251E+02  0.41122888363E+02  0.45096727964E+02  0.00000000000E+00 0. -1.
        -12    1    4    4    0    0  0.64551679359E+02  0.38735564268E+02  0.45062607151E+02  0.87738257394E+02  0.00000000000E+00 0.  1.
         -5    1    3    3    0  504  0.58850738857E+02  0.64467885266E+02 -0.42760743632E+02  0.97314381726E+02  0.47000000000E+01 0.  1.
<mgrwt>
<rscale>  2 0.22573253E+03</rscale>
<asrwt>0</asrwt>
<pdfrwt beam="1">  1       21 0.39239423E-01 0.22601554E+03</pdfrwt>
<pdfrwt beam="2">  1       21 0.30810121E-01 0.22601554E+03</pdfrwt>
<totfact> 0.62415376E+04</totfact>
</mgrwt>
</event>
<event>
12    1  0.2743855E-001  0.1997300E+03  0.7546771E-02  0.1150684E+00
         21   -1    0    0  502  503  0.00000000000E+00  0.00000000000E+00  0.82843371557E+03  0.82843371557E+03  0.00000000000E+00 0. -1.
         21   -1    0    0  503  504 -0.00000000000E+00 -0.00000000000E+00 -0.61771859957E+02  0.61771859957E+02  0.00000000000E+00 0. -1.
         -6    2    1    2    0  504 -0.48646070528E+02  0.78865833259E+02  0.17073520645E+03  0.26275959066E+03  0.17693454137E+03 0.  0.
        -24    2    3    3    0    0 -0.67655087151E+02  0.98917615632E+02  0.18237243271E+03  0.23241273375E+03  0.79962923267E+02 0.  0.
          6    2    1    2  502    0  0.48646070528E+02 -0.78865833259E+02  0.59592664917E+03  0.62744598487E+03  0.17312894878E+03 0.  0.
         24    2    5    5    0    0 -0.15823816191E+02 -0.12147687194E+02  0.42488762236E+03  0.43280756112E+03  0.79968330391E+02 0.  0.
          2    1    6    6  501    0 -0.35870941686E+02  0.36222797643E+01  0.37545783856E+03  0.37718488027E+03  0.00000000000E+00 0. -1.
         -1    1    6    6    0  501  0.20047125495E+02 -0.15769966958E+02  0.49429783798E+02  0.55622680849E+02  0.00000000000E+00 0.  1.
          5    1    5    5  502    0  0.64469886719E+02 -0.66718146065E+02  0.17103902681E+03  0.19463842375E+03  0.47000000000E+01 0. -1.
         11    1    4    4    0    0 -0.80627180669E+02  0.59532103762E+02  0.10856020113E+03  0.14775023151E+03  0.00000000000E+00 0. -1.
        -12    1    4    4    0    0  0.12972093518E+02  0.39385511871E+02  0.73812231574E+02  0.84662502240E+02  0.00000000000E+00 0.  1.
         -5    1    3    3    0  504  0.19009016623E+02 -0.20051782373E+02 -0.11637226260E+02  0.30346856910E+02  0.47000000000E+01 0.  1.
<mgrwt>
<rscale>  2 0.19888386E+03</rscale>
<asrwt>0</asrwt>
<pdfrwt beam="1">  1       21 0.12745133E+00 0.19973005E+03</pdfrwt>
<pdfrwt beam="2">  1       21 0.95033636E-02 0.19973005E+03</pdfrwt>
<totfact> 0.40172440E+04</totfact>
</mgrwt>
</event>
<event>
12    1  0.2743855E-001  0.1849029E+03  0.7546771E-02  0.1163300E+00
         21   -1    0    0  502  503  0.00000000000E+00  0.00000000000E+00  0.53796260801E+03  0.53796260801E+03  0.00000000000E+00 0.  1.
         21   -1    0    0  503  504 -0.00000000000E+00 -0.00000000000E+00 -0.10588845748E+03  0.10588845748E+03  0.00000000000E+00 0.  1.
         -6    2    1    2    0  504  0.39783948667E+02  0.50530061589E+02  0.12159220070E+02  0.18530222127E+03  0.17335805975E+03 0.  0.
        -24    2    3    3    0    0 -0.25134220551E+02  0.44713599119E+02 -0.44664430754E+02  0.98704200377E+02  0.71530223044E+02 0.  0.
          6    2    1    2  502    0 -0.39783948667E+02 -0.50530061589E+02  0.41991493046E+03  0.45854884422E+03  0.17263384377E+03 0.  0.
         24    2    5    5    0    0  0.22218837036E+02 -0.52258638697E+02  0.36469821428E+03  0.37537247041E+03  0.68374425101E+02 0.  0.
          4    1    6    6  501    0  0.19641299768E+02 -0.68962143611E+02  0.30604038897E+03  0.31432829587E+03  0.00000000000E+00 0. -1.
         -3    1    6    6    0  501  0.25775372672E+01  0.16703504914E+02  0.58657825312E+02  0.61044174539E+02  0.00000000000E+00 0.  1.
          5    1    5    5  502    0 -0.62002785703E+02  0.17285771076E+01  0.55216716180E+02  0.83176373805E+02  0.47000000000E+01 0. -1.
         11    1    4    4    0    0 -0.52434373478E+01  0.58513854967E+02 -0.15417897826E+02  0.60737767753E+02  0.00000000000E+00 0. -1.
        -12    1    4    4    0    0 -0.19890783203E+02 -0.13800255848E+02 -0.29246532928E+02  0.37966432624E+02  0.00000000000E+00 0.  1.
         -5    1    3    3    0  504  0.64918169218E+02  0.58164624703E+01  0.56823650823E+02  0.86598020896E+02  0.47000000000E+01 0.  1.
<mgrwt>
<rscale>  2 0.18473292E+03</rscale>
<asrwt>0</asrwt>
<pdfrwt beam="1">  1       21 0.82763477E-01 0.18490286E+03</pdfrwt>
<pdfrwt beam="2">  1       21 0.16290532E-01 0.18490286E+03</pdfrwt>
<totfact> 0.43129212E+04</totfact>
</mgrwt>
</event>
<event>
12    1  0.2743855E-001  0.1852176E+03  0.7546771E-02  0.1162998E+00
         21   -1    0    0  502  503  0.00000000000E+00  0.00000000000E+00  0.56602602736E+03  0.56602602736E+03  0.00000000000E+00 0. -1.
         21   -1    0    0  503  504 -0.00000000000E+00 -0.00000000000E+00 -0.77552060460E+02  0.77552060460E+02  0.00000000000E+00 0. -1.
         -6    2    1    2    0  504  0.25602035453E+01  0.65660835675E+02  0.92551246189E+02  0.20647357259E+03  0.17247522437E+03 0.  0.
        -24    2    3    3    0    0  0.17589041095E+02  0.10863959751E+03  0.81794878989E+02  0.15945411531E+03  0.81383512759E+02 0.  0.
          6    2    1    2  502    0 -0.25602035453E+01 -0.65660835675E+02  0.39592272071E+03  0.43710451523E+03  0.17316944441E+03 0.  0.
         24    2    5    5    0    0 -0.34631411438E+02 -0.41771766069E+02  0.97014736863E+02  0.13549661940E+03  0.77480704701E+02 0.  0.
          2    1    6    6  501    0 -0.43044597254E+02 -0.60157819975E+02  0.70834463873E+02  0.10241739076E+03  0.00000000000E+00 0. -1.
         -1    1    6    6    0  501  0.84131858158E+01  0.18386053906E+02  0.26180272990E+02  0.33079228643E+02  0.00000000000E+00 0.  1.
          5    1    5    5  502    0  0.32071207893E+02 -0.23889069605E+02  0.29890798384E+03  0.30160789583E+03  0.47000000000E+01 0. -1.
         13    1    4    4    0    0  0.12141311417E+02  0.44259027300E+02 -0.10222306005E+02  0.47018809859E+02  0.00000000000E+00 0. -1.
        -14    1    4    4    0    0  0.54477296785E+01  0.64380570207E+02  0.92017184994E+02  0.11243530546E+03  0.00000000000E+00 0.  1.
         -5    1    3    3    0  504 -0.15028837550E+02 -0.42978761832E+02  0.10756367201E+02  0.47019457271E+02  0.47000000000E+01 0.  1.
<mgrwt>
<rscale>  2 0.18505515E+03</rscale>
<asrwt>0</asrwt>
<pdfrwt beam="1">  1       21 0.87080925E-01 0.18521759E+03</pdfrwt>
<pdfrwt beam="2">  1       21 0.11931087E-01 0.18521759E+03</pdfrwt>
<totfact> 0.67434791E+04</totfact>
</mgrwt>
</event>
<event>
12    1  0.2743855E-001  0.2913917E+03  0.7546771E-02  0.1090311E+00
         21   -1    0    0  502  503  0.00000000000E+00  0.00000000000E+00  0.17063828855E+03  0.17063828855E+03  0.00000000000E+00 0.  1.
         21   -1    0    0  503  504 -0.00000000000E+00 -0.00000000000E+00 -0.57154648374E+03  0.57154648374E+03  0.00000000000E+00 0. -1.
         -6    2    1    2    0  504 -0.44330039225E+02 -0.22081992449E+03 -0.34018340263E+03  0.44453291634E+03  0.17651678348E+03 0.  0.
        -24    2    3    3    0    0 -0.64711604868E+02 -0.22722696964E+03 -0.34040937786E+03  0.42265599904E+03  0.83305830853E+02 0.  0.
          6    2    1    2  502    0  0.44330039225E+02  0.22081992449E+03 -0.60724792556E+02  0.29765185595E+03  0.18488519543E+03 0.  0.
         24    2    5    5    0    0 -0.42463876629E+02  0.13468849203E+03 -0.25783148222E+01  0.16217156085E+03  0.79679336963E+02 0.  0.
          4    1    6    6  501    0 -0.45590954819E+02  0.13346648546E+03  0.17224357280E+02  0.14208629908E+03  0.00000000000E+00 0. -1.
         -3    1    6    6    0  501  0.31270781901E+01  0.12220065665E+01 -0.19802672102E+02  0.20085261772E+02  0.00000000000E+00 0.  1.
          5    1    5    5  502    0  0.86793915853E+02  0.86131432463E+02 -0.58146477734E+02  0.13548029510E+03  0.47000000000E+01 0. -1.
         11    1    4    4    0    0 -0.15563563638E+02 -0.66424487608E+01 -0.40046780292E+01  0.17389194483E+02  0.00000000000E+00 0. -1.
        -12    1    4    4    0    0 -0.49148041230E+02 -0.22058452088E+03 -0.33640469983E+03  0.40526680456E+03  0.00000000000E+00 0.  1.
         -5    1    3    3    0  504  0.20381565643E+02  0.64070451486E+01  0.22597522476E+00  0.21876917297E+02  0.47000000000E+01 0.  1.
<mgrwt>
<rscale>  2 0.29007365E+03</rscale>
<asrwt>0</asrwt>
<pdfrwt beam="1">  1       21 0.26252045E-01 0.29139171E+03</pdfrwt>
<pdfrwt beam="2">  1       21 0.87930228E-01 0.29139171E+03</pdfrwt>
<totfact> 0.14493444E+04</totfact>
</mgrwt>
</event>
<event>
12    1  0.2743855E-001  0.1805167E+03  0.7546771E-02  0.1168140E+00
         21   -1    0    0  502  503  0.00000000000E+00  0.00000000000E+00  0.59123414897E+03  0.59123414897E+03  0.00000000000E+00 0.  1.
         21   -1    0    0  503  504 -0.00000000000E+00 -0.00000000000E+00 -0.73983328026E+03  0.73983328026E+03  0.00000000000E+00 0.  1.
         -6    2    1    2    0  504  0.42383045166E+02  0.33981020136E+02 -0.71510048892E+03  0.73753305199E+03  0.17214895084E+03 0.  0.
        -24    2    3    3    0    0  0.26381344723E+02  0.66757347345E+01 -0.15481693066E+03  0.17633666151E+03  0.79911171876E+02 0.  0.
          6    2    1    2  502    0 -0.42383045166E+02 -0.33981020136E+02  0.56650135763E+03  0.59353437724E+03  0.16854743107E+03 0.  0.
         24    2    5    5    0    0 -0.78305099055E+02 -0.64406165350E+02  0.38189935308E+03  0.40296661107E+03  0.79089386672E+02 0.  0.
          2    1    6    6  501    0 -0.19480937275E+02  0.84006516940E+01  0.19990306210E+02  0.29149446107E+02  0.00000000000E+00 0. -1.
         -1    1    6    6    0  501 -0.58824161781E+02 -0.72806817044E+02  0.36190904687E+03  0.37381716497E+03  0.00000000000E+00 0.  1.
          5    1    5    5  502    0  0.35922053890E+02  0.30425145214E+02  0.18460200455E+03  0.19056776616E+03  0.47000000000E+01 0. -1.
         11    1    4    4    0    0  0.49152632102E+02 -0.36356320306E+01 -0.56894676118E+02  0.75274187032E+02  0.00000000000E+00 0. -1.
        -12    1    4    4    0    0 -0.22771287379E+02  0.10311366765E+02 -0.97922254542E+02  0.10106247448E+03  0.00000000000E+00 0.  1.
         -5    1    3    3    0  504  0.16001700442E+02  0.27305285401E+02 -0.56028355826E+03  0.56119639048E+03  0.47000000000E+01 0.  1.
<mgrwt>
<rscale>  2 0.17965274E+03</rscale>
<asrwt>0</asrwt>
<pdfrwt beam="1">  1       21 0.90959100E-01 0.18051674E+03</pdfrwt>
<pdfrwt beam="2">  1       21 0.11382050E+00 0.18051674E+03</pdfrwt>
<totfact> 0.62465933E+02</totfact>
</mgrwt>
</event>
<event>
12    1  0.2743855E-001  0.2417489E+03  0.7546771E-02  0.1120487E+00
         21   -1    0    0  502  503  0.00000000000E+00  0.00000000000E+00  0.44159434387E+02  0.44159434387E+02  0.00000000000E+00 0.  1.
         21   -1    0    0  503  504 -0.00000000000E+00 -0.00000000000E+00 -0.12768177244E+04  0.12768177244E+04  0.00000000000E+00 0.  1.
         -6    2    1    2    0  504 -0.14495632109E+03  0.42476545555E+02 -0.53634203753E+03  0.58388907967E+03  0.17449092869E+03 0.  0.
        -24    2    3    3    0    0 -0.13793760134E+03 -0.12578805796E+02 -0.29661080352E+03  0.33777221983E+03  0.83229174606E+02 0.  0.
          6    2    1    2  502    0  0.14495632109E+03 -0.42476545555E+02 -0.69631625252E+03  0.73708807915E+03  0.18874830054E+03 0.  0.
         24    2    5    5    0    0  0.10477089681E+03 -0.93337199076E+02 -0.59982880844E+03  0.62075411478E+03  0.76500313934E+02 0.  0.
          4    1    6    6  501    0  0.38103578721E+02 -0.77545901030E+02 -0.25665329668E+03  0.27080650689E+03  0.00000000000E+00 0. -1.
         -3    1    6    6    0  501  0.66667318090E+02 -0.15791298046E+02 -0.34317551177E+03  0.34994760789E+03  0.00000000000E+00 0.  1.
          5    1    5    5  502    0  0.40185424276E+02  0.50860653520E+02 -0.96487444079E+02  0.11633396437E+03  0.47000000000E+01 0. -1.
         11    1    4    4    0    0 -0.81445075778E+02  0.20965957780E+02 -0.22687615038E+03  0.24196210316E+03  0.00000000000E+00 0. -1.
        -12    1    4    4    0    0 -0.56492525563E+02 -0.33544763576E+02 -0.69734653136E+02  0.95810116667E+02  0.00000000000E+00 0.  1.
         -5    1    3    3    0  504 -0.70187197457E+01  0.55055351352E+02 -0.23973123401E+03  0.24611685984E+03  0.47000000000E+01 0.  1.
<mgrwt>
<rscale>  2 0.23896111E+03</rscale>
<asrwt>0</asrwt>
<pdfrwt beam="1">  1       21 0.67937578E-02 0.24174886E+03</pdfrwt>
<pdfrwt beam="2">  1       21 0.19643353E+00 0.24174886E+03</pdfrwt>
<totfact> 0.21804477E+04</totfact>
</mgrwt>
</event>
<event>
12    1  0.2743855E-001  0.2002648E+03  0.7546771E-02  0.1149539E+00
         21   -1    0    0  502  503  0.00000000000E+00  0.00000000000E+00  0.11462009195E+03  0.11462009195E+03  0.00000000000E+00 0.  1.
         21   -1    0    0  503  504 -0.00000000000E+00 -0.00000000000E+00 -0.68344949487E+03  0.68344949487E+03  0.00000000000E+00 0.  1.
         -6    2    1    2    0  504 -0.98249470736E+02 -0.92381899506E+01 -0.56329572543E+03  0.59783615155E+03  0.17426326965E+03 0.  0.
        -24    2    3    3    0    0 -0.18178811819E+02  0.50100289099E+02 -0.33132547374E+03  0.34531951212E+03  0.81415525148E+02 0.  0.
          6    2    1    2  502    0  0.98249470736E+02  0.92381899506E+01 -0.55336774887E+01  0.20023343528E+03  0.17413932457E+03 0.  0.
         24    2    5    5    0    0  0.72408917224E+02 -0.57611426648E+02  0.18118685640E+02  0.12461511920E+03  0.81477072780E+02 0.  0.
          4    1    6    6  501    0 -0.27214899675E+01 -0.38918123814E+02  0.25863665054E+02  0.46807649363E+02  0.00000000000E+00 0. -1.
         -3    1    6    6    0  501  0.75130407191E+02 -0.18693302835E+02 -0.77449794144E+01  0.77807469833E+02  0.00000000000E+00 0.  1.
          5    1    5    5  502    0  0.25840553512E+02  0.66849616599E+02 -0.23652363129E+02  0.75618316080E+02  0.47000000000E+01 0. -1.
         11    1    4    4    0    0  0.29911230340E+02  0.34871131080E+02 -0.18176853399E+03  0.18748460586E+03  0.00000000000E+00 0. -1.
        -12    1    4    4    0    0 -0.48090042159E+02  0.15229158019E+02 -0.14955693975E+03  0.15783490627E+03  0.00000000000E+00 0.  1.
         -5    1    3    3    0  504 -0.80070658917E+02 -0.59338479049E+02 -0.23197025169E+03  0.25251663942E+03  0.47000000000E+01 0.  1.
<mgrwt>
<rscale>  2 0.20023783E+03</rscale>
<asrwt>0</asrwt>
<pdfrwt beam="1">  1       21 0.17633860E-01 0.20026480E+03</pdfrwt>
<pdfrwt beam="2">  1       21 0.10514608E+00 0.20026480E+03</pdfrwt>
<totfact> 0.21135060E+04</totfact>
</mgrwt>
</event>
<event>
12    1  0.2743855E-001  0.1800091E+03  0.7546771E-02  0.1167906E+00
         21   -1    0    0  502  503  0.00000000000E+00  0.00000000000E+00  0.21167518235E+03  0.21167518235E+03  0.00000000000E+00 0.  1.
         21   -1    0    0  503  504 -0.00000000000E+00 -0.00000000000E+00 -0.21364755047E+03  0.21364755047E+03  0.00000000000E+00 0.  1.
         -6    2    1    2    0  504 -0.48440466245E+02  0.77987230287E+01 -0.11458063280E+03  0.21299307415E+03  0.17271372086E+03 0.  0.
        -24    2    3    3    0    0  0.27029709297E+02  0.33973990573E+02 -0.27181180431E+02  0.94495621427E+02  0.79408870280E+02 0.  0.
          6    2    1    2  502    0  0.48440466245E+02 -0.77987230287E+01  0.11260826468E+03  0.21232965868E+03  0.17319342895E+03 0.  0.
         24    2    5    5    0    0  0.39354603996E+02  0.39087137363E+02  0.90016057285E+01  0.98148808376E+02  0.80470929639E+02 0.  0.
          4    1    6    6  501    0  0.56618608072E+01 -0.95963269359E+01 -0.26755926097E+02  0.28983197542E+02  0.00000000000E+00 0. -1.
         -3    1    6    6    0  501  0.33692743189E+02  0.48683464299E+02  0.35757531825E+02  0.69165610834E+02  0.00000000000E+00 0.  1.
          5    1    5    5  502    0  0.90858622484E+01 -0.46885860392E+02  0.10360665895E+03  0.11418085030E+03  0.47000000000E+01 0. -1.
         13    1    4    4    0    0  0.29682272341E+02  0.54238710089E+02 -0.36752439336E+02  0.71927858029E+02  0.00000000000E+00 0. -1.
        -14    1    4    4    0    0 -0.26525630441E+01 -0.20264719516E+02  0.95712589050E+01  0.22567763399E+02  0.00000000000E+00 0.  1.
         -5    1    3    3    0  504 -0.75470175542E+02 -0.26175267544E+02 -0.87399452367E+02  0.11849745272E+03  0.47000000000E+01 0.  1.
<mgrwt>
<rscale>  2 0.17989358E+03</rscale>
<asrwt>0</asrwt>
<pdfrwt beam="1">  1       21 0.32565413E-01 0.18000906E+03</pdfrwt>
<pdfrwt beam="2">  1       21 0.32868854E-01 0.18000906E+03</pdfrwt>
<totfact> 0.81268696E+04</totfact>
</mgrwt>
</event>
<event>
12    1  0.2743855E-001  0.2438676E+03  0.7546771E-02  0.1117406E+00
         21   -1    0    0  502  503  0.00000000000E+00  0.00000000000E+00  0.35659474604E+03  0.35659474604E+03  0.00000000000E+00 0.  1.
         21   -1    0    0  503  504 -0.00000000000E+00 -0.00000000000E+00 -0.17232416402E+03  0.17232416402E+03  0.00000000000E+00 0. -1.
         -6    2    1    2    0  504 -0.11797606047E+03 -0.12428223858E+03  0.41675332758E+02  0.24642144801E+03  0.17211121698E+03 0.  0.
        -24    2    3    3    0    0 -0.13062579437E+03 -0.14341751152E+03  0.14700778929E+02  0.21070183166E+03  0.80916427265E+02 0.  0.
          6    2    1    2  502    0  0.11797606047E+03  0.12428223858E+03  0.14259524926E+03  0.28249746205E+03  0.17351364581E+03 0.  0.
         24    2    5    5    0    0  0.13216569387E+03  0.57165464909E+02  0.14417918132E+03  0.21371806220E+03  0.64436889823E+02 0.  0.
          4    1    6    6  501    0  0.77877830248E+02  0.41591261984E+01  0.49432970193E+02  0.92335655718E+02  0.00000000000E+00 0. -1.
         -3    1    6    6    0  501  0.54287863618E+02  0.53006338711E+02  0.94746211128E+02  0.12138240648E+03  0.00000000000E+00 0.  1.
          5    1    5    5  502    0 -0.14189633393E+02  0.67116773669E+02 -0.15839320569E+01  0.68779399854E+02  0.47000000000E+01 0. -1.
         13    1    4    4    0    0  0.97560929472E+01 -0.23626168133E+02  0.37131326730E+01  0.25829528150E+02  0.00000000000E+00 0. -1.
        -14    1    4    4    0    0 -0.14038188732E+03 -0.11979134338E+03  0.10987646256E+02  0.18487230351E+03  0.00000000000E+00 0.  1.
         -5    1    3    3    0  504  0.12649733895E+02  0.19135272938E+02  0.26974553830E+02  0.35719616352E+02  0.47000000000E+01 0.  1.
<mgrwt>
<rscale>  2 0.24361827E+03</rscale>
<asrwt>0</asrwt>
<pdfrwt beam="1">  1       21 0.54860730E-01 0.24386761E+03</pdfrwt>
<pdfrwt beam="2">  1       21 0.26511410E-01 0.24386761E+03</pdfrwt>
<totfact> 0.41434767E+04</totfact>
</mgrwt>
</event>
<event>
12    1  0.2743855E-001  0.1736970E+03  0.7546771E-02  0.1174359E+00
         21   -1    0    0  502  503  0.00000000000E+00  0.00000000000E+00  0.75352631678E+02  0.75352631678E+02  0.00000000000E+00 0.  1.
         21   -1    0    0  503  504 -0.00000000000E+00 -0.00000000000E+00 -0.21037435945E+04  0.21037435945E+04  0.00000000000E+00 0.  1.
         -6    2    1    2    0  504  0.56044067307E+01 -0.33483640999E+01 -0.19960850873E+04  0.20036282920E+04  0.17357429576E+03 0.  0.
        -24    2    3    3    0    0 -0.17921801576E+02  0.43155738634E+02 -0.66381451581E+03  0.67033047099E+03  0.80682217325E+02 0.  0.
          6    2    1    2  502    0 -0.56044067307E+01  0.33483640999E+01 -0.32305875604E+02  0.17546793418E+03  0.17234472841E+03 0.  0.
         24    2    5    5    0    0  0.44942565228E+02  0.18424220378E+01  0.28507412485E+02  0.96236562594E+02  0.80159682666E+02 0.  0.
          2    1    6    6  501    0  0.23680084818E+02  0.96653734368E+01 -0.26449273242E+02  0.36793068855E+02  0.00000000000E+00 0. -1.
         -1    1    6    6    0  501  0.21262480409E+02 -0.78229513990E+01  0.54956685728E+02  0.59443493739E+02  0.00000000000E+00 0.  1.
          5    1    5    5  502    0 -0.50546971958E+02  0.15059420622E+01 -0.60813288089E+02  0.79231371589E+02  0.47000000000E+01 0. -1.
         11    1    4    4    0    0  0.29916826822E+02  0.21807282208E+02 -0.18567956592E+03  0.18933429506E+03  0.00000000000E+00 0. -1.
        -12    1    4    4    0    0 -0.47838628398E+02  0.21348456426E+02 -0.47813494989E+03  0.48099617593E+03  0.00000000000E+00 0.  1.
         -5    1    3    3    0  504  0.23526208307E+02 -0.46504102734E+02 -0.13322705715E+04  0.13332978211E+04  0.47000000000E+01 0.  1.
<mgrwt>
<rscale>  2 0.17338904E+03</rscale>
<asrwt>0</asrwt>
<pdfrwt beam="1">  1       21 0.11592715E-01 0.17369703E+03</pdfrwt>
<pdfrwt beam="2">  1       21 0.32365279E+00 0.17369703E+03</pdfrwt>
<totfact> 0.15984880E+03</totfact>
</mgrwt>
</event>
<event>
12    1  0.2743855E-001  0.1996941E+03  0.7546771E-02  0.1150083E+00
         21   -1    0    0  502  503  0.00000000000E+00  0.00000000000E+00  0.49576461866E+03  0.49576461866E+03  0.00000000000E+00 0.  1.
         21   -1    0    0  503  504 -0.00000000000E+00 -0.00000000000E+00 -0.84553068612E+02  0.84553068612E+02  0.00000000000E+00 0.  1.
         -6    2    1    2    0  504 -0.47595460822E+02  0.86172637888E+02  0.14052292852E+03  0.24418115884E+03  0.17374318254E+03 0.  0.
        -24    2    3    3    0    0  0.39221701126E+02  0.58675288770E+02  0.59843376179E+02  0.12242482847E+03  0.80159076859E+02 0.  0.
          6    2    1    2  502    0  0.47595460822E+02 -0.86172637888E+02  0.27068862152E+03  0.33613652843E+03  0.17327545849E+03 0.  0.
         24    2    5    5    0    0  0.40857106840E+02 -0.37158713916E+01  0.22235316077E+03  0.24020462278E+03  0.81081575109E+02 0.  0.
          2    1    6    6  501    0 -0.66856406171E+01  0.23362077379E+02  0.22924474817E+02  0.33406825583E+02  0.00000000000E+00 0. -1.
         -1    1    6    6    0  501  0.47542747457E+02 -0.27077948771E+02  0.19942868595E+03  0.20679779720E+03  0.00000000000E+00 0.  1.
          5    1    5    5  502    0  0.67383539818E+01 -0.82456766496E+02  0.48335460752E+02  0.95931905649E+02  0.47000000000E+01 0. -1.
         13    1    4    4    0    0  0.22310732786E+02 -0.16583305680E+02  0.62326373516E+01  0.28488955633E+02  0.00000000000E+00 0. -1.
        -14    1    4    4    0    0  0.16910968341E+02  0.75258594450E+02  0.53610738828E+02  0.93935872841E+02  0.00000000000E+00 0.  1.
         -5    1    3    3    0  504 -0.86817161948E+02  0.27497349118E+02  0.80679552345E+02  0.12175633036E+03  0.47000000000E+01 0.  1.
<mgrwt>
<rscale>  2 0.19959235E+03</rscale>
<asrwt>0</asrwt>
<pdfrwt beam="1">  1       21 0.76271478E-01 0.19969413E+03</pdfrwt>
<pdfrwt beam="2">  1       21 0.13008165E-01 0.19969413E+03</pdfrwt>
<totfact> 0.77503821E+04</totfact>
</mgrwt>
</event>
<event>
12    1  0.2743855E-001  0.2947204E+03  0.7546771E-02  0.1088011E+00
         21   -1    0    0  502  503  0.00000000000E+00  0.00000000000E+00  0.38748319658E+03  0.38748319658E+03  0.00000000000E+00 0.  1.
         21   -1    0    0  503  504 -0.00000000000E+00 -0.00000000000E+00 -0.43810974344E+03  0.43810974344E+03  0.00000000000E+00 0.  1.
         -6    2    1    2    0  504  0.92151171477E+02  0.22044191963E+03 -0.31416545080E+03  0.43022868352E+03  0.17120254471E+03 0.  0.
        -24    2    3    3    0    0 -0.97356096763E+01  0.57896096226E+02 -0.86758978045E+02  0.13267557107E+03  0.81418344577E+02 0.  0.
          6    2    1    2  502    0 -0.92151171477E+02 -0.22044191963E+03  0.26353890393E+03  0.39536425649E+03  0.17255046534E+03 0.  0.
         24    2    5    5    0    0 -0.32138887962E+02 -0.36856251292E+02  0.12817554795E+03  0.15946067463E+03  0.81286187525E+02 0.  0.
          2    1    6    6  501    0  0.22804101464E+02 -0.10831538381E+02  0.73432501852E+02  0.77651024434E+02  0.00000000000E+00 0. -1.
         -1    1    6    6    0  501 -0.54942989427E+02 -0.26024712910E+02  0.54743046101E+02  0.81809650198E+02  0.00000000000E+00 0.  1.
          5    1    5    5  502    0 -0.60012283514E+02 -0.18358566834E+03  0.13536335598E+03  0.23590358186E+03  0.47000000000E+01 0. -1.
         13    1    4    4    0    0  0.34031868057E+02  0.34345008840E+02 -0.28612502332E+02  0.56182051986E+02  0.00000000000E+00 0. -1.
        -14    1    4    4    0    0 -0.43767477733E+02  0.23551087386E+02 -0.58146475713E+02  0.76493519085E+02  0.00000000000E+00 0.  1.
         -5    1    3    3    0  504  0.10188678115E+03  0.16254582341E+03 -0.22740647275E+03  0.29755311245E+03  0.47000000000E+01 0.  1.
<mgrwt>
<rscale>  2 0.29452346E+03</rscale>
<asrwt>0</asrwt>
<pdfrwt beam="1">  1       21 0.59612800E-01 0.29472045E+03</pdfrwt>
<pdfrwt beam="2">  1       21 0.67401499E-01 0.29472045E+03</pdfrwt>
<totfact> 0.49556741E+03</totfact>
</mgrwt>
</event>
<event>
12    1  0.2743855E-001  0.1750552E+03  0.7546771E-02  0.1172795E+00
         21   -1    0    0  502  503  0.00000000000E+00  0.00000000000E+00  0.78174647119E+02  0.78174647119E+02  0.00000000000E+00 0.  1.
         21   -1    0    0  503  504 -0.00000000000E+00 -0.00000000000E+00 -0.48162100198E+03  0.48162100198E+03  0.00000000000E+00 0.  1.
         -6    2    1    2    0  504  0.22667555521E+02  0.14356190633E+02 -0.32295140112E+03  0.36712035546E+03  0.17251037540E+03 0.  0.
        -24    2    3    3    0    0 -0.11909795958E+02 -0.54537781859E+02 -0.16976670625E+03  0.19556974070E+03  0.79439134156E+02 0.  0.
          6    2    1    2  502    0 -0.22667555521E+02 -0.14356190633E+02 -0.80494953742E+02  0.19267529365E+03  0.17298674204E+03 0.  0.
         24    2    5    5    0    0  0.11955439977E+02  0.40789156923E+01 -0.11647979428E+03  0.13923744460E+03  0.75232661819E+02 0.  0.
          2    1    6    6  501    0 -0.66917033764E+01  0.35826866601E+02 -0.77361744298E+02  0.85517148838E+02  0.00000000000E+00 0. -1.
         -1    1    6    6    0  501  0.18647143353E+02 -0.31747950909E+02 -0.39118049982E+02  0.53720295760E+02  0.00000000000E+00 0.  1.
          5    1    5    5  502    0 -0.34622995498E+02 -0.18435106326E+02  0.35984840537E+02  0.53437849049E+02  0.47000000000E+01 0. -1.
         13    1    4    4    0    0 -0.44383022878E+02 -0.17280922547E+02 -0.80490231203E+02  0.93526254725E+02  0.00000000000E+00 0. -1.
        -14    1    4    4    0    0  0.32473226920E+02 -0.37256859312E+02 -0.89276475049E+02  0.10204348597E+03  0.00000000000E+00 0.  1.
         -5    1    3    3    0  504  0.34577351479E+02  0.68893972492E+02 -0.15318469487E+03  0.17155061476E+03  0.47000000000E+01 0.  1.
<mgrwt>
<rscale>  2 0.17493742E+03</rscale>
<asrwt>0</asrwt>
<pdfrwt beam="1">  1       21 0.12026869E-01 0.17505522E+03</pdfrwt>
<pdfrwt beam="2">  1       21 0.74095537E-01 0.17505522E+03</pdfrwt>
<totfact> 0.96149240E+04</totfact>
</mgrwt>
</event>
<event>
12    1  0.2743855E-001  0.2016018E+03  0.7546771E-02  0.1149480E+00
         21   -1    0    0  502  503  0.00000000000E+00  0.00000000000E+00  0.14913348376E+03  0.14913348376E+03  0.00000000000E+00 0.  1.
         21   -1    0    0  503  504 -0.00000000000E+00 -0.00000000000E+00 -0.28552286261E+03  0.28552286261E+03  0.00000000000E+00 0.  1.
         -6    2    1    2    0  504 -0.50139610233E+02  0.85809144333E+02 -0.12472207139E+03  0.23271724290E+03  0.16948312686E+03 0.  0.
        -24    2    3    3    0    0 -0.50191498033E+02  0.11174405529E+03 -0.12792928819E+03  0.20616543434E+03  0.10551001456E+03 0.  0.
          6    2    1    2  502    0  0.50139610233E+02 -0.85809144333E+02 -0.11667307467E+02  0.20193910347E+03  0.17540263875E+03 0.  0.
         24    2    5    5    0    0  0.55990735936E+02 -0.65390090309E+02 -0.71879178751E+02  0.13791775638E+03  0.80273686634E+02 0.  0.
          2    1    6    6  501    0  0.48908284415E+02 -0.37655549353E+02 -0.86112599687E+02  0.10594970744E+03  0.00000000000E+00 0. -1.
         -1    1    6    6    0  501  0.70824515209E+01 -0.27734540957E+02  0.14233420936E+02  0.31968048942E+02  0.00000000000E+00 0.  1.
          5    1    5    5  502    0 -0.58511257031E+01 -0.20419054024E+02  0.60211871284E+02  0.64021347086E+02  0.47000000000E+01 0. -1.
         11    1    4    4    0    0  0.96994444680E+01 -0.16775967127E+02 -0.21005985453E+02  0.28579078377E+02  0.00000000000E+00 0. -1.
        -12    1    4    4    0    0 -0.59890942501E+02  0.12852002241E+03 -0.10692330274E+03  0.17758635596E+03  0.00000000000E+00 0.  1.
         -5    1    3    3    0  504  0.51887800327E-01 -0.25934910954E+02  0.32072168041E+01  0.26551808567E+02  0.47000000000E+01 0.  1.
<mgrwt>
<rscale>  2 0.20030722E+03</rscale>
<asrwt>0</asrwt>
<pdfrwt beam="1">  1       21 0.22943613E-01 0.20160177E+03</pdfrwt>
<pdfrwt beam="2">  1       21 0.43926594E-01 0.20160177E+03</pdfrwt>
<totfact> 0.88450623E+04</totfact>
</mgrwt>
</event>
<event>
12    1  0.2743855E-001  0.1895059E+03  0.7546771E-02  0.1162026E+00
         21   -1    0    0  502  503  0.00000000000E+00  0.00000000000E+00  0.11650602020E+04  0.11650602020E+04  0.00000000000E+00 0. -1.
         21   -1    0    0  503  504 -0.00000000000E+00 -0.00000000000E+00 -0.41073623976E+02  0.41073623976E+02  0.00000000000E+00 0. -1.
         -6    2    1    2    0  504  0.31763333401E+02 -0.66682439977E+02  0.21698724788E+03  0.27954854546E+03  0.16002645524E+03 0.  0.
        -24    2    3    3    0    0  0.25359348207E+02 -0.10183078929E+03  0.12724747589E+03  0.18284418070E+03  0.78914308638E+02 0.  0.
          6    2    1    2  502    0 -0.31763333401E+02  0.66682439977E+02  0.90699933010E+03  0.92658528047E+03  0.17451945459E+03 0.  0.
         24    2    5    5    0    0 -0.46341740520E+02  0.10378059028E+03  0.54678250494E+03  0.56413934817E+03  0.79775488804E+02 0.  0.
          2    1    6    6  501    0  0.19910435188E+02  0.48507672428E+02  0.21927261922E+03  0.22545487631E+03  0.00000000000E+00 0. -1.
         -1    1    6    6    0  501 -0.66252175708E+02  0.55272917856E+02  0.32750988572E+03  0.33868447186E+03  0.00000000000E+00 0.  1.
          5    1    5    5  502    0  0.14578407118E+02 -0.37098150307E+02  0.36021682516E+03  0.36244593230E+03  0.47000000000E+01 0. -1.
         11    1    4    4    0    0 -0.62879745309E+01 -0.14513083899E+02  0.74240117007E+02  0.75906279062E+02  0.00000000000E+00 0. -1.
        -12    1    4    4    0    0  0.31647322738E+02 -0.87317705394E+02  0.53007358880E+02  0.10693790164E+03  0.00000000000E+00 0.  1.
         -5    1    3    3    0  504  0.64039851947E+01  0.35148349316E+02  0.89739771997E+02  0.96704364762E+02  0.47000000000E+01 0.  1.
<mgrwt>
<rscale>  2 0.18610119E+03</rscale>
<asrwt>0</asrwt>
<pdfrwt beam="1">  1       21 0.17924001E+00 0.18950593E+03</pdfrwt>
<pdfrwt beam="2">  1       21 0.63190200E-02 0.18950593E+03</pdfrwt>
<totfact> 0.33292404E+04</totfact>
</mgrwt>
</event>
<event>
12    1  0.2743855E-001  0.1850190E+03  0.7546771E-02  0.1163321E+00
         21   -1    0    0  502  503  0.00000000000E+00  0.00000000000E+00  0.46906195711E+03  0.46906195711E+03  0.00000000000E+00 0.  1.
         21   -1    0    0  503  504 -0.00000000000E+00 -0.00000000000E+00 -0.10051227188E+03  0.10051227188E+03  0.00000000000E+00 0.  1.
         -6    2    1    2    0  504  0.63731249958E+02 -0.25260839854E+02  0.34361698956E+02  0.18818272690E+03  0.17184944020E+03 0.  0.
        -24    2    3    3    0    0  0.69623504015E+02 -0.64610666523E+02  0.63692188880E+02  0.13852897421E+03  0.78176794710E+02 0.  0.
          6    2    1    2  502    0 -0.63731249958E+02  0.25260839854E+02  0.33418798628E+03  0.38139150209E+03  0.17052297629E+03 0.  0.
         24    2    5    5    0    0  0.12969544989E+02 -0.81957348527E+01  0.81479851400E+02  0.11514754296E+03  0.79903762737E+02 0.  0.
          2    1    6    6  501    0  0.40281234305E+01  0.84570689084E+01 -0.14533840058E+02  0.17291046808E+02  0.00000000000E+00 0. -1.
         -1    1    6    6    0  501  0.89414215587E+01 -0.16652803761E+02  0.96013691458E+02  0.97856496156E+02  0.00000000000E+00 0.  1.
          5    1    5    5  502    0 -0.76700794947E+02  0.33456574706E+02  0.25270813488E+03  0.26624395913E+03  0.47000000000E+01 0. -1.
         11    1    4    4    0    0  0.79897030598E+02 -0.27916864466E+02  0.48186773242E+02  0.97390204515E+02  0.00000000000E+00 0. -1.
        -12    1    4    4    0    0 -0.10273526582E+02 -0.36693802057E+02  0.15505415639E+02  0.41138769694E+02  0.00000000000E+00 0.  1.
         -5    1    3    3    0  504 -0.58922540572E+01  0.39349826670E+02 -0.29330489924E+02  0.49653752688E+02  0.47000000000E+01 0.  1.
<mgrwt>
<rscale>  2 0.18471033E+03</rscale>
<asrwt>0</asrwt>
<pdfrwt beam="1">  1       21 0.72163377E-01 0.18501895E+03</pdfrwt>
<pdfrwt beam="2">  1       21 0.15463427E-01 0.18501895E+03</pdfrwt>
<totfact> 0.64507136E+04</totfact>
</mgrwt>
</event>
<event>
12    1  0.2743855E-001  0.1827312E+03  0.7546771E-02  0.1165324E+00
         21   -1    0    0  502  503  0.00000000000E+00  0.00000000000E+00  0.66928729418E+03  0.66928729418E+03  0.00000000000E+00 0.  1.
         21   -1    0    0  503  504 -0.00000000000E+00 -0.00000000000E+00 -0.52533696555E+02  0.52533696555E+02  0.00000000000E+00 0.  1.
         -6    2    1    2    0  504 -0.46918506904E+02 -0.34798183498E+02  0.39127735531E+03  0.43159656912E+03  0.17252643228E+03 0.  0.
        -24    2    3    3    0    0 -0.13660264933E+02  0.40143149140E+02  0.22304627144E+03  0.24439052868E+03  0.90437912660E+02 0.  0.
          6    2    1    2  502    0  0.46918506904E+02  0.34798183498E+02  0.22547624232E+03  0.29022442162E+03  0.17314277111E+03 0.  0.
         24    2    5    5    0    0 -0.98213869380E+01  0.57638874253E+02  0.20191629521E+03  0.22451084756E+03  0.78843077909E+02 0.  0.
          2    1    6    6  501    0 -0.24634182580E+02  0.62499149066E+02  0.19703851075E+03  0.20817579423E+03  0.00000000000E+00 0. -1.
         -1    1    6    6    0  501  0.14812795642E+02 -0.48602748134E+01  0.48777844608E+01  0.16335053329E+02  0.00000000000E+00 0.  1.
          5    1    5    5  502    0  0.56739893842E+02 -0.22840690755E+02  0.23559947106E+02  0.65713574054E+02  0.47000000000E+01 0. -1.
         13    1    4    4    0    0 -0.12207073028E+01 -0.18426613138E+02  0.62784306243E+01  0.19505099056E+02  0.00000000000E+00 0. -1.
        -14    1    4    4    0    0 -0.12439557631E+02  0.58569762278E+02  0.21676784081E+03  0.22488542962E+03  0.00000000000E+00 0.  1.
         -5    1    3    3    0  504 -0.33258241970E+02 -0.74941332638E+02  0.16823108387E+03  0.18720604044E+03  0.47000000000E+01 0.  1.
<mgrwt>
<rscale>  2 0.18258502E+03</rscale>
<asrwt>0</asrwt>
<pdfrwt beam="1">  1       21 0.10296727E+00 0.18273117E+03</pdfrwt>
<pdfrwt beam="2">  1       21 0.80821076E-02 0.18273117E+03</pdfrwt>
<totfact> 0.90642906E+04</totfact>
</mgrwt>
</event>
<event>
12    1  0.2743855E-001  0.2940289E+03  0.7546771E-02  0.1088377E+00
         21   -1    0    0  502  503  0.00000000000E+00  0.00000000000E+00  0.25061568530E+03  0.25061568530E+03  0.00000000000E+00 0.  1.
         21   -1    0    0  503  504 -0.00000000000E+00 -0.00000000000E+00 -0.77604232215E+03  0.77604232215E+03  0.00000000000E+00 0.  1.
         -6    2    1    2    0  504 -0.25703177644E+02  0.23538206288E+03 -0.64593318924E+03  0.70970604133E+03  0.17432042701E+03 0.  0.
        -24    2    3    3    0    0 -0.39713238859E+02  0.96072075969E+02 -0.15747298904E+03  0.20155349392E+03  0.70845490400E+02 0.  0.
          6    2    1    2  502    0  0.25703177644E+02 -0.23538206288E+03  0.12050655239E+03  0.31695196612E+03  0.17283330348E+03 0.  0.
         24    2    5    5    0    0  0.42791334012E+02 -0.18610107479E+03  0.14982302871E+03  0.25693391335E+03  0.84281596993E+02 0.  0.
          2    1    6    6  501    0  0.63739164626E+01 -0.13427976179E+03  0.60459964449E+02  0.14740111444E+03  0.00000000000E+00 0. -1.
         -1    1    6    6    0  501  0.36417417550E+02 -0.51821312999E+02  0.89363064261E+02  0.10953279890E+03  0.00000000000E+00 0.  1.
          5    1    5    5  502    0 -0.17088156368E+02 -0.49280988090E+02 -0.29316476315E+02  0.60018052774E+02  0.47000000000E+01 0. -1.
         13    1    4    4    0    0 -0.20000707793E+02  0.30949441222E+02 -0.85577695768E+01  0.37830300611E+02  0.00000000000E+00 0. -1.
        -14    1    4    4    0    0 -0.19712531066E+02  0.65122634747E+02 -0.14891521947E+03  0.16372319331E+03  0.00000000000E+00 0.  1.
         -5    1    3    3    0  504  0.14010061215E+02  0.13930998691E+03 -0.48846020020E+03  0.50815254742E+03  0.47000000000E+01 0.  1.
<mgrwt>
<rscale>  2 0.29380882E+03</rscale>
<asrwt>0</asrwt>
<pdfrwt beam="1">  1       21 0.38556260E-01 0.29402888E+03</pdfrwt>
<pdfrwt beam="2">  1       21 0.11939112E+00 0.29402888E+03</pdfrwt>
<totfact> 0.32294019E+03</totfact>
</mgrwt>
</event>
<event>
12    1  0.2743855E-001  0.2232677E+03  0.7546771E-02  0.1131519E+00
         21   -1    0    0  502  503  0.00000000000E+00  0.00000000000E+00  0.68715499236E+02  0.68715499236E+02  0.00000000000E+00 0.  1.
         21   -1    0    0  503  504 -0.00000000000E+00 -0.00000000000E+00 -0.72786038295E+03  0.72786038295E+03  0.00000000000E+00 0.  1.
         -6    2    1    2    0  504  0.97522220955E+02  0.10261296160E+03 -0.30256923176E+03  0.37586854389E+03  0.17230501679E+03 0.  0.
        -24    2    3    3    0    0  0.60017433285E+02  0.13155180646E+03 -0.27422258292E+03  0.32046377568E+03  0.81185198531E+02 0.  0.
          6    2    1    2  502    0 -0.97522220955E+02 -0.10261296160E+03 -0.35657565196E+03  0.42070733830E+03  0.17265128283E+03 0.  0.
         24    2    5    5    0    0 -0.58166085835E+02 -0.13756674875E+03 -0.25810068032E+03  0.30894829998E+03  0.80778629441E+02 0.  0.
          4    1    6    6  501    0 -0.27713030843E+02 -0.11119618489E+03 -0.12363059689E+03  0.16857380609E+03  0.00000000000E+00 0. -1.
         -3    1    6    6    0  501 -0.30453054992E+02 -0.26370563861E+02 -0.13447008343E+03  0.14037449389E+03  0.00000000000E+00 0.  1.
          5    1    5    5  502    0 -0.39356135119E+02  0.34953787150E+02 -0.98474971634E+02  0.11175903832E+03  0.47000000000E+01 0. -1.
         11    1    4    4    0    0  0.23320821191E+02  0.57398350389E+02 -0.19978135257E+03  0.20916744527E+03  0.00000000000E+00 0. -1.
        -12    1    4    4    0    0  0.36696612094E+02  0.74153456068E+02 -0.74441230353E+02  0.11129633041E+03  0.00000000000E+00 0.  1.
         -5    1    3    3    0  504  0.37504787669E+02 -0.28938844858E+02 -0.28346648840E+02  0.55404768209E+02  0.47000000000E+01 0.  1.
<mgrwt>
<rscale>  2 0.22320076E+03</rscale>
<asrwt>0</asrwt>
<pdfrwt beam="1">  1       21 0.10571615E-01 0.22326771E+03</pdfrwt>
<pdfrwt beam="2">  1       21 0.11197853E+00 0.22326771E+03</pdfrwt>
<totfact> 0.45277899E+04</totfact>
</mgrwt>
</event>
<event>
12    1  0.2743855E-001  0.2363474E+03  0.7546771E-02  0.1122486E+00
         21   -1    0    0  502  503  0.00000000000E+00  0.00000000000E+00  0.88390531950E+03  0.88390531950E+03  0.00000000000E+00 0.  1.
         21   -1    0    0  503  504 -0.00000000000E+00 -0.00000000000E+00 -0.65147615533E+02  0.65147615533E+02  0.00000000000E+00 0.  1.
         -6    2    1    2    0  504 -0.15826821212E+03  0.31830893933E+02  0.32099241786E+03  0.39861789707E+03  0.17262115388E+03 0.  0.
        -24    2    3    3    0    0 -0.62603313957E+01 -0.71787390494E+00  0.11692450050E+03  0.14204115809E+03  0.80403014140E+02 0.  0.
          6    2    1    2  502    0  0.15826821212E+03 -0.31830893933E+02  0.49776528611E+03  0.55043503797E+03  0.17072322101E+03 0.  0.
         24    2    5    5    0    0  0.15088633940E+02 -0.14444729734E+01  0.23847103875E+03  0.25264430121E+03  0.82042386816E+02 0.  0.
          2    1    6    6  501    0 -0.28762202291E+02  0.14104259659E+02  0.14161716238E+03  0.14519509324E+03  0.00000000000E+00 0. -1.
         -1    1    6    6    0  501  0.43850836231E+02 -0.15548732632E+02  0.96853876366E+02  0.10744920796E+03  0.00000000000E+00 0.  1.
          5    1    5    5  502    0  0.14317957818E+03 -0.30386420960E+02  0.25929424737E+03  0.29779073676E+03  0.47000000000E+01 0. -1.
         13    1    4    4    0    0  0.68525249609E+01 -0.85452840892E+01 -0.96202003728E+01  0.14578313816E+02  0.00000000000E+00 0. -1.
        -14    1    4    4    0    0 -0.13112856357E+02  0.78274101843E+01  0.12654470087E+03  0.12746284427E+03  0.00000000000E+00 0.  1.
         -5    1    3    3    0  504 -0.15200788072E+03  0.32548767838E+02  0.20406791736E+03  0.25657673898E+03  0.47000000000E+01 0.  1.
<mgrwt>
<rscale>  2 0.23600099E+03</rscale>
<asrwt>0</asrwt>
<pdfrwt beam="1">  1       21 0.13598543E+00 0.23634740E+03</pdfrwt>
<pdfrwt beam="2">  1       21 0.10022711E-01 0.23634740E+03</pdfrwt>
<totfact> 0.30401258E+04</totfact>
</mgrwt>
</event>
<event>
12    1  0.2743855E-001  0.1897555E+03  0.7546771E-02  0.1158807E+00
         21   -1    0    0  502  503  0.00000000000E+00  0.00000000000E+00  0.51430574568E+03  0.51430574568E+03  0.00000000000E+00 0. -1.
         21   -1    0    0  503  504 -0.00000000000E+00 -0.00000000000E+00 -0.85371171380E+02  0.85371171380E+02  0.00000000000E+00 0. -1.
         -6    2    1    2    0  504  0.36563854222E+02 -0.66942045081E+02  0.86698654330E+02  0.20862363692E+03  0.17374985578E+03 0.  0.
        -24    2    3    3    0    0  0.31154047392E+02  0.18061668896E+02  0.85621729184E+02  0.12331157935E+03  0.81104047619E+02 0.  0.
          6    2    1    2  502    0 -0.36563854222E+02  0.66942045081E+02  0.34223591997E+03  0.39105328014E+03  0.17314470871E+03 0.  0.
         24    2    5    5    0    0 -0.65121601666E+02  0.23916871609E+02  0.11234521737E+03  0.15538712722E+03  0.81919910205E+02 0.  0.
          4    1    6    6  501    0 -0.58401710159E+02  0.51414525041E+02  0.71359876492E+02  0.10557672617E+03  0.00000000000E+00 0. -1.
         -3    1    6    6    0  501 -0.67198915067E+01 -0.27497653432E+02  0.40985340878E+02  0.49810401053E+02  0.00000000000E+00 0.  1.
          5    1    5    5  502    0  0.28557747444E+02  0.43025173472E+02  0.22989070260E+03  0.23566615292E+03  0.47000000000E+01 0. -1.
         13    1    4    4    0    0  0.35218223688E+02 -0.15824759234E+02  0.79853948473E+02  0.88698361717E+02  0.00000000000E+00 0. -1.
        -14    1    4    4    0    0 -0.40641762959E+01  0.33886428130E+02  0.57677807116E+01  0.34613217630E+02  0.00000000000E+00 0.  1.
         -5    1    3    3    0  504  0.54098068299E+01 -0.85003713977E+02  0.10769251460E+01  0.85312057575E+02  0.47000000000E+01 0.  1.
<mgrwt>
<rscale>  2 0.18961690E+03</rscale>
<asrwt>0</asrwt>
<pdfrwt beam="1">  1       21 0.79123959E-01 0.18975554E+03</pdfrwt>
<pdfrwt beam="2">  1       21 0.13134027E-01 0.18975554E+03</pdfrwt>
<totfact> 0.70448850E+04</totfact>
</mgrwt>
</event>
<event>
12    1  0.2743855E-001  0.2172570E+03  0.7546771E-02  0.1136136E+00
         21   -1    0    0  502  503  0.00000000000E+00  0.00000000000E+00  0.49863624566E+02  0.49863624566E+02  0.00000000000E+00 0. -1.
         21   -1    0    0  503  504 -0.00000000000E+00 -0.00000000000E+00 -0.10254689379E+04  0.10254689379E+04  0.00000000000E+00 0. -1.
         -6    2    1    2    0  504 -0.13109467922E+03 -0.11330834842E+02 -0.33563941166E+03  0.39981799122E+03  0.17287685995E+03 0.  0.
        -24    2    3    3    0    0 -0.44542909461E+02  0.55569236114E+02 -0.15448007300E+03  0.18813987632E+03  0.80377293582E+02 0.  0.
          6    2    1    2  502    0  0.13109467922E+03  0.11330834842E+02 -0.63996590164E+03  0.67551457121E+03  0.17160821052E+03 0.  0.
         24    2    5    5    0    0  0.52843928474E+02 -0.44853251934E+02 -0.21684253563E+03  0.24153841465E+03  0.80720663446E+02 0.  0.
          4    1    6    6  501    0 -0.13748519113E+02 -0.19265007488E+02 -0.16441324869E+02  0.28818040439E+02  0.00000000000E+00 0. -1.
         -3    1    6    6    0  501  0.66592447587E+02 -0.25588244447E+02 -0.20040121076E+03  0.21272037421E+03  0.00000000000E+00 0.  1.
          5    1    5    5  502    0  0.78250750749E+02  0.56184086777E+02 -0.42312336601E+03  0.43397615656E+03  0.47000000000E+01 0. -1.
         13    1    4    4    0    0 -0.43125452472E+02 -0.79190022399E+01 -0.65599120402E+02  0.78903484364E+02  0.00000000000E+00 0. -1.
        -14    1    4    4    0    0 -0.14174569891E+01  0.63488238354E+02 -0.88880952596E+02  0.10923639196E+03  0.00000000000E+00 0.  1.
         -5    1    3    3    0  504 -0.86551769762E+02 -0.66900070956E+02 -0.18115933866E+03  0.21167811490E+03  0.47000000000E+01 0.  1.
<mgrwt>
<rscale>  2 0.21700454E+03</rscale>
<asrwt>0</asrwt>
<pdfrwt beam="1">  1       21 0.76713277E-02 0.21725702E+03</pdfrwt>
<pdfrwt beam="2">  1       21 0.15776444E+00 0.21725702E+03</pdfrwt>
<totfact> 0.33239731E+04</totfact>
</mgrwt>
</event>
<event>
12    1  0.2743855E-001  0.2437506E+03  0.7546771E-02  0.1117511E+00
         21   -1    0    0  502  503  0.00000000000E+00  0.00000000000E+00  0.66135346280E+03  0.66135346280E+03  0.00000000000E+00 0.  1.
         21   -1    0    0  503  504 -0.00000000000E+00 -0.00000000000E+00 -0.10303082479E+03  0.10303082479E+03  0.00000000000E+00 0. -1.
         -6    2    1    2    0  504  0.96842974525E+02 -0.14203525863E+03  0.14076127026E+03  0.28147480961E+03  0.17280554629E+03 0.  0.
        -24    2    3    3    0    0  0.12024142680E+03 -0.62441531945E+02  0.64117023656E+02  0.16843021914E+03  0.76816667237E+02 0.  0.
          6    2    1    2  502    0 -0.96842974525E+02  0.14203525863E+03  0.41756136775E+03  0.48290947798E+03  0.17114757280E+03 0.  0.
         24    2    5    5    0    0 -0.49917212741E+02  0.47623314055E+01  0.19972108387E+03  0.22114171268E+03  0.80627153100E+02 0.  0.
          2    1    6    6  501    0 -0.71076062658E+02  0.11893742102E+02  0.14169056642E+03  0.15896378329E+03  0.00000000000E+00 0. -1.
         -1    1    6    6    0  501  0.21158849917E+02 -0.71314106966E+01  0.58030517448E+02  0.62177929393E+02  0.00000000000E+00 0.  1.
          5    1    5    5  502    0 -0.46925761784E+02  0.13727292723E+03  0.21784028388E+03  0.26176776530E+03  0.47000000000E+01 0. -1.
         11    1    4    4    0    0  0.10608826249E+02 -0.35161964040E+02 -0.32880802406E+01  0.36874413639E+02  0.00000000000E+00 0. -1.
        -12    1    4    4    0    0  0.10963260055E+03 -0.27279567904E+02  0.67405103897E+02  0.13155580550E+03  0.00000000000E+00 0.  1.
         -5    1    3    3    0  504 -0.23398452277E+02 -0.79593726690E+02  0.76644246607E+02  0.11304459047E+03  0.47000000000E+01 0.  1.
<mgrwt>
<rscale>  2 0.24345688E+03</rscale>
<asrwt>0</asrwt>
<pdfrwt beam="1">  1       21 0.10174668E+00 0.24375056E+03</pdfrwt>
<pdfrwt beam="2">  1       21 0.15850896E-01 0.24375056E+03</pdfrwt>
<totfact> 0.27182895E+04</totfact>
</mgrwt>
</event>
<event>
12    1  0.2743855E-001  0.2038766E+03  0.7546771E-02  0.1147267E+00
         21   -1    0    0  502  503  0.00000000000E+00  0.00000000000E+00  0.45472242570E+03  0.45472242570E+03  0.00000000000E+00 0.  1.
         21   -1    0    0  503  504 -0.00000000000E+00 -0.00000000000E+00 -0.18363487451E+03  0.18363487451E+03  0.00000000000E+00 0. -1.
         -6    2    1    2    0  504 -0.95180425234E+02 -0.36960442550E+02 -0.93233102007E+02  0.22087051427E+03  0.17223816389E+03 0.  0.
        -24    2    3    3    0    0 -0.24427914328E+02  0.27087307335E+02 -0.88307120402E+02  0.12519195157E+03  0.80897663795E+02 0.  0.
          6    2    1    2  502    0  0.95180425234E+02  0.36960442550E+02  0.36432065319E+03  0.41748678595E+03  0.17646611696E+03 0.  0.
         24    2    5    5    0    0  0.88651425635E+02  0.89794706131E+02  0.24779813997E+03  0.28929289634E+03  0.79776545337E+02 0.  0.
          2    1    6    6  501    0  0.96099864447E+02  0.62572443369E+02  0.15845306264E+03  0.19559618523E+03  0.00000000000E+00 0. -1.
         -1    1    6    6    0  501 -0.74484388118E+01  0.27222262762E+02  0.89345077331E+02  0.93696711116E+02  0.00000000000E+00 0.  1.
          5    1    5    5  502    0  0.65289995986E+01 -0.52834263581E+02  0.11652251322E+03  0.12819388960E+03  0.47000000000E+01 0. -1.
         11    1    4    4    0    0  0.19397380285E+02  0.21980218089E+02 -0.72705197314E+02  0.78392818967E+02  0.00000000000E+00 0. -1.
        -12    1    4    4    0    0 -0.43825294613E+02  0.51070892451E+01 -0.15601923089E+02  0.46799132605E+02  0.00000000000E+00 0.  1.
         -5    1    3    3    0  504 -0.70752510906E+02 -0.64047749885E+02 -0.49259816045E+01  0.95678562696E+02  0.47000000000E+01 0.  1.
<mgrwt>
<rscale>  2 0.20295836E+03</rscale>
<asrwt>0</asrwt>
<pdfrwt beam="1">  1       21 0.69957296E-01 0.20387662E+03</pdfrwt>
<pdfrwt beam="2">  1       21 0.28251519E-01 0.20387662E+03</pdfrwt>
<totfact> 0.22070260E+04</totfact>
</mgrwt>
</event>
<event>
12    1  0.2743855E-001  0.1805304E+03  0.7546771E-02  0.1167970E+00
         21   -1    0    0  502  503  0.00000000000E+00  0.00000000000E+00  0.14569371733E+04  0.14569371733E+04  0.00000000000E+00 0.  1.
         21   -1    0    0  503  504 -0.00000000000E+00 -0.00000000000E+00 -0.29512332747E+02  0.29512332747E+02  0.00000000000E+00 0.  1.
         -6    2    1    2    0  504 -0.17370808335E+02  0.39298992316E+02  0.33520499849E+03  0.37941048462E+03  0.17246381953E+03 0.  0.
        -24    2    3    3    0    0  0.16230096041E+02  0.22213018757E+02  0.32389231241E+03  0.33977441350E+03  0.98912020570E+02 0.  0.
          6    2    1    2  502    0  0.17370808335E+02 -0.39298992316E+02  0.10922198420E+04  0.11070390214E+04  0.17534268102E+03 0.  0.
         24    2    5    5    0    0  0.37941899793E+02  0.24559835436E+02  0.86979601420E+03  0.87466955508E+03  0.80367599197E+02 0.  0.
          4    1    6    6  501    0  0.18400855479E+02  0.44993633189E+02  0.75034725105E+03  0.75192021896E+03  0.00000000000E+00 0. -1.
         -3    1    6    6    0  501  0.19541044313E+02 -0.20433797753E+02  0.11944876314E+03  0.12274933613E+03  0.00000000000E+00 0.  1.
          5    1    5    5  502    0 -0.20571091458E+02 -0.63858827752E+02  0.22242382783E+03  0.23236946630E+03  0.47000000000E+01 0. -1.
         13    1    4    4    0    0 -0.35382677353E+02  0.15482900148E+02  0.22224259485E+03  0.22557354681E+03  0.00000000000E+00 0. -1.
        -14    1    4    4    0    0  0.51612773394E+02  0.67301186088E+01  0.10164971756E+03  0.11420086669E+03  0.00000000000E+00 0.  1.
         -5    1    3    3    0  504 -0.33600904376E+02  0.17085973559E+02  0.11312686083E+02  0.39636071119E+02  0.47000000000E+01 0.  1.
<mgrwt>
<rscale>  2 0.17982756E+03</rscale>
<asrwt>0</asrwt>
<pdfrwt beam="1">  1       21 0.22414412E+00 0.18053036E+03</pdfrwt>
<pdfrwt beam="2">  1       21 0.45403600E-02 0.18053036E+03</pdfrwt>
<totfact> 0.30333159E+04</totfact>
</mgrwt>
</event>
<event>
12    1  0.2743855E-001  0.1832467E+03  0.7546771E-02  0.1166970E+00
         21   -1    0    0  502  503  0.00000000000E+00  0.00000000000E+00  0.32675871971E+03  0.32675871971E+03  0.00000000000E+00 0.  1.
         21   -1    0    0  503  504 -0.00000000000E+00 -0.00000000000E+00 -0.98304838628E+02  0.98304838628E+02  0.00000000000E+00 0. -1.
         -6    2    1    2    0  504 -0.98708153589E+01  0.19350006851E+02  0.99074568370E+02  0.20831497284E+03  0.18195467032E+03 0.  0.
        -24    2    3    3    0    0  0.80659142016E+01  0.11237258970E+02 -0.22789769326E+02  0.84781375191E+02  0.80480886129E+02 0.  0.
          6    2    1    2  502    0  0.98708153589E+01 -0.19350006851E+02  0.12937931271E+03  0.21674858550E+03  0.17253720468E+03 0.  0.
         24    2    5    5    0    0 -0.23953482208E+02  0.38463173257E+02  0.11627121025E+03  0.14833543435E+03  0.80194898496E+02 0.  0.
          4    1    6    6  501    0  0.22764917133E+02  0.27080804857E+02  0.19793508680E+02  0.40538801532E+02  0.00000000000E+00 0. -1.
         -3    1    6    6    0  501 -0.46718399341E+02  0.11382368400E+02  0.96477701567E+02  0.10779663282E+03  0.00000000000E+00 0.  1.
          5    1    5    5  502    0  0.33824297567E+02 -0.57813180108E+02  0.13108102465E+02  0.68413151150E+02  0.47000000000E+01 0. -1.
         13    1    4    4    0    0  0.19816361310E+02 -0.30888126283E+02 -0.17727875667E+02  0.40755884195E+02  0.00000000000E+00 0. -1.
        -14    1    4    4    0    0 -0.11750447109E+02  0.42125385253E+02 -0.50618936596E+01  0.44025490996E+02  0.00000000000E+00 0.  1.
         -5    1    3    3    0  504 -0.17936729561E+02  0.81127478803E+01  0.12186433770E+03  0.12353359765E+03  0.47000000000E+01 0.  1.
<mgrwt>
<rscale>  2 0.18086376E+03</rscale>
<asrwt>0</asrwt>
<pdfrwt beam="1">  1       21 0.50270572E-01 0.18324671E+03</pdfrwt>
<pdfrwt beam="2">  1       21 0.15123821E-01 0.18324671E+03</pdfrwt>
<totfact> 0.14605643E+05</totfact>
</mgrwt>
</event>
<event>
12    1  0.2743855E-001  0.1735020E+03  0.7546771E-02  0.1174457E+00
         21   -1    0    0  502  503  0.00000000000E+00  0.00000000000E+00  0.29324874850E+03  0.29324874850E+03  0.00000000000E+00 0.  1.
         21   -1    0    0  503  504 -0.00000000000E+00 -0.00000000000E+00 -0.13464561883E+03  0.13464561883E+03  0.00000000000E+00 0.  1.
         -6    2    1    2    0  504  0.38948851786E+01  0.26182871860E+01 -0.25641958672E+02  0.17538654228E+03  0.17343847211E+03 0.  0.
        -24    2    3    3    0    0 -0.44163054658E+02  0.66478841435E+01 -0.65258135240E+02  0.11279792767E+03  0.80437419841E+02 0.  0.
          6    2    1    2  502    0 -0.38948851786E+01 -0.26182871860E+01  0.18424508834E+03  0.25250782505E+03  0.17260337070E+03 0.  0.
         24    2    5    5    0    0 -0.40147014449E+02 -0.18213461738E+02  0.35463428267E+02  0.98509452593E+02  0.80640836727E+02 0.  0.
          2    1    6    6  501    0 -0.19427813156E+02  0.87998892770E+00 -0.25076660445E+02  0.31734101588E+02  0.00000000000E+00 0. -1.
         -1    1    6    6    0  501 -0.20719201293E+02 -0.19093450666E+02  0.60540088712E+02  0.66775351005E+02  0.00000000000E+00 0.  1.
          5    1    5    5  502    0  0.36252129270E+02  0.15595174552E+02  0.14878166008E+03  0.15399837246E+03  0.47000000000E+01 0. -1.
         11    1    4    4    0    0  0.78889234254E+01 -0.51376204263E+01  0.14225713819E+02  0.17058756992E+02  0.00000000000E+00 0. -1.
        -12    1    4    4    0    0 -0.52051978084E+02  0.11785504570E+02 -0.79483849059E+02  0.95739170675E+02  0.00000000000E+00 0.  1.
         -5    1    3    3    0  504  0.48057939837E+02 -0.40295969575E+01  0.39616176568E+02  0.62588614611E+02  0.47000000000E+01 0.  1.
<mgrwt>
<rscale>  2 0.17329288E+03</rscale>
<asrwt>0</asrwt>
<pdfrwt beam="1">  1       21 0.45115192E-01 0.17350196E+03</pdfrwt>
<pdfrwt beam="2">  1       21 0.20714711E-01 0.17350196E+03</pdfrwt>
<totfact> 0.10263370E+05</totfact>
</mgrwt>
</event>
<event>
12    1  0.2743855E-001  0.2302644E+03  0.7546771E-02  0.1126534E+00
         21   -1    0    0  502  503  0.00000000000E+00  0.00000000000E+00  0.11360533730E+03  0.11360533730E+03  0.00000000000E+00 0. -1.
         21   -1    0    0  503  504 -0.00000000000E+00 -0.00000000000E+00 -0.87408223466E+03  0.87408223466E+03  0.00000000000E+00 0.  1.
         -6    2    1    2    0  504 -0.81276801313E+02  0.12426796334E+03 -0.71795351175E+03  0.75397542078E+03  0.17599217300E+03 0.  0.
        -24    2    3    3    0    0  0.15861820786E+02  0.86643335774E+02 -0.28363054417E+03  0.30730993670E+03  0.78958511973E+02 0.  0.
          6    2    1    2  502    0  0.81276801313E+02 -0.12426796334E+03 -0.42523385612E+02  0.23371215118E+03  0.17539864920E+03 0.  0.
         24    2    5    5    0    0  0.16683287909E+01 -0.16877417816E+02  0.20674357285E+02  0.85772018450E+02  0.81497113732E+02 0.  0.
          4    1    6    6  501    0  0.40602033618E+02 -0.50660202233E+01  0.18936361248E+01  0.40960658596E+02  0.00000000000E+00 0. -1.
         -3    1    6    6    0  501 -0.38933704827E+02 -0.11811397593E+02  0.18780721160E+02  0.44811359854E+02  0.00000000000E+00 0.  1.
          5    1    5    5  502    0  0.79608472522E+02 -0.10739054552E+03 -0.63197742896E+02  0.14794013273E+03  0.47000000000E+01 0. -1.
         13    1    4    4    0    0  0.39604635587E+02  0.19284508783E+02 -0.77330613496E+02  0.88996871982E+02  0.00000000000E+00 0. -1.
        -14    1    4    4    0    0 -0.23742814801E+02  0.67358826991E+02 -0.20629993068E+03  0.21831306472E+03  0.00000000000E+00 0.  1.
         -5    1    3    3    0  504 -0.97138622099E+02  0.37624627565E+02 -0.43432296758E+03  0.44666548408E+03  0.47000000000E+01 0.  1.
<mgrwt>
<rscale>  2 0.23015098E+03</rscale>
<asrwt>0</asrwt>
<pdfrwt beam="1">  1       21 0.17477744E-01 0.23026439E+03</pdfrwt>
<pdfrwt beam="2">  1       21 0.13447419E+00 0.23026439E+03</pdfrwt>
<totfact> 0.11463526E+04</totfact>
</mgrwt>
</event>
<event>
12    1  0.2743855E-001  0.2171250E+03  0.7546771E-02  0.1136194E+00
         21   -1    0    0  502  503  0.00000000000E+00  0.00000000000E+00  0.12554550275E+04  0.12554550275E+04  0.00000000000E+00 0.  1.
         21   -1    0    0  503  504 -0.00000000000E+00 -0.00000000000E+00 -0.23004712501E+03  0.23004712501E+03  0.00000000000E+00 0.  1.
         -6    2    1    2    0  504  0.75147532220E+02 -0.10480192521E+03 -0.16711935776E+03  0.27336991991E+03  0.17369985102E+03 0.  0.
        -24    2    3    3    0    0  0.22001107779E+02 -0.12867903407E+03 -0.10251435116E+03  0.18624612502E+03  0.84475347523E+02 0.  0.
          6    2    1    2  502    0 -0.75147532220E+02  0.10480192521E+03  0.11925272603E+04  0.12121322326E+04  0.17467881316E+03 0.  0.
         24    2    5    5    0    0 -0.51367791405E+02  0.80922880178E+02  0.11539143470E+04  0.11606663999E+04  0.80255898221E+02 0.  0.
          4    1    6    6  501    0 -0.14863766504E+02  0.61201318910E+01  0.33420059001E+02  0.37084874446E+02  0.00000000000E+00 0. -1.
         -3    1    6    6    0  501 -0.36504024901E+02  0.74802748287E+02  0.11204942880E+04  0.11235815254E+04  0.00000000000E+00 0.  1.
          5    1    5    5  502    0 -0.23779740815E+02  0.23879045034E+02  0.38612913323E+02  0.51465832746E+02  0.47000000000E+01 0. -1.
         11    1    4    4    0    0  0.48396552206E+00  0.10362342163E+02  0.25111068966E+01  0.10673238289E+02  0.00000000000E+00 0. -1.
        -12    1    4    4    0    0  0.21517142257E+02 -0.13904137623E+03 -0.10502545805E+03  0.17557288673E+03  0.00000000000E+00 0.  1.
         -5    1    3    3    0  504  0.53146424441E+02  0.23877108854E+02 -0.64605006601E+02  0.87123794889E+02  0.47000000000E+01 0.  1.
<mgrwt>
<rscale>  2 0.21692807E+03</rscale>
<asrwt>0</asrwt>
<pdfrwt beam="1">  1       21 0.19314692E+00 0.21712504E+03</pdfrwt>
<pdfrwt beam="2">  1       21 0.35391866E-01 0.21712504E+03</pdfrwt>
<totfact> 0.11156020E+03</totfact>
</mgrwt>
</event>
<event>
12    1  0.2743855E-001  0.2265797E+03  0.7546771E-02  0.1129989E+00
         21   -1    0    0  502  503  0.00000000000E+00  0.00000000000E+00  0.80917560487E+02  0.80917560487E+02  0.00000000000E+00 0. -1.
         21   -1    0    0  503  504 -0.00000000000E+00 -0.00000000000E+00 -0.62266184582E+03  0.62266184582E+03  0.00000000000E+00 0.  1.
         -6    2    1    2    0  504  0.19498898588E+02  0.13558725278E+03 -0.28920159321E+03  0.36429169582E+03  0.17408839123E+03 0.  0.
        -24    2    3    3    0    0  0.33990248681E+02  0.88581396637E+02 -0.77461712842E+02  0.14686258857E+03  0.81032722584E+02 0.  0.
          6    2    1    2  502    0 -0.19498898588E+02 -0.13558725278E+03 -0.25254269212E+03  0.33928771048E+03  0.18048332051E+03 0.  0.
         24    2    5    5    0    0 -0.31090693622E+02 -0.16210560610E+03 -0.15968590535E+03  0.24191181191E+03  0.76005773552E+02 0.  0.
          2    1    6    6  501    0 -0.23794985897E+02 -0.16429256580E+03 -0.12883591680E+03  0.21013553243E+03  0.00000000000E+00 0. -1.
         -1    1    6    6    0  501 -0.72957077246E+01  0.21869596984E+01 -0.30849988553E+02  0.31776279481E+02  0.00000000000E+00 0.  1.
          5    1    5    5  502    0  0.11591795034E+02  0.26518353320E+02 -0.92856786767E+02  0.97375898577E+02  0.47000000000E+01 0. -1.
         13    1    4    4    0    0  0.91754108410E+01  0.51583719983E+02  0.55154441628E+01  0.52682904777E+02  0.00000000000E+00 0. -1.
        -14    1    4    4    0    0  0.24814837840E+02  0.36997676654E+02 -0.82977157004E+02  0.94179683793E+02  0.00000000000E+00 0.  1.
         -5    1    3    3    0  504 -0.14491350093E+02  0.47005856146E+02 -0.21173988037E+03  0.21742910725E+03  0.47000000000E+01 0.  1.
<mgrwt>
<rscale>  2 0.22530387E+03</rscale>
<asrwt>0</asrwt>
<pdfrwt beam="1">  1       21 0.12448855E-01 0.22657965E+03</pdfrwt>
<pdfrwt beam="2">  1       21 0.95794131E-01 0.22657965E+03</pdfrwt>
<totfact> 0.49091200E+04</totfact>
</mgrwt>
</event>
<event>
12    1  0.2743855E-001  0.2170076E+03  0.7546771E-02  0.1136399E+00
         21   -1    0    0  502  503  0.00000000000E+00  0.00000000000E+00  0.27823701323E+02  0.27823701323E+02  0.00000000000E+00 0. -1.
         21   -1    0    0  503  504 -0.00000000000E+00 -0.00000000000E+00 -0.16965760813E+04  0.16965760813E+04  0.00000000000E+00 0.  1.
         -6    2    1    2    0  504  0.69904832607E+02 -0.11004195976E+03 -0.91785935949E+03  0.94316388132E+03  0.17348309626E+03 0.  0.
        -24    2    3    3    0    0  0.80736641496E+02 -0.11338283354E+02 -0.42688213523E+03  0.44222429557E+03  0.81774129592E+02 0.  0.
          6    2    1    2  502    0 -0.69904832607E+02  0.11004195976E+03 -0.75089302047E+03  0.78123590129E+03  0.17173609622E+03 0.  0.
         24    2    5    5    0    0  0.20509034843E+02  0.42223069373E+02 -0.45386219969E+03  0.46339401007E+03  0.80868437381E+02 0.  0.
          2    1    6    6  501    0  0.23523017797E+02  0.23579256464E+02 -0.56522189824E+02  0.65605423893E+02  0.00000000000E+00 0. -1.
         -1    1    6    6    0  501 -0.30139829540E+01  0.18643812910E+02 -0.39734000986E+03  0.39778858617E+03  0.00000000000E+00 0.  1.
          5    1    5    5  502    0 -0.90413867451E+02  0.67818890386E+02 -0.29703082078E+03  0.31784189122E+03  0.47000000000E+01 0. -1.
         13    1    4    4    0    0 -0.95123564313E+01 -0.12335242174E+02 -0.19467927568E+02  0.24932776183E+02  0.00000000000E+00 0. -1.
        -14    1    4    4    0    0  0.90248997927E+02  0.99695881979E+00 -0.40741420766E+03  0.41729151939E+03  0.00000000000E+00 0.  1.
         -5    1    3    3    0  504 -0.10831808889E+02 -0.98703676405E+02 -0.49097722426E+03  0.50093958574E+03  0.47000000000E+01 0.  1.
<mgrwt>
<rscale>  2 0.21665825E+03</rscale>
<asrwt>0</asrwt>
<pdfrwt beam="1">  1       21 0.42805695E-02 0.21700761E+03</pdfrwt>
<pdfrwt beam="2">  1       21 0.26101170E+00 0.21700761E+03</pdfrwt>
<totfact> 0.19627032E+04</totfact>
</mgrwt>
</event>
<event>
12    1  0.2743855E-001  0.1933582E+03  0.7546771E-02  0.1155614E+00
         21   -1    0    0  502  503  0.00000000000E+00  0.00000000000E+00  0.16014562156E+04  0.16014562156E+04  0.00000000000E+00 0. -1.
         21   -1    0    0  503  504 -0.00000000000E+00 -0.00000000000E+00 -0.59989139246E+02  0.59989139246E+02  0.00000000000E+00 0. -1.
         -6    2    1    2    0  504  0.55251171475E+02  0.64285110350E+02  0.12128141715E+03  0.22824672101E+03  0.17378756038E+03 0.  0.
        -24    2    3    3    0    0  0.28189253069E+02  0.37755023098E+02 -0.13012304207E+02  0.88629076873E+02  0.73930490658E+02 0.  0.
          6    2    1    2  502    0 -0.55251171475E+02 -0.64285110350E+02  0.14201856592E+04  0.14331986339E+04  0.17304840384E+03 0.  0.
         24    2    5    5    0    0  0.19796731617E+01 -0.24933767166E+02  0.30592664065E+03  0.31676719922E+03  0.78260700153E+02 0.  0.
          2    1    6    6  501    0  0.28810628062E+02 -0.29566160802E+02  0.26091804660E+03  0.26416365608E+03  0.00000000000E+00 0. -1.
         -1    1    6    6    0  501 -0.26830954900E+02  0.46323936353E+01  0.45008594049E+02  0.52603543131E+02  0.00000000000E+00 0.  1.
          5    1    5    5  502    0 -0.57230844637E+02 -0.39351343183E+02  0.11142590186E+04  0.11164314347E+04  0.47000000000E+01 0. -1.
         13    1    4    4    0    0  0.52970835833E+02  0.32980931351E+02 -0.10352048091E+02  0.63252005354E+02  0.00000000000E+00 0. -1.
        -14    1    4    4    0    0 -0.24781582764E+02  0.47740917472E+01 -0.26602561156E+01  0.25377071519E+02  0.00000000000E+00 0.  1.
         -5    1    3    3    0  504  0.27061918406E+02  0.26530087252E+02  0.13429372136E+03  0.13961764414E+03  0.47000000000E+01 0.  1.
<mgrwt>
<rscale>  2 0.19319194E+03</rscale>
<asrwt>0</asrwt>
<pdfrwt beam="1">  1       21 0.24637785E+00 0.19335817E+03</pdfrwt>
<pdfrwt beam="2">  1       21 0.92290995E-02 0.19335817E+03</pdfrwt>
<totfact> 0.65233512E+03</totfact>
</mgrwt>
</event>
<event>
12    1  0.2743855E-001  0.1779180E+03  0.7546771E-02  0.1169965E+00
         21   -1    0    0  502  503  0.00000000000E+00  0.00000000000E+00  0.42835638478E+03  0.42835638478E+03  0.00000000000E+00 0.  1.
         21   -1    0    0  503  504 -0.00000000000E+00 -0.00000000000E+00 -0.48188424705E+03  0.48188424705E+03  0.00000000000E+00 0.  1.
         -6    2    1    2    0  504 -0.33590905551E+02 -0.67902283881E+01 -0.44564311462E+03  0.47964896167E+03  0.17404276683E+03 0.  0.
        -24    2    3    3    0    0 -0.26637157192E+01 -0.53699853372E+02 -0.15094186450E+03  0.17960243060E+03  0.81134560970E+02 0.  0.
          6    2    1    2  502    0  0.33590905551E+02  0.67902283881E+01  0.39211525235E+03  0.43059167016E+03  0.17458625131E+03 0.  0.
         24    2    5    5    0    0  0.54507111238E+02 -0.31030613850E+02  0.36603564503E+03  0.37989512505E+03  0.80026798240E+02 0.  0.
          4    1    6    6  501    0 -0.62412366963E+01 -0.31329569888E+02  0.60888754438E+02  0.68759984016E+02  0.00000000000E+00 0. -1.
         -3    1    6    6    0  501  0.60748347934E+02  0.29895603782E+00  0.30514689059E+03  0.31113514104E+03  0.00000000000E+00 0.  1.
          5    1    5    5  502    0 -0.20916205686E+02  0.37820842238E+02  0.26079607328E+02  0.50696545112E+02  0.47000000000E+01 0. -1.
         11    1    4    4    0    0  0.17577117523E+02  0.79202317790E+01 -0.50298085449E+01  0.19924459988E+02  0.00000000000E+00 0. -1.
        -12    1    4    4    0    0 -0.20240833242E+02 -0.61620085151E+02 -0.14591205596E+03  0.15967797061E+03  0.00000000000E+00 0.  1.
         -5    1    3    3    0  504 -0.30927189832E+02  0.46909624984E+02 -0.29470125012E+03  0.30004653107E+03  0.47000000000E+01 0.  1.
<mgrwt>
<rscale>  2 0.17778453E+03</rscale>
<asrwt>0</asrwt>
<pdfrwt beam="1">  1       21 0.65900982E-01 0.17791800E+03</pdfrwt>
<pdfrwt beam="2">  1       21 0.74136038E-01 0.17791800E+03</pdfrwt>
<totfact> 0.34943142E+03</totfact>
</mgrwt>
</event>
<event>
12    1  0.2743855E-001  0.3059559E+03  0.7546771E-02  0.1082349E+00
         21   -1    0    0  502  503  0.00000000000E+00  0.00000000000E+00  0.37116068238E+02  0.37116068238E+02  0.00000000000E+00 0. -1.
         21   -1    0    0  503  504 -0.00000000000E+00 -0.00000000000E+00 -0.25347079188E+04  0.25347079188E+04  0.00000000000E+00 0.  1.
         -6    2    1    2    0  504 -0.23949154463E+03  0.79156020300E+02 -0.11460959052E+04  0.11861291139E+04  0.17246615751E+03 0.  0.
        -24    2    3    3    0    0 -0.22179389116E+03  0.10856378759E+02 -0.87360792968E+03  0.90461564218E+03  0.76343003334E+02 0.  0.
          6    2    1    2  502    0  0.23949154463E+03 -0.79156020300E+02 -0.13514959453E+04  0.13856948731E+04  0.17316788253E+03 0.  0.
         24    2    5    5    0    0  0.14798648314E+03 -0.64580077645E+02 -0.11484749749E+04  0.11624791953E+04  0.79325442725E+02 0.  0.
          4    1    6    6  501    0  0.14491913115E+02 -0.33425128524E+02 -0.13715906332E+03  0.14191498657E+03  0.00000000000E+00 0. -1.
         -3    1    6    6    0  501  0.13349457003E+03 -0.31154949122E+02 -0.10113159116E+04  0.10205642087E+04  0.00000000000E+00 0.  1.
          5    1    5    5  502    0  0.91505061488E+02 -0.14575942655E+02 -0.20302097044E+03  0.22321567781E+03  0.47000000000E+01 0. -1.
         13    1    4    4    0    0 -0.15221239929E+02 -0.17437271853E+02 -0.51195313401E+02  0.56184559345E+02  0.00000000000E+00 0. -1.
        -14    1    4    4    0    0 -0.20657265123E+03  0.28293650611E+02 -0.82241261628E+03  0.84843108283E+03  0.00000000000E+00 0.  1.
         -5    1    3    3    0  504 -0.17697653475E+02  0.68299641541E+02 -0.27248797553E+03  0.28151347176E+03  0.47000000000E+01 0.  1.
<mgrwt>
<rscale>  2 0.30585666E+03</rscale>
<asrwt>0</asrwt>
<pdfrwt beam="1">  1       21 0.57101658E-02 0.30595586E+03</pdfrwt>
<pdfrwt beam="2">  1       21 0.38995496E+00 0.30595586E+03</pdfrwt>
<totfact> 0.18981367E+03</totfact>
</mgrwt>
</event>
<event>
12    1  0.2743855E-001  0.1856468E+03  0.7546771E-02  0.1162605E+00
         21   -1    0    0  502  503  0.00000000000E+00  0.00000000000E+00  0.34417202597E+02  0.34417202597E+02  0.00000000000E+00 0. -1.
         21   -1    0    0  503  504 -0.00000000000E+00 -0.00000000000E+00 -0.99819293625E+03  0.99819293625E+03  0.00000000000E+00 0.  1.
         -6    2    1    2    0  504  0.17857970741E+02 -0.64051702497E+02 -0.49205295918E+03  0.52567117428E+03  0.17260515959E+03 0.  0.
        -24    2    3    3    0    0  0.37837209907E+02 -0.76297468329E+02 -0.19318461325E+03  0.22584871519E+03  0.80214644718E+02 0.  0.
          6    2    1    2  502    0 -0.17857970741E+02  0.64051702497E+02 -0.47172277447E+03  0.50693896457E+03  0.17332977277E+03 0.  0.
         24    2    5    5    0    0  0.45202254739E+02 -0.13386829401E+01 -0.26897098930E+03  0.28471639385E+03  0.81688407602E+02 0.  0.
          2    1    6    6  501    0  0.79923835531E+01 -0.30323194197E+02 -0.39429853200E+02  0.50379436525E+02  0.00000000000E+00 0. -1.
         -1    1    6    6    0  501  0.37209871186E+02  0.28984511257E+02 -0.22954113610E+03  0.23433695732E+03  0.00000000000E+00 0.  1.
          5    1    5    5  502    0 -0.63060225479E+02  0.65390385438E+02 -0.20275178517E+03  0.22222257072E+03  0.47000000000E+01 0. -1.
         13    1    4    4    0    0 -0.50633443950E+01  0.66917662729E+01  0.27097308033E+01  0.88181536242E+01  0.00000000000E+00 0. -1.
        -14    1    4    4    0    0  0.42900554302E+02 -0.82989234602E+02 -0.19589434406E+03  0.21703056156E+03  0.00000000000E+00 0.  1.
         -5    1    3    3    0  504 -0.19979239167E+02  0.12245765832E+02 -0.29886834592E+03  0.29982245909E+03  0.47000000000E+01 0.  1.
<mgrwt>
<rscale>  2 0.18547749E+03</rscale>
<asrwt>0</asrwt>
<pdfrwt beam="1">  1       21 0.52949553E-02 0.18564681E+03</pdfrwt>
<pdfrwt beam="2">  1       21 0.15356811E+00 0.18564681E+03</pdfrwt>
<totfact> 0.68807330E+04</totfact>
</mgrwt>
</event>
<event>
12    1  0.2743855E-001  0.2131665E+03  0.7546771E-02  0.1139317E+00
         21   -1    0    0  502  503  0.00000000000E+00  0.00000000000E+00  0.48566816603E+02  0.48566816603E+02  0.00000000000E+00 0.  1.
         21   -1    0    0  503  504 -0.00000000000E+00 -0.00000000000E+00 -0.20007535589E+04  0.20007535589E+04  0.00000000000E+00 0. -1.
         -6    2    1    2    0  504  0.11368615985E+03 -0.50813841898E+02 -0.17268559814E+04  0.17399630866E+04  0.17301263719E+03 0.  0.
        -24    2    3    3    0    0 -0.36295337693E+01 -0.41300878981E+02 -0.94608637401E+03  0.95035765456E+03  0.79883091827E+02 0.  0.
          6    2    1    2  502    0 -0.11368615985E+03  0.50813841898E+02 -0.22533076083E+03  0.30935728888E+03  0.17152664789E+03 0.  0.
         24    2    5    5    0    0 -0.38120560419E+02  0.23736005765E+01 -0.29346756272E+02  0.93745515453E+02  0.80424986525E+02 0.  0.
          4    1    6    6  501    0 -0.53759604222E+01  0.35683862766E+02 -0.30157598325E+02  0.47028924600E+02  0.00000000000E+00 0. -1.
         -3    1    6    6    0  501 -0.32744599997E+02 -0.33310262189E+02  0.81084205242E+00  0.46716590853E+02  0.00000000000E+00 0.  1.
          5    1    5    5  502    0 -0.75565599426E+02  0.48440241322E+02 -0.19598400456E+03  0.21561177342E+03  0.47000000000E+01 0. -1.
         11    1    4    4    0    0  0.21329781933E+02 -0.33823489117E+02 -0.20784546516E+03  0.21165709391E+03  0.00000000000E+00 0. -1.
        -12    1    4    4    0    0 -0.24959315702E+02 -0.74773898639E+01 -0.73824090885E+03  0.73870056065E+03  0.00000000000E+00 0.  1.
         -5    1    3    3    0  504  0.11731569361E+03 -0.95129629167E+01 -0.78076960741E+03  0.78960543202E+03  0.47000000000E+01 0.  1.
<mgrwt>
<rscale>  2 0.21286480E+03</rscale>
<asrwt>0</asrwt>
<pdfrwt beam="1">  1       21 0.74718185E-02 0.21316651E+03</pdfrwt>
<pdfrwt beam="2">  1       21 0.30780822E+00 0.21316651E+03</pdfrwt>
<totfact> 0.40617611E+03</totfact>
</mgrwt>
</event>
<event>
12    1  0.2743855E-001  0.1845521E+03  0.7546771E-02  0.1164026E+00
         21   -1    0    0  502  503  0.00000000000E+00  0.00000000000E+00  0.86767271499E+03  0.86767271499E+03  0.00000000000E+00 0.  1.
         21   -1    0    0  503  504 -0.00000000000E+00 -0.00000000000E+00 -0.43692366997E+02  0.43692366997E+02  0.00000000000E+00 0.  1.
         -6    2    1    2    0  504  0.62380395630E+02 -0.15639431935E+02  0.56284675274E+03  0.59159915241E+03  0.17046168034E+03 0.  0.
        -24    2    3    3    0    0  0.96592461402E+02 -0.45972579359E+02  0.44814563925E+03  0.46803135436E+03  0.82311925226E+02 0.  0.
          6    2    1    2  502    0 -0.62380395630E+02  0.15639431935E+02  0.26113359525E+03  0.31976592958E+03  0.17298436219E+03 0.  0.
         24    2    5    5    0    0  0.12004705593E+02 -0.35818606472E+02  0.16688005991E+03  0.18904909086E+03  0.80396012547E+02 0.  0.
          4    1    6    6  501    0 -0.15869179862E+02 -0.65187967563E+01  0.13870393766E+03  0.13976089547E+03  0.00000000000E+00 0. -1.
         -3    1    6    6    0  501  0.27873885455E+02 -0.29299809716E+02  0.28176122255E+02  0.49288195393E+02  0.00000000000E+00 0.  1.
          5    1    5    5  502    0 -0.74385101222E+02  0.51458038407E+02  0.94253535336E+02  0.13071683872E+03  0.47000000000E+01 0. -1.
         13    1    4    4    0    0  0.56025684424E+02  0.53894383138E+00  0.10152397487E+03  0.11595811852E+03  0.00000000000E+00 0. -1.
        -14    1    4    4    0    0  0.40566776978E+02 -0.46511523190E+02  0.34662166437E+03  0.35207323584E+03  0.00000000000E+00 0.  1.
         -5    1    3    3    0  504 -0.34212065773E+02  0.30333147424E+02  0.11470111349E+03  0.12356779805E+03  0.47000000000E+01 0.  1.
<mgrwt>
<rscale>  2 0.18395868E+03</rscale>
<asrwt>0</asrwt>
<pdfrwt beam="1">  1       21 0.13348810E+00 0.18455215E+03</pdfrwt>
<pdfrwt beam="2">  1       21 0.67219033E-02 0.18455215E+03</pdfrwt>
<totfact> 0.65843380E+04</totfact>
</mgrwt>
</event>
<event>
12    1  0.2743855E-001  0.2168454E+03  0.7546771E-02  0.1136817E+00
         21   -1    0    0  502  503  0.00000000000E+00  0.00000000000E+00  0.30473972878E+03  0.30473972878E+03  0.00000000000E+00 0. -1.
         21   -1    0    0  503  504 -0.00000000000E+00 -0.00000000000E+00 -0.16625779911E+03  0.16625779911E+03  0.00000000000E+00 0. -1.
         -6    2    1    2    0  504  0.11918679297E+03 -0.38254899356E+02  0.39583806298E+00  0.21391838647E+03  0.17347043102E+03 0.  0.
        -24    2    3    3    0    0  0.13397095015E+03 -0.40935655541E+02 -0.43872708995E+02  0.16693379308E+03  0.79486686300E+02 0.  0.
          6    2    1    2  502    0 -0.11918679297E+03  0.38254899356E+02  0.13808609160E+03  0.25707914142E+03  0.17706774782E+03 0.  0.
         24    2    5    5    0    0 -0.38033924839E+02 -0.37638488728E+02  0.20584105179E+02  0.95294095221E+02  0.76118486096E+02 0.  0.
          4    1    6    6  501    0 -0.65960336646E+01 -0.24388135436E+02  0.46183021124E+02  0.52641810857E+02  0.00000000000E+00 0. -1.
         -3    1    6    6    0  501 -0.31437891174E+02 -0.13250353292E+02 -0.25598915946E+02  0.42652284364E+02  0.00000000000E+00 0.  1.
          5    1    5    5  502    0 -0.81152868132E+02  0.75893388084E+02  0.11750198642E+03  0.16178504620E+03  0.47000000000E+01 0. -1.
         11    1    4    4    0    0  0.21811692950E+02  0.77857595208E+01 -0.38008842240E+02  0.44508876521E+02  0.00000000000E+00 0. -1.
        -12    1    4    4    0    0  0.11215925720E+03 -0.48721415062E+02 -0.58638667545E+01  0.12242491656E+03  0.00000000000E+00 0.  1.
         -5    1    3    3    0  504 -0.14784157180E+02  0.26807561850E+01  0.44268547058E+02  0.46984593388E+02  0.47000000000E+01 0.  1.
<mgrwt>
<rscale>  2 0.21610980E+03</rscale>
<asrwt>0</asrwt>
<pdfrwt beam="1">  1       21 0.46883035E-01 0.21684537E+03</pdfrwt>
<pdfrwt beam="2">  1       21 0.25578123E-01 0.21684537E+03</pdfrwt>
<totfact> 0.62458520E+04</totfact>
</mgrwt>
</event>
<event>
12    1  0.2743855E-001  0.1776458E+03  0.7546771E-02  0.1170188E+00
         21   -1    0    0  502  503  0.00000000000E+00  0.00000000000E+00  0.60395246634E+02  0.60395246634E+02  0.00000000000E+00 0. -1.
         21   -1    0    0  503  504 -0.00000000000E+00 -0.00000000000E+00 -0.52206575104E+03  0.52206575104E+03  0.00000000000E+00 0. -1.
         -6    2    1    2    0  504 -0.38666026355E+02  0.22392291639E+01 -0.22095653544E+03  0.28329340240E+03  0.17301238553E+03 0.  0.
        -24    2    3    3    0    0 -0.63809884139E+02 -0.46168568619E+02 -0.18832207218E+03  0.21955466487E+03  0.80844356332E+02 0.  0.
          6    2    1    2  502    0  0.38666026355E+02 -0.22392291639E+01 -0.24071396896E+03  0.29916759527E+03  0.17337231459E+03 0.  0.
         24    2    5    5    0    0 -0.14917551315E+02 -0.36179333399E+02 -0.20846022038E+03  0.22785472988E+03  0.83250447142E+02 0.  0.
          2    1    6    6  501    0  0.20539848641E+02 -0.44447231900E+01 -0.15444795361E+03  0.15587113691E+03  0.00000000000E+00 0. -1.
         -1    1    6    6    0  501 -0.35457399957E+02 -0.31734610209E+02 -0.54012266767E+02  0.71983592979E+02  0.00000000000E+00 0.  1.
          5    1    5    5  502    0  0.53583577670E+02  0.33940104235E+02 -0.32253748583E+02  0.71312865383E+02  0.47000000000E+01 0. -1.
         11    1    4    4    0    0 -0.22624102742E+02 -0.31695596215E+02 -0.16533709421E+02  0.42306316213E+02  0.00000000000E+00 0. -1.
        -12    1    4    4    0    0 -0.41185781397E+02 -0.14472972404E+02 -0.17178836276E+03  0.17724834865E+03  0.00000000000E+00 0.  1.
         -5    1    3    3    0  504  0.25143857784E+02  0.48407797783E+02 -0.32634463261E+02  0.63738737537E+02  0.47000000000E+01 0.  1.
<mgrwt>
<rscale>  2 0.17755794E+03</rscale>
<asrwt>0</asrwt>
<pdfrwt beam="1">  1       21 0.92915763E-02 0.17764581E+03</pdfrwt>
<pdfrwt beam="2">  1       21 0.80317809E-01 0.17764581E+03</pdfrwt>
<totfact> 0.12659138E+05</totfact>
</mgrwt>
</event>
<event>
12    1  0.2743855E-001  0.2646831E+03  0.7546771E-02  0.1104434E+00
         21   -1    0    0  502  503  0.00000000000E+00  0.00000000000E+00  0.59198498886E+02  0.59198498886E+02  0.00000000000E+00 0. -1.
         21   -1    0    0  503  504 -0.00000000000E+00 -0.00000000000E+00 -0.14005147776E+04  0.14005147776E+04  0.00000000000E+00 0.  1.
         -6    2    1    2    0  504  0.19717047554E+03  0.31834207721E+02 -0.38237932522E+03  0.46504957695E+03  0.17368807518E+03 0.  0.
        -24    2    3    3    0    0  0.20757777006E+03  0.39137380572E+02 -0.27111309886E+03  0.35296072273E+03  0.80366001724E+02 0.  0.
          6    2    1    2  502    0 -0.19717047554E+03 -0.31834207721E+02 -0.95893695347E+03  0.99466369951E+03  0.17293403711E+03 0.  0.
         24    2    5    5    0    0 -0.39214156024E+02 -0.51513302792E+02 -0.43275269828E+03  0.44490973085E+03  0.80488510567E+02 0.  0.
          2    1    6    6  501    0  0.23813394277E+02 -0.13564394620E+02 -0.16377076244E+03  0.16604798456E+03  0.00000000000E+00 0. -1.
         -1    1    6    6    0  501 -0.63027550302E+02 -0.37948908172E+02 -0.26898193585E+03  0.27886174628E+03  0.00000000000E+00 0.  1.
          5    1    5    5  502    0 -0.15795631952E+03  0.19679095072E+02 -0.52618425518E+03  0.54975396866E+03  0.47000000000E+01 0. -1.
         11    1    4    4    0    0  0.64801856548E+02  0.40589374678E+02 -0.56017171815E+02  0.94787665268E+02  0.00000000000E+00 0. -1.
        -12    1    4    4    0    0  0.14277591351E+03 -0.14519941062E+01 -0.21509592705E+03  0.25817305746E+03  0.00000000000E+00 0.  1.
         -5    1    3    3    0  504 -0.10407294518E+02 -0.73031728514E+01 -0.11126622636E+03  0.11208885422E+03  0.47000000000E+01 0.  1.
<mgrwt>
<rscale>  2 0.26455950E+03</rscale>
<asrwt>0</asrwt>
<pdfrwt beam="1">  1       21 0.91074612E-02 0.26468313E+03</pdfrwt>
<pdfrwt beam="2">  1       21 0.21546382E+00 0.26468313E+03</pdfrwt>
<totfact> 0.97157850E+03</totfact>
</mgrwt>
</event>
<event>
12    1  0.2743855E-001  0.1862325E+03  0.7546771E-02  0.1162394E+00
         21   -1    0    0  502  503  0.00000000000E+00  0.00000000000E+00  0.14715298014E+03  0.14715298014E+03  0.00000000000E+00 0. -1.
         21   -1    0    0  503  504 -0.00000000000E+00 -0.00000000000E+00 -0.56970588312E+03  0.56970588312E+03  0.00000000000E+00 0.  1.
         -6    2    1    2    0  504  0.38302434072E+02 -0.49460517391E+02 -0.48632181505E+03  0.52001116108E+03  0.17317413379E+03 0.  0.
        -24    2    3    3    0    0  0.70636019580E+01 -0.76310831294E+02 -0.18218605133E+03  0.21306253873E+03  0.79565386094E+02 0.  0.
          6    2    1    2  502    0 -0.38302434072E+02  0.49460517391E+02  0.63768912064E+02  0.19684770218E+03  0.17541130087E+03 0.  0.
         24    2    5    5    0    0  0.29686355435E+02 -0.21753199051E+02  0.27118979379E+02  0.91685082995E+02  0.79474738334E+02 0.  0.
          2    1    6    6  501    0  0.50887917533E+02 -0.26350505210E+02  0.36614161245E+02  0.68003868120E+02  0.00000000000E+00 0. -1.
         -1    1    6    6    0  501 -0.21201562097E+02  0.45973061587E+01 -0.94951818662E+01  0.23681214875E+02  0.00000000000E+00 0.  1.
          5    1    5    5  502    0 -0.67988789507E+02  0.71213716442E+02  0.36649932685E+02  0.10516261919E+03  0.47000000000E+01 0. -1.
         13    1    4    4    0    0  0.34550572621E+02 -0.28467705859E+02 -0.38144897791E+02  0.58814841433E+02  0.00000000000E+00 0. -1.
        -14    1    4    4    0    0 -0.27486970663E+02 -0.47843125435E+02 -0.14404115354E+03  0.15424769730E+03  0.00000000000E+00 0.  1.
         -5    1    3    3    0  504  0.31238832114E+02  0.26850313903E+02 -0.30413576372E+03  0.30694862235E+03  0.47000000000E+01 0.  1.
<mgrwt>
<rscale>  2 0.18570384E+03</rscale>
<asrwt>0</asrwt>
<pdfrwt beam="1">  1       21 0.22638920E-01 0.18623250E+03</pdfrwt>
<pdfrwt beam="2">  1       21 0.87647059E-01 0.18623250E+03</pdfrwt>
<totfact> 0.20503346E+04</totfact>
</mgrwt>
</event>
<event>
12    1  0.2743855E-001  0.1805922E+03  0.7546771E-02  0.1167820E+00
         21   -1    0    0  502  503  0.00000000000E+00  0.00000000000E+00  0.38415421575E+03  0.38415421575E+03  0.00000000000E+00 0.  1.
         21   -1    0    0  503  504 -0.00000000000E+00 -0.00000000000E+00 -0.95969419712E+02  0.95969419712E+02  0.00000000000E+00 0.  1.
         -6    2    1    2    0  504 -0.56241063532E+01 -0.46563969180E+02  0.59317688477E+02  0.19008456777E+03  0.17439530080E+03 0.  0.
        -24    2    3    3    0    0 -0.45738649860E+02  0.25503510078E+02  0.15893489260E+02  0.96753708755E+02  0.79788620990E+02 0.  0.
          6    2    1    2  502    0  0.56241063532E+01  0.46563969180E+02  0.22886710756E+03  0.29003906769E+03  0.17187982448E+03 0.  0.
         24    2    5    5    0    0 -0.37764991392E+02  0.79911217628E+02  0.12892187671E+03  0.17599612861E+03  0.80881331072E+02 0.  0.
          2    1    6    6  501    0 -0.52323831145E+02  0.23891819425E+02  0.87920627606E+02  0.10506492802E+03  0.00000000000E+00 0. -1.
         -1    1    6    6    0  501  0.14558839753E+02  0.56019398203E+02  0.41001249101E+02  0.70931200595E+02  0.00000000000E+00 0.  1.
          5    1    5    5  502    0  0.43389097746E+02 -0.33347248448E+02  0.99945230853E+02  0.11404293907E+03  0.47000000000E+01 0. -1.
         13    1    4    4    0    0 -0.23708531970E+01  0.20754472489E+02 -0.27955823183E+02  0.34898382814E+02  0.00000000000E+00 0. -1.
        -14    1    4    4    0    0 -0.43367796663E+02  0.47490375889E+01  0.43849312443E+02  0.61855325940E+02  0.00000000000E+00 0.  1.
         -5    1    3    3    0  504  0.40114543507E+02 -0.72067479259E+02  0.43424199217E+02  0.93330859018E+02  0.47000000000E+01 0.  1.
<mgrwt>
<rscale>  2 0.17998216E+03</rscale>
<asrwt>0</asrwt>
<pdfrwt beam="1">  1       21 0.59100648E-01 0.18059223E+03</pdfrwt>
<pdfrwt beam="2">  1       21 0.14764526E-01 0.18059223E+03</pdfrwt>
<totfact> 0.10854668E+05</totfact>
</mgrwt>
</event>
<event>
12    1  0.2743855E-001  0.2471949E+03  0.7546771E-02  0.1115191E+00
         21   -1    0    0  502  503  0.00000000000E+00  0.00000000000E+00  0.12005916080E+03  0.12005916080E+03  0.00000000000E+00 0.  1.
         21   -1    0    0  503  504 -0.00000000000E+00 -0.00000000000E+00 -0.73204911968E+03  0.73204911968E+03  0.00000000000E+00 0.  1.
         -6    2    1    2    0  504 -0.16749690645E+03 -0.56139518862E+02 -0.54214199377E+03  0.59583827526E+03  0.17291168152E+03 0.  0.
        -24    2    3    3    0    0 -0.98938517067E+02  0.30504160394E+02 -0.35510784864E+03  0.37855679571E+03  0.80525334233E+02 0.  0.
          6    2    1    2  502    0  0.16749690645E+03  0.56139518862E+02 -0.69847965113E+02  0.25627000522E+03  0.17201371485E+03 0.  0.
         24    2    5    5    0    0  0.33893296136E+02 -0.18907431913E+02 -0.19582532690E+02  0.94929764717E+02  0.84391576228E+02 0.  0.
          2    1    6    6  501    0  0.96410736644E+00  0.71089045077E+01 -0.45197722672E+02  0.45763524352E+02  0.00000000000E+00 0. -1.
         -1    1    6    6    0  501  0.32929188770E+02 -0.26016336421E+02  0.25615189983E+02  0.49166240365E+02  0.00000000000E+00 0.  1.
          5    1    5    5  502    0  0.13360361031E+03  0.75046950775E+02 -0.50265432424E+02  0.16134024050E+03  0.47000000000E+01 0. -1.
         13    1    4    4    0    0 -0.40913305966E+02  0.19657939797E+02 -0.48935781037E+02  0.66746115002E+02  0.00000000000E+00 0. -1.
        -14    1    4    4    0    0 -0.58025211100E+02  0.10846220596E+02 -0.30617206760E+03  0.31181068071E+03  0.00000000000E+00 0.  1.
         -5    1    3    3    0  504 -0.68558389381E+02 -0.86643679256E+02 -0.18703414513E+03  0.21728147955E+03  0.47000000000E+01 0.  1.
<mgrwt>
<rscale>  2 0.24703791E+03</rscale>
<asrwt>0</asrwt>
<pdfrwt beam="1">  1       21 0.18470640E-01 0.24719488E+03</pdfrwt>
<pdfrwt beam="2">  1       21 0.11262294E+00 0.24719488E+03</pdfrwt>
<totfact> 0.15978082E+04</totfact>
</mgrwt>
</event>
<event>
12    1  0.2743855E-001  0.2319625E+03  0.7546771E-02  0.1126727E+00
         21   -1    0    0  502  503  0.00000000000E+00  0.00000000000E+00  0.15967615002E+03  0.15967615002E+03  0.00000000000E+00 0. -1.
         21   -1    0    0  503  504 -0.00000000000E+00 -0.00000000000E+00 -0.32512642195E+03  0.32512642195E+03  0.00000000000E+00 0. -1.
         -6    2    1    2    0  504 -0.13668367245E+03 -0.19710084109E+02 -0.85197208474E+02  0.24711365824E+03  0.18637511107E+03 0.  0.
        -24    2    3    3    0    0 -0.14946413909E+03  0.17740279460E+02 -0.20922543014E+02  0.17148831408E+03  0.79474792679E+02 0.  0.
          6    2    1    2  502    0  0.13668367245E+03  0.19710084109E+02 -0.80253063454E+02  0.23768891374E+03  0.17602429318E+03 0.  0.
         24    2    5    5    0    0  0.11660854124E+03 -0.13568771304E+02  0.64077812945E+01  0.14259587970E+03  0.80689911387E+02 0.  0.
          2    1    6    6  501    0  0.91750257158E+02  0.15103029977E+02  0.30247970335E+02  0.97781137816E+02  0.00000000000E+00 0. -1.
         -1    1    6    6    0  501  0.24858284084E+02 -0.28671801280E+02 -0.23840189041E+02  0.44814741880E+02  0.00000000000E+00 0.  1.
          5    1    5    5  502    0  0.20075131207E+02  0.33278855412E+02 -0.86660844749E+02  0.95093034041E+02  0.47000000000E+01 0. -1.
         13    1    4    4    0    0 -0.14557097268E+02 -0.10797287166E+02 -0.28067799430E+02  0.33410954130E+02  0.00000000000E+00 0. -1.
        -14    1    4    4    0    0 -0.13490704182E+03  0.28537566626E+02  0.71452564161E+01  0.13807735995E+03  0.00000000000E+00 0.  1.
         -5    1    3    3    0  504  0.12780466640E+02 -0.37450363568E+02 -0.64274665460E+02  0.75625344157E+02  0.47000000000E+01 0.  1.
<mgrwt>
<rscale>  2 0.22987660E+03</rscale>
<asrwt>0</asrwt>
<pdfrwt beam="1">  1       21 0.24565562E-01 0.23196249E+03</pdfrwt>
<pdfrwt beam="2">  1       21 0.50019449E-01 0.23196249E+03</pdfrwt>
<totfact> 0.58596019E+04</totfact>
</mgrwt>
</event>
<event>
12    1  0.2743855E-001  0.2121162E+03  0.7546771E-02  0.1140011E+00
         21   -1    0    0  502  503  0.00000000000E+00  0.00000000000E+00  0.13747610759E+04  0.13747610759E+04  0.00000000000E+00 0.  1.
         21   -1    0    0  503  504 -0.00000000000E+00 -0.00000000000E+00 -0.32934776106E+02  0.32934776106E+02  0.00000000000E+00 0.  1.
         -6    2    1    2    0  504 -0.11282271133E+03 -0.48400020596E+02  0.60356031720E+03  0.63956177307E+03  0.17228661841E+03 0.  0.
        -24    2    3    3    0    0 -0.69719395926E+02  0.24881812463E+01  0.52866282163E+03  0.53916640600E+03  0.79680921017E+02 0.  0.
          6    2    1    2  502    0  0.11282271133E+03  0.48400020596E+02  0.73826598260E+03  0.76813407895E+03  0.17297912010E+03 0.  0.
         24    2    5    5    0    0  0.18698372200E+02  0.35993553598E+02  0.19184930434E+03  0.21351115486E+03  0.84473029133E+02 0.  0.
          4    1    6    6  501    0  0.11900533192E+02  0.31798118792E+02  0.16092223854E+02  0.37572632560E+02  0.00000000000E+00 0. -1.
         -3    1    6    6    0  501  0.67978390078E+01  0.41954348064E+01  0.17575708049E+03  0.17593852230E+03  0.00000000000E+00 0.  1.
          5    1    5    5  502    0  0.94124339129E+02  0.12406466998E+02  0.54641667826E+03  0.55462292409E+03  0.47000000000E+01 0. -1.
         13    1    4    4    0    0  0.99204043448E+00  0.28049586858E+02  0.96000166785E+02  0.10001897565E+03  0.00000000000E+00 0. -1.
        -14    1    4    4    0    0 -0.70711436360E+02 -0.25561405611E+02  0.43266265484E+03  0.43914743035E+03  0.00000000000E+00 0.  1.
         -5    1    3    3    0  504 -0.43103315404E+02 -0.50888201842E+02  0.74897495579E+02  0.10039536707E+03  0.47000000000E+01 0.  1.
<mgrwt>
<rscale>  2 0.21197502E+03</rscale>
<asrwt>0</asrwt>
<pdfrwt beam="1">  1       21 0.21150166E+00 0.21211625E+03</pdfrwt>
<pdfrwt beam="2">  1       21 0.50668897E-02 0.21211625E+03</pdfrwt>
<totfact> 0.29446946E+04</totfact>
</mgrwt>
</event>
<event>
12    1  0.2743855E-001  0.2613626E+03  0.7546771E-02  0.1106552E+00
         21   -1    0    0  502  503  0.00000000000E+00  0.00000000000E+00  0.76924198860E+02  0.76924198860E+02  0.00000000000E+00 0. -1.
         21   -1    0    0  503  504 -0.00000000000E+00 -0.00000000000E+00 -0.11846995815E+04  0.11846995815E+04  0.00000000000E+00 0.  1.
         -6    2    1    2    0  504  0.11489537035E+02 -0.19386043318E+03 -0.87344058413E+03  0.91170655814E+03  0.17491860146E+03 0.  0.
        -24    2    3    3    0    0  0.20507443822E+02 -0.85262698578E+02 -0.68408685008E+03  0.69318489513E+03  0.69571527014E+02 0.  0.
          6    2    1    2  502    0 -0.11489537035E+02  0.19386043318E+03 -0.23433479853E+03  0.34991722224E+03  0.17267132826E+03 0.  0.
         24    2    5    5    0    0 -0.60099885332E+01  0.21303801382E+03 -0.18251614828E+03  0.29419408912E+03  0.88412116804E+02 0.  0.
          2    1    6    6  501    0 -0.44659423960E+02  0.14846840524E+03 -0.11422613559E+03  0.19257450910E+03  0.00000000000E+00 0. -1.
         -1    1    6    6    0  501  0.38649435427E+02  0.64569608576E+02 -0.68290012691E+02  0.10161958002E+03  0.00000000000E+00 0.  1.
          5    1    5    5  502    0 -0.54795485022E+01 -0.19177580635E+02 -0.51818650244E+02  0.55723133113E+02  0.47000000000E+01 0. -1.
         11    1    4    4    0    0  0.12764374947E+02  0.97122948037E+01 -0.75679847630E+02  0.77360825199E+02  0.00000000000E+00 0. -1.
        -12    1    4    4    0    0  0.77430688755E+01 -0.94974993382E+02 -0.60840700245E+03  0.61582406993E+03  0.00000000000E+00 0.  1.
         -5    1    3    3    0  504 -0.90179067870E+01 -0.10859773461E+03 -0.18935373406E+03  0.21852166301E+03  0.47000000000E+01 0.  1.
<mgrwt>
<rscale>  2 0.26098710E+03</rscale>
<asrwt>0</asrwt>
<pdfrwt beam="1">  1       21 0.11834493E-01 0.26136257E+03</pdfrwt>
<pdfrwt beam="2">  1       21 0.18226146E+00 0.26136257E+03</pdfrwt>
<totfact> 0.10063774E+04</totfact>
</mgrwt>
</event>
<event>
12    1  0.2743855E-001  0.2253726E+03  0.7546771E-02  0.1130095E+00
         21   -1    0    0  502  503  0.00000000000E+00  0.00000000000E+00  0.15784802512E+03  0.15784802512E+03  0.00000000000E+00 0.  1.
         21   -1    0    0  503  504 -0.00000000000E+00 -0.00000000000E+00 -0.38851907668E+03  0.38851907668E+03  0.00000000000E+00 0. -1.
         -6    2    1    2    0  504  0.13629838766E+03 -0.43021913404E+02 -0.22940759938E+03  0.32099099434E+03  0.17314513069E+03 0.  0.
        -24    2    3    3    0    0  0.31101637776E+02 -0.17664127117E+01 -0.32899194058E+02  0.94262046282E+02  0.82659205860E+02 0.  0.
          6    2    1    2  502    0 -0.13629838766E+03  0.43021913404E+02 -0.12634521826E+01  0.22537610746E+03  0.17425457810E+03 0.  0.
         24    2    5    5    0    0 -0.12340312314E+03  0.94165231098E+02  0.35599642253E+00  0.17239838190E+03  0.75004358535E+02 0.  0.
          2    1    6    6  501    0 -0.59594302280E+02  0.43447784165E+02 -0.37258793295E+02  0.82628133774E+02  0.00000000000E+00 0. -1.
         -1    1    6    6    0  501 -0.63808820857E+02  0.50717446933E+02  0.37614789717E+02  0.89770248123E+02  0.00000000000E+00 0.  1.
          5    1    5    5  502    0 -0.12895264523E+02 -0.51143317694E+02 -0.16194486051E+01  0.52977725561E+02  0.47000000000E+01 0. -1.
         13    1    4    4    0    0  0.40931466741E+02 -0.31939649817E+02 -0.34748971932E+02  0.62474132650E+02  0.00000000000E+00 0. -1.
        -14    1    4    4    0    0 -0.98298289651E+01  0.30173237106E+02  0.18497778738E+01  0.31787913632E+02  0.00000000000E+00 0.  1.
         -5    1    3    3    0  504  0.10519674988E+03 -0.41255500692E+02 -0.19650840532E+03  0.22672894805E+03  0.47000000000E+01 0.  1.
<mgrwt>
<rscale>  2 0.22515808E+03</rscale>
<asrwt>0</asrwt>
<pdfrwt beam="1">  1       21 0.24284311E-01 0.22537257E+03</pdfrwt>
<pdfrwt beam="2">  1       21 0.59772166E-01 0.22537257E+03</pdfrwt>
<totfact> 0.41152480E+04</totfact>
</mgrwt>
</event>
<event>
12    1  0.2743855E-001  0.2032387E+03  0.7546771E-02  0.1147065E+00
         21   -1    0    0  502  503  0.00000000000E+00  0.00000000000E+00  0.99512270508E+02  0.99512270508E+02  0.00000000000E+00 0. -1.
         21   -1    0    0  503  504 -0.00000000000E+00 -0.00000000000E+00 -0.75129562926E+03  0.75129562926E+03  0.00000000000E+00 0. -1.
         -6    2    1    2    0  504  0.32726055551E+02 -0.10254513176E+03 -0.61065912671E+03  0.64359189140E+03  0.17239331450E+03 0.  0.
        -24    2    3    3    0    0  0.25680276507E+01 -0.12821722157E+03 -0.38834002092E+03  0.41772370497E+03  0.85081556015E+02 0.  0.
          6    2    1    2  502    0 -0.32726055551E+02  0.10254513176E+03 -0.41124232039E+02  0.20721600836E+03  0.17222303243E+03 0.  0.
         24    2    5    5    0    0 -0.70333826398E+02  0.63429693846E+02  0.19293886300E+02  0.12587228743E+03  0.80631293536E+02 0.  0.
          2    1    6    6  501    0 -0.81247863294E+02  0.70347784525E+02  0.64676861512E+01  0.10766548677E+03  0.00000000000E+00 0. -1.
         -1    1    6    6    0  501  0.10914036896E+02 -0.69180906796E+01  0.12826200149E+02  0.18206800660E+02  0.00000000000E+00 0.  1.
          5    1    5    5  502    0  0.37607770847E+02  0.39115437919E+02 -0.60418118339E+02  0.81343720933E+02  0.47000000000E+01 0. -1.
         13    1    4    4    0    0 -0.21473282019E+02 -0.71384888423E+02 -0.11173564777E+03  0.13431961553E+03  0.00000000000E+00 0. -1.
        -14    1    4    4    0    0  0.24041309669E+02 -0.56832333146E+02 -0.27660437315E+03  0.28340408943E+03  0.00000000000E+00 0.  1.
         -5    1    3    3    0  504  0.30158027900E+02  0.25672089805E+02 -0.22231910579E+03  0.22586818643E+03  0.47000000000E+01 0.  1.
<mgrwt>
<rscale>  2 0.20320255E+03</rscale>
<asrwt>0</asrwt>
<pdfrwt beam="1">  1       21 0.15309580E-01 0.20323866E+03</pdfrwt>
<pdfrwt beam="2">  1       21 0.11558395E+00 0.20323866E+03</pdfrwt>
<totfact> 0.21741339E+04</totfact>
</mgrwt>
</event>
<event>
12    1  0.2743855E-001  0.1759070E+03  0.7546771E-02  0.1171972E+00
         21   -1    0    0  502  503  0.00000000000E+00  0.00000000000E+00  0.76270461594E+03  0.76270461594E+03  0.00000000000E+00 0.  1.
         21   -1    0    0  503  504 -0.00000000000E+00 -0.00000000000E+00 -0.62089013035E+02  0.62089013035E+02  0.00000000000E+00 0.  1.
         -6    2    1    2    0  504  0.28792873137E+02  0.11422042088E+02  0.10714220969E+03  0.20596779278E+03  0.17315826857E+03 0.  0.
        -24    2    3    3    0    0 -0.43953711025E+02 -0.10632492437E+02  0.94243180476E+02  0.12872180288E+03  0.75116887996E+02 0.  0.
          6    2    1    2  502    0 -0.28792873137E+02 -0.11422042088E+02  0.59347339322E+03  0.61882583620E+03  0.17255507672E+03 0.  0.
         24    2    5    5    0    0 -0.11241481165E+01 -0.35912946812E+02  0.56544819543E+03  0.57221184184E+03  0.80023288975E+02 0.  0.
          4    1    6    6  501    0  0.36390793264E+02 -0.28552394282E+02  0.23098305507E+03  0.23556888755E+03  0.00000000000E+00 0. -1.
         -3    1    6    6    0  501 -0.37514941380E+02 -0.73605525301E+01  0.33446514036E+03  0.33664295430E+03  0.00000000000E+00 0.  1.
          5    1    5    5  502    0 -0.27668725020E+02  0.24490904724E+02  0.28025197790E+02  0.46613994354E+02  0.47000000000E+01 0. -1.
         11    1    4    4    0    0 -0.21342165219E+02 -0.84325495661E+01  0.10212778896E+03  0.10467416675E+03  0.00000000000E+00 0. -1.
        -12    1    4    4    0    0 -0.22611545806E+02 -0.21999428705E+01 -0.78846084806E+01  0.24047636127E+02  0.00000000000E+00 0.  1.
         -5    1    3    3    0  504  0.72746584162E+02  0.22054534525E+02  0.12899029212E+02  0.77245989896E+02  0.47000000000E+01 0.  1.
<mgrwt>
<rscale>  2 0.17575840E+03</rscale>
<asrwt>0</asrwt>
<pdfrwt beam="1">  1       21 0.11733916E+00 0.17590702E+03</pdfrwt>
<pdfrwt beam="2">  1       21 0.95521564E-02 0.17590702E+03</pdfrwt>
<totfact> 0.49532513E+04</totfact>
</mgrwt>
</event>
<event>
12    1  0.2743855E-001  0.2611195E+03  0.7546771E-02  0.1106578E+00
         21   -1    0    0  502  503  0.00000000000E+00  0.00000000000E+00  0.98688245499E+02  0.98688245499E+02  0.00000000000E+00 0. -1.
         21   -1    0    0  503  504 -0.00000000000E+00 -0.00000000000E+00 -0.75166740549E+03  0.75166740549E+03  0.00000000000E+00 0. -1.
         -6    2    1    2    0  504 -0.16908185277E+03 -0.96464188838E+02 -0.20416301782E+03  0.33146032044E+03  0.17403848286E+03 0.  0.
        -24    2    3    3    0    0 -0.19697746651E+03 -0.77095575112E+02 -0.16894768543E+03  0.28231239984E+03  0.80081962267E+02 0.  0.
          6    2    1    2  502    0  0.16908185277E+03  0.96464188838E+02 -0.44881614216E+03  0.51889533054E+03  0.17298098718E+03 0.  0.
         24    2    5    5    0    0  0.11754143183E+03  0.51877131952E+02 -0.14085739428E+03  0.20345103906E+03  0.71023198704E+02 0.  0.
          4    1    6    6  501    0  0.12382737549E+03  0.57697714118E+02 -0.13856457520E+03  0.19458259592E+03  0.00000000000E+00 0. -1.
         -3    1    6    6    0  501 -0.62859436575E+01 -0.58205821656E+01 -0.22928190867E+01  0.88684431428E+01  0.00000000000E+00 0.  1.
          5    1    5    5  502    0  0.51540420944E+02  0.44587056886E+02 -0.30795874788E+03  0.31544429148E+03  0.47000000000E+01 0. -1.
         13    1    4    4    0    0 -0.12300957278E+03 -0.25747467905E+02 -0.13906646272E+03  0.18744003882E+03  0.00000000000E+00 0. -1.
        -14    1    4    4    0    0 -0.73967893727E+02 -0.51348107207E+02 -0.29881222711E+02  0.94872361027E+02  0.00000000000E+00 0.  1.
         -5    1    3    3    0  504  0.27895613737E+02 -0.19368613726E+02 -0.35215332398E+02  0.49147920600E+02  0.47000000000E+01 0.  1.
<mgrwt>
<rscale>  2 0.26094344E+03</rscale>
<asrwt>0</asrwt>
<pdfrwt beam="1">  1       21 0.15182807E-01 0.26111952E+03</pdfrwt>
<pdfrwt beam="2">  1       21 0.11564114E+00 0.26111952E+03</pdfrwt>
<totfact> 0.21365020E+04</totfact>
</mgrwt>
</event>
<event>
12    1  0.2743855E-001  0.1890625E+03  0.7546771E-02  0.1159397E+00
         21   -1    0    0  502  503  0.00000000000E+00  0.00000000000E+00  0.23381158884E+03  0.23381158884E+03  0.00000000000E+00 0. -1.
         21   -1    0    0  503  504 -0.00000000000E+00 -0.00000000000E+00 -0.15523342411E+03  0.15523342411E+03  0.00000000000E+00 0.  1.
         -6    2    1    2    0  504  0.21091653295E+02  0.75342004404E+02  0.13752120758E+02  0.18917741134E+03  0.17169070059E+03 0.  0.
        -24    2    3    3    0    0  0.88135193266E+01  0.65675860219E+02  0.72693227123E+02  0.12801916630E+03  0.81936590919E+02 0.  0.
          6    2    1    2  502    0 -0.21091653295E+02 -0.75342004404E+02  0.64826043972E+02  0.19986760161E+03  0.17211440012E+03 0.  0.
         24    2    5    5    0    0  0.35330395234E+02 -0.81434526001E+02  0.98664508207E+01  0.12072713624E+03  0.81227308952E+02 0.  0.
          4    1    6    6  501    0 -0.12046419144E+01 -0.82732066518E+02  0.14068527533E+02  0.83928359089E+02  0.00000000000E+00 0. -1.
         -3    1    6    6    0  501  0.36535037148E+02  0.12975405168E+01 -0.42020767124E+01  0.36798777147E+02  0.00000000000E+00 0.  1.
          5    1    5    5  502    0 -0.56422048529E+02  0.60925215969E+01  0.54959593151E+02  0.79140465369E+02  0.47000000000E+01 0. -1.
         11    1    4    4    0    0  0.36679805448E+02  0.67010202118E+02  0.44755422812E+02  0.88537128860E+02  0.00000000000E+00 0. -1.
        -12    1    4    4    0    0 -0.27866286122E+02 -0.13343418985E+01  0.27937804311E+02  0.39482037438E+02  0.00000000000E+00 0.  1.
         -5    1    3    3    0  504  0.12278133968E+02  0.96661441850E+01 -0.58941106365E+02  0.61158245042E+02  0.47000000000E+01 0.  1.
<mgrwt>
<rscale>  2 0.18896605E+03</rscale>
<asrwt>0</asrwt>
<pdfrwt beam="1">  1       21 0.35971014E-01 0.18906254E+03</pdfrwt>
<pdfrwt beam="2">  1       21 0.23882065E-01 0.18906254E+03</pdfrwt>
<totfact> 0.12331674E+05</totfact>
</mgrwt>
</event>
<event>
12    1  0.2743855E-001  0.1849103E+03  0.7546771E-02  0.1164884E+00
         21   -1    0    0  502  503  0.00000000000E+00  0.00000000000E+00  0.89759426678E+02  0.89759426678E+02  0.00000000000E+00 0.  1.
         21   -1    0    0  503  504 -0.00000000000E+00 -0.00000000000E+00 -0.46885167904E+03  0.46885167904E+03  0.00000000000E+00 0.  1.
         -6    2    1    2    0  504  0.29722216966E+02 -0.10643905645E+02 -0.31736745844E+03  0.36367071612E+03  0.17475005916E+03 0.  0.
        -24    2    3    3    0    0 -0.11469275020E+02 -0.32614702185E+02 -0.30184950291E+03  0.31425055974E+03  0.80280936847E+02 0.  0.
          6    2    1    2  502    0 -0.29722216966E+02  0.10643905645E+02 -0.61724793923E+02  0.19494038960E+03  0.18219523156E+03 0.  0.
         24    2    5    5    0    0 -0.14826439490E+02  0.64322809964E+02  0.98828915027E+01  0.10409403817E+03  0.79878971259E+02 0.  0.
          2    1    6    6  501    0 -0.50328046175E+01  0.81209230647E+02  0.17348945331E+02  0.83194075322E+02  0.00000000000E+00 0. -1.
         -1    1    6    6    0  501 -0.97936348726E+01 -0.16886420683E+02 -0.74660538279E+01  0.20899962853E+02  0.00000000000E+00 0.  1.
          5    1    5    5  502    0 -0.14895777476E+02 -0.53678904320E+02 -0.71607685426E+02  0.90846351427E+02  0.47000000000E+01 0. -1.
         11    1    4    4    0    0 -0.39105621516E+02 -0.27095253031E+02 -0.10352164693E+03  0.11393038995E+03  0.00000000000E+00 0. -1.
        -12    1    4    4    0    0  0.27636346496E+02 -0.55194491538E+01 -0.19832785599E+03  0.20032016979E+03  0.00000000000E+00 0.  1.
         -5    1    3    3    0  504  0.41191491986E+02  0.21970796540E+02 -0.15517955531E+02  0.49420156379E+02  0.47000000000E+01 0.  1.
<mgrwt>
<rscale>  2 0.18304954E+03</rscale>
<asrwt>0</asrwt>
<pdfrwt beam="1">  1       21 0.13809143E-01 0.18491026E+03</pdfrwt>
<pdfrwt beam="2">  1       21 0.72131027E-01 0.18491026E+03</pdfrwt>
<totfact> 0.79298072E+04</totfact>
</mgrwt>
</event>
<event>
12    1  0.2743855E-001  0.1784738E+03  0.7546771E-02  0.1169469E+00
         21   -1    0    0  502  503  0.00000000000E+00  0.00000000000E+00  0.78805045498E+03  0.78805045498E+03  0.00000000000E+00 0.  1.
         21   -1    0    0  503  504 -0.00000000000E+00 -0.00000000000E+00 -0.42602067542E+02  0.42602067542E+02  0.00000000000E+00 0.  1.
         -6    2    1    2    0  504  0.40376435656E+02  0.18585939077E+02  0.27446647492E+03  0.32698908245E+03  0.17208811842E+03 0.  0.
        -24    2    3    3    0    0  0.73962307563E+02  0.19544052668E+02  0.27105684729E+03  0.29289151166E+03  0.80381777803E+02 0.  0.
          6    2    1    2  502    0 -0.40376435656E+02 -0.18585939077E+02  0.47098191252E+03  0.50366344007E+03  0.17285023938E+03 0.  0.
         24    2    5    5    0    0  0.20892478592E+01 -0.72518420495E+02  0.31627946539E+03  0.33435016837E+03  0.80585659944E+02 0.  0.
          4    1    6    6  501    0  0.18525374197E+02  0.69924729642E+01  0.24588927727E+02  0.31570548523E+02  0.00000000000E+00 0. -1.
         -3    1    6    6    0  501 -0.16436126338E+02 -0.79510893459E+02  0.29169053767E+03  0.30277961984E+03  0.00000000000E+00 0.  1.
          5    1    5    5  502    0 -0.42465683516E+02  0.53932481418E+02  0.15470244712E+03  0.16931327170E+03  0.47000000000E+01 0. -1.
         13    1    4    4    0    0  0.95309243603E+00 -0.17003434175E+02  0.11981269922E+03  0.12101697424E+03  0.00000000000E+00 0. -1.
        -14    1    4    4    0    0  0.73009215127E+02  0.36547486842E+02  0.15124414807E+03  0.17187453742E+03  0.00000000000E+00 0.  1.
         -5    1    3    3    0  504 -0.33585871907E+02 -0.95811359059E+00  0.34096276241E+01  0.34097570792E+02  0.47000000000E+01 0.  1.
<mgrwt>
<rscale>  2 0.17828902E+03</rscale>
<asrwt>0</asrwt>
<pdfrwt beam="1">  1       21 0.12123852E+00 0.17847380E+03</pdfrwt>
<pdfrwt beam="2">  1       21 0.65541648E-02 0.17847380E+03</pdfrwt>
<totfact> 0.87788406E+04</totfact>
</mgrwt>
</event>
<event>
12    1  0.2743855E-001  0.2082353E+03  0.7546771E-02  0.1143828E+00
         21   -1    0    0  502  503  0.00000000000E+00  0.00000000000E+00  0.99487274134E+03  0.99487274134E+03  0.00000000000E+00 0.  1.
         21   -1    0    0  503  504 -0.00000000000E+00 -0.00000000000E+00 -0.46206724564E+02  0.46206724564E+02  0.00000000000E+00 0. -1.
         -6    2    1    2    0  504  0.17976811824E+02  0.11265697532E+03  0.32651790772E+03  0.38500766077E+03  0.16912183459E+03 0.  0.
        -24    2    3    3    0    0  0.44791338255E+02  0.54031394885E+02  0.29349333647E+03  0.31242191963E+03  0.80891666441E+02 0.  0.
          6    2    1    2  502    0 -0.17976811824E+02 -0.11265697532E+03  0.62214810906E+03  0.65607180514E+03  0.17420443175E+03 0.  0.
         24    2    5    5    0    0 -0.52460933958E+02 -0.87745350209E+02  0.24662537091E+03  0.27811789179E+03  0.77936461841E+02 0.  0.
          2    1    6    6  501    0 -0.57743322421E+01 -0.64097465760E+02  0.75697049305E+02  0.99357291142E+02  0.00000000000E+00 0. -1.
         -1    1    6    6    0  501 -0.46686601716E+02 -0.23647884450E+02  0.17092832160E+03  0.17876060065E+03  0.00000000000E+00 0.  1.
          5    1    5    5  502    0  0.34484122134E+02 -0.24911625115E+02  0.37552273816E+03  0.37795391335E+03  0.47000000000E+01 0. -1.
         13    1    4    4    0    0  0.29787748905E+00  0.37206830080E+02  0.40506719930E+02  0.55002102642E+02  0.00000000000E+00 0. -1.
        -14    1    4    4    0    0  0.44493460766E+02  0.16824564806E+02  0.25298661654E+03  0.25741981699E+03  0.00000000000E+00 0.  1.
         -5    1    3    3    0  504 -0.26814526431E+02  0.58625580439E+02  0.33024571248E+02  0.72585741132E+02  0.47000000000E+01 0.  1.
<mgrwt>
<rscale>  2 0.20716890E+03</rscale>
<asrwt>0</asrwt>
<pdfrwt beam="1">  1       21 0.15305733E+00 0.20823531E+03</pdfrwt>
<pdfrwt beam="2">  1       21 0.71087276E-02 0.20823531E+03</pdfrwt>
<totfact> 0.41360179E+04</totfact>
</mgrwt>
</event>
<event>
12    1  0.2743855E-001  0.2358844E+03  0.7546771E-02  0.1122807E+00
         21   -1    0    0  502  503  0.00000000000E+00  0.00000000000E+00  0.83886607666E+02  0.83886607666E+02  0.00000000000E+00 0.  1.
         21   -1    0    0  503  504 -0.00000000000E+00 -0.00000000000E+00 -0.82486179137E+03  0.82486179137E+03  0.00000000000E+00 0.  1.
         -6    2    1    2    0  504 -0.15930352679E+03  0.92718592789E+01 -0.57493053421E+03  0.62143911842E+03  0.17371781061E+03 0.  0.
        -24    2    3    3    0    0  0.97506171504E+00  0.11002172894E+02 -0.16042914060E+03  0.17700046662E+03  0.73957132690E+02 0.  0.
          6    2    1    2  502    0  0.15930352679E+03 -0.92718592789E+01 -0.16604464950E+03  0.28730928061E+03  0.17179119907E+03 0.  0.
         24    2    5    5    0    0  0.13926239743E+03 -0.55264583340E+02 -0.16450214899E+03  0.23689651596E+03  0.81306904627E+02 0.  0.
          2    1    6    6  501    0  0.69856989084E+02 -0.53819664975E+02 -0.45760046790E+02  0.99350576970E+02  0.00000000000E+00 0. -1.
         -1    1    6    6    0  501  0.69405408344E+02 -0.14449183648E+01 -0.11874210220E+03  0.13754593899E+03  0.00000000000E+00 0.  1.
          5    1    5    5  502    0  0.20041129359E+02  0.45992724061E+02 -0.15425005074E+01  0.50412764657E+02  0.47000000000E+01 0. -1.
         13    1    4    4    0    0  0.17021315458E+02  0.38970560522E+02 -0.90029126736E+02  0.99567431564E+02  0.00000000000E+00 0. -1.
        -14    1    4    4    0    0 -0.16046253743E+02 -0.27968387628E+02 -0.70400013867E+02  0.77433035058E+02  0.00000000000E+00 0.  1.
         -5    1    3    3    0  504 -0.16027858850E+03 -0.17303136151E+01 -0.41450139360E+03  0.44443865180E+03  0.47000000000E+01 0.  1.
<mgrwt>
<rscale>  2 0.23552981E+03</rscale>
<asrwt>0</asrwt>
<pdfrwt beam="1">  1       21 0.12905632E-01 0.23588442E+03</pdfrwt>
<pdfrwt beam="2">  1       21 0.12690181E+00 0.23588442E+03</pdfrwt>
<totfact> 0.23059885E+04</totfact>
</mgrwt>
</event>
<event>
12    1  0.2743855E-001  0.2120653E+03  0.7546771E-02  0.1140024E+00
         21   -1    0    0  502  503  0.00000000000E+00  0.00000000000E+00  0.99048485487E+03  0.99048485487E+03  0.00000000000E+00 0.  1.
         21   -1    0    0  503  504 -0.00000000000E+00 -0.00000000000E+00 -0.23957281228E+03  0.23957281228E+03  0.00000000000E+00 0. -1.
         -6    2    1    2    0  504  0.10330516447E+03  0.68807943930E+02 -0.17829225489E+03  0.27705561050E+03  0.17194531980E+03 0.  0.
        -24    2    3    3    0    0  0.74817289442E+02 -0.47767844734E+01 -0.37659227211E+02  0.11572982288E+03  0.79716560638E+02 0.  0.
          6    2    1    2  502    0 -0.10330516447E+03 -0.68807943930E+02  0.92920429747E+03  0.95300205666E+03  0.17142287886E+03 0.  0.
         24    2    5    5    0    0 -0.14186425147E+03 -0.57129750043E+02  0.71823275426E+03  0.73816661860E+03  0.75115866032E+02 0.  0.
          2    1    6    6  501    0 -0.88538711346E+02 -0.12521493743E+02  0.53030456193E+03  0.53779068384E+03  0.00000000000E+00 0. -1.
         -1    1    6    6    0  501 -0.53325540119E+02 -0.44608256300E+02  0.18792819233E+03  0.20037593476E+03  0.00000000000E+00 0.  1.
          5    1    5    5  502    0  0.38559086996E+02 -0.11678193887E+02  0.21097154321E+03  0.21483543806E+03  0.47000000000E+01 0. -1.
         13    1    4    4    0    0 -0.48445342149E+01  0.17449452689E+02 -0.26757993870E+02  0.32310109050E+02  0.00000000000E+00 0. -1.
        -14    1    4    4    0    0  0.79661823657E+02 -0.22226237163E+02 -0.10901233341E+02  0.83419713828E+02  0.00000000000E+00 0.  1.
         -5    1    3    3    0  504  0.28487875027E+02  0.73584728403E+02 -0.14063302768E+03  0.16132578762E+03  0.47000000000E+01 0.  1.
<mgrwt>
<rscale>  2 0.21195936E+03</rscale>
<asrwt>0</asrwt>
<pdfrwt beam="1">  1       21 0.15238228E+00 0.21206528E+03</pdfrwt>
<pdfrwt beam="2">  1       21 0.36857356E-01 0.21206528E+03</pdfrwt>
<totfact> 0.19989947E+03</totfact>
</mgrwt>
</event>
<event>
12    1  0.2743855E-001  0.1942991E+03  0.7546771E-02  0.1157271E+00
         21   -1    0    0  502  503  0.00000000000E+00  0.00000000000E+00  0.10026165673E+03  0.10026165673E+03  0.00000000000E+00 0. -1.
         21   -1    0    0  503  504 -0.00000000000E+00 -0.00000000000E+00 -0.47629675992E+03  0.47629675992E+03  0.00000000000E+00 0. -1.
         -6    2    1    2    0  504 -0.28310190713E+02 -0.46400389000E+02 -0.37888830644E+02  0.18656478066E+03  0.17440295553E+03 0.  0.
        -24    2    3    3    0    0 -0.46841601992E+02 -0.91488921970E+02 -0.39175831785E+02  0.13757360410E+03  0.82628035365E+02 0.  0.
          6    2    1    2  502    0  0.28310190713E+02  0.46400389000E+02 -0.33814627255E+03  0.38999363599E+03  0.18654133985E+03 0.  0.
         24    2    5    5    0    0  0.63846986878E+02 -0.31074708750E+02 -0.21627870982E+03  0.24120167552E+03  0.79747681447E+02 0.  0.
          4    1    6    6  501    0  0.55645397514E+02 -0.14306403605E+02 -0.21494059114E+03  0.22248717080E+03  0.00000000000E+00 0. -1.
         -3    1    6    6    0  501  0.82015893643E+01 -0.16768305145E+02 -0.13381186781E+01  0.18714504726E+02  0.00000000000E+00 0.  1.
          5    1    5    5  502    0 -0.35536796165E+02  0.77475097750E+02 -0.12186756273E+03  0.14879196046E+03  0.47000000000E+01 0. -1.
         13    1    4    4    0    0  0.23133023670E+02 -0.13498528424E+02 -0.11855623180E+02  0.29289978743E+02  0.00000000000E+00 0. -1.
        -14    1    4    4    0    0 -0.69974625663E+02 -0.77990393545E+02 -0.27320208604E+02  0.10828362536E+03  0.00000000000E+00 0.  1.
         -5    1    3    3    0  504  0.18531411279E+02  0.45088532970E+02  0.12870011409E+01  0.48991176566E+02  0.47000000000E+01 0.  1.
<mgrwt>
<rscale>  2 0.19132600E+03</rscale>
<asrwt>0</asrwt>
<pdfrwt beam="1">  1       21 0.15424870E-01 0.19429909E+03</pdfrwt>
<pdfrwt beam="2">  1       21 0.73276426E-01 0.19429909E+03</pdfrwt>
<totfact> 0.62380071E+04</totfact>
</mgrwt>
</event>
<event>
12    1  0.2743855E-001  0.2299933E+03  0.7546771E-02  0.1128311E+00
         21   -1    0    0  502  503  0.00000000000E+00  0.00000000000E+00  0.93348901959E+02  0.93348901959E+02  0.00000000000E+00 0. -1.
         21   -1    0    0  503  504 -0.00000000000E+00 -0.00000000000E+00 -0.62553763845E+03  0.62553763845E+03  0.00000000000E+00 0.  1.
         -6    2    1    2    0  504  0.10353254188E+03  0.91830671482E+02 -0.40055407319E+03  0.46188794180E+03  0.18369824653E+03 0.  0.
        -24    2    3    3    0    0  0.77878008565E+02  0.67405937437E+02 -0.11537612084E+03  0.17448008314E+03  0.80765744799E+02 0.  0.
          6    2    1    2  502    0 -0.10353254188E+03 -0.91830671482E+02 -0.13163466330E+03  0.25699859861E+03  0.17195562117E+03 0.  0.
         24    2    5    5    0    0 -0.96330600816E+02 -0.52280797399E+02 -0.18834891410E+02  0.13715729090E+03  0.80277661162E+02 0.  0.
          2    1    6    6  501    0 -0.79129699740E+02 -0.70030896494E+02  0.67079181024E+00  0.10567064780E+03  0.00000000000E+00 0. -1.
         -1    1    6    6    0  501 -0.17200901077E+02  0.17750099095E+02 -0.19505683220E+02  0.31486643098E+02  0.00000000000E+00 0.  1.
          5    1    5    5  502    0 -0.72019410649E+01 -0.39549874083E+02 -0.11279977189E+03  0.11984130771E+03  0.47000000000E+01 0. -1.
         13    1    4    4    0    0  0.86672339777E+02  0.28935167009E+02 -0.82773808631E+02  0.12329169383E+03  0.00000000000E+00 0. -1.
        -14    1    4    4    0    0 -0.87943312121E+01  0.38470770429E+02 -0.32602312207E+02  0.51188389309E+02  0.00000000000E+00 0.  1.
         -5    1    3    3    0  504  0.25654533316E+02  0.24424734044E+02 -0.28517795235E+03  0.28740785866E+03  0.47000000000E+01 0.  1.
<mgrwt>
<rscale>  2 0.22764097E+03</rscale>
<asrwt>0</asrwt>
<pdfrwt beam="1">  1       21 0.14361370E-01 0.22999327E+03</pdfrwt>
<pdfrwt beam="2">  1       21 0.96236558E-01 0.22999327E+03</pdfrwt>
<totfact> 0.37424534E+04</totfact>
</mgrwt>
</event>
<event>
12    1  0.2743855E-001  0.2437588E+03  0.7546771E-02  0.1117338E+00
         21   -1    0    0  502  503  0.00000000000E+00  0.00000000000E+00  0.26299294243E+03  0.26299294243E+03  0.00000000000E+00 0.  1.
         21   -1    0    0  503  504 -0.00000000000E+00 -0.00000000000E+00 -0.22602448690E+03  0.22602448690E+03  0.00000000000E+00 0.  1.
         -6    2    1    2    0  504 -0.35535805644E+01  0.17075223243E+03  0.10724657363E+02  0.24399460047E+03  0.17392352907E+03 0.  0.
        -24    2    3    3    0    0  0.31465725184E+02  0.18136636942E+03  0.27776684820E+02  0.20335135602E+03  0.81831399572E+02 0.  0.
          6    2    1    2  502    0  0.35535805644E+01 -0.17075223243E+03  0.26243798167E+02  0.24502282887E+03  0.17371959276E+03 0.  0.
         24    2    5    5    0    0  0.14507036920E+02 -0.19531676856E+03 -0.13777787433E+01  0.20618423785E+03  0.64427846930E+02 0.  0.
          4    1    6    6  501    0 -0.33362880745E+01 -0.11236784083E+01 -0.10384726278E+02  0.10965218244E+02  0.00000000000E+00 0. -1.
         -3    1    6    6    0  501  0.17843324994E+02 -0.19419309016E+03  0.90069475343E+01  0.19521901960E+03  0.00000000000E+00 0.  1.
          5    1    5    5  502    0 -0.10953456355E+02  0.24564536132E+02  0.27621576910E+02  0.38838591021E+02  0.47000000000E+01 0. -1.
         11    1    4    4    0    0  0.27594391071E+02  0.18104313163E+02  0.22528022213E+02  0.39959083554E+02  0.00000000000E+00 0. -1.
        -12    1    4    4    0    0  0.38713341130E+01  0.16326205626E+03  0.52486626075E+01  0.16339227246E+03  0.00000000000E+00 0.  1.
         -5    1    3    3    0  504 -0.35019305748E+02 -0.10614136988E+02 -0.17052027457E+02  0.40643244451E+02  0.47000000000E+01 0.  1.
<mgrwt>
<rscale>  2 0.24372241E+03</rscale>
<asrwt>0</asrwt>
<pdfrwt beam="1">  1       21 0.40460452E-01 0.24375879E+03</pdfrwt>
<pdfrwt beam="2">  1       21 0.34772998E-01 0.24375879E+03</pdfrwt>
<totfact> 0.45830450E+04</totfact>
</mgrwt>
</event>
<event>
12    1  0.2743855E-001  0.3079634E+03  0.7546771E-02  0.1081326E+00
         21   -1    0    0  502  503  0.00000000000E+00  0.00000000000E+00  0.16635921269E+03  0.16635921269E+03  0.00000000000E+00 0.  1.
         21   -1    0    0  503  504 -0.00000000000E+00 -0.00000000000E+00 -0.12740151408E+04  0.12740151408E+04  0.00000000000E+00 0.  1.
         -6    2    1    2    0  504 -0.12223274495E+03  0.22469082003E+03 -0.10891549260E+04  0.11318568506E+04  0.17150705182E+03 0.  0.
        -24    2    3    3    0    0 -0.51079689830E+02  0.19098421545E+03 -0.61271257894E+03  0.64893005228E+03  0.81298235471E+02 0.  0.
          6    2    1    2  502    0  0.12223274495E+03 -0.22469082003E+03 -0.18501002025E+02  0.30851750283E+03  0.17150496766E+03 0.  0.
         24    2    5    5    0    0  0.10553254168E+03 -0.21845127924E+03 -0.60520442462E+02  0.26263120822E+03  0.80338962032E+02 0.  0.
          4    1    6    6  501    0  0.33562840417E+02 -0.15793385230E+03 -0.35270371228E+02  0.16526816102E+03  0.00000000000E+00 0. -1.
         -3    1    6    6    0  501  0.71969701260E+02 -0.60517426934E+02 -0.25250071234E+02  0.97363047197E+02  0.00000000000E+00 0.  1.
          5    1    5    5  502    0  0.16700203271E+02 -0.62395407949E+01  0.42019440437E+02  0.45886294613E+02  0.47000000000E+01 0. -1.
         11    1    4    4    0    0  0.19634488215E+02  0.74177209292E+02 -0.24178298578E+03  0.25366667838E+03  0.00000000000E+00 0. -1.
        -12    1    4    4    0    0 -0.70714178045E+02  0.11680700616E+03 -0.37092959316E+03  0.39526337390E+03  0.00000000000E+00 0.  1.
         -5    1    3    3    0  504 -0.71153055118E+02  0.33706604581E+02 -0.47644234710E+03  0.48292679834E+03  0.47000000000E+01 0.  1.
<mgrwt>
<rscale>  2 0.30796314E+03</rscale>
<asrwt>0</asrwt>
<pdfrwt beam="1">  1       21 0.25593724E-01 0.30796344E+03</pdfrwt>
<pdfrwt beam="2">  1       21 0.19600233E+00 0.30796344E+03</pdfrwt>
<totfact> 0.18771685E+03</totfact>
</mgrwt>
</event>
<event>
12    1  0.2743855E-001  0.1917444E+03  0.7546771E-02  0.1156978E+00
         21   -1    0    0  502  503  0.00000000000E+00  0.00000000000E+00  0.40925655106E+03  0.40925655106E+03  0.00000000000E+00 0. -1.
         21   -1    0    0  503  504 -0.00000000000E+00 -0.00000000000E+00 -0.16647261955E+03  0.16647261955E+03  0.00000000000E+00 0. -1.
         -6    2    1    2    0  504  0.14830805384E+02  0.81417432620E+02 -0.74201101116E+02  0.20526267003E+03  0.17256363805E+03 0.  0.
        -24    2    3    3    0    0  0.10706636327E+01 -0.17083187458E+02 -0.15686780650E+02  0.89773582422E+02  0.86719313878E+02 0.  0.
          6    2    1    2  502    0 -0.14830805384E+02 -0.81417432620E+02  0.31698503262E+03  0.37046650058E+03  0.17296579437E+03 0.  0.
         24    2    5    5    0    0 -0.77550127338E+02 -0.56224517329E+02  0.21191281103E+03  0.24544387032E+03  0.78488441185E+02 0.  0.
          4    1    6    6  501    0 -0.93870532328E+02 -0.49793735538E+02  0.17977871767E+03  0.20883361862E+03  0.00000000000E+00 0. -1.
         -3    1    6    6    0  501  0.16320404990E+02 -0.64307817915E+01  0.32134093360E+02  0.36610251700E+02  0.00000000000E+00 0.  1.
          5    1    5    5  502    0  0.62719321954E+02 -0.25192915291E+02  0.10507222160E+03  0.12502263026E+03  0.47000000000E+01 0. -1.
         11    1    4    4    0    0 -0.42704584530E+00  0.62522025528E+00 -0.50595694196E+02  0.50601359070E+02  0.00000000000E+00 0. -1.
        -12    1    4    4    0    0  0.14977094780E+01 -0.17708407713E+02  0.34908913546E+02  0.39172223353E+02  0.00000000000E+00 0.  1.
         -5    1    3    3    0  504  0.13760141752E+02  0.98500620078E+02 -0.58514320466E+02  0.11548908761E+03  0.47000000000E+01 0.  1.
<mgrwt>
<rscale>  2 0.19165367E+03</rscale>
<asrwt>0</asrwt>
<pdfrwt beam="1">  1       21 0.62962546E-01 0.19174441E+03</pdfrwt>
<pdfrwt beam="2">  1       21 0.25611172E-01 0.19174441E+03</pdfrwt>
<totfact> 0.33796568E+04</totfact>
</mgrwt>
</event>
<event>
12    1  0.2743855E-001  0.2435528E+03  0.7546771E-02  0.1117450E+00
         21   -1    0    0  502  503  0.00000000000E+00  0.00000000000E+00  0.30289059606E+03  0.30289059606E+03  0.00000000000E+00 0.  1.
         21   -1    0    0  503  504 -0.00000000000E+00 -0.00000000000E+00 -0.41768154807E+03  0.41768154807E+03  0.00000000000E+00 0. -1.
         -6    2    1    2    0  504  0.81211281918E+02  0.15057902847E+03 -0.31997059073E+03  0.40211236188E+03  0.17333163738E+03 0.  0.
        -24    2    3    3    0    0  0.25220236047E+02  0.71711394254E+02 -0.42397561911E+02  0.10813280941E+03  0.64160477258E+02 0.  0.
          6    2    1    2  502    0 -0.81211281918E+02 -0.15057902847E+03  0.20517963872E+03  0.31845978226E+03  0.17334541426E+03 0.  0.
         24    2    5    5    0    0 -0.10835643273E+03 -0.69395075112E+02  0.16331624642E+03  0.22305366552E+03  0.80770962560E+02 0.  0.
          4    1    6    6  501    0 -0.81739729889E+02 -0.68303544222E+01  0.71562995558E+02  0.10885448781E+03  0.00000000000E+00 0. -1.
         -3    1    6    6    0  501 -0.26616702846E+02 -0.62564720690E+02  0.91753250864E+02  0.11419917771E+03  0.00000000000E+00 0.  1.
          5    1    5    5  502    0  0.27145150817E+02 -0.81183953362E+02  0.41863392297E+02  0.95406116738E+02  0.47000000000E+01 0. -1.
         13    1    4    4    0    0  0.72301591319E+01  0.54376624566E+02 -0.57071260649E+02  0.79159467483E+02  0.00000000000E+00 0. -1.
        -14    1    4    4    0    0  0.17990076915E+02  0.17334769688E+02  0.14673698737E+02  0.28973341923E+02  0.00000000000E+00 0.  1.
         -5    1    3    3    0  504  0.55991045871E+02  0.78867634219E+02 -0.27757302882E+03  0.29397955247E+03  0.47000000000E+01 0.  1.
<mgrwt>
<rscale>  2 0.24355031E+03</rscale>
<asrwt>0</asrwt>
<pdfrwt beam="1">  1       21 0.46598553E-01 0.24355276E+03</pdfrwt>
<pdfrwt beam="2">  1       21 0.64258700E-01 0.24355276E+03</pdfrwt>
<totfact> 0.95395678E+03</totfact>
</mgrwt>
</event>
<event>
12    1  0.2743855E-001  0.2058952E+03  0.7546771E-02  0.1145126E+00
         21   -1    0    0  502  503  0.00000000000E+00  0.00000000000E+00  0.80239364603E+03  0.80239364603E+03  0.00000000000E+00 0.  1.
         21   -1    0    0  503  504 -0.00000000000E+00 -0.00000000000E+00 -0.18797846455E+03  0.18797846455E+03  0.00000000000E+00 0.  1.
         -6    2    1    2    0  504  0.49829907028E+02 -0.97938422085E+02 -0.11345734067E+03  0.23393888563E+03  0.17256847889E+03 0.  0.
        -24    2    3    3    0    0 -0.11108502813E+01 -0.42059845794E+02 -0.12802129196E+03  0.15679243580E+03  0.80150808565E+02 0.  0.
          6    2    1    2  502    0 -0.49829907028E+02  0.97938422085E+02  0.72787252215E+03  0.75643322495E+03  0.17412024912E+03 0.  0.
         24    2    5    5    0    0 -0.27564127713E+02 -0.86366132568E+01  0.44206451284E+03  0.45055365506E+03  0.82116930995E+02 0.  0.
          2    1    6    6  501    0 -0.16216681122E+02 -0.43643136135E+02  0.18026799677E+03  0.18618339007E+03  0.00000000000E+00 0. -1.
         -1    1    6    6    0  501 -0.11347446591E+02  0.35006522878E+02  0.26179651606E+03  0.26437026499E+03  0.00000000000E+00 0.  1.
          5    1    5    5  502    0 -0.22265779315E+02  0.10657503534E+03  0.28580800931E+03  0.30587956989E+03  0.47000000000E+01 0. -1.
         11    1    4    4    0    0  0.14040094783E+02 -0.19508750905E+02  0.18529297843E+01  0.24107031592E+02  0.00000000000E+00 0. -1.
        -12    1    4    4    0    0 -0.15150945064E+02 -0.22551094889E+02 -0.12987422175E+03  0.13268540421E+03  0.00000000000E+00 0.  1.
         -5    1    3    3    0  504  0.50940757309E+02 -0.55878576291E+02  0.14563951296E+02  0.77146449827E+02  0.47000000000E+01 0.  1.
<mgrwt>
<rscale>  2 0.20556672E+03</rscale>
<asrwt>0</asrwt>
<pdfrwt beam="1">  1       21 0.12344517E+00 0.20589516E+03</pdfrwt>
<pdfrwt beam="2">  1       21 0.28919764E-01 0.20589516E+03</pdfrwt>
<totfact> 0.55738643E+03</totfact>
</mgrwt>
</event>
<event>
12    1  0.2743855E-001  0.2471661E+03  0.7546771E-02  0.1115192E+00
         21   -1    0    0  502  503  0.00000000000E+00  0.00000000000E+00  0.23420884086E+03  0.23420884086E+03  0.00000000000E+00 0. -1.
         21   -1    0    0  503  504 -0.00000000000E+00 -0.00000000000E+00 -0.26047240514E+03  0.26047240514E+03  0.00000000000E+00 0.  1.
         -6    2    1    2    0  504  0.22188943915E+02  0.17527031254E+03 -0.19586959173E+02  0.24742495129E+03  0.17211457191E+03 0.  0.
        -24    2    3    3    0    0  0.66545986274E+02  0.53717105554E+02 -0.86505182463E+01  0.11748486866E+03  0.80087247298E+02 0.  0.
          6    2    1    2  502    0 -0.22188943915E+02 -0.17527031254E+03 -0.66766051032E+01  0.24725629471E+03  0.17285562337E+03 0.  0.
         24    2    5    5    0    0 -0.76257461492E+02 -0.14114571580E+03 -0.16863951279E+02  0.18234277749E+03  0.85012835090E+02 0.  0.
          2    1    6    6  501    0 -0.51511698634E+02 -0.83128669997E+02  0.31628690456E+02  0.10278231819E+03  0.00000000000E+00 0. -1.
         -1    1    6    6    0  501 -0.24745762858E+02 -0.58017045802E+02 -0.48492641735E+02  0.79560459309E+02  0.00000000000E+00 0.  1.
          5    1    5    5  502    0  0.54068517577E+02 -0.34124596738E+02  0.10187346176E+02  0.64913517218E+02  0.47000000000E+01 0. -1.
         11    1    4    4    0    0  0.10995613236E+01  0.23371562158E+02  0.28065767626E+02  0.36539379650E+02  0.00000000000E+00 0. -1.
        -12    1    4    4    0    0  0.65446424950E+02  0.30345543396E+02 -0.36716285872E+02  0.80945489009E+02  0.00000000000E+00 0.  1.
         -5    1    3    3    0  504 -0.44357042359E+02  0.12155320698E+03 -0.10936440927E+02  0.12994008263E+03  0.47000000000E+01 0.  1.
<mgrwt>
<rscale>  2 0.24703661E+03</rscale>
<asrwt>0</asrwt>
<pdfrwt beam="1">  1       21 0.36032129E-01 0.24716613E+03</pdfrwt>
<pdfrwt beam="2">  1       21 0.40072678E-01 0.24716613E+03</pdfrwt>
<totfact> 0.43468131E+04</totfact>
</mgrwt>
</event>
<event>
12    1  0.2743855E-001  0.2029503E+03  0.7546771E-02  0.1147423E+00
         21   -1    0    0  502  503  0.00000000000E+00  0.00000000000E+00  0.11102118182E+04  0.11102118182E+04  0.00000000000E+00 0. -1.
         21   -1    0    0  503  504 -0.00000000000E+00 -0.00000000000E+00 -0.42710952911E+02  0.42710952911E+02  0.00000000000E+00 0.  1.
         -6    2    1    2    0  504  0.10267151756E+03  0.19638843070E+02  0.74594891188E+03  0.77306441981E+03  0.17395888413E+03 0.  0.
        -24    2    3    3    0    0  0.42489894645E+02 -0.49917544384E+02  0.49575848547E+03  0.50646123483E+03  0.80183253181E+02 0.  0.
          6    2    1    2  502    0 -0.10267151756E+03 -0.19638843070E+02  0.32155195341E+03  0.37985835130E+03  0.17311725400E+03 0.  0.
         24    2    5    5    0    0 -0.11725667616E+03  0.25744893691E+02  0.18149882693E+03  0.23184018130E+03  0.79975732777E+02 0.  0.
          2    1    6    6  501    0 -0.81363730800E+02  0.29981688034E+02  0.17473951551E+03  0.19507141407E+03  0.00000000000E+00 0. -1.
         -1    1    6    6    0  501 -0.35892945356E+02 -0.42367943424E+01  0.67593114214E+01  0.36768767229E+02  0.00000000000E+00 0.  1.
          5    1    5    5  502    0  0.14585158592E+02 -0.45383736761E+02  0.14005312648E+03  0.14801817000E+03  0.47000000000E+01 0. -1.
         13    1    4    4    0    0  0.62227039425E+02 -0.39390285793E+02  0.44413591049E+03  0.45020051759E+03  0.00000000000E+00 0. -1.
        -14    1    4    4    0    0 -0.19737144779E+02 -0.10527258591E+02  0.51622574977E+02  0.56260717243E+02  0.00000000000E+00 0.  1.
         -5    1    3    3    0  504  0.60181622918E+02  0.69556387454E+02  0.25019042641E+03  0.26660318498E+03  0.47000000000E+01 0.  1.
<mgrwt>
<rscale>  2 0.20276981E+03</rscale>
<asrwt>0</asrwt>
<pdfrwt beam="1">  1       21 0.17080180E+00 0.20295028E+03</pdfrwt>
<pdfrwt beam="2">  1       21 0.65709167E-02 0.20295028E+03</pdfrwt>
<totfact> 0.35299541E+04</totfact>
</mgrwt>
</event>
<event>
12    1  0.2743855E-001  0.1912135E+03  0.7546771E-02  0.1157622E+00
         21   -1    0    0  502  503  0.00000000000E+00  0.00000000000E+00  0.13675668969E+03  0.13675668969E+03  0.00000000000E+00 0. -1.
         21   -1    0    0  503  504 -0.00000000000E+00 -0.00000000000E+00 -0.36501928548E+03  0.36501928548E+03  0.00000000000E+00 0. -1.
         -6    2    1    2    0  504  0.74323049181E+02 -0.30897710581E+02 -0.24469527513E+03  0.30985763166E+03  0.17221321108E+03 0.  0.
        -24    2    3    3    0    0  0.46887507905E+02 -0.83837785440E+02 -0.19930108242E+03  0.23477046110E+03  0.78543206498E+02 0.  0.
          6    2    1    2  502    0 -0.74323049181E+02  0.30897710581E+02  0.16432679344E+02  0.19191834351E+03  0.17344749484E+03 0.  0.
         24    2    5    5    0    0  0.27115235329E+02  0.18539601660E+02  0.12566337011E+02  0.89548977858E+02  0.82353832897E+02 0.  0.
          4    1    6    6  501    0  0.17500997462E+01  0.35343882026E+02  0.36499470124E+02  0.50837625487E+02  0.00000000000E+00 0. -1.
         -3    1    6    6    0  501  0.25365135583E+02 -0.16804280366E+02 -0.23933133114E+02  0.38711352371E+02  0.00000000000E+00 0.  1.
          5    1    5    5  502    0 -0.10143828451E+03  0.12358108921E+02  0.38663423332E+01  0.10236936565E+03  0.47000000000E+01 0. -1.
         13    1    4    4    0    0  0.26030627073E+01 -0.66175539561E+02 -0.67288996582E+02  0.94412854171E+02  0.00000000000E+00 0. -1.
        -14    1    4    4    0    0  0.44284445198E+02 -0.17662245878E+02 -0.13201208584E+03  0.14035760693E+03  0.00000000000E+00 0.  1.
         -5    1    3    3    0  504  0.27435541276E+02  0.52940074859E+02 -0.45394192710E+02  0.75087170562E+02  0.47000000000E+01 0.  1.
<mgrwt>
<rscale>  2 0.19093320E+03</rscale>
<asrwt>0</asrwt>
<pdfrwt beam="1">  1       21 0.21039491E-01 0.19121354E+03</pdfrwt>
<pdfrwt beam="2">  1       21 0.56156813E-01 0.19121354E+03</pdfrwt>
<totfact> 0.62700376E+04</totfact>
</mgrwt>
</event>
<event>
12    1  0.2743855E-001  0.3063649E+03  0.7546771E-02  0.1082246E+00
         21   -1    0    0  502  503  0.00000000000E+00  0.00000000000E+00  0.11210767731E+03  0.11210767731E+03  0.00000000000E+00 0.  1.
         21   -1    0    0  503  504 -0.00000000000E+00 -0.00000000000E+00 -0.97359912871E+03  0.97359912871E+03  0.00000000000E+00 0. -1.
         -6    2    1    2    0  504 -0.17839536106E+03  0.17815879137E+03 -0.63701820684E+03  0.70686042982E+03  0.17405174979E+03 0.  0.
        -24    2    3    3    0    0 -0.13614983326E+03  0.19249394877E+03 -0.44459748854E+03  0.50928005583E+03  0.78157219985E+02 0.  0.
          6    2    1    2  502    0  0.17839536106E+03 -0.17815879137E+03 -0.22447324456E+03  0.37884637619E+03  0.17196185461E+03 0.  0.
         24    2    5    5    0    0  0.15247630920E+02 -0.66297286200E+02 -0.66732367826E+02  0.12579608005E+03  0.82119573994E+02 0.  0.
          4    1    6    6  501    0  0.56702210013E+01 -0.77080418072E+02 -0.76206588900E+02  0.10854025266E+03  0.00000000000E+00 0. -1.
         -3    1    6    6    0  501  0.95774099191E+01  0.10783131871E+02  0.94742210740E+01  0.17255827383E+02  0.00000000000E+00 0.  1.
          5    1    5    5  502    0  0.16314773014E+03 -0.11186150517E+03 -0.15774087673E+03  0.25305029615E+03  0.47000000000E+01 0. -1.
         13    1    4    4    0    0 -0.12367424571E+03  0.15164960127E+03 -0.41004603985E+03  0.45434642666E+03  0.00000000000E+00 0. -1.
        -14    1    4    4    0    0 -0.12475587557E+02  0.40844347498E+02 -0.34551448691E+02  0.54933629172E+02  0.00000000000E+00 0.  1.
         -5    1    3    3    0  504 -0.42245527794E+02 -0.14335157393E+02 -0.19242071830E+03  0.19758037399E+03  0.47000000000E+01 0.  1.
<mgrwt>
<rscale>  2 0.30606889E+03</rscale>
<asrwt>0</asrwt>
<pdfrwt beam="1">  1       21 0.17247335E-01 0.30636493E+03</pdfrwt>
<pdfrwt beam="2">  1       21 0.14978448E+00 0.30636493E+03</pdfrwt>
<totfact> 0.84895953E+03</totfact>
</mgrwt>
</event>
<event>
12    1  0.2743855E-001  0.1781264E+03  0.7546771E-02  0.1171073E+00
         21   -1    0    0  502  503  0.00000000000E+00  0.00000000000E+00  0.46284401941E+02  0.46284401941E+02  0.00000000000E+00 0. -1.
         21   -1    0    0  503  504 -0.00000000000E+00 -0.00000000000E+00 -0.67913673880E+03  0.67913673880E+03  0.00000000000E+00 0. -1.
         -6    2    1    2    0  504  0.28174286517E+00 -0.29365197058E+02 -0.37666340930E+03  0.41665855038E+03  0.17568901367E+03 0.  0.
        -24    2    3    3    0    0  0.24740018018E+02  0.20557155954E+01 -0.89048409597E+02  0.12626233996E+03  0.86001539411E+02 0.  0.
          6    2    1    2  502    0 -0.28174286517E+00  0.29365197058E+02 -0.25618892756E+03  0.30876259036E+03  0.16982101291E+03 0.  0.
         24    2    5    5    0    0 -0.52043902975E+02  0.92857258003E+01 -0.22518183500E+03  0.24499711244E+03  0.80758490267E+02 0.  0.
          2    1    6    6  501    0 -0.37256239627E+01 -0.16936442758E+02 -0.15441505996E+03  0.15538575903E+03  0.00000000000E+00 0. -1.
         -1    1    6    6    0  501 -0.48318279012E+02  0.26222168559E+02 -0.70766775044E+02  0.89611353414E+02  0.00000000000E+00 0.  1.
          5    1    5    5  502    0  0.51762160110E+02  0.20079471257E+02 -0.31007092556E+02  0.63765477917E+02  0.47000000000E+01 0. -1.
         11    1    4    4    0    0  0.26619319677E+02  0.17828732773E+02 -0.10127200984E+03  0.10621898074E+03  0.00000000000E+00 0. -1.
        -12    1    4    4    0    0 -0.18793016584E+01 -0.15773017178E+02  0.12223600245E+02  0.20043359214E+02  0.00000000000E+00 0.  1.
         -5    1    3    3    0  504 -0.24458275153E+02 -0.31420912653E+02 -0.28761499970E+03  0.29039621042E+03  0.47000000000E+01 0.  1.
<mgrwt>
<rscale>  2 0.17666222E+03</rscale>
<asrwt>0</asrwt>
<pdfrwt beam="1">  1       21 0.71206776E-02 0.17812643E+03</pdfrwt>
<pdfrwt beam="2">  1       21 0.10448257E+00 0.17812643E+03</pdfrwt>
<totfact> 0.10922250E+05</totfact>
</mgrwt>
</event>
<event>
12    1  0.2743855E-001  0.1916190E+03  0.7546771E-02  0.1157072E+00
         21   -1    0    0  502  503  0.00000000000E+00  0.00000000000E+00  0.27525923625E+03  0.27525923625E+03  0.00000000000E+00 0. -1.
         21   -1    0    0  503  504 -0.00000000000E+00 -0.00000000000E+00 -0.27939656527E+03  0.27939656527E+03  0.00000000000E+00 0. -1.
         -6    2    1    2    0  504 -0.86696831776E+01  0.81947705649E+02 -0.20268039849E+03  0.27892145821E+03  0.17299493071E+03 0.  0.
        -24    2    3    3    0    0 -0.65221433700E+02  0.72683147353E+02 -0.17159353642E+03  0.21355774105E+03  0.81399580450E+02 0.  0.
          6    2    1    2  502    0  0.86696831776E+01 -0.81947705649E+02  0.19854306947E+03  0.27573434331E+03  0.17268320063E+03 0.  0.
         24    2    5    5    0    0  0.73357743043E+01 -0.66950475690E+02  0.37150038855E+02  0.11357239787E+03  0.83560662940E+02 0.  0.
          2    1    6    6  501    0  0.31310884708E+02 -0.75091585632E+02  0.22905496967E+02  0.84520882184E+02  0.00000000000E+00 0. -1.
         -1    1    6    6    0  501 -0.23975110404E+02  0.81411099414E+01  0.14244541888E+02  0.29051515684E+02  0.00000000000E+00 0.  1.
          5    1    5    5  502    0  0.13339088734E+01 -0.14997229959E+02  0.16139303061E+03  0.16216194544E+03  0.47000000000E+01 0. -1.
         13    1    4    4    0    0 -0.51227670386E+02  0.86634327209E+02 -0.11105825546E+03  0.14987900777E+03  0.00000000000E+00 0. -1.
        -14    1    4    4    0    0 -0.13993763314E+02 -0.13951179856E+02 -0.60535280961E+02  0.63678733279E+02  0.00000000000E+00 0.  1.
         -5    1    3    3    0  504  0.56551750522E+02  0.92645582963E+01 -0.31086862062E+02  0.65363717156E+02  0.47000000000E+01 0.  1.
<mgrwt>
<rscale>  2 0.19154860E+03</rscale>
<asrwt>0</asrwt>
<pdfrwt beam="1">  1       21 0.42347575E-01 0.19161899E+03</pdfrwt>
<pdfrwt beam="2">  1       21 0.42984087E-01 0.19161899E+03</pdfrwt>
<totfact> 0.27943114E+04</totfact>
</mgrwt>
</event>
<event>
12    1  0.2743855E-001  0.2110183E+03  0.7546771E-02  0.1142209E+00
         21   -1    0    0  502  503  0.00000000000E+00  0.00000000000E+00  0.52297906267E+02  0.52297906267E+02  0.00000000000E+00 0.  1.
         21   -1    0    0  503  504 -0.00000000000E+00 -0.00000000000E+00 -0.83588767842E+03  0.83588767842E+03  0.00000000000E+00 0. -1.
         -6    2    1    2    0  504 -0.80403970251E+02 -0.88232916223E+02 -0.44115245659E+03  0.48595179143E+03  0.16517810901E+03 0.  0.
        -24    2    3    3    0    0 -0.79131110317E+01 -0.99849060757E+02 -0.24270482714E+03  0.27430725188E+03  0.79412738640E+02 0.  0.
          6    2    1    2  502    0  0.80403970251E+02  0.88232916223E+02 -0.34243731556E+03  0.40223379326E+03  0.17400822800E+03 0.  0.
         24    2    5    5    0    0  0.10558155284E+03  0.69067766266E+02 -0.33880677157E+03  0.37003931411E+03  0.78874868545E+02 0.  0.
          2    1    6    6  501    0  0.67830936286E+02  0.33097275580E+02 -0.28613781952E+03  0.29592451288E+03  0.00000000000E+00 0. -1.
         -1    1    6    6    0  501  0.37750616552E+02  0.35970490686E+02 -0.52668952057E+02  0.74114801228E+02  0.00000000000E+00 0.  1.
          5    1    5    5  502    0 -0.25177582588E+02  0.19165149957E+02 -0.36305439874E+01  0.32194479146E+02  0.47000000000E+01 0. -1.
         11    1    4    4    0    0  0.22817077466E+02 -0.30443363213E+02 -0.14866663990E+03  0.15345744429E+03  0.00000000000E+00 0. -1.
        -12    1    4    4    0    0 -0.30730188497E+02 -0.69405697544E+02 -0.94038187236E+02  0.12084980759E+03  0.00000000000E+00 0.  1.
         -5    1    3    3    0  504 -0.72490859219E+02  0.11616144534E+02 -0.19844762946E+03  0.21164453955E+03  0.47000000000E+01 0.  1.
<mgrwt>
<rscale>  2 0.20918958E+03</rscale>
<asrwt>0</asrwt>
<pdfrwt beam="1">  1       21 0.80458321E-02 0.21101827E+03</pdfrwt>
<pdfrwt beam="2">  1       21 0.12859810E+00 0.21101827E+03</pdfrwt>
<totfact> 0.52270088E+04</totfact>
</mgrwt>
</event>
<event>
12    1  0.2743855E-001  0.2039776E+03  0.7546771E-02  0.1146644E+00
         21   -1    0    0  502  503  0.00000000000E+00  0.00000000000E+00  0.24864780180E+03  0.24864780180E+03  0.00000000000E+00 0. -1.
         21   -1    0    0  503  504 -0.00000000000E+00 -0.00000000000E+00 -0.51285822204E+03  0.51285822204E+03  0.00000000000E+00 0.  1.
         -6    2    1    2    0  504 -0.83419950691E+02  0.64338649801E+02 -0.44490965159E+03  0.48900084025E+03  0.17343261994E+03 0.  0.
        -24    2    3    3    0    0 -0.38052962857E+02  0.66621797985E+02 -0.41903947916E+03  0.43651529775E+03  0.95210441244E+02 0.  0.
          6    2    1    2  502    0  0.83419950691E+02 -0.64338649801E+02  0.18069923135E+03  0.27250518359E+03  0.17466686245E+03 0.  0.
         24    2    5    5    0    0  0.45760080236E+02  0.33415049922E+02  0.89303297191E+02  0.13340321224E+03  0.81306750283E+02 0.  0.
          4    1    6    6  501    0 -0.20583235546E+02  0.22940539172E+02  0.19172452405E+02  0.36297670094E+02  0.00000000000E+00 0. -1.
         -3    1    6    6    0  501  0.66343315783E+02  0.10474510750E+02  0.70130844786E+02  0.97105542143E+02  0.00000000000E+00 0.  1.
          5    1    5    5  502    0  0.37659870455E+02 -0.97753699724E+02  0.91395934163E+02  0.13910197135E+03  0.47000000000E+01 0. -1.
         11    1    4    4    0    0 -0.46308767453E+02  0.55640734798E+02 -0.14437141533E+03  0.16150386645E+03  0.00000000000E+00 0. -1.
        -12    1    4    4    0    0  0.82558045960E+01  0.10981063187E+02 -0.27466806383E+03  0.27501143130E+03  0.00000000000E+00 0.  1.
         -5    1    3    3    0  504 -0.45366987834E+02 -0.22831481835E+01 -0.25870172425E+02  0.52485542505E+02  0.47000000000E+01 0.  1.
<mgrwt>
<rscale>  2 0.20371312E+03</rscale>
<asrwt>0</asrwt>
<pdfrwt beam="1">  1       21 0.38253509E-01 0.20397760E+03</pdfrwt>
<pdfrwt beam="2">  1       21 0.78901264E-01 0.20397760E+03</pdfrwt>
<totfact> 0.92770950E+03</totfact>
</mgrwt>
</event>
<event>
12    1  0.2743855E-001  0.2100628E+03  0.7546771E-02  0.1141674E+00
         21   -1    0    0  502  503  0.00000000000E+00  0.00000000000E+00  0.10650631556E+03  0.10650631556E+03  0.00000000000E+00 0. -1.
         21   -1    0    0  503  504 -0.00000000000E+00 -0.00000000000E+00 -0.41685074992E+03  0.41685074992E+03  0.00000000000E+00 0. -1.
         -6    2    1    2    0  504 -0.52449894072E+02 -0.10747338175E+03 -0.18143245662E+03  0.27756819525E+03  0.17269871894E+03 0.  0.
        -24    2    3    3    0    0 -0.64539186589E+02 -0.86653265396E+02 -0.57290586978E+02  0.15102602031E+03  0.88614628843E+02 0.  0.
          6    2    1    2  502    0  0.52449894072E+02  0.10747338175E+03 -0.12891197774E+03  0.24578887024E+03  0.17173337345E+03 0.  0.
         24    2    5    5    0    0  0.55964832191E+02  0.14102110255E+03 -0.92470894368E+02  0.19591054912E+03  0.82529165399E+02 0.  0.
          4    1    6    6  501    0  0.43147170382E+02  0.62352090313E+02 -0.27173641843E+01  0.75873879211E+02  0.00000000000E+00 0. -1.
         -3    1    6    6    0  501  0.12817661809E+02  0.78669012241E+02 -0.89753530184E+02  0.12003666990E+03  0.00000000000E+00 0.  1.
          5    1    5    5  502    0 -0.35149381191E+01 -0.33547720801E+02 -0.36441083368E+02  0.49878321122E+02  0.47000000000E+01 0. -1.
         11    1    4    4    0    0 -0.74093743357E+02 -0.97637055980E+02 -0.59592900668E+02  0.13628716489E+03  0.00000000000E+00 0. -1.
        -12    1    4    4    0    0  0.95545567675E+01  0.10983790584E+02  0.23023136901E+01  0.14738855415E+02  0.00000000000E+00 0.  1.
         -5    1    3    3    0  504  0.12089292517E+02 -0.20820116357E+02 -0.12414186965E+03  0.12654217494E+03  0.47000000000E+01 0.  1.
<mgrwt>
<rscale>  2 0.20986426E+03</rscale>
<asrwt>0</asrwt>
<pdfrwt beam="1">  1       21 0.16385587E-01 0.21006277E+03</pdfrwt>
<pdfrwt beam="2">  1       21 0.64130886E-01 0.21006277E+03</pdfrwt>
<totfact> 0.74337272E+04</totfact>
</mgrwt>
</event>
<event>
12    1  0.2743855E-001  0.2232042E+03  0.7546771E-02  0.1131603E+00
         21   -1    0    0  502  503  0.00000000000E+00  0.00000000000E+00  0.58232177603E+02  0.58232177603E+02  0.00000000000E+00 0.  1.
         21   -1    0    0  503  504 -0.00000000000E+00 -0.00000000000E+00 -0.85712636198E+03  0.85712636198E+03  0.00000000000E+00 0. -1.
         -6    2    1    2    0  504  0.13842928833E+03  0.24562623492E+02 -0.37022946521E+03  0.43206403606E+03  0.17275266716E+03 0.  0.
        -24    2    3    3    0    0  0.67244512021E+02 -0.50230613604E+02 -0.21702102675E+03  0.24725003143E+03  0.83603307654E+02 0.  0.
          6    2    1    2  502    0 -0.13842928833E+03 -0.24562623492E+02 -0.42866471917E+03  0.48329450352E+03  0.17336131441E+03 0.  0.
         24    2    5    5    0    0 -0.98586018346E+02  0.50112362885E+02 -0.29450405320E+03  0.32459663319E+03  0.79999281256E+02 0.  0.
          4    1    6    6  501    0 -0.37528113874E+02  0.13581774630E+02 -0.21166892450E+03  0.21539860151E+03  0.00000000000E+00 0. -1.
         -3    1    6    6    0  501 -0.61057904472E+02  0.36530588254E+02 -0.82835128700E+02  0.10919803168E+03  0.00000000000E+00 0.  1.
          5    1    5    5  502    0 -0.39843269985E+02 -0.74674986377E+02 -0.13416066597E+03  0.15869787033E+03  0.47000000000E+01 0. -1.
         13    1    4    4    0    0  0.31430645332E+02 -0.24202945586E+02 -0.19269191963E+03  0.19673292539E+03  0.00000000000E+00 0. -1.
        -14    1    4    4    0    0  0.35813866689E+02 -0.26027668018E+02 -0.24329107120E+02  0.50517106043E+02  0.00000000000E+00 0.  1.
         -5    1    3    3    0  504  0.71184776310E+02  0.74793237096E+02 -0.15320843846E+03  0.18481400463E+03  0.47000000000E+01 0.  1.
<mgrwt>
<rscale>  2 0.22308605E+03</rscale>
<asrwt>0</asrwt>
<pdfrwt beam="1">  1       21 0.89587965E-02 0.22320425E+03</pdfrwt>
<pdfrwt beam="2">  1       21 0.13186560E+00 0.22320425E+03</pdfrwt>
<totfact> 0.40376402E+04</totfact>
</mgrwt>
</event>
<event>
12    1  0.2743855E-001  0.1905273E+03  0.7546771E-02  0.1158050E+00
         21   -1    0    0  502  503  0.00000000000E+00  0.00000000000E+00  0.32436251176E+02  0.32436251176E+02  0.00000000000E+00 0.  1.
         21   -1    0    0  503  504 -0.00000000000E+00 -0.00000000000E+00 -0.13701850283E+04  0.13701850283E+04  0.00000000000E+00 0.  1.
         -6    2    1    2    0  504 -0.76506647583E+02  0.21708209287E+02 -0.97045577458E+03  0.98898182940E+03  0.17313617470E+03 0.  0.
        -24    2    3    3    0    0 -0.34246228338E+02  0.43183928275E+02 -0.23509097166E+03  0.25207570721E+03  0.72365332821E+02 0.  0.
          6    2    1    2  502    0  0.76506647583E+02 -0.21708209287E+02 -0.36729300251E+03  0.41363945004E+03  0.17282630432E+03 0.  0.
         24    2    5    5    0    0 -0.20888789674E+02 -0.36070280919E+02 -0.19376277995E+03  0.21407249776E+03  0.80904960942E+02 0.  0.
          4    1    6    6  501    0  0.61465368497E+01 -0.32724379890E+02 -0.18091448357E+03  0.18395302476E+03  0.00000000000E+00 0. -1.
         -3    1    6    6    0  501 -0.27035326524E+02 -0.33459010293E+01 -0.12848296382E+02  0.30119473001E+02  0.00000000000E+00 0.  1.
          5    1    5    5  502    0  0.97395437257E+02  0.14362071632E+02 -0.17353022255E+03  0.19956695227E+03  0.47000000000E+01 0. -1.
         11    1    4    4    0    0 -0.47515912380E+02  0.18534368538E+01 -0.12395766172E+03  0.13276557934E+03  0.00000000000E+00 0. -1.
        -12    1    4    4    0    0  0.13269684042E+02  0.41330491421E+02 -0.11113330994E+03  0.11931012788E+03  0.00000000000E+00 0.  1.
         -5    1    3    3    0  504 -0.42260419245E+02 -0.21475718988E+02 -0.73536480292E+03  0.73690612219E+03  0.47000000000E+01 0.  1.
<mgrwt>
<rscale>  2 0.19045687E+03</rscale>
<asrwt>0</asrwt>
<pdfrwt beam="1">  1       21 0.49901917E-02 0.19052729E+03</pdfrwt>
<pdfrwt beam="2">  1       21 0.21079773E+00 0.19052729E+03</pdfrwt>
<totfact> 0.31008153E+04</totfact>
</mgrwt>
</event>
<event>
12    1  0.2743855E-001  0.3433438E+03  0.7546771E-02  0.1065460E+00
         21   -1    0    0  502  503  0.00000000000E+00  0.00000000000E+00  0.46804020890E+03  0.46804020890E+03  0.00000000000E+00 0.  1.
         21   -1    0    0  503  504 -0.00000000000E+00 -0.00000000000E+00 -0.30863872063E+03  0.30863872063E+03  0.00000000000E+00 0. -1.
         -6    2    1    2    0  504  0.24611900080E+03  0.16186670026E+03 -0.87727470345E+02  0.35364506128E+03  0.17490948832E+03 0.  0.
        -24    2    3    3    0    0  0.86050807610E+02  0.73139608656E+02  0.15842127344E+02  0.14330468279E+03  0.86781998515E+02 0.  0.
          6    2    1    2  502    0 -0.24611900080E+03 -0.16186670026E+03  0.24712895862E+03  0.42303386825E+03  0.17637896782E+03 0.  0.
         24    2    5    5    0    0 -0.84461500201E+02 -0.24242775844E+02  0.38148946617E+02  0.12509389529E+03  0.80446773172E+02 0.  0.
          4    1    6    6  501    0 -0.73403494025E+02 -0.44627330634E+02  0.69025871772E+01  0.86181884897E+02  0.00000000000E+00 0. -1.
         -3    1    6    6    0  501 -0.11058006177E+02  0.20384554790E+02  0.31246359440E+02  0.38912010393E+02  0.00000000000E+00 0.  1.
          5    1    5    5  502    0 -0.16165750060E+03 -0.13762392442E+03  0.20898001200E+03  0.29793997296E+03  0.47000000000E+01 0. -1.
         13    1    4    4    0    0  0.39036208838E+02  0.37870991593E+02 -0.35762011724E+02  0.65091927973E+02  0.00000000000E+00 0. -1.
        -14    1    4    4    0    0  0.47014598772E+02  0.35268617063E+02  0.51604139068E+02  0.78212754817E+02  0.00000000000E+00 0.  1.
         -5    1    3    3    0  504  0.16006819319E+03  0.88727091605E+02 -0.10356959769E+03  0.21034037849E+03  0.47000000000E+01 0.  1.
<mgrwt>
<rscale>  2 0.34315545E+03</rscale>
<asrwt>0</asrwt>
<pdfrwt beam="1">  1       21 0.72006186E-01 0.34334375E+03</pdfrwt>
<pdfrwt beam="2">  1       21 0.47482880E-01 0.34334375E+03</pdfrwt>
<totfact> 0.67893210E+03</totfact>
</mgrwt>
</event>
<event>
12    1  0.2743855E-001  0.3866338E+03  0.7546771E-02  0.1048529E+00
         21   -1    0    0  502  503  0.00000000000E+00  0.00000000000E+00  0.18736747562E+03  0.18736747562E+03  0.00000000000E+00 0.  1.
         21   -1    0    0  503  504 -0.00000000000E+00 -0.00000000000E+00 -0.83706758647E+03  0.83706758647E+03  0.00000000000E+00 0.  1.
         -6    2    1    2    0  504  0.52000070354E+02  0.34235411875E+03 -0.43650994868E+03  0.58311799380E+03  0.17197473493E+03 0.  0.
        -24    2    3    3    0    0 -0.80044960778E+01  0.86568085296E+02 -0.18278116551E+03  0.21784080000E+03  0.80545355731E+02 0.  0.
          6    2    1    2  502    0 -0.52000070354E+02 -0.34235411875E+03 -0.21319016218E+03  0.44131706829E+03  0.17146533052E+03 0.  0.
         24    2    5    5    0    0 -0.94749345886E+02 -0.24883734898E+03 -0.18550682953E+03  0.33472746423E+03  0.82050147564E+02 0.  0.
          2    1    6    6  501    0 -0.41401971773E+02 -0.88857118946E+02 -0.11716412080E+03  0.15276498963E+03  0.00000000000E+00 0. -1.
         -1    1    6    6    0  501 -0.53347374113E+02 -0.15998023004E+03 -0.68342708732E+02  0.18196247460E+03  0.00000000000E+00 0.  1.
          5    1    5    5  502    0  0.42749275532E+02 -0.93516769769E+02 -0.27683332647E+02  0.10658960406E+03  0.47000000000E+01 0. -1.
         11    1    4    4    0    0  0.31336609430E+02  0.17262865221E+02 -0.81179564674E+02  0.88713647918E+02  0.00000000000E+00 0. -1.
        -12    1    4    4    0    0 -0.39341105508E+02  0.69305220075E+02 -0.10160160083E+03  0.12912715208E+03  0.00000000000E+00 0.  1.
         -5    1    3    3    0  504  0.60004566432E+02  0.25578603346E+03 -0.25372878317E+03  0.36527719380E+03  0.47000000000E+01 0.  1.
<mgrwt>
<rscale>  2 0.38657716E+03</rscale>
<asrwt>0</asrwt>
<pdfrwt beam="1">  1       21 0.28825766E-01 0.38663375E+03</pdfrwt>
<pdfrwt beam="2">  1       21 0.12877963E+00 0.38663375E+03</pdfrwt>
<totfact> 0.45571221E+03</totfact>
</mgrwt>
</event>
<event>
12    1  0.2743855E-001  0.1812122E+03  0.7546771E-02  0.1166893E+00
         21   -1    0    0  502  503  0.00000000000E+00  0.00000000000E+00  0.93790226563E+02  0.93790226563E+02  0.00000000000E+00 0.  1.
         21   -1    0    0  503  504 -0.00000000000E+00 -0.00000000000E+00 -0.49705175808E+03  0.49705175808E+03  0.00000000000E+00 0.  1.
         -6    2    1    2    0  504  0.15961982075E+02 -0.51265539005E+02 -0.36379549479E+03  0.40642962156E+03  0.17307494010E+03 0.  0.
        -24    2    3    3    0    0  0.61366293766E+02 -0.76431087256E+02 -0.24984061568E+03  0.28111936335E+03  0.83667377743E+02 0.  0.
          6    2    1    2  502    0 -0.15961982075E+02  0.51265539005E+02 -0.39466036726E+02  0.18441236308E+03  0.17195177010E+03 0.  0.
         24    2    5    5    0    0  0.46711166077E+02  0.42196969900E+02  0.55537086607E+01  0.10657259227E+03  0.85815828605E+02 0.  0.
          2    1    6    6  501    0  0.66498392774E+02  0.88516571273E+01  0.88140976750E+01  0.67661483824E+02  0.00000000000E+00 0. -1.
         -1    1    6    6    0  501 -0.19787226697E+02  0.33345312773E+02 -0.32603890143E+01  0.38911108450E+02  0.00000000000E+00 0.  1.
          5    1    5    5  502    0 -0.62673148152E+02  0.90685691046E+01 -0.45019745387E+02  0.77839770809E+02  0.47000000000E+01 0. -1.
         11    1    4    4    0    0  0.13590066688E+02  0.15739190267E+02 -0.74515375693E+02  0.77362479520E+02  0.00000000000E+00 0. -1.
        -12    1    4    4    0    0  0.47776227078E+02 -0.92170277522E+02 -0.17532523999E+03  0.20375688383E+03  0.00000000000E+00 0.  1.
         -5    1    3    3    0  504 -0.45404311691E+02  0.25165548251E+02 -0.11395487911E+03  0.12531025821E+03  0.47000000000E+01 0.  1.
<mgrwt>
<rscale>  2 0.18094353E+03</rscale>
<asrwt>0</asrwt>
<pdfrwt beam="1">  1       21 0.14429266E-01 0.18121224E+03</pdfrwt>
<pdfrwt beam="2">  1       21 0.76469500E-01 0.18121224E+03</pdfrwt>
<totfact> 0.64414112E+04</totfact>
</mgrwt>
</event>
<event>
12    1  0.2743855E-001  0.2132255E+03  0.7546771E-02  0.1139158E+00
         21   -1    0    0  502  503  0.00000000000E+00  0.00000000000E+00  0.98241450223E+02  0.98241450223E+02  0.00000000000E+00 0. -1.
         21   -1    0    0  503  504 -0.00000000000E+00 -0.00000000000E+00 -0.48494180156E+03  0.48494180156E+03  0.00000000000E+00 0. -1.
         -6    2    1    2    0  504  0.26020422471E+02 -0.12186224961E+03 -0.25781477367E+03  0.33456475895E+03  0.17302499860E+03 0.  0.
        -24    2    3    3    0    0  0.52305336766E+00 -0.15186321115E+03 -0.19567714246E+03  0.26085350650E+03  0.81806474606E+02 0.  0.
          6    2    1    2  502    0 -0.26020422471E+02  0.12186224961E+03 -0.12888557767E+03  0.24861849284E+03  0.17225618300E+03 0.  0.
         24    2    5    5    0    0 -0.22591397436E+02  0.29009403470E+01 -0.90172863196E+02  0.12338145528E+03  0.81074358191E+02 0.  0.
          4    1    6    6  501    0  0.51361583680E+00  0.25439163676E+02 -0.87350798890E+02  0.90981189905E+02  0.00000000000E+00 0. -1.
         -3    1    6    6    0  501 -0.23105013273E+02 -0.22538223329E+02 -0.28220643054E+01  0.32400265371E+02  0.00000000000E+00 0.  1.
          5    1    5    5  502    0 -0.34290250356E+01  0.11896130927E+03 -0.38712714474E+02  0.12523703756E+03  0.47000000000E+01 0. -1.
         11    1    4    4    0    0  0.33357359653E+02 -0.10064450133E+03 -0.15452456260E+03  0.18740296033E+03  0.00000000000E+00 0. -1.
        -12    1    4    4    0    0 -0.32834306285E+02 -0.51218709820E+02 -0.41152579858E+02  0.73450546178E+02  0.00000000000E+00 0.  1.
         -5    1    3    3    0  504  0.25497369104E+02  0.30000961539E+02 -0.62137631208E+02  0.73711252442E+02  0.47000000000E+01 0.  1.
<mgrwt>
<rscale>  2 0.21306950E+03</rscale>
<asrwt>0</asrwt>
<pdfrwt beam="1">  1       21 0.15114069E-01 0.21322552E+03</pdfrwt>
<pdfrwt beam="2">  1       21 0.74606432E-01 0.21322552E+03</pdfrwt>
<totfact> 0.61649157E+04</totfact>
</mgrwt>
</event>
<event>
12    1  0.2743855E-001  0.1879117E+03  0.7546771E-02  0.1160762E+00
         21   -1    0    0  502  503  0.00000000000E+00  0.00000000000E+00  0.35911190036E+03  0.35911190036E+03  0.00000000000E+00 0.  1.
         21   -1    0    0  503  504 -0.00000000000E+00 -0.00000000000E+00 -0.16135426735E+03  0.16135426735E+03  0.00000000000E+00 0.  1.
         -6    2    1    2    0  504 -0.59355525557E+02  0.41404682546E+02 -0.64659347455E+02  0.19872499441E+03  0.17341674095E+03 0.  0.
        -24    2    3    3    0    0  0.35104626746E+02  0.14031739233E+02 -0.38186069167E+02  0.96769499896E+02  0.80479411695E+02 0.  0.
          6    2    1    2  502    0  0.59355525557E+02 -0.41404682546E+02  0.26241698047E+03  0.32174117330E+03  0.17151467810E+03 0.  0.
         24    2    5    5    0    0  0.32158404325E+02 -0.83277191678E+02  0.12588460749E+03  0.17628956864E+03  0.85216336390E+02 0.  0.
          2    1    6    6  501    0  0.47312126733E+02 -0.12924450637E+02  0.34474352084E+02  0.59949643134E+02  0.00000000000E+00 0. -1.
         -1    1    6    6    0  501 -0.15153722408E+02 -0.70352741041E+02  0.91410255404E+02  0.11633992551E+03  0.00000000000E+00 0.  1.
          5    1    5    5  502    0  0.27197121232E+02  0.41872509132E+02  0.13653237298E+03  0.14545160465E+03  0.47000000000E+01 0. -1.
         11    1    4    4    0    0  0.23200325510E+02 -0.31437298990E+02 -0.53539663241E+01  0.39436326236E+02  0.00000000000E+00 0. -1.
        -12    1    4    4    0    0  0.11904301236E+02  0.45469038223E+02 -0.32832102842E+02  0.57333173660E+02  0.00000000000E+00 0.  1.
         -5    1    3    3    0  504 -0.94460152303E+02  0.27372943313E+02 -0.26473278288E+02  0.10195549452E+03  0.47000000000E+01 0.  1.
<mgrwt>
<rscale>  2 0.18747164E+03</rscale>
<asrwt>0</asrwt>
<pdfrwt beam="1">  1       21 0.55247985E-01 0.18791166E+03</pdfrwt>
<pdfrwt beam="2">  1       21 0.24823733E-01 0.18791166E+03</pdfrwt>
<totfact> 0.47541604E+04</totfact>
</mgrwt>
</event>
<event>
12    1  0.2743855E-001  0.1888106E+03  0.7546771E-02  0.1160919E+00
         21   -1    0    0  502  503  0.00000000000E+00  0.00000000000E+00  0.87896267514E+02  0.87896267514E+02  0.00000000000E+00 0. -1.
         21   -1    0    0  503  504 -0.00000000000E+00 -0.00000000000E+00 -0.39309685732E+03  0.39309685732E+03  0.00000000000E+00 0. -1.
         -6    2    1    2    0  504 -0.96049345133E+01  0.64673996094E+02 -0.16085576132E+03  0.24804036137E+03  0.17712838390E+03 0.  0.
        -24    2    3    3    0    0 -0.62265601687E+02  0.71709943709E+01 -0.53464716227E+02  0.11524477545E+03  0.80588175773E+02 0.  0.
          6    2    1    2  502    0  0.96049345133E+01 -0.64673996094E+02 -0.14434482849E+03  0.23295276346E+03  0.17075297934E+03 0.  0.
         24    2    5    5    0    0 -0.16440833271E+02 -0.30173603084E+02 -0.16340228066E+03  0.18547713161E+03  0.80750936240E+02 0.  0.
          4    1    6    6  501    0 -0.47044108956E+02 -0.92088266663E+01 -0.68723933593E+02  0.83790988325E+02  0.00000000000E+00 0. -1.
         -3    1    6    6    0  501  0.30603275684E+02 -0.20964776418E+02 -0.94678347063E+02  0.10168614328E+03  0.00000000000E+00 0.  1.
          5    1    5    5  502    0  0.26045767785E+02 -0.34500393010E+02  0.19057452163E+02  0.47475631857E+02  0.47000000000E+01 0. -1.
         13    1    4    4    0    0 -0.35351371724E+02  0.23715550729E+02 -0.68191723889E+02  0.80388170996E+02  0.00000000000E+00 0. -1.
        -14    1    4    4    0    0 -0.26914229963E+02 -0.16544556358E+02  0.14727007662E+02  0.34856604457E+02  0.00000000000E+00 0.  1.
         -5    1    3    3    0  504  0.52660667174E+02  0.57503001723E+02 -0.10739104509E+03  0.13279558592E+03  0.47000000000E+01 0.  1.
<mgrwt>
<rscale>  2 0.18730069E+03</rscale>
<asrwt>0</asrwt>
<pdfrwt beam="1">  1       21 0.13522503E-01 0.18881061E+03</pdfrwt>
<pdfrwt beam="2">  1       21 0.60476439E-01 0.18881061E+03</pdfrwt>
<totfact> 0.12077849E+05</totfact>
</mgrwt>
</event>
<event>
12    1  0.2743855E-001  0.1747567E+03  0.7546771E-02  0.1173151E+00
         21   -1    0    0  502  503  0.00000000000E+00  0.00000000000E+00  0.19934819551E+02  0.19934819551E+02  0.00000000000E+00 0.  1.
         21   -1    0    0  503  504 -0.00000000000E+00 -0.00000000000E+00 -0.17541832208E+04  0.17541832208E+04  0.00000000000E+00 0.  1.
         -6    2    1    2    0  504  0.15333612877E+02  0.99230002539E+01 -0.11886298358E+04  0.12014078419E+04  0.17379968484E+03 0.  0.
        -24    2    3    3    0    0  0.34255038491E+02 -0.13167156880E+02 -0.31403068427E+03  0.32628674084E+03  0.80628685339E+02 0.  0.
          6    2    1    2  502    0 -0.15333612877E+02 -0.99230002539E+01 -0.54561856545E+03  0.57271019843E+03  0.17310045294E+03 0.  0.
         24    2    5    5    0    0  0.15584135986E+02 -0.45534956314E+02 -0.49390550534E+03  0.50256428483E+03  0.79447559064E+02 0.  0.
          2    1    6    6  501    0  0.23262497215E+02 -0.30202813363E+02 -0.47687616948E+03  0.47839756973E+03  0.00000000000E+00 0. -1.
         -1    1    6    6    0  501 -0.76783612282E+01 -0.15332142951E+02 -0.17029335860E+02  0.24166715094E+02  0.00000000000E+00 0.  1.
          5    1    5    5  502    0 -0.30917748863E+02  0.35611956060E+02 -0.51713060108E+02  0.70145913601E+02  0.47000000000E+01 0. -1.
         11    1    4    4    0    0 -0.49187938278E+01 -0.40481890281E+02 -0.15020071104E+03  0.15563814305E+03  0.00000000000E+00 0. -1.
        -12    1    4    4    0    0  0.39173832319E+02  0.27314733401E+02 -0.16382997323E+03  0.17064859779E+03  0.00000000000E+00 0.  1.
         -5    1    3    3    0  504 -0.18921425614E+02  0.23090157134E+02 -0.87459915152E+03  0.87512110108E+03  0.47000000000E+01 0.  1.
<mgrwt>
<rscale>  2 0.17458263E+03</rscale>
<asrwt>0</asrwt>
<pdfrwt beam="1">  1       21 0.30668947E-02 0.17475673E+03</pdfrwt>
<pdfrwt beam="2">  1       21 0.26987440E+00 0.17475673E+03</pdfrwt>
<totfact> 0.31569749E+04</totfact>
</mgrwt>
</event>
<event>
12    1  0.2743855E-001  0.1994198E+03  0.7546771E-02  0.1150905E+00
         21   -1    0    0  502  503  0.00000000000E+00  0.00000000000E+00  0.17404155199E+03  0.17404155199E+03  0.00000000000E+00 0. -1.
         21   -1    0    0  503  504 -0.00000000000E+00 -0.00000000000E+00 -0.26917749736E+03  0.26917749736E+03  0.00000000000E+00 0. -1.
         -6    2    1    2    0  504 -0.80111749380E+02  0.40920419555E+02 -0.13713992565E+03  0.23942360506E+03  0.17442456917E+03 0.  0.
        -24    2    3    3    0    0 -0.23521948227E+02  0.66056950396E+02 -0.22183672753E+02  0.10876649329E+03  0.80132590011E+02 0.  0.
          6    2    1    2  502    0  0.80111749380E+02 -0.40920419555E+02  0.42003980278E+02  0.20379544429E+03  0.17797717727E+03 0.  0.
         24    2    5    5    0    0  0.34460543377E+01 -0.21364573172E+01 -0.10938869220E+02  0.10276643936E+03  0.10210211780E+03 0.  0.
          2    1    6    6  501    0 -0.88069061027E+01  0.48821673063E+02 -0.82143666208E+01  0.50285118820E+02  0.00000000000E+00 0. -1.
         -1    1    6    6    0  501  0.12252960440E+02 -0.50958130380E+02 -0.27245025995E+01  0.52481320541E+02  0.00000000000E+00 0.  1.
          5    1    5    5  502    0  0.76665695042E+02 -0.38783962237E+02  0.52942849499E+02  0.10102900493E+03  0.47000000000E+01 0. -1.
         11    1    4    4    0    0 -0.33433177764E+02  0.84420824565E+01  0.16942997789E+02  0.38420193983E+02  0.00000000000E+00 0. -1.
        -12    1    4    4    0    0  0.99112295373E+01  0.57614867940E+02 -0.39126670542E+02  0.70346299308E+02  0.00000000000E+00 0.  1.
         -5    1    3    3    0  504 -0.56589801154E+02 -0.25136530841E+02 -0.11495625289E+03  0.13065711177E+03  0.47000000000E+01 0.  1.
<mgrwt>
<rscale>  2 0.19862401E+03</rscale>
<asrwt>0</asrwt>
<pdfrwt beam="1">  1       21 0.26775623E-01 0.19941978E+03</pdfrwt>
<pdfrwt beam="2">  1       21 0.41411923E-01 0.19941978E+03</pdfrwt>
<totfact> 0.74348473E+04</totfact>
</mgrwt>
</event>
<event>
12    1  0.2743855E-001  0.1897634E+03  0.7546771E-02  0.1158835E+00
         21   -1    0    0  502  503  0.00000000000E+00  0.00000000000E+00  0.41033468483E+03  0.41033468483E+03  0.00000000000E+00 0. -1.
         21   -1    0    0  503  504 -0.00000000000E+00 -0.00000000000E+00 -0.92382595274E+02  0.92382595274E+02  0.00000000000E+00 0.  1.
         -6    2    1    2    0  504  0.57807745864E+02  0.51361182307E+02  0.10106046501E+03  0.21499623488E+03  0.17329297994E+03 0.  0.
        -24    2    3    3    0    0  0.35633947176E+02 -0.19583841901E+02  0.10755554389E+03  0.14023561786E+03  0.80277820343E+02 0.  0.
          6    2    1    2  502    0 -0.57807745864E+02 -0.51361182307E+02  0.21689162455E+03  0.28772104522E+03  0.17251584430E+03 0.  0.
         24    2    5    5    0    0  0.10049396420E+02 -0.34040109720E+01  0.16371261569E+03  0.18895577286E+03  0.93754391375E+02 0.  0.
          2    1    6    6  501    0 -0.11081718397E+02  0.32944374656E+02  0.13142683044E+03  0.13594538633E+03  0.00000000000E+00 0. -1.
         -1    1    6    6    0  501  0.21131114817E+02 -0.36348385628E+02  0.32285785249E+02  0.53010386533E+02  0.00000000000E+00 0.  1.
          5    1    5    5  502    0 -0.67857142284E+02 -0.47957171335E+02  0.53179008860E+02  0.98765272362E+02  0.47000000000E+01 0. -1.
         11    1    4    4    0    0  0.89790005113E+00 -0.15307620758E+02  0.10392430877E+03  0.10504947136E+03  0.00000000000E+00 0. -1.
        -12    1    4    4    0    0  0.34736047125E+02 -0.42762211435E+01  0.36312351170E+01  0.35186146502E+02  0.00000000000E+00 0.  1.
         -5    1    3    3    0  504  0.22173798687E+02  0.70945024209E+02 -0.64950788843E+01  0.74760617025E+02  0.47000000000E+01 0.  1.
<mgrwt>
<rscale>  2 0.18958584E+03</rscale>
<asrwt>0</asrwt>
<pdfrwt beam="1">  1       21 0.63128412E-01 0.18976344E+03</pdfrwt>
<pdfrwt beam="2">  1       21 0.14212707E-01 0.18976344E+03</pdfrwt>
<totfact> 0.10058543E+05</totfact>
</mgrwt>
</event>
<event>
12    1  0.2743855E-001  0.1787278E+03  0.7546771E-02  0.1169043E+00
         21   -1    0    0  502  503  0.00000000000E+00  0.00000000000E+00  0.29036336316E+03  0.29036336316E+03  0.00000000000E+00 0. -1.
         21   -1    0    0  503  504 -0.00000000000E+00 -0.00000000000E+00 -0.23576052246E+03  0.23576052246E+03  0.00000000000E+00 0. -1.
         -6    2    1    2    0  504  0.33556020962E+02  0.29308836117E+02 -0.16482425325E+03  0.24312682030E+03  0.17308553340E+03 0.  0.
        -24    2    3    3    0    0 -0.19354949125E+02  0.67796998814E+02 -0.13294219669E+03  0.17019215807E+03  0.79502804394E+02 0.  0.
          6    2    1    2  502    0 -0.33556020962E+02 -0.29308836117E+02  0.21942709395E+03  0.28299706533E+03  0.17307245594E+03 0.  0.
         24    2    5    5    0    0 -0.69150835215E+02 -0.56042267469E+02  0.19330444662E+03  0.23116898551E+03  0.90276890880E+02 0.  0.
          4    1    6    6  501    0  0.15857252788E+02 -0.26057869526E+02  0.84724270331E+02  0.90048137200E+02  0.00000000000E+00 0. -1.
         -3    1    6    6    0  501 -0.85008088003E+02 -0.29984397942E+02  0.10858017628E+03  0.14112084831E+03  0.00000000000E+00 0.  1.
          5    1    5    5  502    0  0.35594814254E+02  0.26733431351E+02  0.26122647336E+02  0.51828079816E+02  0.47000000000E+01 0. -1.
         13    1    4    4    0    0 -0.26769036560E+02  0.14054849060E+01 -0.81739187436E+02  0.86022389346E+02  0.00000000000E+00 0. -1.
        -14    1    4    4    0    0  0.74140874346E+01  0.66391513908E+02 -0.51203009250E+02  0.84169768728E+02  0.00000000000E+00 0.  1.
         -5    1    3    3    0  504  0.52910970087E+02 -0.38488162697E+02 -0.31882056563E+02  0.72934662226E+02  0.47000000000E+01 0.  1.
<mgrwt>
<rscale>  2 0.17872461E+03</rscale>
<asrwt>0</asrwt>
<pdfrwt beam="1">  1       21 0.44671287E-01 0.17872777E+03</pdfrwt>
<pdfrwt beam="2">  1       21 0.36270849E-01 0.17872777E+03</pdfrwt>
<totfact> 0.35518249E+04</totfact>
</mgrwt>
</event>
<event>
12    1  0.2743855E-001  0.2055428E+03  0.7546771E-02  0.1145238E+00
         21   -1    0    0  502  503  0.00000000000E+00  0.00000000000E+00  0.70206062115E+03  0.70206062115E+03  0.00000000000E+00 0. -1.
         21   -1    0    0  503  504 -0.00000000000E+00 -0.00000000000E+00 -0.13637496817E+03  0.13637496817E+03  0.00000000000E+00 0. -1.
         -6    2    1    2    0  504  0.10738382527E+03  0.33738374726E+02 -0.30653948079E+02  0.20781601121E+03  0.17198333095E+03 0.  0.
        -24    2    3    3    0    0  0.10067225059E+03 -0.19703634797E+02  0.21725143146E+02  0.13253817374E+03  0.81063249323E+02 0.  0.
          6    2    1    2  502    0 -0.10738382527E+03 -0.33738374726E+02  0.59633960107E+03  0.63061957811E+03  0.17143677738E+03 0.  0.
         24    2    5    5    0    0 -0.13436527245E+03 -0.41896378936E+02  0.56722079228E+03  0.58982072335E+03  0.79622393145E+02 0.  0.
          4    1    6    6  501    0 -0.13602686608E+03 -0.29432193814E+02  0.42858573808E+03  0.45061657450E+03  0.00000000000E+00 0. -1.
         -3    1    6    6    0  501  0.16615936297E+01 -0.12464185122E+02  0.13863505420E+03  0.13920414885E+03  0.00000000000E+00 0.  1.
          5    1    5    5  502    0  0.26981447181E+02  0.81580042101E+01  0.29118808785E+02  0.40798854760E+02  0.47000000000E+01 0. -1.
         13    1    4    4    0    0  0.92857591339E+02 -0.31182445035E+02 -0.94519091472E+01  0.98408412924E+02  0.00000000000E+00 0. -1.
        -14    1    4    4    0    0  0.78146592503E+01  0.11478810239E+02  0.31177052293E+02  0.34129760817E+02  0.00000000000E+00 0.  1.
         -5    1    3    3    0  504  0.67115746800E+01  0.53442009523E+02 -0.52379091225E+02  0.75277837470E+02  0.47000000000E+01 0.  1.
<mgrwt>
<rscale>  2 0.20542840E+03</rscale>
<asrwt>0</asrwt>
<pdfrwt beam="1">  1       21 0.10800932E+00 0.20554277E+03</pdfrwt>
<pdfrwt beam="2">  1       21 0.20980765E-01 0.20554277E+03</pdfrwt>
<totfact> 0.14282124E+04</totfact>
</mgrwt>
</event>
<event>
12    1  0.2743855E-001  0.2108409E+03  0.7546771E-02  0.1140993E+00
         21   -1    0    0  502  503  0.00000000000E+00  0.00000000000E+00  0.56585396868E+03  0.56585396868E+03  0.00000000000E+00 0. -1.
         21   -1    0    0  503  504 -0.00000000000E+00 -0.00000000000E+00 -0.10050454264E+03  0.10050454264E+03  0.00000000000E+00 0. -1.
         -6    2    1    2    0  504 -0.11472696874E+03  0.39089891763E+02  0.38916435447E+03  0.44260904184E+03  0.17252122229E+03 0.  0.
        -24    2    3    3    0    0  0.33924582960E+01 -0.15017145960E+02  0.16050141129E+03  0.17957177802E+03  0.79046170000E+02 0.  0.
          6    2    1    2  502    0  0.11472696874E+03 -0.39089891763E+02  0.76185071571E+02  0.22374946948E+03  0.17195744523E+03 0.  0.
         24    2    5    5    0    0  0.10973590752E+03 -0.22984020666E+02 -0.10823252533E+02  0.13499785970E+03  0.74411321198E+02 0.  0.
          4    1    6    6  501    0  0.11741949066E+03 -0.21898331048E+02 -0.21938318739E+02  0.12144201710E+03  0.00000000000E+00 0. -1.
         -3    1    6    6    0  501 -0.76835831354E+01 -0.10856896175E+01  0.11115066206E+02  0.13555842597E+02  0.00000000000E+00 0.  1.
          5    1    5    5  502    0  0.49910612172E+01 -0.16105871098E+02  0.87008324103E+02  0.88751609784E+02  0.47000000000E+01 0. -1.
         11    1    4    4    0    0 -0.25271482210E+02 -0.15729463160E+02  0.19271393925E+02  0.35460547771E+02  0.00000000000E+00 0. -1.
        -12    1    4    4    0    0  0.28663940506E+02  0.71231720005E+00  0.14123001736E+03  0.14411123025E+03  0.00000000000E+00 0.  1.
         -5    1    3    3    0  504 -0.11811942703E+03  0.54107037723E+02  0.22866294318E+03  0.26303726382E+03  0.47000000000E+01 0.  1.
<mgrwt>
<rscale>  2 0.21072550E+03</rscale>
<asrwt>0</asrwt>
<pdfrwt beam="1">  1       21 0.87054455E-01 0.21084086E+03</pdfrwt>
<pdfrwt beam="2">  1       21 0.15462238E-01 0.21084086E+03</pdfrwt>
<totfact> 0.41709214E+04</totfact>
</mgrwt>
</event>
<event>
12    1  0.2743855E-001  0.2553739E+03  0.7546771E-02  0.1110303E+00
         21   -1    0    0  502  503  0.00000000000E+00  0.00000000000E+00  0.22455232382E+03  0.22455232382E+03  0.00000000000E+00 0. -1.
         21   -1    0    0  503  504 -0.00000000000E+00 -0.00000000000E+00 -0.52198349934E+03  0.52198349934E+03  0.00000000000E+00 0. -1.
         -6    2    1    2    0  504 -0.11486496975E+03  0.14548177061E+03 -0.39833245245E+03  0.47195089403E+03  0.17236588073E+03 0.  0.
        -24    2    3    3    0    0 -0.22362825265E+02  0.11149234106E+03 -0.16316190269E+03  0.21692304157E+03  0.86620790829E+02 0.  0.
          6    2    1    2  502    0  0.11486496975E+03 -0.14548177061E+03  0.10090127694E+03  0.27458492913E+03  0.17566134681E+03 0.  0.
         24    2    5    5    0    0  0.77132886951E+02 -0.80345003486E+02 -0.12422786467E+02  0.13845652706E+03  0.81308563061E+02 0.  0.
          4    1    6    6  501    0 -0.36798301390E+01 -0.51760495699E+02 -0.90247673009E+01  0.52670072049E+02  0.00000000000E+00 0. -1.
         -3    1    6    6    0  501  0.80812717090E+02 -0.28584507787E+02 -0.33980191665E+01  0.85786455010E+02  0.00000000000E+00 0.  1.
          5    1    5    5  502    0  0.37732082799E+02 -0.65136767120E+02  0.11332406341E+03  0.13612840207E+03  0.47000000000E+01 0. -1.
         13    1    4    4    0    0 -0.18527369556E+02  0.89997718560E+01 -0.86381553747E+02  0.88803334081E+02  0.00000000000E+00 0. -1.
        -14    1    4    4    0    0 -0.38354557093E+01  0.10249256920E+03 -0.76780348946E+02  0.12811970749E+03  0.00000000000E+00 0.  1.
         -5    1    3    3    0  504 -0.92502144484E+02  0.33989429549E+02 -0.23517054976E+03  0.25502785246E+03  0.47000000000E+01 0.  1.
<mgrwt>
<rscale>  2 0.25480812E+03</rscale>
<asrwt>0</asrwt>
<pdfrwt beam="1">  1       21 0.34546512E-01 0.25537387E+03</pdfrwt>
<pdfrwt beam="2">  1       21 0.80305152E-01 0.25537387E+03</pdfrwt>
<totfact> 0.10595470E+04</totfact>
</mgrwt>
</event>
<event>
12    1  0.2743855E-001  0.3791870E+03  0.7546771E-02  0.1051267E+00
         21   -1    0    0  502  503  0.00000000000E+00  0.00000000000E+00  0.48777374428E+03  0.48777374428E+03  0.00000000000E+00 0.  1.
         21   -1    0    0  503  504 -0.00000000000E+00 -0.00000000000E+00 -0.42112665951E+03  0.42112665951E+03  0.00000000000E+00 0. -1.
         -6    2    1    2    0  504 -0.26636521363E+03  0.20896212494E+03  0.28252593982E+03  0.47286752040E+03  0.17078404048E+03 0.  0.
        -24    2    3    3    0    0 -0.59201227851E+02  0.29651936575E+02  0.68946595184E+02  0.12543797774E+03  0.81222106291E+02 0.  0.
          6    2    1    2  502    0  0.26636521363E+03 -0.20896212494E+03 -0.21587885504E+03  0.43603288340E+03  0.17001587767E+03 0.  0.
         24    2    5    5    0    0  0.22092721596E+03 -0.11556965592E+03 -0.99237316088E+02  0.27978275216E+03  0.79152785061E+02 0.  0.
          2    1    6    6  501    0  0.11521151069E+03 -0.29687776377E+02 -0.77149456252E+02  0.14179948823E+03  0.00000000000E+00 0. -1.
         -1    1    6    6    0  501  0.10571570527E+03 -0.85881879540E+02 -0.22087859836E+02  0.13798326393E+03  0.00000000000E+00 0.  1.
          5    1    5    5  502    0  0.45437997675E+02 -0.93392469023E+02 -0.11664153895E+03  0.15625013124E+03  0.47000000000E+01 0. -1.
         11    1    4    4    0    0 -0.51204506939E+02  0.31068669963E+02  0.40440607938E+01  0.60029311273E+02  0.00000000000E+00 0. -1.
        -12    1    4    4    0    0 -0.79967209123E+01 -0.14167333884E+01  0.64902534390E+02  0.65408666468E+02  0.00000000000E+00 0.  1.
         -5    1    3    3    0  504 -0.20716398578E+03  0.17931018837E+03  0.21357934463E+03  0.34742954265E+03  0.47000000000E+01 0.  1.
<mgrwt>
<rscale>  2 0.37910064E+03</rscale>
<asrwt>0</asrwt>
<pdfrwt beam="1">  1       21 0.75042115E-01 0.37918701E+03</pdfrwt>
<pdfrwt beam="2">  1       21 0.64788717E-01 0.37918701E+03</pdfrwt>
<totfact> 0.31203188E+03</totfact>
</mgrwt>
</event>
<event>
12    1  0.2743855E-001  0.2016067E+03  0.7546771E-02  0.1148765E+00
         21   -1    0    0  502  503  0.00000000000E+00  0.00000000000E+00  0.22991173651E+03  0.22991173651E+03  0.00000000000E+00 0.  1.
         21   -1    0    0  503  504 -0.00000000000E+00 -0.00000000000E+00 -0.18944721636E+03  0.18944721636E+03  0.00000000000E+00 0.  1.
         -6    2    1    2    0  504 -0.10265094209E+03 -0.53469780281E+01 -0.37136524711E+02  0.20499852626E+03  0.17343433401E+03 0.  0.
        -24    2    3    3    0    0 -0.60746394536E+02  0.45510550295E+02  0.25889462400E+02  0.11369220476E+03  0.80587334758E+02 0.  0.
          6    2    1    2  502    0  0.10265094209E+03  0.53469780281E+01  0.77601044854E+02  0.21436042661E+03  0.17135537414E+03 0.  0.
         24    2    5    5    0    0  0.94567163429E+02  0.62191055314E+02  0.36358598611E+02  0.14351110783E+03  0.80391632755E+02 0.  0.
          2    1    6    6  501    0  0.11980215322E+02  0.54567123775E+02  0.15946905771E+02  0.58098195840E+02  0.00000000000E+00 0. -1.
         -1    1    6    6    0  501  0.82586948106E+02  0.76239315393E+01  0.20411692840E+02  0.85412911988E+02  0.00000000000E+00 0.  1.
          5    1    5    5  502    0  0.80837786661E+01 -0.56844077286E+02  0.41242446243E+02  0.70849318784E+02  0.47000000000E+01 0. -1.
         11    1    4    4    0    0  0.15148377770E+02  0.55794153195E+01  0.22725195327E+02  0.27875396446E+02  0.00000000000E+00 0. -1.
        -12    1    4    4    0    0 -0.75894772306E+02  0.39931134976E+02  0.31642670729E+01  0.85816808318E+02  0.00000000000E+00 0.  1.
         -5    1    3    3    0  504 -0.41904547559E+02 -0.50857528324E+02 -0.63025987111E+02  0.91306321493E+02  0.47000000000E+01 0.  1.
<mgrwt>
<rscale>  2 0.20115883E+03</rscale>
<asrwt>0</asrwt>
<pdfrwt beam="1">  1       21 0.35371036E-01 0.20160673E+03</pdfrwt>
<pdfrwt beam="2">  1       21 0.29145726E-01 0.20160673E+03</pdfrwt>
<totfact> 0.86541663E+04</totfact>
</mgrwt>
</event>
<event>
12    1  0.2743855E-001  0.2000924E+03  0.7546771E-02  0.1149965E+00
         21   -1    0    0  502  503  0.00000000000E+00  0.00000000000E+00  0.37278962379E+03  0.37278962379E+03  0.00000000000E+00 0. -1.
         21   -1    0    0  503  504 -0.00000000000E+00 -0.00000000000E+00 -0.16228815774E+03  0.16228815774E+03  0.00000000000E+00 0. -1.
         -6    2    1    2    0  504  0.73915937660E+02  0.67488799147E+02 -0.51179138292E+02  0.20653393812E+03  0.17325893786E+03 0.  0.
        -24    2    3    3    0    0  0.14187426735E+02  0.10137604759E+03 -0.43899340531E+02  0.13731742217E+03  0.80315230364E+02 0.  0.
          6    2    1    2  502    0 -0.73915937660E+02 -0.67488799147E+02  0.26168060434E+03  0.32854384341E+03  0.17159841055E+03 0.  0.
         24    2    5    5    0    0 -0.10293051313E+03 -0.49865030376E+02  0.25358512636E+03  0.29332922175E+03  0.93034424992E+02 0.  0.
          2    1    6    6  501    0 -0.60411401412E+02 -0.69753670612E+02  0.20954496295E+03  0.22896332345E+03  0.00000000000E+00 0. -1.
         -1    1    6    6    0  501 -0.42519111713E+02  0.19888640236E+02  0.44040163408E+02  0.64365898302E+02  0.00000000000E+00 0.  1.
          5    1    5    5  502    0  0.29014575465E+02 -0.17623768772E+02  0.80954779832E+01  0.35214621664E+02  0.47000000000E+01 0. -1.
         11    1    4    4    0    0  0.38117290620E+02  0.37165152228E+02 -0.43567286153E+02  0.68791604190E+02  0.00000000000E+00 0. -1.
        -12    1    4    4    0    0 -0.23929863885E+02  0.64210895366E+02 -0.33205437797E+00  0.68525817977E+02  0.00000000000E+00 0.  1.
         -5    1    3    3    0  504  0.59728510925E+02 -0.33887248447E+02 -0.72797977613E+01  0.69216515949E+02  0.47000000000E+01 0.  1.
<mgrwt>
<rscale>  2 0.19973239E+03</rscale>
<asrwt>0</asrwt>
<pdfrwt beam="1">  1       21 0.57352250E-01 0.20009239E+03</pdfrwt>
<pdfrwt beam="2">  1       21 0.24967409E-01 0.20009239E+03</pdfrwt>
<totfact> 0.43170881E+04</totfact>
</mgrwt>
</event>
<event>
12    1  0.2743855E-001  0.1767646E+03  0.7546771E-02  0.1171172E+00
         21   -1    0    0  502  503  0.00000000000E+00  0.00000000000E+00  0.17612262945E+03  0.17612262945E+03  0.00000000000E+00 0. -1.
         21   -1    0    0  503  504 -0.00000000000E+00 -0.00000000000E+00 -0.22606349574E+03  0.22606349574E+03  0.00000000000E+00 0. -1.
         -6    2    1    2    0  504 -0.24652152436E+02 -0.24017257177E+02 -0.11907818576E+03  0.21313218854E+03  0.17338153940E+03 0.  0.
        -24    2    3    3    0    0 -0.43794865236E+02  0.42964266914E+02 -0.98049779892E+02  0.14021269954E+03  0.79258585167E+02 0.  0.
          6    2    1    2  502    0  0.24652152436E+02  0.24017257177E+02  0.69137319464E+02  0.18905393665E+03  0.17255974257E+03 0.  0.
         24    2    5    5    0    0  0.26024834893E+02  0.73725709437E+02  0.80929295582E+02  0.13773186358E+03  0.79421301286E+02 0.  0.
          4    1    6    6  501    0  0.18866996565E+02  0.29621640837E+02  0.85874002428E+02  0.92777957825E+02  0.00000000000E+00 0. -1.
         -3    1    6    6    0  501  0.71578383282E+01  0.44104068600E+02 -0.49447068454E+01  0.44953905753E+02  0.00000000000E+00 0.  1.
          5    1    5    5  502    0 -0.13726824571E+01 -0.49708452260E+02 -0.11791976119E+02  0.51322073068E+02  0.47000000000E+01 0. -1.
         13    1    4    4    0    0  0.53247767597E+00  0.10720656136E+02  0.12707273660E+02  0.16634025500E+02  0.00000000000E+00 0. -1.
        -14    1    4    4    0    0 -0.44327342912E+02  0.32243610777E+02 -0.11075705355E+03  0.12357867404E+03  0.00000000000E+00 0.  1.
         -5    1    3    3    0  504  0.19142712800E+02 -0.66981524090E+02 -0.21028405866E+02  0.72919489000E+02  0.47000000000E+01 0.  1.
<mgrwt>
<rscale>  2 0.17656273E+03</rscale>
<asrwt>0</asrwt>
<pdfrwt beam="1">  1       21 0.27095789E-01 0.17676458E+03</pdfrwt>
<pdfrwt beam="2">  1       21 0.34778999E-01 0.17676458E+03</pdfrwt>
<totfact> 0.10405399E+05</totfact>
</mgrwt>
</event>
<event>
12    1  0.2743855E-001  0.1821479E+03  0.7546771E-02  0.1166254E+00
         21   -1    0    0  502  503  0.00000000000E+00  0.00000000000E+00  0.38457205187E+02  0.38457205187E+02  0.00000000000E+00 0.  1.
         21   -1    0    0  503  504 -0.00000000000E+00 -0.00000000000E+00 -0.96237856256E+03  0.96237856256E+03  0.00000000000E+00 0.  1.
         -6    2    1    2    0  504  0.49814945953E+02  0.19072295131E+02 -0.62854151625E+03  0.65380969536E+03  0.17192265358E+03 0.  0.
        -24    2    3    3    0    0  0.88499320230E+02  0.37106927683E+01 -0.56304831653E+03  0.57606711468E+03  0.83570419120E+02 0.  0.
          6    2    1    2  502    0 -0.49814945953E+02 -0.19072295131E+02 -0.29537984112E+03  0.34702607238E+03  0.17416246178E+03 0.  0.
         24    2    5    5    0    0  0.37382852165E+02  0.51363969546E+01 -0.17536942941E+03  0.19664620110E+03  0.80569419915E+02 0.  0.
          4    1    6    6  501    0  0.40917993988E+02 -0.16006851241E+02 -0.39457746041E+02  0.59054341427E+02  0.00000000000E+00 0. -1.
         -3    1    6    6    0  501 -0.35351418232E+01  0.21143248196E+02 -0.13591168337E+03  0.13759185968E+03  0.00000000000E+00 0.  1.
          5    1    5    5  502    0 -0.87197798118E+02 -0.24208692086E+02 -0.12001041170E+03  0.15037987128E+03  0.47000000000E+01 0. -1.
         13    1    4    4    0    0  0.28995828912E+02  0.41846636745E+02 -0.21995053481E+03  0.22576566804E+03  0.00000000000E+00 0. -1.
        -14    1    4    4    0    0  0.59503491318E+02 -0.38135943977E+02 -0.34309778172E+03  0.35030144665E+03  0.00000000000E+00 0.  1.
         -5    1    3    3    0  504 -0.38684374277E+02  0.15361602363E+02 -0.65493199726E+02  0.77742580679E+02  0.47000000000E+01 0.  1.
<mgrwt>
<rscale>  2 0.18161038E+03</rscale>
<asrwt>0</asrwt>
<pdfrwt beam="1">  1       21 0.59164941E-02 0.18214786E+03</pdfrwt>
<pdfrwt beam="2">  1       21 0.14805822E+00 0.18214786E+03</pdfrwt>
<totfact> 0.62817848E+04</totfact>
</mgrwt>
</event>
<event>
12    1  0.2743855E-001  0.1881722E+03  0.7546771E-02  0.1161368E+00
         21   -1    0    0  502  503  0.00000000000E+00  0.00000000000E+00  0.33188473625E+03  0.33188473625E+03  0.00000000000E+00 0. -1.
         21   -1    0    0  503  504 -0.00000000000E+00 -0.00000000000E+00 -0.14440633356E+03  0.14440633356E+03  0.00000000000E+00 0. -1.
         -6    2    1    2    0  504 -0.63030572011E+02 -0.62917897792E+00 -0.31774629745E+02  0.19083608562E+03  0.17730069263E+03 0.  0.
        -24    2    3    3    0    0 -0.58248276238E+02 -0.12674655928E+02  0.47367042471E+02  0.11050266699E+03  0.80085542469E+02 0.  0.
          6    2    1    2  502    0  0.63030572011E+02  0.62917897792E+00  0.21925303244E+03  0.28545498419E+03  0.17157915634E+03 0.  0.
         24    2    5    5    0    0  0.99276561054E+02  0.58487766344E+01  0.70695149742E+02  0.13237804134E+03  0.51342943713E+02 0.  0.
          2    1    6    6  501    0 -0.18108751021E+01 -0.90688618945E+01  0.95727621347E+01  0.13310195325E+02  0.00000000000E+00 0. -1.
         -1    1    6    6    0  501  0.10108743616E+03  0.14917638529E+02  0.61122387607E+02  0.11906784602E+03  0.00000000000E+00 0.  1.
          5    1    5    5  502    0 -0.36245989043E+02 -0.52195976565E+01  0.14855788269E+03  0.15307694285E+03  0.47000000000E+01 0. -1.
         13    1    4    4    0    0 -0.48554160988E+01  0.30155181643E+02  0.81358877536E+01  0.31608586096E+02  0.00000000000E+00 0. -1.
        -14    1    4    4    0    0 -0.53392860139E+02 -0.42829837571E+02  0.39231154718E+02  0.78894080898E+02  0.00000000000E+00 0.  1.
         -5    1    3    3    0  504 -0.47822957723E+01  0.12045476950E+02 -0.79141672216E+02  0.80333418632E+02  0.47000000000E+01 0.  1.
<mgrwt>
<rscale>  2 0.18681232E+03</rscale>
<asrwt>0</asrwt>
<pdfrwt beam="1">  1       21 0.51059190E-01 0.18817222E+03</pdfrwt>
<pdfrwt beam="2">  1       21 0.22216359E-01 0.18817222E+03</pdfrwt>
<totfact> 0.69247865E+04</totfact>
</mgrwt>
</event>
<event>
12    1  0.2743855E-001  0.2586603E+03  0.7546771E-02  0.1107970E+00
         21   -1    0    0  502  503  0.00000000000E+00  0.00000000000E+00  0.22548199119E+03  0.22548199119E+03  0.00000000000E+00 0.  1.
         21   -1    0    0  503  504 -0.00000000000E+00 -0.00000000000E+00 -0.36126305294E+03  0.36126305294E+03  0.00000000000E+00 0.  1.
         -6    2    1    2    0  504  0.89374721382E+02 -0.16992580086E+03 -0.19201832273E+03  0.32204182877E+03  0.17313949461E+03 0.  0.
        -24    2    3    3    0    0  0.54509354435E+02 -0.12729953294E+03 -0.47985579941E+02  0.16776897463E+03  0.81653978216E+02 0.  0.
          6    2    1    2  502    0 -0.89374721382E+02  0.16992580086E+03  0.56237260984E+02  0.26470321535E+03  0.17332785140E+03 0.  0.
         24    2    5    5    0    0 -0.12425305298E+03  0.14301965775E+03  0.26255417243E+02  0.21121079059E+03  0.89594684284E+02 0.  0.
          2    1    6    6  501    0 -0.32728613595E+02 -0.68215837656E+01  0.99077055242E+01  0.34869166633E+02  0.00000000000E+00 0. -1.
         -1    1    6    6    0  501 -0.91524439382E+02  0.14984124151E+03  0.16347711719E+02  0.17634162396E+03  0.00000000000E+00 0.  1.
          5    1    5    5  502    0  0.34878331595E+02  0.26906143115E+02  0.29981843741E+02  0.53492424756E+02  0.47000000000E+01 0. -1.
         13    1    4    4    0    0  0.50730531694E+01  0.11858307087E+02 -0.60875042510E+01  0.14262293765E+02  0.00000000000E+00 0. -1.
        -14    1    4    4    0    0  0.49436301266E+02 -0.13915784003E+03 -0.41898075690E+02  0.15350668087E+03  0.00000000000E+00 0.  1.
         -5    1    3    3    0  504  0.34865366946E+02 -0.42626267920E+02 -0.14403274279E+03  0.15427285414E+03  0.47000000000E+01 0.  1.
<mgrwt>
<rscale>  2 0.25862877E+03</rscale>
<asrwt>0</asrwt>
<pdfrwt beam="1">  1       21 0.34689537E-01 0.25866032E+03</pdfrwt>
<pdfrwt beam="2">  1       21 0.55578931E-01 0.25866032E+03</pdfrwt>
<totfact> 0.23615112E+04</totfact>
</mgrwt>
</event>
<event>
12    1  0.2743855E-001  0.2074820E+03  0.7546771E-02  0.1144500E+00
         21   -1    0    0  502  503  0.00000000000E+00  0.00000000000E+00  0.10526532822E+03  0.10526532822E+03  0.00000000000E+00 0.  1.
         21   -1    0    0  503  504 -0.00000000000E+00 -0.00000000000E+00 -0.40245139125E+03  0.40245139125E+03  0.00000000000E+00 0.  1.
         -6    2    1    2    0  504 -0.69548218534E+02  0.87383842149E+02 -0.13064049050E+03  0.24518509167E+03  0.17485966044E+03 0.  0.
        -24    2    3    3    0    0 -0.11358808212E+03  0.82567153464E+02 -0.11284920692E+03  0.19721291384E+03  0.80239657594E+02 0.  0.
          6    2    1    2  502    0  0.69548218534E+02 -0.87383842149E+02 -0.16654557253E+03  0.26253162780E+03  0.16944774208E+03 0.  0.
         24    2    5    5    0    0 -0.17077914628E+02 -0.59668478800E+02 -0.12469939459E+03  0.16230478050E+03  0.83312185375E+02 0.  0.
          4    1    6    6  501    0 -0.42066459728E+02 -0.65675491838E+01 -0.70836906345E+02  0.82647365577E+02  0.00000000000E+00 0. -1.
         -3    1    6    6    0  501  0.24988545100E+02 -0.53100929616E+02 -0.53862488241E+02  0.79657414920E+02  0.00000000000E+00 0.  1.
          5    1    5    5  502    0  0.86626133162E+02 -0.27715363349E+02 -0.41846177944E+02  0.10022684730E+03  0.47000000000E+01 0. -1.
         11    1    4    4    0    0 -0.76158642944E+02  0.14551392502E+02 -0.84197671326E+02  0.11446016676E+03  0.00000000000E+00 0. -1.
        -12    1    4    4    0    0 -0.37429439176E+02  0.68015760962E+02 -0.28651535593E+02  0.82752747073E+02  0.00000000000E+00 0.  1.
         -5    1    3    3    0  504  0.44039863586E+02  0.48166886855E+01 -0.17791283580E+02  0.47972177832E+02  0.47000000000E+01 0.  1.
<mgrwt>
<rscale>  2 0.20633757E+03</rscale>
<asrwt>0</asrwt>
<pdfrwt beam="1">  1       21 0.16194666E-01 0.20748203E+03</pdfrwt>
<pdfrwt beam="2">  1       21 0.61915598E-01 0.20748203E+03</pdfrwt>
<totfact> 0.82064062E+04</totfact>
</mgrwt>
</event>
<event>
12    1  0.2743855E-001  0.1787822E+03  0.7546771E-02  0.1169246E+00
         21   -1    0    0  502  503  0.00000000000E+00  0.00000000000E+00  0.13526844162E+03  0.13526844162E+03  0.00000000000E+00 0.  1.
         21   -1    0    0  503  504 -0.00000000000E+00 -0.00000000000E+00 -0.24256682672E+03  0.24256682672E+03  0.00000000000E+00 0.  1.
         -6    2    1    2    0  504 -0.31531539876E+02 -0.28648234956E+02 -0.87394842234E+02  0.19899984750E+03  0.17363214415E+03 0.  0.
        -24    2    3    3    0    0 -0.39439611866E+02 -0.75362961357E+01  0.17983547788E+02  0.91134437625E+02  0.79811020458E+02 0.  0.
          6    2    1    2  502    0  0.31531539876E+02  0.28648234956E+02 -0.19903542872E+02  0.17883542085E+03  0.17254274067E+03 0.  0.
         24    2    5    5    0    0  0.48261681987E+02 -0.18880340376E+02  0.36992020714E+02  0.10269043884E+03  0.80568352551E+02 0.  0.
          2    1    6    6  501    0  0.52592667983E+02 -0.42211835974E+02  0.40557576732E+02  0.78693995020E+02  0.00000000000E+00 0. -1.
         -1    1    6    6    0  501 -0.43309859962E+01  0.23331495598E+02 -0.35655560181E+01  0.23996443825E+02  0.00000000000E+00 0.  1.
          5    1    5    5  502    0 -0.16730142111E+02  0.47528575332E+02 -0.56895563586E+02  0.76144982000E+02  0.47000000000E+01 0. -1.
         13    1    4    4    0    0 -0.59970757090E+02  0.11810854647E+02  0.11699016066E+02  0.62232266313E+02  0.00000000000E+00 0. -1.
        -14    1    4    4    0    0  0.20531145224E+02 -0.19347150782E+02  0.62845317215E+01  0.28902171313E+02  0.00000000000E+00 0.  1.
         -5    1    3    3    0  504  0.79080719901E+01 -0.21111938820E+02 -0.10537839002E+03  0.10786540987E+03  0.47000000000E+01 0.  1.
<mgrwt>
<rscale>  2 0.17851717E+03</rscale>
<asrwt>0</asrwt>
<pdfrwt beam="1">  1       21 0.20810530E-01 0.17878222E+03</pdfrwt>
<pdfrwt beam="2">  1       21 0.37317973E-01 0.17878222E+03</pdfrwt>
<totfact> 0.14907123E+05</totfact>
</mgrwt>
</event>
<event>
12    1  0.2743855E-001  0.4308011E+03  0.7546771E-02  0.1033661E+00
         21   -1    0    0  502  503  0.00000000000E+00  0.00000000000E+00  0.24958356384E+04  0.24958356384E+04  0.00000000000E+00 0.  1.
         21   -1    0    0  503  504 -0.00000000000E+00 -0.00000000000E+00 -0.24157869363E+03  0.24157869363E+03  0.00000000000E+00 0.  1.
         -6    2    1    2    0  504 -0.18622800391E+03 -0.34734963067E+03 -0.12289247434E+02  0.43029030731E+03  0.17223846142E+03 0.  0.
        -24    2    3    3    0    0 -0.94505261125E+02 -0.27984942203E+03 -0.50157302261E+02  0.31018444031E+03  0.80322404416E+02 0.  0.
          6    2    1    2  502    0  0.18622800391E+03  0.34734963067E+03  0.22665461922E+04  0.23071240247E+04  0.17394536135E+03 0.  0.
         24    2    5    5    0    0  0.70357190680E+02  0.14790586751E+03  0.68502581632E+03  0.70886476875E+03  0.80016319682E+02 0.  0.
          4    1    6    6  501    0 -0.40492975748E+01 -0.72390798989E+01  0.60630913486E+02  0.61195659640E+02  0.00000000000E+00 0. -1.
         -3    1    6    6    0  501  0.74406488255E+02  0.15514494740E+03  0.62439490284E+03  0.64766910911E+03  0.00000000000E+00 0.  1.
          5    1    5    5  502    0  0.11587081323E+03  0.19944376316E+03  0.15815203758E+04  0.15982592560E+04  0.47000000000E+01 0. -1.
         13    1    4    4    0    0 -0.13124137463E+02 -0.14491494776E+02  0.15520905427E+02  0.24962870634E+02  0.00000000000E+00 0. -1.
        -14    1    4    4    0    0 -0.81381123662E+02 -0.26535792725E+03 -0.65678207688E+02  0.28522156968E+03  0.00000000000E+00 0.  1.
         -5    1    3    3    0  504 -0.91722742783E+02 -0.67500208639E+02  0.37868054827E+02  0.12010586699E+03  0.47000000000E+01 0.  1.
<mgrwt>
<rscale>  2 0.43062945E+03</rscale>
<asrwt>0</asrwt>
<pdfrwt beam="1">  1       21 0.38397469E+00 0.43080114E+03</pdfrwt>
<pdfrwt beam="2">  1       21 0.37165955E-01 0.43080114E+03</pdfrwt>
<totfact> 0.57879560E+01</totfact>
</mgrwt>
</event>
<event>
12    1  0.2743855E-001  0.1892260E+03  0.7546771E-02  0.1159495E+00
         21   -1    0    0  502  503  0.00000000000E+00  0.00000000000E+00  0.15358600071E+03  0.15358600071E+03  0.00000000000E+00 0.  1.
         21   -1    0    0  503  504 -0.00000000000E+00 -0.00000000000E+00 -0.36159708803E+03  0.36159708803E+03  0.00000000000E+00 0.  1.
         -6    2    1    2    0  504  0.47747520871E+02  0.65671547129E+02 -0.25887020496E+03  0.32065596424E+03  0.17092070247E+03 0.  0.
        -24    2    3    3    0    0  0.62513072451E+02  0.41112334828E+02 -0.26936291761E+03  0.28977938021E+03  0.76273189990E+02 0.  0.
          6    2    1    2  502    0 -0.47747520871E+02 -0.65671547129E+02  0.50859117637E+02  0.19452712450E+03  0.16929729610E+03 0.  0.
         24    2    5    5    0    0  0.21180394011E+02 -0.82518347418E+02  0.18230218087E+02  0.11628642399E+03  0.77021456765E+02 0.  0.
          2    1    6    6  501    0  0.42244952565E+02 -0.64104250788E+02  0.34228421321E+02  0.84056979558E+02  0.00000000000E+00 0. -1.
         -1    1    6    6    0  501 -0.21064558554E+02 -0.18414096629E+02 -0.15998203234E+02  0.32229444433E+02  0.00000000000E+00 0.  1.
          5    1    5    5  502    0 -0.68927914882E+02  0.16846800289E+02  0.32628899550E+02  0.78240700506E+02  0.47000000000E+01 0. -1.
         13    1    4    4    0    0 -0.19374308837E+01 -0.13307758581E+02 -0.96508622666E+02  0.97441081304E+02  0.00000000000E+00 0. -1.
        -14    1    4    4    0    0  0.64450503335E+02  0.54420093408E+02 -0.17285429494E+03  0.19233829891E+03  0.00000000000E+00 0.  1.
         -5    1    3    3    0  504 -0.14765551580E+02  0.24559212301E+02  0.10492712649E+02  0.30876584025E+02  0.47000000000E+01 0.  1.
<mgrwt>
<rscale>  2 0.18885863E+03</rscale>
<asrwt>0</asrwt>
<pdfrwt beam="1">  1       21 0.23628616E-01 0.18922596E+03</pdfrwt>
<pdfrwt beam="2">  1       21 0.55630321E-01 0.18922596E+03</pdfrwt>
<totfact> 0.51430951E+04</totfact>
</mgrwt>
</event>
<event>
12    1  0.2743855E-001  0.1777565E+03  0.7546771E-02  0.1170215E+00
         21   -1    0    0  502  503  0.00000000000E+00  0.00000000000E+00  0.49222421908E+02  0.49222421908E+02  0.00000000000E+00 0.  1.
         21   -1    0    0  503  504 -0.00000000000E+00 -0.00000000000E+00 -0.10353287525E+04  0.10353287525E+04  0.00000000000E+00 0.  1.
         -6    2    1    2    0  504 -0.34719237408E+02  0.93208182495E+01 -0.82947639954E+03  0.84830917977E+03  0.17408349715E+03 0.  0.
        -24    2    3    3    0    0 -0.46862061907E+02  0.48162186387E+02 -0.76303253701E+03  0.77025165653E+03  0.80952534290E+02 0.  0.
          6    2    1    2  502    0  0.34719237408E+02 -0.93208182495E+01 -0.15662993109E+03  0.23624199468E+03  0.17316189431E+03 0.  0.
         24    2    5    5    0    0  0.81302221641E+02  0.10226096369E+02 -0.14360520499E+03  0.18386079786E+03  0.80422097694E+02 0.  0.
          2    1    6    6  501    0  0.41794845626E+01 -0.13682607762E+02 -0.79463036454E+02  0.80740671343E+02  0.00000000000E+00 0. -1.
         -1    1    6    6    0  501  0.77122737078E+02  0.23908704131E+02 -0.64142168535E+02  0.10312012651E+03  0.00000000000E+00 0.  1.
          5    1    5    5  502    0 -0.46582984233E+02 -0.19546914618E+02 -0.13024726104E+02  0.52381196829E+02  0.47000000000E+01 0. -1.
         13    1    4    4    0    0 -0.56544033781E+02  0.37472092871E+02 -0.32606689028E+03  0.33304804824E+03  0.00000000000E+00 0. -1.
        -14    1    4    4    0    0  0.96819718743E+01  0.10690093516E+02 -0.43696564673E+03  0.43720360829E+03  0.00000000000E+00 0.  1.
         -5    1    3    3    0  504  0.12142824499E+02 -0.38841368137E+02 -0.66443862532E+02  0.78057523236E+02  0.47000000000E+01 0.  1.
<mgrwt>
<rscale>  2 0.17753044E+03</rscale>
<asrwt>0</asrwt>
<pdfrwt beam="1">  1       21 0.75726799E-02 0.17775648E+03</pdfrwt>
<pdfrwt beam="2">  1       21 0.15928136E+00 0.17775648E+03</pdfrwt>
<totfact> 0.33949614E+04</totfact>
</mgrwt>
</event>
<event>
12    1  0.2743855E-001  0.2043729E+03  0.7546771E-02  0.1146316E+00
         21   -1    0    0  502  503  0.00000000000E+00  0.00000000000E+00  0.35076838402E+03  0.35076838402E+03  0.00000000000E+00 0. -1.
         21   -1    0    0  503  504 -0.00000000000E+00 -0.00000000000E+00 -0.12288616587E+03  0.12288616587E+03  0.00000000000E+00 0. -1.
         -6    2    1    2    0  504 -0.90425180392E+02 -0.56622042213E+02  0.68763554278E+02  0.21464289597E+03  0.17309066260E+03 0.  0.
        -24    2    3    3    0    0 -0.67090934893E+02 -0.10150259142E+03  0.40698134040E+02  0.15660404240E+03  0.89802663503E+02 0.  0.
          6    2    1    2  502    0  0.90425180392E+02  0.56622042213E+02  0.15911866387E+03  0.25901165392E+03  0.17431442499E+03 0.  0.
         24    2    5    5    0    0  0.94007152708E+02  0.10014577281E+03  0.11806773796E+03  0.19889165585E+03  0.82166778242E+02 0.  0.
          2    1    6    6  501    0  0.93919766393E+02  0.75166607668E+02  0.12447475944E+03  0.17310374683E+03  0.00000000000E+00 0. -1.
         -1    1    6    6    0  501  0.87386314789E-01  0.24979165138E+02 -0.64070214786E+01  0.25787909020E+02  0.00000000000E+00 0.  1.
          5    1    5    5  502    0 -0.35819723158E+01 -0.43523730593E+02  0.41050925904E+02  0.60119998071E+02  0.47000000000E+01 0. -1.
         11    1    4    4    0    0 -0.61499258159E+02 -0.10293193842E+03  0.61682698978E+02  0.13484026867E+03  0.00000000000E+00 0. -1.
        -12    1    4    4    0    0 -0.55916767339E+01  0.14293469993E+01 -0.20984564938E+02  0.21763773734E+02  0.00000000000E+00 0.  1.
         -5    1    3    3    0  504 -0.23334245499E+02  0.44880549210E+02  0.28065420238E+02  0.58038853568E+02  0.47000000000E+01 0.  1.
<mgrwt>
<rscale>  2 0.20411172E+03</rscale>
<asrwt>0</asrwt>
<pdfrwt beam="1">  1       21 0.53964366E-01 0.20437291E+03</pdfrwt>
<pdfrwt beam="2">  1       21 0.18905564E-01 0.20437291E+03</pdfrwt>
<totfact> 0.82818116E+04</totfact>
</mgrwt>
</event>
<event>
12    1  0.2743855E-001  0.1860270E+03  0.7546771E-02  0.1162745E+00
         21   -1    0    0  502  503  0.00000000000E+00  0.00000000000E+00  0.25952880098E+03  0.25952880098E+03  0.00000000000E+00 0. -1.
         21   -1    0    0  503  504 -0.00000000000E+00 -0.00000000000E+00 -0.14932386738E+03  0.14932386738E+03  0.00000000000E+00 0. -1.
         -6    2    1    2    0  504 -0.51984139199E+02 -0.33328115675E+02 -0.16181683245E+02  0.18395351459E+03  0.17252227286E+03 0.  0.
        -24    2    3    3    0    0 -0.19617994240E+02 -0.76555799042E+02 -0.46614326587E+02  0.12178892877E+03  0.80087400156E+02 0.  0.
          6    2    1    2  502    0  0.51984139199E+02  0.33328115675E+02  0.12638661684E+03  0.22489915378E+03  0.17547916808E+03 0.  0.
         24    2    5    5    0    0  0.68655843384E+02  0.76671581367E+02  0.11768982976E+03  0.17741941237E+03  0.83872496305E+02 0.  0.
          2    1    6    6  501    0  0.76172135854E+02  0.69902390377E+02  0.12693883566E+03  0.16371318352E+03  0.00000000000E+00 0. -1.
         -1    1    6    6    0  501 -0.75162924703E+01  0.67691909892E+01 -0.92490058961E+01  0.13706228847E+02  0.00000000000E+00 0.  1.
          5    1    5    5  502    0 -0.16671704185E+02 -0.43343465692E+02  0.86967870823E+01  0.47479741408E+02  0.47000000000E+01 0. -1.
         13    1    4    4    0    0  0.24918726152E+02 -0.50310809535E+02 -0.68299011065E+01  0.56557652163E+02  0.00000000000E+00 0. -1.
        -14    1    4    4    0    0 -0.44536720391E+02 -0.26244989507E+02 -0.39784425481E+02  0.65231276611E+02  0.00000000000E+00 0.  1.
         -5    1    3    3    0  504 -0.32366144959E+02  0.43227683367E+02  0.30432643342E+02  0.62164585815E+02  0.47000000000E+01 0.  1.
<mgrwt>
<rscale>  2 0.18532642E+03</rscale>
<asrwt>0</asrwt>
<pdfrwt beam="1">  1       21 0.39927508E-01 0.18602702E+03</pdfrwt>
<pdfrwt beam="2">  1       21 0.22972903E-01 0.18602702E+03</pdfrwt>
<totfact> 0.10780076E+05</totfact>
</mgrwt>
</event>
<event>
12    1  0.2743855E-001  0.2040925E+03  0.7546771E-02  0.1146487E+00
         21   -1    0    0  502  503  0.00000000000E+00  0.00000000000E+00  0.26126343437E+03  0.26126343437E+03  0.00000000000E+00 0. -1.
         21   -1    0    0  503  504 -0.00000000000E+00 -0.00000000000E+00 -0.17095611075E+03  0.17095611075E+03  0.00000000000E+00 0. -1.
         -6    2    1    2    0  504  0.10756379370E+03  0.12874208264E+02  0.10276326374E+03  0.22850393831E+03  0.17296833957E+03 0.  0.
        -24    2    3    3    0    0  0.63016925691E+02 -0.36552048348E+02  0.11605083913E+03  0.16048902853E+03  0.83556842049E+02 0.  0.
          6    2    1    2  502    0 -0.10756379370E+03 -0.12874208264E+02 -0.12455940122E+02  0.20371560680E+03  0.17207319099E+03 0.  0.
         24    2    5    5    0    0 -0.34464331380E+02 -0.35366379542E+02  0.48622170132E+02  0.10572553224E+03  0.79844860823E+02 0.  0.
          4    1    6    6  501    0  0.82149195702E+01  0.21295602971E+02  0.14155327927E+02  0.26858162971E+02  0.00000000000E+00 0. -1.
         -3    1    6    6    0  501 -0.42679250950E+02 -0.56661982513E+02  0.34466842205E+02  0.78867369270E+02  0.00000000000E+00 0.  1.
          5    1    5    5  502    0 -0.73099462321E+02  0.22492171278E+02 -0.61078110254E+02  0.97990074562E+02  0.47000000000E+01 0. -1.
         13    1    4    4    0    0  0.70148165409E+02 -0.14232836073E+02  0.42382399745E+02  0.83184172419E+02  0.00000000000E+00 0. -1.
        -14    1    4    4    0    0 -0.71312397181E+01 -0.22319212275E+02  0.73668439389E+02  0.77304856113E+02  0.00000000000E+00 0.  1.
         -5    1    3    3    0  504  0.44546868011E+02  0.49426256612E+02 -0.13287575394E+02  0.68014909778E+02  0.47000000000E+01 0.  1.
<mgrwt>
<rscale>  2 0.20390275E+03</rscale>
<asrwt>0</asrwt>
<pdfrwt beam="1">  1       21 0.40194374E-01 0.20409253E+03</pdfrwt>
<pdfrwt beam="2">  1       21 0.26300940E-01 0.20409253E+03</pdfrwt>
<totfact> 0.81586689E+04</totfact>
</mgrwt>
</event>
<event>
12    1  0.2743855E-001  0.1852440E+03  0.7546771E-02  0.1164631E+00
         21   -1    0    0  502  503  0.00000000000E+00  0.00000000000E+00  0.13487447606E+03  0.13487447606E+03  0.00000000000E+00 0.  1.
         21   -1    0    0  503  504 -0.00000000000E+00 -0.00000000000E+00 -0.45590053168E+03  0.45590053168E+03  0.00000000000E+00 0.  1.
         -6    2    1    2    0  504  0.60931303639E+02  0.19019712899E+02 -0.36002432514E+03  0.40147051739E+03  0.16579109867E+03 0.  0.
        -24    2    3    3    0    0  0.46000245053E+02 -0.41959879589E+02 -0.14659848870E+03  0.17895282176E+03  0.81586405028E+02 0.  0.
          6    2    1    2  502    0 -0.60931303639E+02 -0.19019712899E+02  0.38998269510E+02  0.18930449035E+03  0.17389925762E+03 0.  0.
         24    2    5    5    0    0  0.85616051610E+00  0.26172002483E+02  0.65317112558E+02  0.10821963748E+03  0.82215923141E+02 0.  0.
          2    1    6    6  501    0 -0.25889510182E+02  0.30339190395E+02  0.26681929012E+01  0.39973146795E+02  0.00000000000E+00 0. -1.
         -1    1    6    6    0  501  0.26745670699E+02 -0.41671879124E+01  0.62648919657E+02  0.68246490682E+02  0.00000000000E+00 0.  1.
          5    1    5    5  502    0 -0.61787464155E+02 -0.45191715382E+02 -0.26318843048E+02  0.81084852872E+02  0.47000000000E+01 0. -1.
         13    1    4    4    0    0  0.27192653038E+02 -0.58107897445E+02 -0.13889268710E+03  0.15299394319E+03  0.00000000000E+00 0. -1.
        -14    1    4    4    0    0  0.18807592015E+02  0.16148017856E+02 -0.77058016077E+01  0.25958878568E+02  0.00000000000E+00 0.  1.
         -5    1    3    3    0  504  0.14931058586E+02  0.60979592488E+02 -0.21342583644E+03  0.22251769563E+03  0.47000000000E+01 0.  1.
<mgrwt>
<rscale>  2 0.18331668E+03</rscale>
<asrwt>0</asrwt>
<pdfrwt beam="1">  1       21 0.20749919E-01 0.18524396E+03</pdfrwt>
<pdfrwt beam="2">  1       21 0.70138544E-01 0.18524396E+03</pdfrwt>
<totfact> 0.39899465E+04</totfact>
</mgrwt>
</event>
<event>
12    1  0.2743855E-001  0.2300155E+03  0.7546771E-02  0.1127737E+00
         21   -1    0    0  502  503  0.00000000000E+00  0.00000000000E+00  0.42645253583E+02  0.42645253583E+02  0.00000000000E+00 0.  1.
         21   -1    0    0  503  504 -0.00000000000E+00 -0.00000000000E+00 -0.23017729511E+04  0.23017729511E+04  0.00000000000E+00 0.  1.
         -6    2    1    2    0  504 -0.66966712896E+02 -0.12531962805E+03 -0.19459087115E+04  0.19594560032E+04  0.18087997428E+03 0.  0.
        -24    2    3    3    0    0 -0.30584588320E+02 -0.93471302211E+02 -0.63944241872E+03  0.65208679786E+03  0.81598307001E+02 0.  0.
          6    2    1    2  502    0  0.66966712896E+02  0.12531962805E+03 -0.31321898600E+03  0.38496220148E+03  0.17291678222E+03 0.  0.
         24    2    5    5    0    0  0.10107942234E+03  0.13465537516E+03 -0.28379032350E+03  0.33871320910E+03  0.76423626113E+02 0.  0.
          2    1    6    6  501    0  0.92726523045E+02  0.92946710511E+02 -0.25657461999E+03  0.28821491061E+03  0.00000000000E+00 0. -1.
         -1    1    6    6    0  501  0.83528992942E+01  0.41708664653E+02 -0.27215703504E+02  0.50498298496E+02  0.00000000000E+00 0.  1.
          5    1    5    5  502    0 -0.34112709443E+02 -0.93357471161E+01 -0.29428662498E+02  0.46248992380E+02  0.47000000000E+01 0. -1.
         13    1    4    4    0    0 -0.33850563307E+02 -0.98212943083E+02 -0.63765005345E+03  0.64605667978E+03  0.00000000000E+00 0. -1.
        -14    1    4    4    0    0  0.32659749862E+01  0.47416408713E+01 -0.17923652672E+01  0.60301180763E+01  0.00000000000E+00 0.  1.
         -5    1    3    3    0  504 -0.36382124576E+02 -0.31848325836E+02 -0.13064662928E+04  0.13073692053E+04  0.47000000000E+01 0.  1.
<mgrwt>
<rscale>  2 0.22844750E+03</rscale>
<asrwt>0</asrwt>
<pdfrwt beam="1">  1       21 0.65608088E-02 0.23001547E+03</pdfrwt>
<pdfrwt beam="2">  1       21 0.35411889E+00 0.23001547E+03</pdfrwt>
<totfact> 0.26687765E+03</totfact>
</mgrwt>
</event>
<event>
12    1  0.2743855E-001  0.2944701E+03  0.7546771E-02  0.1088179E+00
         21   -1    0    0  502  503  0.00000000000E+00  0.00000000000E+00  0.78189083836E+03  0.78189083836E+03  0.00000000000E+00 0.  1.
         21   -1    0    0  503  504 -0.00000000000E+00 -0.00000000000E+00 -0.65745483422E+03  0.65745483422E+03  0.00000000000E+00 0. -1.
         -6    2    1    2    0  504  0.59568559306E+02  0.22903527984E+03 -0.59418419376E+03  0.66314969371E+03  0.17523437872E+03 0.  0.
        -24    2    3    3    0    0  0.55519181113E+01  0.20653744194E+03 -0.54007078814E+03  0.58331047463E+03  0.76721019871E+02 0.  0.
          6    2    1    2  502    0 -0.59568559306E+02 -0.22903527984E+03  0.71862019790E+03  0.77619597886E+03  0.17337714990E+03 0.  0.
         24    2    5    5    0    0 -0.50482916862E+02 -0.15164000950E+03  0.29188076424E+03  0.34237434385E+03  0.80514554056E+02 0.  0.
          2    1    6    6  501    0  0.21622230960E+02 -0.46966161636E+02  0.90811322336E+02  0.10449898313E+03  0.00000000000E+00 0. -1.
         -1    1    6    6    0  501 -0.72105147822E+02 -0.10467384786E+03  0.20106944191E+03  0.23787536072E+03  0.00000000000E+00 0.  1.
          5    1    5    5  502    0 -0.90856424436E+01 -0.77395270340E+02  0.42673943366E+03  0.43382163501E+03  0.47000000000E+01 0. -1.
         11    1    4    4    0    0  0.35685782843E+02  0.14557744073E+03 -0.40995466506E+03  0.43649638457E+03  0.00000000000E+00 0. -1.
        -12    1    4    4    0    0 -0.30133864731E+02  0.60960001217E+02 -0.13011612309E+03  0.14681409006E+03  0.00000000000E+00 0.  1.
         -5    1    3    3    0  504  0.54016641195E+02  0.22497837897E+02 -0.54113405619E+02  0.79839219082E+02  0.47000000000E+01 0.  1.
<mgrwt>
<rscale>  2 0.29419440E+03</rscale>
<asrwt>0</asrwt>
<pdfrwt beam="1">  1       21 0.12029090E+00 0.29447013E+03</pdfrwt>
<pdfrwt beam="2">  1       21 0.10114690E+00 0.29447013E+03</pdfrwt>
<totfact> 0.38135326E+02</totfact>
</mgrwt>
</event>
<event>
12    1  0.2743855E-001  0.1783388E+03  0.7546771E-02  0.1171522E+00
         21   -1    0    0  502  503  0.00000000000E+00  0.00000000000E+00  0.34952103646E+03  0.34952103646E+03  0.00000000000E+00 0.  1.
         21   -1    0    0  503  504 -0.00000000000E+00 -0.00000000000E+00 -0.24574705307E+03  0.24574705307E+03  0.00000000000E+00 0.  1.
         -6    2    1    2    0  504  0.10165181551E+02 -0.18841695193E+02 -0.18703290822E+03  0.25842991979E+03  0.17704907313E+03 0.  0.
        -24    2    3    3    0    0 -0.11102050749E+02  0.56671101079E+02 -0.86852619068E+02  0.13110098395E+03  0.79430606973E+02 0.  0.
          6    2    1    2  502    0 -0.10165181551E+02  0.18841695193E+02  0.29080689161E+03  0.33683816974E+03  0.16862076977E+03 0.  0.
         24    2    5    5    0    0 -0.82606300978E+01  0.67649500423E+02  0.12517391240E+03  0.16408921036E+03  0.81314621646E+02 0.  0.
          2    1    6    6  501    0 -0.31387992172E+02  0.73661305294E+02  0.10894094536E+03  0.13520104854E+03  0.00000000000E+00 0. -1.
         -1    1    6    6    0  501  0.23127362074E+02 -0.60118048711E+01  0.16232967035E+02  0.28888161815E+02  0.00000000000E+00 0.  1.
          5    1    5    5  502    0 -0.19045514532E+01 -0.48807805230E+02  0.16563297921E+03  0.17274895939E+03  0.47000000000E+01 0. -1.
         11    1    4    4    0    0  0.44579756048E+01 -0.17156995569E+02 -0.24569480074E+01  0.17896162632E+02  0.00000000000E+00 0. -1.
        -12    1    4    4    0    0 -0.15560026354E+02  0.73828096648E+02 -0.84395671061E+02  0.11320482131E+03  0.00000000000E+00 0.  1.
         -5    1    3    3    0  504  0.21267232300E+02 -0.75512796272E+02 -0.10018028915E+03  0.12732893585E+03  0.47000000000E+01 0.  1.
<mgrwt>
<rscale>  2 0.17620986E+03</rscale>
<asrwt>0</asrwt>
<pdfrwt beam="1">  1       21 0.53772467E-01 0.17833876E+03</pdfrwt>
<pdfrwt beam="2">  1       21 0.37807239E-01 0.17833876E+03</pdfrwt>
<totfact> 0.22257993E+04</totfact>
</mgrwt>
</event>
<event>
12    1  0.2743855E-001  0.3203122E+03  0.7546771E-02  0.1075593E+00
         21   -1    0    0  502  503  0.00000000000E+00  0.00000000000E+00  0.18307649262E+04  0.18307649262E+04  0.00000000000E+00 0. -1.
         21   -1    0    0  503  504 -0.00000000000E+00 -0.00000000000E+00 -0.66358786314E+02  0.66358786314E+02  0.00000000000E+00 0.  1.
         -6    2    1    2    0  504 -0.30201577578E+02  0.26717853077E+03  0.12577321046E+04  0.12976919216E+04  0.17267823754E+03 0.  0.
        -24    2    3    3    0    0  0.10370301638E+02  0.18315272868E+03  0.10619042828E+04  0.10807194842E+04  0.81617598680E+02 0.  0.
          6    2    1    2  502    0  0.30201577578E+02 -0.26717853077E+03  0.50667403523E+03  0.59943179090E+03  0.17407869308E+03 0.  0.
         24    2    5    5    0    0  0.37512469607E+02 -0.71511720544E+02  0.11658342344E+03  0.16293239208E+03  0.80213204763E+02 0.  0.
          2    1    6    6  501    0  0.19987539267E+02 -0.87204318634E+02  0.99827806798E+02  0.13405105716E+03  0.00000000000E+00 0. -1.
         -1    1    6    6    0  501  0.17524930340E+02  0.15692598090E+02  0.16755616639E+02  0.28881334927E+02  0.00000000000E+00 0.  1.
          5    1    5    5  502    0 -0.73108920287E+01 -0.19566681023E+03  0.39009061179E+03  0.43649939882E+03  0.47000000000E+01 0. -1.
         11    1    4    4    0    0  0.26082516936E+02  0.12319781070E+03  0.50874454233E+03  0.52409828048E+03  0.00000000000E+00 0. -1.
        -12    1    4    4    0    0 -0.15712215297E+02  0.59954917983E+02  0.55315974049E+03  0.55662120369E+03  0.00000000000E+00 0.  1.
         -5    1    3    3    0  504 -0.40571879216E+02  0.84025802092E+02  0.19582782182E+03  0.21697243742E+03  0.47000000000E+01 0.  1.
<mgrwt>
<rscale>  2 0.32012228E+03</rscale>
<asrwt>0</asrwt>
<pdfrwt beam="1">  1       21 0.28165610E+00 0.32031218E+03</pdfrwt>
<pdfrwt beam="2">  1       21 0.10209045E-01 0.32031218E+03</pdfrwt>
<totfact> 0.30373519E+03</totfact>
</mgrwt>
</event>
<event>
12    1  0.2743855E-001  0.2024045E+03  0.7546771E-02  0.1147824E+00
         21   -1    0    0  502  503  0.00000000000E+00  0.00000000000E+00  0.76411962662E+02  0.76411962662E+02  0.00000000000E+00 0. -1.
         21   -1    0    0  503  504 -0.00000000000E+00 -0.00000000000E+00 -0.63909699220E+03  0.63909699220E+03  0.00000000000E+00 0. -1.
         -6    2    1    2    0  504 -0.99523977009E+02  0.34534385898E+02 -0.42552900577E+03  0.47101080808E+03  0.17227478275E+03 0.  0.
        -24    2    3    3    0    0 -0.11903359596E+03 -0.14684186908E+02 -0.26257311413E+03  0.29960542380E+03  0.80213137298E+02 0.  0.
          6    2    1    2  502    0  0.99523977009E+02 -0.34534385898E+02 -0.13715602377E+03  0.24449814678E+03  0.17282917321E+03 0.  0.
         24    2    5    5    0    0  0.16532883707E+02 -0.52694446172E+01 -0.13194264697E+03  0.15621888731E+03  0.81819162627E+02 0.  0.
          4    1    6    6  501    0  0.27619278337E+02 -0.39171219701E+02 -0.73209027497E+02  0.87502975354E+02  0.00000000000E+00 0. -1.
         -3    1    6    6    0  501 -0.11086394630E+02  0.33901775084E+02 -0.58733619468E+02  0.68715911953E+02  0.00000000000E+00 0.  1.
          5    1    5    5  502    0  0.82991093302E+02 -0.29264941281E+02 -0.52133768047E+01  0.88279259475E+02  0.47000000000E+01 0. -1.
         13    1    4    4    0    0 -0.32144393905E+02  0.17354256951E+02 -0.14718614281E+03  0.15165155103E+03  0.00000000000E+00 0. -1.
        -14    1    4    4    0    0 -0.86889202054E+02 -0.32038443859E+02 -0.11538697132E+03  0.14795387278E+03  0.00000000000E+00 0.  1.
         -5    1    3    3    0  504  0.19509618950E+02  0.49218572806E+02 -0.16295589164E+03  0.17140538428E+03  0.47000000000E+01 0.  1.
<mgrwt>
<rscale>  2 0.20228607E+03</rscale>
<asrwt>0</asrwt>
<pdfrwt beam="1">  1       21 0.11755687E-01 0.20240447E+03</pdfrwt>
<pdfrwt beam="2">  1       21 0.98322612E-01 0.20240447E+03</pdfrwt>
<totfact> 0.51762163E+04</totfact>
</mgrwt>
</event>
<event>
12    1  0.2743855E-001  0.1956334E+03  0.7546771E-02  0.1157285E+00
         21   -1    0    0  502  503  0.00000000000E+00  0.00000000000E+00  0.83332966812E+03  0.83332966812E+03  0.00000000000E+00 0.  1.
         21   -1    0    0  503  504 -0.00000000000E+00 -0.00000000000E+00 -0.50014235178E+03  0.50014235178E+03  0.00000000000E+00 0.  1.
         -6    2    1    2    0  504 -0.23789382611E+02  0.53894870702E+02 -0.47079559991E+03  0.50982441038E+03  0.18655251460E+03 0.  0.
        -24    2    3    3    0    0 -0.31547075355E+02 -0.33196804471E+02 -0.14698530499E+03  0.17438389586E+03  0.81901266540E+02 0.  0.
          6    2    1    2  502    0  0.23789382611E+02 -0.53894870702E+02  0.80398291625E+03  0.82364760953E+03  0.16892679849E+03 0.  0.
         24    2    5    5    0    0 -0.41993750941E+01 -0.65936928101E+02  0.77106306482E+03  0.77854563260E+03  0.85027871193E+02 0.  0.
          4    1    6    6  501    0  0.16685202238E+02 -0.36927911030E+02  0.67217861975E+03  0.67339896305E+03  0.00000000000E+00 0. -1.
         -3    1    6    6    0  501 -0.20884577332E+02 -0.29009017071E+02  0.98884445068E+02  0.10514666955E+03  0.00000000000E+00 0.  1.
          5    1    5    5  502    0  0.27988757705E+02  0.12042057399E+02  0.32919851430E+02  0.45101976925E+02  0.47000000000E+01 0. -1.
         11    1    4    4    0    0 -0.46213895659E+02  0.90735239158E+01 -0.57411899296E+02  0.74257519276E+02  0.00000000000E+00 0. -1.
        -12    1    4    4    0    0  0.14666820303E+02 -0.42270328387E+02 -0.89573405693E+02  0.10012637658E+03  0.00000000000E+00 0.  1.
         -5    1    3    3    0  504  0.77576927437E+01  0.87091675173E+02 -0.32381029493E+03  0.33544051452E+03  0.47000000000E+01 0.  1.
<mgrwt>
<rscale>  2 0.19130999E+03</rscale>
<asrwt>0</asrwt>
<pdfrwt beam="1">  1       21 0.12820456E+00 0.19563341E+03</pdfrwt>
<pdfrwt beam="2">  1       21 0.76944977E-01 0.19563341E+03</pdfrwt>
<totfact> 0.66997832E+02</totfact>
</mgrwt>
</event>
<event>
12    1  0.2743855E-001  0.2026483E+03  0.7546771E-02  0.1148235E+00
         21   -1    0    0  502  503  0.00000000000E+00  0.00000000000E+00  0.61385267215E+03  0.61385267215E+03  0.00000000000E+00 0.  1.
         21   -1    0    0  503  504 -0.00000000000E+00 -0.00000000000E+00 -0.87590108951E+02  0.87590108951E+02  0.00000000000E+00 0.  1.
         -6    2    1    2    0  504 -0.86332348351E+02 -0.60033343438E+02  0.89802995484E+02  0.22165489395E+03  0.17323116728E+03 0.  0.
        -24    2    3    3    0    0 -0.30754213277E+02  0.80439161618E+01  0.10109424450E+03  0.13292482758E+03  0.80239873476E+02 0.  0.
          6    2    1    2  502    0  0.86332348351E+02  0.60033343438E+02  0.43645956771E+03  0.47978788715E+03  0.16924002397E+03 0.  0.
         24    2    5    5    0    0  0.78087000926E+02 -0.18586492026E+02  0.31833616213E+03  0.33757574551E+03  0.78590294822E+02 0.  0.
          2    1    6    6  501    0  0.28358270259E+02 -0.19776604897E+02  0.25354766575E+03  0.25589397102E+03  0.00000000000E+00 0. -1.
         -1    1    6    6    0  501  0.49728730667E+02  0.11901128711E+01  0.64788496376E+02  0.81681774497E+02  0.00000000000E+00 0.  1.
          5    1    5    5  502    0  0.82453474248E+01  0.78619835464E+02  0.11812340558E+03  0.14221214164E+03  0.47000000000E+01 0. -1.
         13    1    4    4    0    0 -0.30104606452E+02 -0.20437900575E+02  0.97673428122E+02  0.10423096311E+03  0.00000000000E+00 0. -1.
        -14    1    4    4    0    0 -0.64960682506E+00  0.28481816737E+02  0.34208163756E+01  0.28693864472E+02  0.00000000000E+00 0.  1.
         -5    1    3    3    0  504 -0.55578135074E+02 -0.68077259600E+02 -0.11291249014E+02  0.88730066365E+02  0.47000000000E+01 0.  1.
<mgrwt>
<rscale>  2 0.20179259E+03</rscale>
<asrwt>0</asrwt>
<pdfrwt beam="1">  1       21 0.94438870E-01 0.20264825E+03</pdfrwt>
<pdfrwt beam="2">  1       21 0.13475402E-01 0.20264825E+03</pdfrwt>
<totfact> 0.44516991E+04</totfact>
</mgrwt>
</event>
<event>
12    1  0.2743855E-001  0.2019905E+03  0.7546771E-02  0.1148199E+00
         21   -1    0    0  502  503  0.00000000000E+00  0.00000000000E+00  0.18925057778E+03  0.18925057778E+03  0.00000000000E+00 0. -1.
         21   -1    0    0  503  504 -0.00000000000E+00 -0.00000000000E+00 -0.21670465871E+03  0.21670465871E+03  0.00000000000E+00 0.  1.
         -6    2    1    2    0  504 -0.99468158903E+02  0.27067597795E+02  0.46696939392E+01  0.20142631330E+03  0.17298608084E+03 0.  0.
        -24    2    3    3    0    0 -0.81541953898E+02 -0.27144240696E+01  0.65604270061E+02  0.13111678181E+03  0.78938152229E+02 0.  0.
          6    2    1    2  502    0  0.99468158903E+02 -0.27067597795E+02 -0.32123774864E+02  0.20452892319E+03  0.17370542312E+03 0.  0.
         24    2    5    5    0    0  0.15746486661E+02  0.37532656883E+02 -0.43268256932E+02  0.98092083756E+02  0.78059353461E+02 0.  0.
          4    1    6    6  501    0 -0.31848005175E+02  0.14135566237E+02 -0.20018223358E+02  0.40185058577E+02  0.00000000000E+00 0. -1.
         -3    1    6    6    0  501  0.47594491836E+02  0.23397090646E+02 -0.23250033574E+02  0.57907025178E+02  0.00000000000E+00 0.  1.
          5    1    5    5  502    0  0.83721672242E+02 -0.64600254678E+02  0.11144482068E+02  0.10643683943E+03  0.47000000000E+01 0. -1.
         11    1    4    4    0    0 -0.35400545268E+02 -0.26767308741E+02  0.65454669282E+02  0.79082242970E+02  0.00000000000E+00 0. -1.
        -12    1    4    4    0    0 -0.46141408631E+02  0.24052884671E+02  0.14960077915E+00  0.52034538835E+02  0.00000000000E+00 0.  1.
         -5    1    3    3    0  504 -0.17926205005E+02  0.29782021864E+02 -0.60934576122E+02  0.70309531497E+02  0.47000000000E+01 0.  1.
<mgrwt>
<rscale>  2 0.20183571E+03</rscale>
<asrwt>0</asrwt>
<pdfrwt beam="1">  1       21 0.29115474E-01 0.20199045E+03</pdfrwt>
<pdfrwt beam="2">  1       21 0.33339178E-01 0.20199045E+03</pdfrwt>
<totfact> 0.97492154E+04</totfact>
</mgrwt>
</event>
<event>
12    1  0.2743855E-001  0.2109375E+03  0.7546771E-02  0.1140860E+00
         21   -1    0    0  502  503  0.00000000000E+00  0.00000000000E+00  0.82469841482E+03  0.82469841482E+03  0.00000000000E+00 0.  1.
         21   -1    0    0  503  504 -0.00000000000E+00 -0.00000000000E+00 -0.58244085091E+02  0.58244085091E+02  0.00000000000E+00 0.  1.
         -6    2    1    2    0  504 -0.85817615991E+02 -0.86110800891E+02  0.26291676492E+03  0.33707546951E+03  0.17238014278E+03 0.  0.
        -24    2    3    3    0    0 -0.49751212203E+02  0.55670596867E+01  0.19874694898E+03  0.21940869051E+03  0.78317612785E+02 0.  0.
          6    2    1    2  502    0  0.85817615991E+02  0.86110800891E+02  0.50353756481E+03  0.54586703040E+03  0.17216562509E+03 0.  0.
         24    2    5    5    0    0  0.86550428251E+02  0.36934473749E+02  0.46970594381E+03  0.48598784584E+03  0.81886388773E+02 0.  0.
          4    1    6    6  501    0  0.50952379767E+01  0.84254462528E+01  0.24623911250E+03  0.24643589454E+03  0.00000000000E+00 0. -1.
         -3    1    6    6    0  501  0.81455190275E+02  0.28509027496E+02  0.22346683131E+03  0.23955195129E+03  0.00000000000E+00 0.  1.
          5    1    5    5  502    0 -0.73281226047E+00  0.49176327142E+02  0.33831620996E+02  0.59879184565E+02  0.47000000000E+01 0. -1.
         11    1    4    4    0    0 -0.24335228942E+02 -0.30788263897E+02  0.14233025048E+03  0.14764152791E+03  0.00000000000E+00 0. -1.
        -12    1    4    4    0    0 -0.25415983261E+02  0.36355323584E+02  0.56416698501E+02  0.71767162600E+02  0.00000000000E+00 0.  1.
         -5    1    3    3    0  504 -0.36066403788E+02 -0.91677860577E+02  0.64169815938E+02  0.11766677900E+03  0.47000000000E+01 0.  1.
<mgrwt>
<rscale>  2 0.21089371E+03</rscale>
<asrwt>0</asrwt>
<pdfrwt beam="1">  1       21 0.12687667E+00 0.21093754E+03</pdfrwt>
<pdfrwt beam="2">  1       21 0.89606290E-02 0.21093754E+03</pdfrwt>
<totfact> 0.44786763E+04</totfact>
</mgrwt>
</event>
<event>
12    1  0.2743855E-001  0.2001431E+03  0.7546771E-02  0.1150384E+00
         21   -1    0    0  502  503  0.00000000000E+00  0.00000000000E+00  0.40665713794E+02  0.40665713794E+02  0.00000000000E+00 0.  1.
         21   -1    0    0  503  504 -0.00000000000E+00 -0.00000000000E+00 -0.10112331686E+04  0.10112331686E+04  0.00000000000E+00 0.  1.
         -6    2    1    2    0  504 -0.70029002677E+02  0.60401489816E+02 -0.59899053488E+03  0.63154327716E+03  0.17749605311E+03 0.  0.
        -24    2    3    3    0    0 -0.99020921092E+02  0.90221921502E+02 -0.43494459163E+03  0.46224191575E+03  0.80905209713E+02 0.  0.
          6    2    1    2  502    0  0.70029002677E+02 -0.60401489816E+02 -0.37157691989E+03  0.42035560519E+03  0.17342729379E+03 0.  0.
         24    2    5    5    0    0 -0.11135259891E+02 -0.95502031166E+01 -0.81449822943E+02  0.11479167856E+03  0.79547818424E+02 0.  0.
          4    1    6    6  501    0 -0.18211170454E+02 -0.50821785564E+01 -0.96087872017E+02  0.97930354931E+02  0.00000000000E+00 0. -1.
         -3    1    6    6    0  501  0.70759105626E+01 -0.44680245602E+01  0.14638049073E+02  0.16861323626E+02  0.00000000000E+00 0.  1.
          5    1    5    5  502    0  0.81164262568E+02 -0.50851286699E+02 -0.29012709695E+03  0.30556392664E+03  0.47000000000E+01 0. -1.
         13    1    4    4    0    0 -0.40653344099E+02  0.14486038119E+02 -0.52178562914E+02  0.67713677456E+02  0.00000000000E+00 0. -1.
        -14    1    4    4    0    0 -0.58367576993E+02  0.75735883382E+02 -0.38276602872E+03  0.39452823830E+03  0.00000000000E+00 0.  1.
         -5    1    3    3    0  504  0.28991918415E+02 -0.29820431686E+02 -0.16404594325E+03  0.16930136141E+03  0.47000000000E+01 0.  1.
<mgrwt>
<rscale>  2 0.19923710E+03</rscale>
<asrwt>0</asrwt>
<pdfrwt beam="1">  1       21 0.62562642E-02 0.20014307E+03</pdfrwt>
<pdfrwt beam="2">  1       21 0.15557432E+00 0.20014307E+03</pdfrwt>
<totfact> 0.49594173E+04</totfact>
</mgrwt>
</event>
<event>
12    1  0.2743855E-001  0.2352101E+03  0.7546771E-02  0.1123088E+00
         21   -1    0    0  502  503  0.00000000000E+00  0.00000000000E+00  0.35685470561E+03  0.35685470561E+03  0.00000000000E+00 0. -1.
         21   -1    0    0  503  504 -0.00000000000E+00 -0.00000000000E+00 -0.19363727519E+03  0.19363727519E+03  0.00000000000E+00 0.  1.
         -6    2    1    2    0  504 -0.13561555603E+03 -0.81789488973E+02 -0.41622247077E+02  0.23886440972E+03  0.17390427031E+03 0.  0.
        -24    2    3    3    0    0 -0.14019129390E+03 -0.73895606059E+02  0.17824330565E+02  0.17853832616E+03  0.80274950428E+02 0.  0.
          6    2    1    2  502    0  0.13561555603E+03  0.81789488973E+02  0.20483967750E+03  0.31162757109E+03  0.17341092826E+03 0.  0.
         24    2    5    5    0    0  0.55924769601E+01  0.36196672767E+01  0.57400457144E+02  0.10002195724E+03  0.81640686298E+02 0.  0.
          4    1    6    6  501    0  0.60919839330E+01  0.38125302253E+02  0.74675580928E+01  0.39324488096E+02  0.00000000000E+00 0. -1.
         -3    1    6    6    0  501 -0.49950697295E+00 -0.34505634976E+02  0.49932899052E+02  0.60697469140E+02  0.00000000000E+00 0.  1.
          5    1    5    5  502    0  0.13002307907E+03  0.78169821697E+02  0.14743922035E+03  0.21160561385E+03  0.47000000000E+01 0. -1.
         11    1    4    4    0    0 -0.21049203192E+02  0.11614763334E+02  0.20897433055E+02  0.31853954081E+02  0.00000000000E+00 0. -1.
        -12    1    4    4    0    0 -0.11914209071E+03 -0.85510369393E+02 -0.30731024897E+01  0.14668437207E+03  0.00000000000E+00 0.  1.
         -5    1    3    3    0  504  0.45757378674E+01 -0.78938829143E+01 -0.59446577643E+02  0.60326083562E+02  0.47000000000E+01 0.  1.
<mgrwt>
<rscale>  2 0.23511892E+03</rscale>
<asrwt>0</asrwt>
<pdfrwt beam="1">  1       21 0.54900724E-01 0.23521011E+03</pdfrwt>
<pdfrwt beam="2">  1       21 0.29790350E-01 0.23521011E+03</pdfrwt>
<totfact> 0.33103138E+04</totfact>
</mgrwt>
</event>
<event>
12    1  0.2743855E-001  0.2042052E+03  0.7546771E-02  0.1146882E+00
         21   -1    0    0  502  503  0.00000000000E+00  0.00000000000E+00  0.17373791183E+03  0.17373791183E+03  0.00000000000E+00 0. -1.
         21   -1    0    0  503  504 -0.00000000000E+00 -0.00000000000E+00 -0.49915236206E+03  0.49915236206E+03  0.00000000000E+00 0. -1.
         -6    2    1    2    0  504 -0.12750273461E+02  0.10811651445E+03 -0.40622560776E+03  0.45327648544E+03  0.16908157107E+03 0.  0.
        -24    2    3    3    0    0  0.21374799752E+02  0.68653570971E+02 -0.10826047992E+03  0.15074193875E+03  0.76371498042E+02 0.  0.
          6    2    1    2  502    0  0.12750273461E+02 -0.10811651445E+03  0.80811157543E+02  0.21961378845E+03  0.17276580311E+03 0.  0.
         24    2    5    5    0    0 -0.26545902989E+02 -0.29857993250E+02  0.95735955431E+02  0.13065635360E+03  0.79432517569E+02 0.  0.
          4    1    6    6  501    0  0.33134487795E+00  0.19774881386E+02  0.61592150553E+02  0.64689633892E+02  0.00000000000E+00 0. -1.
         -3    1    6    6    0  501 -0.26877247867E+02 -0.49632874636E+02  0.34143804877E+02  0.65966719708E+02  0.00000000000E+00 0.  1.
          5    1    5    5  502    0  0.39296176450E+02 -0.78258521199E+02 -0.14924797887E+02  0.88957434854E+02  0.47000000000E+01 0. -1.
         13    1    4    4    0    0  0.29659688941E+01 -0.16522147143E+02 -0.10589594199E+02  0.19847363124E+02  0.00000000000E+00 0. -1.
        -14    1    4    4    0    0  0.18408830858E+02  0.85175718114E+02 -0.97670885723E+02  0.13089457562E+03  0.00000000000E+00 0.  1.
         -5    1    3    3    0  504 -0.34125073213E+02  0.39462943478E+02 -0.29796512784E+03  0.30253454669E+03  0.47000000000E+01 0.  1.
<mgrwt>
<rscale>  2 0.20342390E+03</rscale>
<asrwt>0</asrwt>
<pdfrwt beam="1">  1       21 0.26728909E-01 0.20420522E+03</pdfrwt>
<pdfrwt beam="2">  1       21 0.76792671E-01 0.20420522E+03</pdfrwt>
<totfact> 0.19955210E+04</totfact>
</mgrwt>
</event>
<event>
12    1  0.2743855E-001  0.3724583E+03  0.7546771E-02  0.1053797E+00
         21   -1    0    0  502  503  0.00000000000E+00  0.00000000000E+00  0.70431771319E+03  0.70431771319E+03  0.00000000000E+00 0. -1.
         21   -1    0    0  503  504 -0.00000000000E+00 -0.00000000000E+00 -0.39477133834E+03  0.39477133834E+03  0.00000000000E+00 0.  1.
         -6    2    1    2    0  504  0.32580142463E+03  0.50533612564E+02 -0.23449325448E+03  0.43976793378E+03  0.17236163986E+03 0.  0.
        -24    2    3    3    0    0  0.72449990149E+02  0.40210034557E+02 -0.49568599532E+02  0.12590053563E+03  0.80796354251E+02 0.  0.
          6    2    1    2  502    0 -0.32580142463E+03 -0.50533612564E+02  0.54403962933E+03  0.65932111776E+03  0.17327724533E+03 0.  0.
         24    2    5    5    0    0 -0.18858548443E+03 -0.41823048610E+02  0.19841408335E+03  0.28732219813E+03  0.76630573097E+02 0.  0.
          2    1    6    6  501    0 -0.14093750257E+03 -0.53622393324E+02  0.18018796042E+03  0.23496051110E+03  0.00000000000E+00 0. -1.
         -1    1    6    6    0  501 -0.47647981864E+02  0.11799344714E+02  0.18226122925E+02  0.52361687027E+02  0.00000000000E+00 0.  1.
          5    1    5    5  502    0 -0.13721594020E+03 -0.87105639539E+01  0.34562554598E+03  0.37199891963E+03  0.47000000000E+01 0. -1.
         13    1    4    4    0    0  0.14117550211E+02  0.27750985787E+02 -0.57833923343E+02  0.65682456755E+02  0.00000000000E+00 0. -1.
        -14    1    4    4    0    0  0.58332439939E+02  0.12459048770E+02  0.82653238115E+01  0.60218078873E+02  0.00000000000E+00 0.  1.
         -5    1    3    3    0  504  0.25335143448E+03  0.10323578007E+02 -0.18492465495E+03  0.31386739815E+03  0.47000000000E+01 0.  1.
<mgrwt>
<rscale>  2 0.37235203E+03</rscale>
<asrwt>0</asrwt>
<pdfrwt beam="1">  1       21 0.10835657E+00 0.37245834E+03</pdfrwt>
<pdfrwt beam="2">  1       21 0.60734052E-01 0.37245834E+03</pdfrwt>
<totfact> 0.15146279E+03</totfact>
</mgrwt>
</event>
<event>
12    1  0.2743855E-001  0.1876879E+03  0.7546771E-02  0.1160640E+00
         21   -1    0    0  502  503  0.00000000000E+00  0.00000000000E+00  0.11003383079E+04  0.11003383079E+04  0.00000000000E+00 0.  1.
         21   -1    0    0  503  504 -0.00000000000E+00 -0.00000000000E+00 -0.47104978852E+02  0.47104978852E+02  0.00000000000E+00 0.  1.
         -6    2    1    2    0  504 -0.70225947415E+02  0.16100488595E+02  0.20159590463E+03  0.27544084613E+03  0.17330851546E+03 0.  0.
        -24    2    3    3    0    0  0.12229977340E+01  0.57283219001E+02  0.14440456728E+03  0.17497240275E+03  0.80497203502E+02 0.  0.
          6    2    1    2  502    0  0.70225947415E+02 -0.16100488595E+02  0.85163742441E+03  0.87200244062E+03  0.17294809730E+03 0.  0.
         24    2    5    5    0    0  0.10479469184E+03 -0.43946006926E+02  0.56240430916E+03  0.57934520776E+03  0.80181567924E+02 0.  0.
          2    1    6    6  501    0  0.37001965414E+02 -0.56687395923E+02  0.22504935500E+03  0.23501025187E+03  0.00000000000E+00 0. -1.
         -1    1    6    6    0  501  0.67792726430E+02  0.12741388997E+02  0.33735495416E+03  0.34433495589E+03  0.00000000000E+00 0.  1.
          5    1    5    5  502    0 -0.34568744429E+02  0.27845518331E+02  0.28923311525E+03  0.29265723285E+03  0.47000000000E+01 0. -1.
         13    1    4    4    0    0 -0.10258861762E+02 -0.18071069308E+02  0.46193256937E+02  0.50651996772E+02  0.00000000000E+00 0. -1.
        -14    1    4    4    0    0  0.11481859496E+02  0.75354288309E+02  0.98211310339E+02  0.12432040598E+03  0.00000000000E+00 0.  1.
         -5    1    3    3    0  504 -0.71448945149E+02 -0.41182730406E+02  0.57191337356E+02  0.10046844338E+03  0.47000000000E+01 0.  1.
<mgrwt>
<rscale>  2 0.18760466E+03</rscale>
<asrwt>0</asrwt>
<pdfrwt beam="1">  1       21 0.16928280E+00 0.18768791E+03</pdfrwt>
<pdfrwt beam="2">  1       21 0.72469206E-02 0.18768791E+03</pdfrwt>
<totfact> 0.30854255E+04</totfact>
</mgrwt>
</event>
<event>
12    1  0.2743855E-001  0.1763135E+03  0.7546771E-02  0.1171651E+00
         21   -1    0    0  502  503  0.00000000000E+00  0.00000000000E+00  0.77377576242E+02  0.77377576242E+02  0.00000000000E+00 0. -1.
         21   -1    0    0  503  504 -0.00000000000E+00 -0.00000000000E+00 -0.62692459029E+03  0.62692459029E+03  0.00000000000E+00 0. -1.
         -6    2    1    2    0  504 -0.36577774625E+02  0.12261977677E+02 -0.48634612935E+03  0.51700343529E+03  0.17108975680E+03 0.  0.
        -24    2    3    3    0    0  0.39538957052E+02  0.76347662730E+01 -0.30256545345E+03  0.31797430487E+03  0.89107722172E+02 0.  0.
          6    2    1    2  502    0  0.36577774625E+02 -0.12261977677E+02 -0.63200884705E+02  0.18729873124E+03  0.17204119624E+03 0.  0.
         24    2    5    5    0    0 -0.22916438142E+01 -0.64170863937E+02 -0.10344195176E+02  0.10350563015E+03  0.80518703973E+02 0.  0.
          4    1    6    6  501    0  0.20863001761E+02 -0.10836483555E+02  0.25909282451E+02  0.34985498931E+02  0.00000000000E+00 0. -1.
         -3    1    6    6    0  501 -0.23154645576E+02 -0.53334380381E+02 -0.36253477627E+02  0.68520131220E+02  0.00000000000E+00 0.  1.
          5    1    5    5  502    0  0.38869418439E+02  0.51908886260E+02 -0.52856689530E+02  0.83793101092E+02  0.47000000000E+01 0. -1.
         11    1    4    4    0    0 -0.55406551734E+01 -0.10897554723E+02 -0.23137317361E+03  0.23169592363E+03  0.00000000000E+00 0. -1.
        -12    1    4    4    0    0  0.45079612225E+02  0.18532320996E+02 -0.71192279839E+02  0.86278381235E+02  0.00000000000E+00 0.  1.
         -5    1    3    3    0  504 -0.76116731677E+02  0.46272114039E+01 -0.18378067589E+03  0.19902913043E+03  0.47000000000E+01 0.  1.
<mgrwt>
<rscale>  2 0.17608101E+03</rscale>
<asrwt>0</asrwt>
<pdfrwt beam="1">  1       21 0.11904243E-01 0.17631354E+03</pdfrwt>
<pdfrwt beam="2">  1       21 0.96449935E-01 0.17631354E+03</pdfrwt>
<totfact> 0.53648717E+04</totfact>
</mgrwt>
</event>
<event>
12    1  0.2743855E-001  0.3185403E+03  0.7546771E-02  0.1076449E+00
         21   -1    0    0  502  503  0.00000000000E+00  0.00000000000E+00  0.16171493777E+03  0.16171493777E+03  0.00000000000E+00 0. -1.
         21   -1    0    0  503  504 -0.00000000000E+00 -0.00000000000E+00 -0.68757938749E+03  0.68757938749E+03  0.00000000000E+00 0.  1.
         -6    2    1    2    0  504 -0.25147845562E+03 -0.89219758942E+02 -0.39113497897E+03  0.50443484822E+03  0.17397231188E+03 0.  0.
        -24    2    3    3    0    0 -0.51474933747E+02 -0.46526782025E+02 -0.12236566534E+03  0.16667290100E+03  0.89398487825E+02 0.  0.
          6    2    1    2  502    0  0.25147845562E+03  0.89219758942E+02 -0.13472947075E+03  0.34485947703E+03  0.17197223492E+03 0.  0.
         24    2    5    5    0    0  0.21537788533E+03  0.12515192782E+02 -0.79490740772E+02  0.24356659014E+03  0.80384341915E+02 0.  0.
          4    1    6    6  501    0  0.13814727413E+03  0.37774118374E+02 -0.24113352812E+02  0.14523431810E+03  0.00000000000E+00 0. -1.
         -3    1    6    6    0  501  0.77230611192E+02 -0.25258925593E+02 -0.55377387961E+02  0.98332272040E+02  0.00000000000E+00 0.  1.
          5    1    5    5  502    0  0.36100570290E+02  0.76704566160E+02 -0.55238729981E+02  0.10129288689E+03  0.47000000000E+01 0. -1.
         13    1    4    4    0    0 -0.42093457878E+02 -0.68340472114E+02 -0.60816750706E+02  0.10070231622E+03  0.00000000000E+00 0. -1.
        -14    1    4    4    0    0 -0.93814758690E+01  0.21813690089E+02 -0.61548914630E+02  0.65970584786E+02  0.00000000000E+00 0.  1.
         -5    1    3    3    0  504 -0.20000352187E+03 -0.42692976917E+02 -0.26876931363E+03  0.33776194722E+03  0.47000000000E+01 0.  1.
<mgrwt>
<rscale>  2 0.31826800E+03</rscale>
<asrwt>0</asrwt>
<pdfrwt beam="1">  1       21 0.24879221E-01 0.31854033E+03</pdfrwt>
<pdfrwt beam="2">  1       21 0.10578145E+00 0.31854033E+03</pdfrwt>
<totfact> 0.10227828E+04</totfact>
</mgrwt>
</event>
<event>
12    1  0.2743855E-001  0.2059061E+03  0.7546771E-02  0.1144869E+00
         21   -1    0    0  502  503  0.00000000000E+00  0.00000000000E+00  0.28144185133E+03  0.28144185133E+03  0.00000000000E+00 0.  1.
         21   -1    0    0  503  504 -0.00000000000E+00 -0.00000000000E+00 -0.32496845042E+03  0.32496845042E+03  0.00000000000E+00 0.  1.
         -6    2    1    2    0  504  0.10739375967E+03 -0.28136491849E+02 -0.24388359754E+03  0.31918101517E+03  0.17341346402E+03 0.  0.
        -24    2    3    3    0    0  0.14409890215E+03 -0.28357224485E+02 -0.20338040079E+03  0.26431832151E+03  0.83258404265E+02 0.  0.
          6    2    1    2  502    0 -0.10739375967E+03  0.28136491849E+02  0.20035699846E+03  0.28722928659E+03  0.17329932040E+03 0.  0.
         24    2    5    5    0    0  0.33496770176E+00 -0.26307491635E+02  0.80559350711E+02  0.11710229742E+03  0.80814248458E+02 0.  0.
          2    1    6    6  501    0  0.35437389274E+02 -0.13659061702E+02  0.13398149027E+02  0.40272682088E+02  0.00000000000E+00 0. -1.
         -1    1    6    6    0  501 -0.35102421573E+02 -0.12648429933E+02  0.67161201684E+02  0.76829615330E+02  0.00000000000E+00 0.  1.
          5    1    5    5  502    0 -0.10772872737E+03  0.54443983484E+02  0.11979764775E+03  0.17012698917E+03  0.47000000000E+01 0. -1.
         13    1    4    4    0    0 -0.77964619428E+01  0.85018862742E+01 -0.76726469547E+01  0.13854111315E+02  0.00000000000E+00 0. -1.
        -14    1    4    4    0    0  0.15189536409E+03 -0.36859110759E+02 -0.19570775383E+03  0.25046421020E+03  0.00000000000E+00 0.  1.
         -5    1    3    3    0  504 -0.36705142482E+02  0.22073263601E+00 -0.40503196755E+02  0.54862693653E+02  0.47000000000E+01 0.  1.
<mgrwt>
<rscale>  2 0.20588204E+03</rscale>
<asrwt>0</asrwt>
<pdfrwt beam="1">  1       21 0.43298746E-01 0.20590607E+03</pdfrwt>
<pdfrwt beam="2">  1       21 0.49995146E-01 0.20590607E+03</pdfrwt>
<totfact> 0.19387726E+04</totfact>
</mgrwt>
</event>
<event>
12    1  0.2743855E-001  0.2054192E+03  0.7546771E-02  0.1147300E+00
         21   -1    0    0  502  503  0.00000000000E+00  0.00000000000E+00  0.19976160612E+03  0.19976160612E+03  0.00000000000E+00 0.  1.
         21   -1    0    0  503  504 -0.00000000000E+00 -0.00000000000E+00 -0.47272447382E+03  0.47272447382E+03  0.00000000000E+00 0.  1.
         -6    2    1    2    0  504  0.52384155001E+02  0.75088397276E+02 -0.39267734496E+03  0.44316198907E+03  0.18388769456E+03 0.  0.
        -24    2    3    3    0    0 -0.21339349690E+01 -0.19324307825E+02 -0.12141392749E+03  0.15077198809E+03  0.87251750993E+02 0.  0.
          6    2    1    2  502    0 -0.52384155001E+02 -0.75088397276E+02  0.11971447725E+03  0.22932409087E+03  0.17284564064E+03 0.  0.
         24    2    5    5    0    0 -0.79263404468E+01 -0.41738569307E+02 -0.65672590274E+01  0.91273827494E+02  0.80516132878E+02 0.  0.
          4    1    6    6  501    0  0.13163471752E+02  0.24749553142E+01 -0.32997690645E+02  0.35612497529E+02  0.00000000000E+00 0. -1.
         -3    1    6    6    0  501 -0.21089812199E+02 -0.44213524621E+02  0.26430431617E+02  0.55661329965E+02  0.00000000000E+00 0.  1.
          5    1    5    5  502    0 -0.44457814554E+02 -0.33349827968E+02  0.12628173628E+03  0.13805026338E+03  0.47000000000E+01 0. -1.
         11    1    4    4    0    0 -0.24960158419E+02  0.22520779539E+02 -0.21051953772E+02  0.39665851522E+02  0.00000000000E+00 0. -1.
        -12    1    4    4    0    0  0.22826223450E+02 -0.41845087364E+02 -0.10036197372E+03  0.11110613656E+03  0.00000000000E+00 0.  1.
         -5    1    3    3    0  504  0.54518089970E+02  0.94412705100E+02 -0.27126341747E+03  0.29239000098E+03  0.47000000000E+01 0.  1.
<mgrwt>
<rscale>  2 0.20291822E+03</rscale>
<asrwt>0</asrwt>
<pdfrwt beam="1">  1       21 0.30732555E-01 0.20541921E+03</pdfrwt>
<pdfrwt beam="2">  1       21 0.72726841E-01 0.20541921E+03</pdfrwt>
<totfact> 0.17172588E+04</totfact>
</mgrwt>
</event>
<event>
12    1  0.2743855E-001  0.1884935E+03  0.7546771E-02  0.1160974E+00
         21   -1    0    0  502  503  0.00000000000E+00  0.00000000000E+00  0.11175015885E+03  0.11175015885E+03  0.00000000000E+00 0. -1.
         21   -1    0    0  503  504 -0.00000000000E+00 -0.00000000000E+00 -0.50663438201E+03  0.50663438201E+03  0.00000000000E+00 0. -1.
         -6    2    1    2    0  504 -0.45032058871E+02 -0.66737032811E+02 -0.38862959781E+03  0.42978728437E+03  0.16493158472E+03 0.  0.
        -24    2    3    3    0    0 -0.70634934587E+02 -0.26831124165E+02 -0.14538016318E+03  0.18191561144E+03  0.79048685212E+02 0.  0.
          6    2    1    2  502    0  0.45032058871E+02  0.66737032811E+02 -0.62546253544E+01  0.18859725649E+03  0.17043499330E+03 0.  0.
         24    2    5    5    0    0  0.40906511906E+02 -0.31880066341E+02  0.14130726266E+02  0.87701245942E+02  0.69297545185E+02 0.  0.
          4    1    6    6  501    0  0.34508523849E+02 -0.27034582259E+02  0.40778276521E+02  0.59871317776E+02  0.00000000000E+00 0. -1.
         -3    1    6    6    0  501  0.63979880574E+01 -0.48454840821E+01 -0.26647550255E+02  0.27829928167E+02  0.00000000000E+00 0.  1.
          5    1    5    5  502    0  0.41255469644E+01  0.98617099152E+02 -0.20385351621E+02  0.10089601054E+03  0.47000000000E+01 0. -1.
         11    1    4    4    0    0 -0.46752683682E+02  0.49768179344E+01 -0.13171982808E+03  0.13985955547E+03  0.00000000000E+00 0. -1.
        -12    1    4    4    0    0 -0.23882250906E+02 -0.31807942099E+02 -0.13660335100E+02  0.42056055972E+02  0.00000000000E+00 0.  1.
         -5    1    3    3    0  504  0.25602875717E+02 -0.39905908646E+02 -0.24324943463E+03  0.24787167292E+03  0.47000000000E+01 0.  1.
<mgrwt>
<rscale>  2 0.18724081E+03</rscale>
<asrwt>0</asrwt>
<pdfrwt beam="1">  1       21 0.17192332E-01 0.18849351E+03</pdfrwt>
<pdfrwt beam="2">  1       21 0.77943750E-01 0.18849351E+03</pdfrwt>
<totfact> 0.44660870E+04</totfact>
</mgrwt>
</event>
<event>
12    1  0.2743855E-001  0.2308948E+03  0.7546771E-02  0.1126301E+00
         21   -1    0    0  502  503  0.00000000000E+00  0.00000000000E+00  0.65175602338E+03  0.65175602338E+03  0.00000000000E+00 0.  1.
         21   -1    0    0  503  504 -0.00000000000E+00 -0.00000000000E+00 -0.83450990817E+02  0.83450990817E+02  0.00000000000E+00 0. -1.
         -6    2    1    2    0  504  0.14630610239E+03  0.36024685126E+02  0.22300429118E+03  0.31982162255E+03  0.17277645335E+03 0.  0.
        -24    2    3    3    0    0  0.50205924787E+02  0.68271820626E+02  0.66632408029E+02  0.13340977281E+03  0.78591432787E+02 0.  0.
          6    2    1    2  502    0 -0.14630610239E+03 -0.36024685126E+02  0.34530074138E+03  0.41538539164E+03  0.17495476003E+03 0.  0.
         24    2    5    5    0    0 -0.12763304249E+03  0.22127968375E+02  0.31133151343E+03  0.34533960145E+03  0.74513680351E+02 0.  0.
          4    1    6    6  501    0 -0.67763718335E+02 -0.17174999702E+02  0.20942536651E+03  0.22078470571E+03  0.00000000000E+00 0. -1.
         -3    1    6    6    0  501 -0.59869324152E+02  0.39302968077E+02  0.10190614692E+03  0.12455489575E+03  0.00000000000E+00 0.  1.
          5    1    5    5  502    0 -0.18673059900E+02 -0.58152653501E+02  0.33969227952E+02  0.70045790187E+02  0.47000000000E+01 0. -1.
         11    1    4    4    0    0  0.18167422170E+02 -0.47666047438E+01 -0.11283515800E+02  0.21911035528E+02  0.00000000000E+00 0. -1.
        -12    1    4    4    0    0  0.32038502617E+02  0.73038425370E+02  0.77915923829E+02  0.11149873729E+03  0.00000000000E+00 0.  1.
         -5    1    3    3    0  504  0.96100177600E+02 -0.32247135500E+02  0.15637188315E+03  0.18641184974E+03  0.47000000000E+01 0.  1.
<mgrwt>
<rscale>  2 0.23048219E+03</rscale>
<asrwt>0</asrwt>
<pdfrwt beam="1">  1       21 0.10027015E+00 0.23089483E+03</pdfrwt>
<pdfrwt beam="2">  1       21 0.12838614E-01 0.23089483E+03</pdfrwt>
<totfact> 0.41590283E+04</totfact>
</mgrwt>
</event>
<event>
12    1  0.2743855E-001  0.2841259E+03  0.7546771E-02  0.1093648E+00
         21   -1    0    0  502  503  0.00000000000E+00  0.00000000000E+00  0.99106850569E+02  0.99106850569E+02  0.00000000000E+00 0. -1.
         21   -1    0    0  503  504 -0.00000000000E+00 -0.00000000000E+00 -0.93916550946E+03  0.93916550946E+03  0.00000000000E+00 0. -1.
         -6    2    1    2    0  504 -0.19560335522E+03  0.10783256480E+03 -0.61129315689E+03  0.67349684978E+03  0.17329208982E+03 0.  0.
        -24    2    3    3    0    0 -0.12202761014E+03  0.28612229821E+02 -0.48462837264E+03  0.50689760216E+03  0.79819309533E+02 0.  0.
          6    2    1    2  502    0  0.19560335522E+03 -0.10783256480E+03 -0.22876550200E+03  0.36477551025E+03  0.17561031681E+03 0.  0.
         24    2    5    5    0    0  0.12371721089E+03 -0.82600315656E+02 -0.60050945329E+02  0.17959728320E+03  0.80748422152E+02 0.  0.
          4    1    6    6  501    0  0.48968855946E+02 -0.80807729605E+02 -0.32968542865E+02  0.10007378695E+03  0.00000000000E+00 0. -1.
         -3    1    6    6    0  501  0.74748354945E+02 -0.17925860515E+01 -0.27082402464E+02  0.79523496245E+02  0.00000000000E+00 0.  1.
          5    1    5    5  502    0  0.71886144324E+02 -0.25232249141E+02 -0.16871455667E+03  0.18517822705E+03  0.47000000000E+01 0. -1.
         11    1    4    4    0    0 -0.47346079295E+01  0.24188726999E+02 -0.15603023906E+03  0.15796501678E+03  0.00000000000E+00 0. -1.
        -12    1    4    4    0    0 -0.11729300221E+03  0.44235028221E+01 -0.32859813358E+03  0.34893258538E+03  0.00000000000E+00 0.  1.
         -5    1    3    3    0  504 -0.73575745077E+02  0.79220334976E+02 -0.12666478426E+03  0.16659924762E+03  0.47000000000E+01 0.  1.
<mgrwt>
<rscale>  2 0.28376847E+03</rscale>
<asrwt>0</asrwt>
<pdfrwt beam="1">  1       21 0.15247208E-01 0.28412588E+03</pdfrwt>
<pdfrwt beam="2">  1       21 0.14448700E+00 0.28412588E+03</pdfrwt>
<totfact> 0.11867682E+04</totfact>
</mgrwt>
</event>
<event>
12    1  0.2743855E-001  0.2053448E+03  0.7546771E-02  0.1145326E+00
         21   -1    0    0  502  503  0.00000000000E+00  0.00000000000E+00  0.12400419767E+04  0.12400419767E+04  0.00000000000E+00 0. -1.
         21   -1    0    0  503  504 -0.00000000000E+00 -0.00000000000E+00 -0.40179861200E+02  0.40179861200E+02  0.00000000000E+00 0. -1.
         -6    2    1    2    0  504  0.87612391797E+02  0.66950495664E+02  0.34853332098E+03  0.40447804555E+03  0.17311474065E+03 0.  0.
        -24    2    3    3    0    0  0.11665517165E+03  0.19709610998E+02  0.19721317535E+03  0.24324820737E+03  0.79244911615E+02 0.  0.
          6    2    1    2  502    0 -0.87612391797E+02 -0.66950495664E+02  0.85132879454E+03  0.87574379237E+03  0.17322867372E+03 0.  0.
         24    2    5    5    0    0 -0.28530356694E+02  0.19568075354E+02  0.23464079416E+03  0.25020216321E+03  0.79673893869E+02 0.  0.
          4    1    6    6  501    0 -0.32988212423E+02  0.18861699949E+02  0.24011723989E+03  0.24310548076E+03  0.00000000000E+00 0. -1.
         -3    1    6    6    0  501  0.44578557287E+01  0.70637540557E+00 -0.54764457307E+01  0.70966824469E+01  0.00000000000E+00 0.  1.
          5    1    5    5  502    0 -0.59082035102E+02 -0.86518571018E+02  0.61668800038E+03  0.62554162917E+03  0.47000000000E+01 0. -1.
         11    1    4    4    0    0  0.50297026246E+02  0.18164709858E+02  0.25684964246E+02  0.59325078354E+02  0.00000000000E+00 0. -1.
        -12    1    4    4    0    0  0.66358145409E+02  0.15449011395E+01  0.17152821111E+03  0.18392312902E+03  0.00000000000E+00 0.  1.
         -5    1    3    3    0  504 -0.29042779858E+02  0.47240884666E+02  0.15132014563E+03  0.16122983818E+03  0.47000000000E+01 0.  1.
<mgrwt>
<rscale>  2 0.20532074E+03</rscale>
<asrwt>0</asrwt>
<pdfrwt beam="1">  1       21 0.19077566E+00 0.20534477E+03</pdfrwt>
<pdfrwt beam="2">  1       21 0.61815181E-02 0.20534477E+03</pdfrwt>
<totfact> 0.28627715E+04</totfact>
</mgrwt>
</event>
<event>
12    1  0.2743855E-001  0.2958870E+03  0.7546771E-02  0.1087600E+00
         21   -1    0    0  502  503  0.00000000000E+00  0.00000000000E+00  0.20129460230E+03  0.20129460230E+03  0.00000000000E+00 0. -1.
         21   -1    0    0  503  504 -0.00000000000E+00 -0.00000000000E+00 -0.43418260809E+03  0.43418260809E+03  0.00000000000E+00 0.  1.
         -6    2    1    2    0  504 -0.13550215453E+03 -0.19388831244E+03 -0.14112045454E+03  0.32781717180E+03  0.17775152278E+03 0.  0.
        -24    2    3    3    0    0 -0.16897751170E+03 -0.15560004701E+03 -0.10617739897E+03  0.26593261847E+03  0.81741931858E+02 0.  0.
          6    2    1    2  502    0  0.13550215453E+03  0.19388831244E+03 -0.91767551254E+02  0.30766003859E+03  0.17401121889E+03 0.  0.
         24    2    5    5    0    0  0.56071649558E+02  0.18836614373E+03 -0.53525931062E+02  0.21920546843E+03  0.80994926437E+02 0.  0.
          2    1    6    6  501    0  0.10349835132E+02  0.98186135731E+02  0.10877514795E+02  0.99327522193E+02  0.00000000000E+00 0. -1.
         -1    1    6    6    0  501  0.45721814427E+02  0.90180007995E+02 -0.64403445856E+02  0.11987794624E+03  0.00000000000E+00 0.  1.
          5    1    5    5  502    0  0.79430504970E+02  0.55221687140E+01 -0.38241620192E+02  0.88454570159E+02  0.47000000000E+01 0. -1.
         13    1    4    4    0    0 -0.13336331019E+03 -0.14479558686E+03 -0.11458936274E+03  0.22777676907E+03  0.00000000000E+00 0. -1.
        -14    1    4    4    0    0 -0.35614201517E+02 -0.10804460152E+02  0.84119637648E+01  0.38155849398E+02  0.00000000000E+00 0.  1.
         -5    1    3    3    0  504  0.33475357175E+02 -0.38288265432E+02 -0.34943055567E+02  0.61884553325E+02  0.47000000000E+01 0.  1.
<mgrwt>
<rscale>  2 0.29532748E+03</rscale>
<asrwt>0</asrwt>
<pdfrwt beam="1">  1       21 0.30968400E-01 0.29588700E+03</pdfrwt>
<pdfrwt beam="2">  1       21 0.66797324E-01 0.29588700E+03</pdfrwt>
<totfact> 0.19529110E+04</totfact>
</mgrwt>
</event>
<event>
12    1  0.2743855E-001  0.1944905E+03  0.7546771E-02  0.1154534E+00
         21   -1    0    0  502  503  0.00000000000E+00  0.00000000000E+00  0.18704041854E+03  0.18704041854E+03  0.00000000000E+00 0.  1.
         21   -1    0    0  503  504 -0.00000000000E+00 -0.00000000000E+00 -0.27733862774E+03  0.27733862774E+03  0.00000000000E+00 0.  1.
         -6    2    1    2    0  504  0.70246447917E+01  0.88167895893E+02 -0.16618657992E+03  0.25560741154E+03  0.17289952570E+03 0.  0.
        -24    2    3    3    0    0  0.53458228722E+02  0.10697796271E+03 -0.12352320243E+03  0.18963658383E+03  0.80012409429E+02 0.  0.
          6    2    1    2  502    0 -0.70246447917E+01 -0.88167895893E+02  0.75888370717E+02  0.20877163474E+03  0.17321555115E+03 0.  0.
         24    2    5    5    0    0  0.42730756941E+02  0.14057084663E+01  0.46900316125E+02  0.10218163563E+03  0.80084663969E+02 0.  0.
          4    1    6    6  501    0  0.50275575866E+01  0.35161973897E+02  0.38251003781E+01  0.35724951176E+02  0.00000000000E+00 0. -1.
         -3    1    6    6    0  501  0.37703199355E+02 -0.33756265431E+02  0.43075215747E+02  0.66456684457E+02  0.00000000000E+00 0.  1.
          5    1    5    5  502    0 -0.49755401733E+02 -0.89573604359E+02  0.28988054593E+02  0.10658999910E+03  0.47000000000E+01 0. -1.
         11    1    4    4    0    0  0.20674326153E+02 -0.59175979770E+01 -0.40043548188E+02  0.45452518953E+02  0.00000000000E+00 0. -1.
        -12    1    4    4    0    0  0.32783902570E+02  0.11289556069E+03 -0.83479654240E+02  0.14418406487E+03  0.00000000000E+00 0.  1.
         -5    1    3    3    0  504 -0.46433583931E+02 -0.18810066819E+02 -0.42663377497E+02  0.65970827718E+02  0.47000000000E+01 0.  1.
<mgrwt>
<rscale>  2 0.19442010E+03</rscale>
<asrwt>0</asrwt>
<pdfrwt beam="1">  1       21 0.28775449E-01 0.19449049E+03</pdfrwt>
<pdfrwt beam="2">  1       21 0.42667481E-01 0.19449049E+03</pdfrwt>
<totfact> 0.61009506E+04</totfact>
</mgrwt>
</event>
<event>
12    1  0.2743855E-001  0.1991212E+03  0.7546771E-02  0.1150733E+00
         21   -1    0    0  502  503  0.00000000000E+00  0.00000000000E+00  0.15771757171E+03  0.15771757171E+03  0.00000000000E+00 0. -1.
         21   -1    0    0  503  504 -0.00000000000E+00 -0.00000000000E+00 -0.25511568361E+03  0.25511568361E+03  0.00000000000E+00 0. -1.
         -6    2    1    2    0  504  0.91707757034E+02 -0.29795687095E+02 -0.19071671190E+02  0.19886059759E+03  0.17286906306E+03 0.  0.
        -24    2    3    3    0    0  0.12245382483E+03 -0.50788173497E+02  0.16435393155E+01  0.15599785017E+03  0.82208577745E+02 0.  0.
          6    2    1    2  502    0 -0.91707757034E+02  0.29795687095E+02 -0.78326440708E+02  0.21397265773E+03  0.17421587549E+03 0.  0.
         24    2    5    5    0    0 -0.12888079325E+03  0.43959469300E+02 -0.68421967929E+02  0.17270964853E+03  0.81267233185E+02 0.  0.
          4    1    6    6  501    0 -0.90869127863E+02  0.52693885419E+02 -0.14318350438E+02  0.10601348555E+03  0.00000000000E+00 0. -1.
         -3    1    6    6    0  501 -0.38011665385E+02 -0.87344161193E+01 -0.54103617490E+02  0.66696162977E+02  0.00000000000E+00 0.  1.
          5    1    5    5  502    0  0.37173036214E+02 -0.14163782205E+02 -0.99044727792E+01  0.41263009206E+02  0.47000000000E+01 0. -1.
         11    1    4    4    0    0 -0.28450240462E+01 -0.22041113875E+02 -0.14347426249E+02  0.26452854338E+02  0.00000000000E+00 0. -1.
        -12    1    4    4    0    0  0.12529884887E+03 -0.28747059622E+02  0.15990965565E+02  0.12954499583E+03  0.00000000000E+00 0.  1.
         -5    1    3    3    0  504 -0.30746067791E+02  0.20992486402E+02 -0.20715210506E+02  0.42862747419E+02  0.47000000000E+01 0.  1.
<mgrwt>
<rscale>  2 0.19882626E+03</rscale>
<asrwt>0</asrwt>
<pdfrwt beam="1">  1       21 0.24264242E-01 0.19912124E+03</pdfrwt>
<pdfrwt beam="2">  1       21 0.39248567E-01 0.19912124E+03</pdfrwt>
<totfact> 0.10008972E+05</totfact>
</mgrwt>
</event>
<event>
12    1  0.2743855E-001  0.2067635E+03  0.7546771E-02  0.1144509E+00
         21   -1    0    0  502  503  0.00000000000E+00  0.00000000000E+00  0.50748260641E+03  0.50748260641E+03  0.00000000000E+00 0.  1.
         21   -1    0    0  503  504 -0.00000000000E+00 -0.00000000000E+00 -0.11724450537E+03  0.11724450537E+03  0.00000000000E+00 0.  1.
         -6    2    1    2    0  504  0.11148142280E+03 -0.17768033175E+02  0.28212241216E+02  0.20867937060E+03  0.17322626397E+03 0.  0.
        -24    2    3    3    0    0  0.12187043132E+03 -0.45446467790E+02 -0.16934740821E+02  0.15450957064E+03  0.81661732214E+02 0.  0.
          6    2    1    2  502    0 -0.11148142280E+03  0.17768033175E+02  0.36202585982E+03  0.41604774118E+03  0.17114084589E+03 0.  0.
         24    2    5    5    0    0 -0.67365074699E+02  0.51854643240E+02  0.33325656638E+03  0.35313580749E+03  0.80112434645E+02 0.  0.
          2    1    6    6  501    0  0.13047347787E+02 -0.82217496052E+01  0.62428270557E+02  0.64304894180E+02  0.00000000000E+00 0. -1.
         -1    1    6    6    0  501 -0.80412422486E+02  0.60076392845E+02  0.27082829582E+03  0.28883091331E+03  0.00000000000E+00 0.  1.
          5    1    5    5  502    0 -0.44116348098E+02 -0.34086610065E+02  0.28769293445E+02  0.62911933689E+02  0.47000000000E+01 0. -1.
         13    1    4    4    0    0  0.31902604351E+02 -0.28472208251E+02  0.29405151552E+02  0.51895141823E+02  0.00000000000E+00 0. -1.
        -14    1    4    4    0    0  0.89967826970E+02 -0.16974259539E+02 -0.46339892373E+02  0.10261442882E+03  0.00000000000E+00 0.  1.
         -5    1    3    3    0  504 -0.10389008524E+02  0.27678434615E+02  0.45146982037E+02  0.54169799962E+02  0.47000000000E+01 0.  1.
<mgrwt>
<rscale>  2 0.20632612E+03</rscale>
<asrwt>0</asrwt>
<pdfrwt beam="1">  1       21 0.78074246E-01 0.20676351E+03</pdfrwt>
<pdfrwt beam="2">  1       21 0.18037617E-01 0.20676351E+03</pdfrwt>
<totfact> 0.40339744E+04</totfact>
</mgrwt>
</event>
<event>
12    1  0.2743855E-001  0.3464927E+03  0.7546771E-02  0.1064102E+00
         21   -1    0    0  502  503  0.00000000000E+00  0.00000000000E+00  0.98604960070E+02  0.98604960070E+02  0.00000000000E+00 0. -1.
         21   -1    0    0  503  504 -0.00000000000E+00 -0.00000000000E+00 -0.14456306416E+04  0.14456306416E+04  0.00000000000E+00 0.  1.
         -6    2    1    2    0  504  0.22565634306E+03 -0.19685468700E+03 -0.98075531560E+03  0.10400419964E+04  0.17359093360E+03 0.  0.
        -24    2    3    3    0    0  0.73612949468E+02 -0.10602006799E+03 -0.29895987022E+03  0.33560233191E+03  0.81196059272E+02 0.  0.
          6    2    1    2  502    0 -0.22565634306E+03  0.19685468700E+03 -0.36627036595E+03  0.50419360529E+03  0.17431195511E+03 0.  0.
         24    2    5    5    0    0 -0.71340516502E+02  0.89741898802E+02 -0.79985471263E+02  0.16174995351E+03  0.81377479397E+02 0.  0.
          4    1    6    6  501    0 -0.26713503728E+02 -0.52635810171E+00  0.81457055134E+01  0.27932791708E+02  0.00000000000E+00 0. -1.
         -3    1    6    6    0  501 -0.44627012774E+02  0.90268256903E+02 -0.88131176777E+02  0.13381716180E+03  0.00000000000E+00 0.  1.
          5    1    5    5  502    0 -0.15431582655E+03  0.10711278820E+03 -0.28628489468E+03  0.34244365178E+03  0.47000000000E+01 0. -1.
         11    1    4    4    0    0  0.30736633527E+01 -0.74734761438E+02 -0.16103846130E+03  0.17756158930E+03  0.00000000000E+00 0. -1.
        -12    1    4    4    0    0  0.70539286115E+02 -0.31285306549E+02 -0.13792140891E+03  0.15804074262E+03  0.00000000000E+00 0.  1.
         -5    1    3    3    0  504  0.15204339359E+03 -0.90834619014E+02 -0.68179544538E+03  0.70443966448E+03  0.47000000000E+01 0.  1.
<mgrwt>
<rscale>  2 0.34640215E+03</rscale>
<asrwt>0</asrwt>
<pdfrwt beam="1">  1       21 0.15169994E-01 0.34649273E+03</pdfrwt>
<pdfrwt beam="2">  1       21 0.22240472E+00 0.34649273E+03</pdfrwt>
<totfact> 0.33280017E+03</totfact>
</mgrwt>
</event>
<event>
12    1  0.2743855E-001  0.1774900E+03  0.7546771E-02  0.1170257E+00
         21   -1    0    0  502  503  0.00000000000E+00  0.00000000000E+00  0.15738348118E+04  0.15738348118E+04  0.00000000000E+00 0. -1.
         21   -1    0    0  503  504 -0.00000000000E+00 -0.00000000000E+00 -0.11293611069E+03  0.11293611069E+03  0.00000000000E+00 0. -1.
         -6    2    1    2    0  504 -0.33181982777E+02 -0.22150324425E+02 -0.34563772203E+02  0.18081252110E+03  0.17293592046E+03 0.  0.
        -24    2    3    3    0    0 -0.81829419242E+02 -0.36565668150E+02 -0.43260462826E+02  0.12912018475E+03  0.82264527752E+02 0.  0.
          6    2    1    2  502    0  0.33181982777E+02  0.22150324425E+02  0.14954624733E+04  0.15059584013E+04  0.17294801753E+03 0.  0.
         24    2    5    5    0    0  0.22182144716E+02  0.51355194189E+02  0.48503202913E+03  0.49503521272E+03  0.81696934067E+02 0.  0.
          4    1    6    6  501    0  0.98462426880E+01  0.31837040586E+02  0.45912204991E+03  0.46032988428E+03  0.00000000000E+00 0. -1.
         -3    1    6    6    0  501  0.12335902028E+02  0.19518153603E+02  0.25909979223E+02  0.34705328442E+02  0.00000000000E+00 0.  1.
          5    1    5    5  502    0  0.10999838061E+02 -0.29204869764E+02  0.10104304441E+04  0.10109231886E+04  0.47000000000E+01 0. -1.
         13    1    4    4    0    0 -0.38084090394E+02 -0.47717628221E+01 -0.61117027755E+02  0.72169652508E+02  0.00000000000E+00 0. -1.
        -14    1    4    4    0    0 -0.43745328848E+02 -0.31793905328E+02  0.17856564929E+02  0.56950532245E+02  0.00000000000E+00 0.  1.
         -5    1    3    3    0  504  0.48647436465E+02  0.14415343725E+02  0.86966906229E+01  0.51692336347E+02  0.47000000000E+01 0.  1.
<mgrwt>
<rscale>  2 0.17748705E+03</rscale>
<asrwt>0</asrwt>
<pdfrwt beam="1">  1       21 0.24212842E+00 0.17748999E+03</pdfrwt>
<pdfrwt beam="2">  1       21 0.17374787E-01 0.17748999E+03</pdfrwt>
<totfact> 0.22570946E+03</totfact>
</mgrwt>
</event>
<event>
12    1  0.2743855E-001  0.2031130E+03  0.7546771E-02  0.1147634E+00
         21   -1    0    0  502  503  0.00000000000E+00  0.00000000000E+00  0.36107769575E+03  0.36107769575E+03  0.00000000000E+00 0.  1.
         21   -1    0    0  503  504 -0.00000000000E+00 -0.00000000000E+00 -0.11309942868E+03  0.11309942868E+03  0.00000000000E+00 0.  1.
         -6    2    1    2    0  504  0.46716218036E+01  0.10505604216E+03  0.11382559889E+03  0.23076016793E+03  0.17098360184E+03 0.  0.
        -24    2    3    3    0    0  0.71708064714E+01  0.45644217568E+01  0.10005695763E+03  0.12919010750E+03  0.81279977197E+02 0.  0.
          6    2    1    2  502    0 -0.46716218036E+01 -0.10505604216E+03  0.13415266819E+03  0.24341695649E+03  0.17377076935E+03 0.  0.
         24    2    5    5    0    0  0.37833487293E+02 -0.61307091276E+02  0.12798403468E+02  0.10751404052E+03  0.78775234542E+02 0.  0.
          2    1    6    6  501    0  0.43630022359E+02 -0.57767670219E+01  0.24641700265E+02  0.50439699446E+02  0.00000000000E+00 0. -1.
         -1    1    6    6    0  501 -0.57965350659E+01 -0.55530324254E+02 -0.11843296796E+02  0.57074341079E+02  0.00000000000E+00 0.  1.
          5    1    5    5  502    0 -0.42505109097E+02 -0.43748950882E+02  0.12135426472E+03  0.13590291597E+03  0.47000000000E+01 0. -1.
         11    1    4    4    0    0  0.41024816722E+02 -0.49106157318E+01  0.76274027372E+02  0.86746048818E+02  0.00000000000E+00 0. -1.
        -12    1    4    4    0    0 -0.33854010251E+02  0.94750374886E+01  0.23782930260E+02  0.42444058680E+02  0.00000000000E+00 0.  1.
         -5    1    3    3    0  504 -0.24991846678E+01  0.10049162040E+03  0.13768641253E+02  0.10157006044E+03  0.47000000000E+01 0.  1.
<mgrwt>
<rscale>  2 0.20251550E+03</rscale>
<asrwt>0</asrwt>
<pdfrwt beam="1">  1       21 0.55550414E-01 0.20311296E+03</pdfrwt>
<pdfrwt beam="2">  1       21 0.17399912E-01 0.20311296E+03</pdfrwt>
<totfact> 0.90886376E+04</totfact>
</mgrwt>
</event>
<event>
12    1  0.2743855E-001  0.1780038E+03  0.7546771E-02  0.1170011E+00
         21   -1    0    0  502  503  0.00000000000E+00  0.00000000000E+00  0.14926099706E+04  0.14926099706E+04  0.00000000000E+00 0.  1.
         21   -1    0    0  503  504 -0.00000000000E+00 -0.00000000000E+00 -0.24274011605E+02  0.24274011605E+02  0.00000000000E+00 0.  1.
         -6    2    1    2    0  504  0.88455171056E+01  0.37118960572E+02  0.46189648963E+03  0.49500880825E+03  0.17386573183E+03 0.  0.
        -24    2    3    3    0    0  0.33700451305E+02 -0.40612196842E+02  0.26892226833E+03  0.28543533504E+03  0.79806473008E+02 0.  0.
          6    2    1    2  502    0 -0.88455171056E+01 -0.37118960572E+02  0.10064394693E+04  0.10218751739E+04  0.17277848606E+03 0.  0.
         24    2    5    5    0    0 -0.31323256900E+02 -0.83949035676E+02  0.58226307749E+03  0.59450413359E+03  0.79851652662E+02 0.  0.
          2    1    6    6  501    0 -0.37429107937E+02 -0.47658892227E+02  0.50822038340E+03  0.51182054104E+03  0.00000000000E+00 0. -1.
         -1    1    6    6    0  501  0.61058510368E+01 -0.36290143449E+02  0.74042694090E+02  0.82683592547E+02  0.00000000000E+00 0.  1.
          5    1    5    5  502    0  0.22477739794E+02  0.46830075103E+02  0.42417639184E+03  0.42737104033E+03  0.47000000000E+01 0. -1.
         11    1    4    4    0    0  0.47892899159E+01 -0.59979918960E+02  0.15314969065E+03  0.16454590764E+03  0.00000000000E+00 0. -1.
        -12    1    4    4    0    0  0.28911161389E+02  0.19367722118E+02  0.11577257768E+03  0.12088942739E+03  0.00000000000E+00 0.  1.
         -5    1    3    3    0  504 -0.24854934199E+02  0.77731157414E+02  0.19297422130E+03  0.20957347321E+03  0.47000000000E+01 0.  1.
<mgrwt>
<rscale>  2 0.17773775E+03</rscale>
<asrwt>0</asrwt>
<pdfrwt beam="1">  1       21 0.22963223E+00 0.17800380E+03</pdfrwt>
<pdfrwt beam="2">  1       21 0.37344645E-02 0.17800380E+03</pdfrwt>
<totfact> 0.39076812E+04</totfact>
</mgrwt>
</event>
<event>
12    1  0.2743855E-001  0.1991334E+03  0.7546771E-02  0.1150923E+00
         21   -1    0    0  502  503  0.00000000000E+00  0.00000000000E+00  0.34836066345E+03  0.34836066345E+03  0.00000000000E+00 0.  1.
         21   -1    0    0  503  504 -0.00000000000E+00 -0.00000000000E+00 -0.31920361983E+03  0.31920361983E+03  0.00000000000E+00 0.  1.
         -6    2    1    2    0  504 -0.67328555528E+02 -0.66636233334E+02 -0.25390900472E+03  0.32268235557E+03  0.17515877922E+03 0.  0.
        -24    2    3    3    0    0 -0.78154834417E+02 -0.91251596828E+02 -0.12497404691E+03  0.19088919270E+03  0.79907067412E+02 0.  0.
          6    2    1    2  502    0  0.67328555528E+02  0.66636233334E+02  0.28306604835E+03  0.34488192771E+03  0.17275310228E+03 0.  0.
         24    2    5    5    0    0  0.72800433471E+02  0.11862680298E+02  0.26306208377E+03  0.28612537778E+03  0.85002621104E+02 0.  0.
          2    1    6    6  501    0  0.73624720322E+02 -0.22228008212E+02  0.15909145709E+03  0.17670533526E+03  0.00000000000E+00 0. -1.
         -1    1    6    6    0  501 -0.82428685134E+00  0.34090688510E+02  0.10397062668E+03  0.10942004252E+03  0.00000000000E+00 0.  1.
          5    1    5    5  502    0 -0.54718779423E+01  0.54773553036E+02  0.20003964575E+02  0.58756549925E+02  0.47000000000E+01 0. -1.
         11    1    4    4    0    0 -0.47475150957E+02  0.54419601932E+00 -0.39409873765E+02  0.61703519007E+02  0.00000000000E+00 0. -1.
        -12    1    4    4    0    0 -0.30679683460E+02 -0.91795792848E+02 -0.85564173146E+02  0.12918567369E+03  0.00000000000E+00 0.  1.
         -5    1    3    3    0  504  0.10826278888E+02  0.24615363494E+02 -0.12893495781E+03  0.13179316287E+03  0.47000000000E+01 0.  1.
<mgrwt>
<rscale>  2 0.19860313E+03</rscale>
<asrwt>0</asrwt>
<pdfrwt beam="1">  1       21 0.53593948E-01 0.19913342E+03</pdfrwt>
<pdfrwt beam="2">  1       21 0.49108249E-01 0.19913342E+03</pdfrwt>
<totfact> 0.12977351E+04</totfact>
</mgrwt>
</event>
<event>
12    1  0.2743855E-001  0.1810366E+03  0.7546771E-02  0.1166821E+00
         21   -1    0    0  502  503  0.00000000000E+00  0.00000000000E+00  0.91235955056E+02  0.91235955056E+02  0.00000000000E+00 0. -1.
         21   -1    0    0  503  504 -0.00000000000E+00 -0.00000000000E+00 -0.11499073517E+04  0.11499073517E+04  0.00000000000E+00 0. -1.
         -6    2    1    2    0  504  0.44847317622E+02  0.28726127188E+02 -0.10439399342E+04  0.10595082883E+04  0.17294725883E+03 0.  0.
        -24    2    3    3    0    0 -0.38461745684E+01  0.86239744303E+02 -0.58499354678E+03  0.59439244368E+03  0.60273051736E+02 0.  0.
          6    2    1    2  502    0 -0.44847317622E+02 -0.28726127188E+02 -0.14731462452E+02  0.18163501853E+03  0.17302540764E+03 0.  0.
         24    2    5    5    0    0 -0.88803230598E+02  0.99212780481E+01 -0.51712883958E+01  0.12214358095E+03  0.83113576637E+02 0.  0.
          4    1    6    6  501    0  0.51162609157E+01  0.20607947924E+02  0.14344098938E+02  0.25624535464E+02  0.00000000000E+00 0. -1.
         -3    1    6    6    0  501 -0.93919491514E+02 -0.10686669876E+02 -0.19515387334E+02  0.96519045488E+02  0.00000000000E+00 0.  1.
          5    1    5    5  502    0  0.43955912976E+02 -0.38647405236E+02 -0.95601740563E+01  0.59491437578E+02  0.47000000000E+01 0. -1.
         11    1    4    4    0    0  0.88680193375E+01  0.29509545249E+02 -0.38191310706E+03  0.38315411570E+03  0.00000000000E+00 0. -1.
        -12    1    4    4    0    0 -0.12714193906E+02  0.56730199054E+02 -0.20308043972E+03  0.21123832798E+03  0.00000000000E+00 0.  1.
         -5    1    3    3    0  504  0.48693492190E+02 -0.57513617115E+02 -0.45894638745E+03  0.46511584459E+03  0.47000000000E+01 0.  1.
<mgrwt>
<rscale>  2 0.18101796E+03</rscale>
<asrwt>0</asrwt>
<pdfrwt beam="1">  1       21 0.14036301E-01 0.18103664E+03</pdfrwt>
<pdfrwt beam="2">  1       21 0.17690882E+00 0.18103664E+03</pdfrwt>
<totfact> 0.85368411E+03</totfact>
</mgrwt>
</event>
<event>
12    1  0.2743855E-001  0.2067815E+03  0.7546771E-02  0.1144164E+00
         21   -1    0    0  502  503  0.00000000000E+00  0.00000000000E+00  0.19523811655E+03  0.19523811655E+03  0.00000000000E+00 0.  1.
         21   -1    0    0  503  504 -0.00000000000E+00 -0.00000000000E+00 -0.30096320705E+03  0.30096320705E+03  0.00000000000E+00 0.  1.
         -6    2    1    2    0  504 -0.13191787843E+02 -0.10985086772E+03 -0.18241583901E+03  0.27565641273E+03  0.17455567351E+03 0.  0.
        -24    2    3    3    0    0 -0.16546560249E+02 -0.76732410690E+02 -0.26673440539E+02  0.11632696983E+03  0.81601715506E+02 0.  0.
          6    2    1    2  502    0  0.13191787843E+02  0.10985086772E+03  0.76690748521E+02  0.22054491086E+03  0.17469215894E+03 0.  0.
         24    2    5    5    0    0 -0.59391802189E+02  0.50389012012E+02  0.48224319418E+02  0.12237914590E+03  0.81145743377E+02 0.  0.
          2    1    6    6  501    0 -0.65765516369E+02  0.22447232452E+02  0.39048126713E+01  0.69600495329E+02  0.00000000000E+00 0. -1.
         -1    1    6    6    0  501  0.63737141804E+01  0.27941779559E+02  0.44319506747E+02  0.52778650567E+02  0.00000000000E+00 0.  1.
          5    1    5    5  502    0  0.72583590032E+02  0.59461855704E+02  0.28466429102E+02  0.98165764967E+02  0.47000000000E+01 0. -1.
         11    1    4    4    0    0 -0.35984095777E+02 -0.19518001226E+02  0.14251518253E+02  0.43346433455E+02  0.00000000000E+00 0. -1.
        -12    1    4    4    0    0  0.19437535528E+02 -0.57214409464E+02 -0.40924958791E+02  0.72980536376E+02  0.00000000000E+00 0.  1.
         -5    1    3    3    0  504  0.33547724062E+01 -0.33118457026E+02 -0.15574239847E+03  0.15932944290E+03  0.47000000000E+01 0.  1.
<mgrwt>
<rscale>  2 0.20675267E+03</rscale>
<asrwt>0</asrwt>
<pdfrwt beam="1">  1       21 0.30036633E-01 0.20678150E+03</pdfrwt>
<pdfrwt beam="2">  1       21 0.46302032E-01 0.20678150E+03</pdfrwt>
<totfact> 0.47174632E+04</totfact>
</mgrwt>
</event>
<event>
12    1  0.2743855E-001  0.2346300E+03  0.7546771E-02  0.1123516E+00
         21   -1    0    0  502  503  0.00000000000E+00  0.00000000000E+00  0.13538626191E+03  0.13538626191E+03  0.00000000000E+00 0.  1.
         21   -1    0    0  503  504 -0.00000000000E+00 -0.00000000000E+00 -0.40591674211E+03  0.40591674211E+03  0.00000000000E+00 0. -1.
         -6    2    1    2    0  504  0.56508518910E+02  0.15016101133E+03 -0.14167243626E+03  0.27361730093E+03  0.17045177070E+03 0.  0.
        -24    2    3    3    0    0  0.92484708262E+02  0.14172458518E+03 -0.85018135572E+02  0.20581420901E+03  0.80573729885E+02 0.  0.
          6    2    1    2  502    0 -0.56508518910E+02 -0.15016101133E+03 -0.12885804393E+03  0.26768570310E+03  0.17120075387E+03 0.  0.
         24    2    5    5    0    0 -0.94946359484E+02 -0.14614246573E+03 -0.12490719758E+03  0.22855367678E+03  0.79136235015E+02 0.  0.
          4    1    6    6  501    0 -0.43489938478E+02 -0.85984935373E+01 -0.33630969049E+02  0.55644864266E+02  0.00000000000E+00 0. -1.
         -3    1    6    6    0  501 -0.51456421005E+02 -0.13754397220E+03 -0.91276228532E+02  0.17290881252E+03  0.00000000000E+00 0.  1.
          5    1    5    5  502    0  0.38437840574E+02 -0.40185455942E+01 -0.39508463455E+01  0.39132026315E+02  0.47000000000E+01 0. -1.
         13    1    4    4    0    0  0.62526059869E+02  0.12701463374E+03 -0.95571521438E+02  0.17081024869E+03  0.00000000000E+00 0. -1.
        -14    1    4    4    0    0  0.29958648393E+02  0.14709951436E+02  0.10553385867E+02  0.35003960319E+02  0.00000000000E+00 0.  1.
         -5    1    3    3    0  504 -0.35976189352E+02  0.84364261520E+01 -0.56654300693E+02  0.67803091917E+02  0.47000000000E+01 0.  1.
<mgrwt>
<rscale>  2 0.23449340E+03</rscale>
<asrwt>0</asrwt>
<pdfrwt beam="1">  1       21 0.20828656E-01 0.23463001E+03</pdfrwt>
<pdfrwt beam="2">  1       21 0.62448729E-01 0.23463001E+03</pdfrwt>
<totfact> 0.49879173E+04</totfact>
</mgrwt>
</event>
<event>
12    1  0.2743855E-001  0.1924015E+03  0.7546771E-02  0.1156618E+00
         21   -1    0    0  502  503  0.00000000000E+00  0.00000000000E+00  0.41329057101E+02  0.41329057101E+02  0.00000000000E+00 0. -1.
         21   -1    0    0  503  504 -0.00000000000E+00 -0.00000000000E+00 -0.10190924294E+04  0.10190924294E+04  0.00000000000E+00 0.  1.
         -6    2    1    2    0  504 -0.53002334881E+02  0.64955270218E+02 -0.67655170151E+03  0.70300465242E+03  0.17165343535E+03 0.  0.
        -24    2    3    3    0    0  0.32053282676E+02  0.74256179393E+01 -0.29099412375E+03  0.30397977257E+03  0.81508093713E+02 0.  0.
          6    2    1    2  502    0  0.53002334881E+02 -0.64955270218E+02 -0.30121167079E+03  0.35741683409E+03  0.17317588757E+03 0.  0.
         24    2    5    5    0    0  0.45762351107E+02 -0.31440837002E+02 -0.30652439288E+03  0.32240327079E+03  0.83089990832E+02 0.  0.
          4    1    6    6  501    0  0.69684094296E+02 -0.24992425241E+02 -0.20694093694E+03  0.21978408882E+03  0.00000000000E+00 0. -1.
         -3    1    6    6    0  501 -0.23921743189E+02 -0.64484117617E+01 -0.99583455939E+02  0.10261918197E+03  0.00000000000E+00 0.  1.
          5    1    5    5  502    0  0.72399837742E+01 -0.33514433215E+02  0.53127220875E+01  0.35013563297E+02  0.47000000000E+01 0. -1.
         11    1    4    4    0    0  0.28349522641E+02  0.18595013286E+02 -0.38859261547E+02  0.51570458220E+02  0.00000000000E+00 0. -1.
        -12    1    4    4    0    0  0.37037600355E+01 -0.11169395347E+02 -0.25213486221E+03  0.25240931435E+03  0.00000000000E+00 0.  1.
         -5    1    3    3    0  504 -0.85055617558E+02  0.57529652278E+02 -0.38555757776E+03  0.39902487984E+03  0.47000000000E+01 0.  1.
<mgrwt>
<rscale>  2 0.19205825E+03</rscale>
<asrwt>0</asrwt>
<pdfrwt beam="1">  1       21 0.63583162E-02 0.19240146E+03</pdfrwt>
<pdfrwt beam="2">  1       21 0.15678346E+00 0.19240146E+03</pdfrwt>
<totfact> 0.47460161E+04</totfact>
</mgrwt>
</event>
<event>
12    1  0.2743855E-001  0.1776253E+03  0.7546771E-02  0.1171202E+00
         21   -1    0    0  502  503  0.00000000000E+00  0.00000000000E+00  0.25299247088E+03  0.25299247088E+03  0.00000000000E+00 0. -1.
         21   -1    0    0  503  504 -0.00000000000E+00 -0.00000000000E+00 -0.17449100553E+03  0.17449100553E+03  0.00000000000E+00 0. -1.
         -6    2    1    2    0  504  0.27922568135E+02 -0.16902588307E+02 -0.77984486745E+02  0.19399051320E+03  0.17460060635E+03 0.  0.
        -24    2    3    3    0    0 -0.42595666562E+02  0.18905542229E+02 -0.43077981180E+02  0.10741339285E+03  0.86660914864E+02 0.  0.
          6    2    1    2  502    0 -0.27922568135E+02  0.16902588307E+02  0.15648595210E+03  0.23349296321E+03  0.17019325298E+03 0.  0.
         24    2    5    5    0    0 -0.49797539534E+02  0.59173043188E+02  0.14777983180E+03  0.18488028729E+03  0.79753357022E+02 0.  0.
          4    1    6    6  501    0 -0.31976687468E+02  0.74036325849E+02  0.13770411635E+03  0.15958167109E+03  0.00000000000E+00 0. -1.
         -3    1    6    6    0  501 -0.17820852066E+02 -0.14863282661E+02  0.10075715450E+02  0.25298616200E+02  0.00000000000E+00 0.  1.
          5    1    5    5  502    0  0.21874971398E+02 -0.42270454880E+02  0.87061202984E+01  0.48612675920E+02  0.47000000000E+01 0. -1.
         13    1    4    4    0    0 -0.34054063727E+02  0.34593903008E+02 -0.63727371941E+02  0.80109895245E+02  0.00000000000E+00 0. -1.
        -14    1    4    4    0    0 -0.85416028348E+01 -0.15688360780E+02  0.20649390760E+02  0.27303497610E+02  0.00000000000E+00 0.  1.
         -5    1    3    3    0  504  0.70518234697E+02 -0.35808130536E+02 -0.34906505565E+02  0.86577120350E+02  0.47000000000E+01 0.  1.
<mgrwt>
<rscale>  2 0.17653263E+03</rscale>
<asrwt>0</asrwt>
<pdfrwt beam="1">  1       21 0.38921919E-01 0.17762528E+03</pdfrwt>
<pdfrwt beam="2">  1       21 0.26844770E-01 0.17762528E+03</pdfrwt>
<totfact> 0.84616497E+04</totfact>
</mgrwt>
</event>
<event>
12    1  0.2743855E-001  0.2190501E+03  0.7546771E-02  0.1134643E+00
         21   -1    0    0  502  503  0.00000000000E+00  0.00000000000E+00  0.65125843144E+03  0.65125843144E+03  0.00000000000E+00 0. -1.
         21   -1    0    0  503  504 -0.00000000000E+00 -0.00000000000E+00 -0.73786865447E+02  0.73786865447E+02  0.00000000000E+00 0.  1.
         -6    2    1    2    0  504  0.99232232986E+02 -0.90216658392E+02  0.27009589860E+03  0.34775672900E+03  0.17319603519E+03 0.  0.
        -24    2    3    3    0    0  0.10386396098E+03 -0.11368318480E+03  0.27177642010E+03  0.32332222638E+03  0.83446094281E+02 0.  0.
          6    2    1    2  502    0 -0.99232232986E+02  0.90216658392E+02  0.30737566739E+03  0.37728856789E+03  0.17286058267E+03 0.  0.
         24    2    5    5    0    0  0.13904015201E+02  0.14399270039E+02  0.13898754661E+03  0.16066738645E+03  0.78075670592E+02 0.  0.
          2    1    6    6  501    0  0.43921522050E+02 -0.53416597697E+01  0.84855475129E+02  0.95697884447E+02  0.00000000000E+00 0. -1.
         -1    1    6    6    0  501 -0.30017506850E+02  0.19740929808E+02  0.54132071481E+02  0.64969501999E+02  0.00000000000E+00 0.  1.
          5    1    5    5  502    0 -0.11313624819E+03  0.75817388354E+02  0.16838812078E+03  0.21662118145E+03  0.47000000000E+01 0. -1.
         13    1    4    4    0    0  0.16089559313E+02 -0.52087512689E+01  0.10278362928E+03  0.10416563472E+03  0.00000000000E+00 0. -1.
        -14    1    4    4    0    0  0.87774401667E+02 -0.10847443353E+03  0.16899279082E+03  0.21915659166E+03  0.00000000000E+00 0.  1.
         -5    1    3    3    0  504 -0.46317279943E+01  0.23466526403E+02 -0.16805215024E+01  0.24434502618E+02  0.47000000000E+01 0.  1.
<mgrwt>
<rscale>  2 0.21898379E+03</rscale>
<asrwt>0</asrwt>
<pdfrwt beam="1">  1       21 0.10019360E+00 0.21905010E+03</pdfrwt>
<pdfrwt beam="2">  1       21 0.11351826E-01 0.21905010E+03</pdfrwt>
<totfact> 0.52266343E+04</totfact>
</mgrwt>
</event>
<event>
12    1  0.2743855E-001  0.2177557E+03  0.7546771E-02  0.1136802E+00
         21   -1    0    0  502  503  0.00000000000E+00  0.00000000000E+00  0.10243923740E+03  0.10243923740E+03  0.00000000000E+00 0.  1.
         21   -1    0    0  503  504 -0.00000000000E+00 -0.00000000000E+00 -0.49312849583E+03  0.49312849583E+03  0.00000000000E+00 0.  1.
         -6    2    1    2    0  504  0.72175081717E+02  0.11063979103E+03 -0.28676463821E+03  0.36007155344E+03  0.17311025413E+03 0.  0.
        -24    2    3    3    0    0  0.41695388316E+02 -0.41496471587E+01 -0.75389373186E+02  0.11756955449E+03  0.79895666806E+02 0.  0.
          6    2    1    2  502    0 -0.72175081717E+02 -0.11063979103E+03 -0.10392462021E+03  0.23549617980E+03  0.16494762269E+03 0.  0.
         24    2    5    5    0    0 -0.26416296416E+01 -0.67378222860E+02 -0.37861879344E+01  0.10605020706E+03  0.81764956281E+02 0.  0.
          2    1    6    6  501    0  0.15510136613E+02 -0.56727390464E+02  0.30173097199E+02  0.66098237201E+02  0.00000000000E+00 0. -1.
         -1    1    6    6    0  501 -0.18151766254E+02 -0.10650832397E+02 -0.33959285133E+02  0.39951969860E+02  0.00000000000E+00 0.  1.
          5    1    5    5  502    0 -0.69533452076E+02 -0.43261568169E+02 -0.10013843228E+03  0.12944597273E+03  0.47000000000E+01 0. -1.
         13    1    4    4    0    0  0.17435660193E+02  0.13893841089E+02  0.11844070770E+02  0.25245258544E+02  0.00000000000E+00 0. -1.
        -14    1    4    4    0    0  0.24259728123E+02 -0.18043488247E+02 -0.87233443956E+02  0.92324295942E+02  0.00000000000E+00 0.  1.
         -5    1    3    3    0  504  0.30479693401E+02  0.11478943819E+03 -0.21137526503E+03  0.24250199895E+03  0.47000000000E+01 0.  1.
<mgrwt>
<rscale>  2 0.21612986E+03</rscale>
<asrwt>0</asrwt>
<pdfrwt beam="1">  1       21 0.15759883E-01 0.21775575E+03</pdfrwt>
<pdfrwt beam="2">  1       21 0.75865921E-01 0.21775575E+03</pdfrwt>
<totfact> 0.54890724E+04</totfact>
</mgrwt>
</event>
<event>
12    1  0.2743855E-001  0.2657224E+03  0.7546771E-02  0.1103832E+00
         21   -1    0    0  502  503  0.00000000000E+00  0.00000000000E+00  0.97191945112E+03  0.97191945112E+03  0.00000000000E+00 0.  1.
         21   -1    0    0  503  504 -0.00000000000E+00 -0.00000000000E+00 -0.95285789026E+02  0.95285789026E+02  0.00000000000E+00 0. -1.
         -6    2    1    2    0  504  0.15862612402E+03 -0.12568059212E+03  0.17772113698E+03  0.31967666573E+03  0.17219323340E+03 0.  0.
        -24    2    3    3    0    0  0.12581731890E+03 -0.17323616275E+02  0.11776525698E+03  0.19147974902E+03  0.81643941104E+02 0.  0.
          6    2    1    2  502    0 -0.15862612402E+03  0.12568059212E+03  0.69891252511E+03  0.74752857441E+03  0.17135458369E+03 0.  0.
         24    2    5    5    0    0 -0.89383165827E+02  0.36760481342E+01  0.35004966155E+03  0.37148724213E+03  0.86401052384E+02 0.  0.
          2    1    6    6  501    0  0.40196455328E+01 -0.25031556400E+02  0.52444782663E+02  0.58251108098E+02  0.00000000000E+00 0. -1.
         -1    1    6    6    0  501 -0.93402811360E+02  0.28707604534E+02  0.29760487888E+03  0.31323613403E+03  0.00000000000E+00 0.  1.
          5    1    5    5  502    0 -0.69242958190E+02  0.12200454398E+03  0.34886286356E+03  0.37604133228E+03  0.47000000000E+01 0. -1.
         11    1    4    4    0    0  0.13195344908E+03 -0.19886080034E+01  0.91988108388E+02  0.16086478598E+03  0.00000000000E+00 0. -1.
        -12    1    4    4    0    0 -0.61361301804E+01 -0.15335008272E+02  0.25777148591E+02  0.30614963038E+02  0.00000000000E+00 0.  1.
         -5    1    3    3    0  504  0.32808805122E+02 -0.10835697584E+03  0.59955880001E+02  0.12819691671E+03  0.47000000000E+01 0.  1.
<mgrwt>
<rscale>  2 0.26558657E+03</rscale>
<asrwt>0</asrwt>
<pdfrwt beam="1">  1       21 0.14952606E+00 0.26572235E+03</pdfrwt>
<pdfrwt beam="2">  1       21 0.14659353E-01 0.26572235E+03</pdfrwt>
<totfact> 0.11761280E+04</totfact>
</mgrwt>
</event>
<event>
12    1  0.2743855E-001  0.2013928E+03  0.7546771E-02  0.1148839E+00
         21   -1    0    0  502  503  0.00000000000E+00  0.00000000000E+00  0.39721784043E+03  0.39721784043E+03  0.00000000000E+00 0.  1.
         21   -1    0    0  503  504 -0.00000000000E+00 -0.00000000000E+00 -0.34617167447E+03  0.34617167447E+03  0.00000000000E+00 0. -1.
         -6    2    1    2    0  504 -0.22710206149E+02  0.99771575190E+02  0.33801339180E+03  0.39280536309E+03  0.17196767008E+03 0.  0.
        -24    2    3    3    0    0 -0.77182114802E+02  0.50379911201E+02  0.17562841433E+03  0.21448627770E+03  0.81632157296E+02 0.  0.
          6    2    1    2  502    0  0.22710206149E+02 -0.99771575190E+02 -0.28696722584E+03  0.35058415180E+03  0.17346163296E+03 0.  0.
         24    2    5    5    0    0 -0.18448171590E+02 -0.12528930991E+03 -0.23820195381E+03  0.28169795144E+03  0.81091422696E+02 0.  0.
          4    1    6    6  501    0  0.23037934495E+02 -0.73189822503E+02 -0.16926903806E+03  0.18584806641E+03  0.00000000000E+00 0. -1.
         -3    1    6    6    0  501 -0.41486106085E+02 -0.52099487410E+02 -0.68932915751E+02  0.95849885031E+02  0.00000000000E+00 0.  1.
          5    1    5    5  502    0  0.41158377740E+02  0.25517734723E+02 -0.48765272037E+02  0.68886200363E+02  0.47000000000E+01 0. -1.
         11    1    4    4    0    0  0.17400651823E+01 -0.78840401570E+01 -0.45980641964E+01  0.92912921809E+01  0.00000000000E+00 0. -1.
        -12    1    4    4    0    0 -0.78922179984E+02  0.58263951359E+02  0.18022647853E+03  0.20519498552E+03  0.00000000000E+00 0.  1.
         -5    1    3    3    0  504  0.54471908652E+02  0.49391663989E+02  0.16238497747E+03  0.17831908539E+03  0.47000000000E+01 0.  1.
<mgrwt>
<rscale>  2 0.20107069E+03</rscale>
<asrwt>0</asrwt>
<pdfrwt beam="1">  1       21 0.61110437E-01 0.20139280E+03</pdfrwt>
<pdfrwt beam="2">  1       21 0.53257180E-01 0.20139280E+03</pdfrwt>
<totfact> 0.82644809E+03</totfact>
</mgrwt>
</event>
<event>
12    1  0.2743855E-001  0.1966590E+03  0.7546771E-02  0.1152893E+00
         21   -1    0    0  502  503  0.00000000000E+00  0.00000000000E+00  0.51600629455E+03  0.51600629455E+03  0.00000000000E+00 0. -1.
         21   -1    0    0  503  504 -0.00000000000E+00 -0.00000000000E+00 -0.77629123696E+02  0.77629123696E+02  0.00000000000E+00 0. -1.
         -6    2    1    2    0  504  0.76003789529E+02  0.54849844016E+02  0.15803629798E+03  0.25119454090E+03  0.17128381267E+03 0.  0.
        -24    2    3    3    0    0  0.58111696766E+00 -0.27036202130E+02  0.25458153849E+02  0.78009788703E+02  0.68601134200E+02 0.  0.
          6    2    1    2  502    0 -0.76003789529E+02 -0.54849844016E+02  0.28034087287E+03  0.34244087735E+03  0.17288628652E+03 0.  0.
         24    2    5    5    0    0 -0.75155997993E+02 -0.96468626340E+02  0.16832536881E+03  0.22284821477E+03  0.79832807418E+02 0.  0.
          2    1    6    6  501    0 -0.69127650278E+02 -0.11074174014E+03  0.15062114641E+03  0.19932158635E+03  0.00000000000E+00 0. -1.
         -1    1    6    6    0  501 -0.60283477151E+01  0.14273113802E+02  0.17704222402E+02  0.23526628416E+02  0.00000000000E+00 0.  1.
          5    1    5    5  502    0 -0.84779153532E+00  0.41618782323E+02  0.11201550406E+03  0.11959266258E+03  0.47000000000E+01 0. -1.
         13    1    4    4    0    0 -0.21295424326E+02 -0.11540684723E+02 -0.15718770435E+02  0.28874941474E+02  0.00000000000E+00 0. -1.
        -14    1    4    4    0    0  0.21876541294E+02 -0.15495517407E+02  0.41176924284E+02  0.49134847229E+02  0.00000000000E+00 0.  1.
         -5    1    3    3    0  504  0.75422672561E+02  0.81886046147E+02  0.13257814414E+03  0.17318475219E+03  0.47000000000E+01 0.  1.
<mgrwt>
<rscale>  2 0.19630620E+03</rscale>
<asrwt>0</asrwt>
<pdfrwt beam="1">  1       21 0.79385582E-01 0.19665897E+03</pdfrwt>
<pdfrwt beam="2">  1       21 0.11942942E-01 0.19665897E+03</pdfrwt>
<totfact> 0.82685288E+04</totfact>
</mgrwt>
</event>
<event>
12    1  0.2743855E-001  0.1890399E+03  0.7546771E-02  0.1159351E+00
         21   -1    0    0  502  503  0.00000000000E+00  0.00000000000E+00  0.33516593302E+03  0.33516593302E+03  0.00000000000E+00 0.  1.
         21   -1    0    0  503  504 -0.00000000000E+00 -0.00000000000E+00 -0.82978914100E+03  0.82978914100E+03  0.00000000000E+00 0.  1.
         -6    2    1    2    0  504 -0.60655529157E+02  0.38007500149E+02 -0.79110803121E+03  0.81338060762E+03  0.17496408922E+03 0.  0.
        -24    2    3    3    0    0 -0.91785663967E+02 -0.14229770661E+02 -0.59662899428E+03  0.60956205213E+03  0.83502359849E+02 0.  0.
          6    2    1    2  502    0  0.60655529157E+02 -0.38007500149E+02  0.29648482323E+03  0.35157446640E+03  0.17486478129E+03 0.  0.
         24    2    5    5    0    0  0.92838098311E+02 -0.30729275689E+01  0.26018116930E+03  0.29160624642E+03  0.93335988311E+02 0.  0.
          4    1    6    6  501    0  0.66771774521E+02 -0.35517989102E+02  0.95895598497E+02  0.12213092661E+03  0.00000000000E+00 0. -1.
         -3    1    6    6    0  501  0.26066323790E+02  0.32445061533E+02  0.16428557080E+03  0.16947531982E+03  0.00000000000E+00 0.  1.
          5    1    5    5  502    0 -0.32182569154E+02 -0.34934572580E+02  0.36303653933E+02  0.59968219980E+02  0.47000000000E+01 0. -1.
         13    1    4    4    0    0 -0.11362049699E+02 -0.12013123074E+02 -0.14782608401E+02  0.22179648565E+02  0.00000000000E+00 0. -1.
        -14    1    4    4    0    0 -0.80423614268E+02 -0.22166475867E+01 -0.58184638587E+03  0.58738240356E+03  0.00000000000E+00 0.  1.
         -5    1    3    3    0  504  0.31130134810E+02  0.52237270809E+02 -0.19447903694E+03  0.20381855549E+03  0.47000000000E+01 0.  1.
<mgrwt>
<rscale>  2 0.18901695E+03</rscale>
<asrwt>0</asrwt>
<pdfrwt beam="1">  1       21 0.51563990E-01 0.18903993E+03</pdfrwt>
<pdfrwt beam="2">  1       21 0.12765987E+00 0.18903993E+03</pdfrwt>
<totfact> 0.16223773E+03</totfact>
</mgrwt>
</event>
<event>
12    1  0.2743855E-001  0.3487751E+03  0.7546771E-02  0.1063149E+00
         21   -1    0    0  502  503  0.00000000000E+00  0.00000000000E+00  0.34842102665E+03  0.34842102665E+03  0.00000000000E+00 0.  1.
         21   -1    0    0  503  504 -0.00000000000E+00 -0.00000000000E+00 -0.59494059199E+03  0.59494059199E+03  0.00000000000E+00 0. -1.
         -6    2    1    2    0  504  0.28253729388E+03 -0.10874051667E+03 -0.42665982245E+03  0.55107411813E+03  0.17318272773E+03 0.  0.
        -24    2    3    3    0    0  0.13444076659E+03 -0.84290747155E+02 -0.32246357692E+03  0.36829195213E+03  0.80479524039E+02 0.  0.
          6    2    1    2  502    0 -0.28253729388E+03  0.10874051667E+03  0.18014025711E+03  0.39228750051E+03  0.17258953741E+03 0.  0.
         24    2    5    5    0    0 -0.14856245902E+03  0.12112710546E+03  0.13953889249E+03  0.25167013044E+03  0.84404811046E+02 0.  0.
          4    1    6    6  501    0 -0.32276713828E+02  0.88198169672E+01  0.66143702747E+02  0.74125331972E+02  0.00000000000E+00 0. -1.
         -3    1    6    6    0  501 -0.11628574519E+03  0.11230728849E+03  0.73395189747E+02  0.17754479846E+03  0.00000000000E+00 0.  1.
          5    1    5    5  502    0 -0.13397483486E+03 -0.12386588787E+02  0.40601364615E+02  0.14061737007E+03  0.47000000000E+01 0. -1.
         13    1    4    4    0    0  0.79569552447E+02 -0.80494076761E+02 -0.15429518187E+03  0.19135729204E+03  0.00000000000E+00 0. -1.
        -14    1    4    4    0    0  0.54871214141E+02 -0.37966703941E+01 -0.16816839505E+03  0.17693466009E+03  0.00000000000E+00 0.  1.
         -5    1    3    3    0  504  0.14809652729E+03 -0.24449769517E+02 -0.10419624554E+03  0.18278216601E+03  0.47000000000E+01 0.  1.
<mgrwt>
<rscale>  2 0.34870155E+03</rscale>
<asrwt>0</asrwt>
<pdfrwt beam="1">  1       21 0.53603236E-01 0.34877511E+03</pdfrwt>
<pdfrwt beam="2">  1       21 0.91529320E-01 0.34877511E+03</pdfrwt>
<totfact> 0.30150550E+03</totfact>
</mgrwt>
</event>
<event>
12    1  0.2743855E-001  0.2175614E+03  0.7546771E-02  0.1135975E+00
         21   -1    0    0  502  503  0.00000000000E+00  0.00000000000E+00  0.19591635620E+03  0.19591635620E+03  0.00000000000E+00 0.  1.
         21   -1    0    0  503  504 -0.00000000000E+00 -0.00000000000E+00 -0.35973499417E+03  0.35973499417E+03  0.00000000000E+00 0.  1.
         -6    2    1    2    0  504 -0.27650313292E+02  0.12686850889E+03 -0.24196997965E+03  0.32447915010E+03  0.17284990433E+03 0.  0.
        -24    2    3    3    0    0  0.47063302273E+02  0.40317306474E+02 -0.10900504463E+03  0.14905110521E+03  0.80583451076E+02 0.  0.
          6    2    1    2  502    0  0.27650313292E+02 -0.12686850889E+03  0.78151341677E+02  0.23117220026E+03  0.17456458860E+03 0.  0.
         24    2    5    5    0    0 -0.54285253261E+01 -0.10325282434E+03  0.11692986254E+03  0.17480045378E+03  0.78689206800E+02 0.  0.
          4    1    6    6  501    0 -0.23531906548E+02 -0.67379583009E+02  0.27009463824E+02  0.76310352956E+02  0.00000000000E+00 0. -1.
         -3    1    6    6    0  501  0.18103381222E+02 -0.35873241333E+02  0.89920398715E+02  0.98490100824E+02  0.00000000000E+00 0.  1.
          5    1    5    5  502    0  0.33078838618E+02 -0.23615684547E+02 -0.38778520862E+02  0.56371746480E+02  0.47000000000E+01 0. -1.
         13    1    4    4    0    0  0.20692799408E+02  0.39376152189E+02 -0.86894533777E+01  0.45323061553E+02  0.00000000000E+00 0. -1.
        -14    1    4    4    0    0  0.26370502865E+02  0.94115428584E+00 -0.10031559125E+03  0.10372804366E+03  0.00000000000E+00 0.  1.
         -5    1    3    3    0  504 -0.74713615565E+02  0.86551202414E+02 -0.13296493502E+03  0.17542804489E+03  0.47000000000E+01 0.  1.
<mgrwt>
<rscale>  2 0.21721722E+03</rscale>
<asrwt>0</asrwt>
<pdfrwt beam="1">  1       21 0.30140978E-01 0.21756138E+03</pdfrwt>
<pdfrwt beam="2">  1       21 0.55343845E-01 0.21756138E+03</pdfrwt>
<totfact> 0.32078310E+04</totfact>
</mgrwt>
</event>
<event>
12    1  0.2743855E-001  0.2296437E+03  0.7546771E-02  0.1126964E+00
         21   -1    0    0  502  503  0.00000000000E+00  0.00000000000E+00  0.75120539953E+03  0.75120539953E+03  0.00000000000E+00 0. -1.
         21   -1    0    0  503  504 -0.00000000000E+00 -0.00000000000E+00 -0.11537629485E+03  0.11537629485E+03  0.00000000000E+00 0. -1.
         -6    2    1    2    0  504 -0.14930140167E+03 -0.18057022822E+02  0.46235024132E+02  0.23384365391E+03  0.17299772370E+03 0.  0.
        -24    2    3    3    0    0 -0.49456204052E+02  0.45827299538E+02 -0.31671507479E+01  0.10534098852E+03  0.80874195614E+02 0.  0.
          6    2    1    2  502    0  0.14930140167E+03  0.18057022822E+02  0.58959408054E+03  0.63273804047E+03  0.17354908076E+03 0.  0.
         24    2    5    5    0    0  0.15273973630E+03 -0.34906852476E+02  0.44524049017E+03  0.47886457529E+03  0.80772965701E+02 0.  0.
          2    1    6    6  501    0  0.82819891470E+02 -0.39806159429E+02  0.34163575053E+03  0.35377768555E+03  0.00000000000E+00 0. -1.
         -1    1    6    6    0  501  0.69919844833E+02  0.48993069528E+01  0.10360473964E+03  0.12508688974E+03  0.00000000000E+00 0.  1.
          5    1    5    5  502    0 -0.34383346329E+01  0.52963875298E+02  0.14435359037E+03  0.15387346518E+03  0.47000000000E+01 0. -1.
         13    1    4    4    0    0 -0.99522976744E+01 -0.11155659543E+02 -0.27959094355E+02  0.31705014209E+02  0.00000000000E+00 0. -1.
        -14    1    4    4    0    0 -0.39503906378E+02  0.56982959081E+02  0.24791943607E+02  0.73635974310E+02  0.00000000000E+00 0.  1.
         -5    1    3    3    0  504 -0.99845197617E+02 -0.63884322360E+02  0.49402174880E+02  0.12850266539E+03  0.47000000000E+01 0.  1.
<mgrwt>
<rscale>  2 0.22953957E+03</rscale>
<asrwt>0</asrwt>
<pdfrwt beam="1">  1       21 0.11557006E+00 0.22964374E+03</pdfrwt>
<pdfrwt beam="2">  1       21 0.17750200E-01 0.22964374E+03</pdfrwt>
<totfact> 0.16306055E+04</totfact>
</mgrwt>
</event>
<event>
12    1  0.2743855E-001  0.1940970E+03  0.7546771E-02  0.1155334E+00
         21   -1    0    0  502  503  0.00000000000E+00  0.00000000000E+00  0.31818971459E+03  0.31818971459E+03  0.00000000000E+00 0.  1.
         21   -1    0    0  503  504 -0.00000000000E+00 -0.00000000000E+00 -0.17032768221E+03  0.17032768221E+03  0.00000000000E+00 0. -1.
         -6    2    1    2    0  504  0.16531054326E+01 -0.85529771605E+02 -0.63080334361E+02  0.20186372494E+03  0.17161515164E+03 0.  0.
        -24    2    3    3    0    0  0.39259510859E+02 -0.10728175565E+03 -0.75552380671E+02  0.15642109651E+03  0.75556025053E+02 0.  0.
          6    2    1    2  502    0 -0.16531054326E+01  0.85529771605E+02  0.21094236674E+03  0.28665367186E+03  0.17422850202E+03 0.  0.
         24    2    5    5    0    0 -0.44571147140E+02 -0.64512955896E+01  0.13077236908E+03  0.15722495190E+03  0.74766748043E+02 0.  0.
          2    1    6    6  501    0 -0.38446794363E+02  0.20235559962E+02  0.12030833450E+03  0.12791297524E+03  0.00000000000E+00 0. -1.
         -1    1    6    6    0  501 -0.61243527762E+01 -0.26686855552E+02  0.10464034579E+02  0.29311976662E+02  0.00000000000E+00 0.  1.
          5    1    5    5  502    0  0.42918041707E+02  0.91981067195E+02  0.80169997665E+02  0.12942871996E+03  0.47000000000E+01 0. -1.
         11    1    4    4    0    0  0.25811993925E+02 -0.85499762203E+02 -0.90194141629E+02  0.12693089282E+03  0.00000000000E+00 0. -1.
        -12    1    4    4    0    0  0.13447516934E+02 -0.21781993443E+02  0.14641760958E+02  0.29490203695E+02  0.00000000000E+00 0.  1.
         -5    1    3    3    0  504 -0.37606405427E+02  0.21751984041E+02  0.12472046310E+02  0.45442628423E+02  0.47000000000E+01 0.  1.
<mgrwt>
<rscale>  2 0.19350874E+03</rscale>
<asrwt>0</asrwt>
<pdfrwt beam="1">  1       21 0.48952264E-01 0.19409700E+03</pdfrwt>
<pdfrwt beam="2">  1       21 0.26204259E-01 0.19409700E+03</pdfrwt>
<totfact> 0.55089034E+04</totfact>
</mgrwt>
</event>
<event>
12    1  0.2743855E-001  0.2056763E+03  0.7546771E-02  0.1147574E+00
         21   -1    0    0  502  503  0.00000000000E+00  0.00000000000E+00  0.18364347440E+04  0.18364347440E+04  0.00000000000E+00 0. -1.
         21   -1    0    0  503  504 -0.00000000000E+00 -0.00000000000E+00 -0.89377784471E+02  0.89377784471E+02  0.00000000000E+00 0. -1.
         -6    2    1    2    0  504  0.86496675120E+02 -0.89480345744E+01  0.42152269246E+02  0.20995132112E+03  0.18638938089E+03 0.  0.
        -24    2    3    3    0    0  0.99552046022E+01  0.53537811256E+02 -0.14292885356E+02  0.96060043505E+02  0.77832140236E+02 0.  0.
          6    2    1    2  502    0 -0.86496675120E+02  0.89480345744E+01  0.17049046903E+04  0.17158612074E+04  0.17296802544E+03 0.  0.
         24    2    5    5    0    0  0.85797478117E+01  0.22202199381E+02  0.11226957517E+04  0.11257726231E+04  0.79697542888E+02 0.  0.
          2    1    6    6  501    0  0.37966644506E+02 -0.10136061017E+02  0.56903481071E+03  0.57039006094E+03  0.00000000000E+00 0. -1.
         -1    1    6    6    0  501 -0.29386896694E+02  0.32338260399E+02  0.55366094099E+03  0.55538256217E+03  0.00000000000E+00 0.  1.
          5    1    5    5  502    0 -0.95076422932E+02 -0.13254164807E+02  0.58220893862E+03  0.59008858427E+03  0.47000000000E+01 0. -1.
         11    1    4    4    0    0 -0.71855465624E+01  0.14972584435E+02 -0.42277146718E+02  0.45422103636E+02  0.00000000000E+00 0. -1.
        -12    1    4    4    0    0  0.17140751165E+02  0.38565226821E+02  0.27984261362E+02  0.50637939870E+02  0.00000000000E+00 0.  1.
         -5    1    3    3    0  504  0.76541470518E+02 -0.62485845831E+02  0.56445154602E+02  0.11389127761E+03  0.47000000000E+01 0.  1.
<mgrwt>
<rscale>  2 0.20258752E+03</rscale>
<asrwt>0</asrwt>
<pdfrwt beam="1">  1       21 0.28252839E+00 0.20567631E+03</pdfrwt>
<pdfrwt beam="2">  1       21 0.13750430E-01 0.20567631E+03</pdfrwt>
<totfact> 0.19461718E+03</totfact>
</mgrwt>
</event>
<event>
12    1  0.2743855E-001  0.2300318E+03  0.7546771E-02  0.1126834E+00
         21   -1    0    0  502  503  0.00000000000E+00  0.00000000000E+00  0.14651005434E+03  0.14651005434E+03  0.00000000000E+00 0.  1.
         21   -1    0    0  503  504 -0.00000000000E+00 -0.00000000000E+00 -0.36238652891E+03  0.36238652891E+03  0.00000000000E+00 0. -1.
         -6    2    1    2    0  504 -0.22176223581E+02 -0.14936225196E+03 -0.13134963336E+03  0.26382633545E+03  0.17190329226E+03 0.  0.
        -24    2    3    3    0    0  0.18540723794E+02 -0.11077254601E+02 -0.58850093423E+02  0.10239869349E+03  0.80967245993E+02 0.  0.
          6    2    1    2  502    0  0.22176223581E+02  0.14936225196E+03 -0.84526841215E+02  0.24507024780E+03  0.17353320221E+03 0.  0.
         24    2    5    5    0    0  0.27381219676E+02  0.14663151224E+02 -0.67627862368E+02  0.10913421428E+03  0.79824869328E+02 0.  0.
          2    1    6    6  501    0  0.27611610854E+02 -0.66234988910E+01 -0.79737922021E+02  0.84642826038E+02  0.00000000000E+00 0. -1.
         -1    1    6    6    0  501 -0.23039117774E+00  0.21286650115E+02  0.12110059653E+02  0.24491388241E+02  0.00000000000E+00 0.  1.
          5    1    5    5  502    0 -0.52049960951E+01  0.13469910073E+03 -0.16898978847E+02  0.13593603352E+03  0.47000000000E+01 0. -1.
         11    1    4    4    0    0  0.48277160335E+02 -0.25689935034E+00 -0.50081766889E+02  0.69562443761E+02  0.00000000000E+00 0. -1.
        -12    1    4    4    0    0 -0.29736436541E+02 -0.10820355251E+02 -0.87683265346E+01  0.32836249727E+02  0.00000000000E+00 0.  1.
         -5    1    3    3    0  504 -0.40716947375E+02 -0.13828499736E+03 -0.72499539935E+02  0.16142764196E+03  0.47000000000E+01 0.  1.
<mgrwt>
<rscale>  2 0.22972444E+03</rscale>
<asrwt>0</asrwt>
<pdfrwt beam="1">  1       21 0.22540009E-01 0.23003182E+03</pdfrwt>
<pdfrwt beam="2">  1       21 0.55751773E-01 0.23003182E+03</pdfrwt>
<totfact> 0.54943531E+04</totfact>
</mgrwt>
</event>
<event>
12    1  0.2743855E-001  0.1948079E+03  0.7546771E-02  0.1154641E+00
         21   -1    0    0  502  503  0.00000000000E+00  0.00000000000E+00  0.32923382750E+02  0.32923382750E+02  0.00000000000E+00 0. -1.
         21   -1    0    0  503  504 -0.00000000000E+00 -0.00000000000E+00 -0.13244300769E+04  0.13244300769E+04  0.00000000000E+00 0.  1.
         -6    2    1    2    0  504 -0.78288911971E+02 -0.42683712626E+02 -0.90145219046E+03  0.92226143919E+03  0.17320235986E+03 0.  0.
        -24    2    3    3    0    0  0.10801642385E+01  0.74744427447E+01 -0.62430337913E+03  0.62960320091E+03  0.81169251290E+02 0.  0.
          6    2    1    2  502    0  0.78288911971E+02  0.42683712626E+02 -0.39005450370E+03  0.43509202048E+03  0.17091371321E+03 0.  0.
         24    2    5    5    0    0 -0.17090929242E+02 -0.13369898414E+02 -0.14103105039E+03  0.16255928535E+03  0.77877532260E+02 0.  0.
          2    1    6    6  501    0 -0.25562674539E+02 -0.41190828079E+02 -0.64486370179E+02  0.80676059561E+02  0.00000000000E+00 0. -1.
         -1    1    6    6    0  501  0.84717452967E+01  0.27820929665E+02 -0.76544680214E+02  0.81883225784E+02  0.00000000000E+00 0.  1.
          5    1    5    5  502    0  0.95379841213E+02  0.56053611040E+02 -0.24902345331E+03  0.27253273513E+03  0.47000000000E+01 0. -1.
         11    1    4    4    0    0  0.38000891878E+02 -0.67812000025E+01 -0.21936996389E+03  0.22274028265E+03  0.00000000000E+00 0. -1.
        -12    1    4    4    0    0 -0.36920727639E+02  0.14255642747E+02 -0.40493341523E+03  0.40686291826E+03  0.00000000000E+00 0.  1.
         -5    1    3    3    0  504 -0.79369076210E+02 -0.50158155370E+02 -0.27714881133E+03  0.29265823828E+03  0.47000000000E+01 0.  1.
<mgrwt>
<rscale>  2 0.19429789E+03</rscale>
<asrwt>0</asrwt>
<pdfrwt beam="1">  1       21 0.50651369E-02 0.19480788E+03</pdfrwt>
<pdfrwt beam="2">  1       21 0.20375843E+00 0.19480788E+03</pdfrwt>
<totfact> 0.33382056E+04</totfact>
</mgrwt>
</event>
<event>
12    1  0.2743855E-001  0.2093291E+03  0.7546771E-02  0.1142229E+00
         21   -1    0    0  502  503  0.00000000000E+00  0.00000000000E+00  0.12409227078E+03  0.12409227078E+03  0.00000000000E+00 0. -1.
         21   -1    0    0  503  504 -0.00000000000E+00 -0.00000000000E+00 -0.35250167663E+03  0.35250167663E+03  0.00000000000E+00 0.  1.
         -6    2    1    2    0  504  0.10061776622E+03  0.60936325981E+02 -0.10548216038E+03  0.23440385552E+03  0.17315169829E+03 0.  0.
        -24    2    3    3    0    0  0.12225734885E+03  0.66175418255E+02 -0.40852529859E+02  0.16588525392E+03  0.80764738235E+02 0.  0.
          6    2    1    2  502    0 -0.10061776622E+03 -0.60936325981E+02 -0.12292724546E+03  0.24219009188E+03  0.17235939843E+03 0.  0.
         24    2    5    5    0    0 -0.27168148344E+02  0.47400932621E+00  0.21779635126E+01  0.84584638420E+02  0.80071746342E+02 0.  0.
          2    1    6    6  501    0 -0.35372798865E+02 -0.18419315833E+02 -0.27511341620E+02  0.48449767935E+02  0.00000000000E+00 0. -1.
         -1    1    6    6    0  501  0.82046505201E+01  0.18893325159E+02  0.29689305132E+02  0.36134870485E+02  0.00000000000E+00 0.  1.
          5    1    5    5  502    0 -0.73449617873E+02 -0.61410335307E+02 -0.12510520898E+03  0.15760545346E+03  0.47000000000E+01 0. -1.
         11    1    4    4    0    0  0.92324258573E+02  0.16409227773E+02 -0.51287628513E+02  0.10688055162E+03  0.00000000000E+00 0. -1.
        -12    1    4    4    0    0  0.29933090275E+02  0.49766190482E+02  0.10435098654E+02  0.59004702291E+02  0.00000000000E+00 0.  1.
         -5    1    3    3    0  504 -0.21639582630E+02 -0.52390922746E+01 -0.64629630525E+02  0.68518601606E+02  0.47000000000E+01 0.  1.
<mgrwt>
<rscale>  2 0.20916521E+03</rscale>
<asrwt>0</asrwt>
<pdfrwt beam="1">  1       21 0.19091119E-01 0.20932912E+03</pdfrwt>
<pdfrwt beam="2">  1       21 0.54231026E-01 0.20932912E+03</pdfrwt>
<totfact> 0.80314561E+04</totfact>
</mgrwt>
</event>
<event>
12    1  0.2743855E-001  0.1842319E+03  0.7546771E-02  0.1164248E+00
         21   -1    0    0  502  503  0.00000000000E+00  0.00000000000E+00  0.18557919006E+03  0.18557919006E+03  0.00000000000E+00 0.  1.
         21   -1    0    0  503  504 -0.00000000000E+00 -0.00000000000E+00 -0.22950140303E+03  0.22950140303E+03  0.00000000000E+00 0. -1.
         -6    2    1    2    0  504  0.58474889102E+02 -0.76808965828E+01 -0.11757611801E+03  0.21855332122E+03  0.17453682094E+03 0.  0.
        -24    2    3    3    0    0  0.30952423130E+02  0.65557597218E+02 -0.75903624737E+02  0.12978367662E+03  0.76332112630E+02 0.  0.
          6    2    1    2  502    0 -0.58474889102E+02  0.76808965828E+01  0.73653905035E+02  0.19652727187E+03  0.17239420534E+03 0.  0.
         24    2    5    5    0    0  0.13917302230E+02 -0.39633610963E+02  0.70299571650E+02  0.10985182239E+03  0.73218021614E+02 0.  0.
          4    1    6    6  501    0  0.29376976527E+02 -0.33121804503E+02  0.75663843399E+01  0.44914483803E+02  0.00000000000E+00 0. -1.
         -3    1    6    6    0  501 -0.15459674296E+02 -0.65118064601E+01  0.62733187310E+02  0.64937338587E+02  0.00000000000E+00 0.  1.
          5    1    5    5  502    0 -0.72392191332E+02  0.47314507545E+02  0.33543333849E+01  0.86675449480E+02  0.47000000000E+01 0. -1.
         11    1    4    4    0    0  0.41231601566E+01  0.52627507155E+02 -0.83737612187E+02  0.98988093495E+02  0.00000000000E+00 0. -1.
        -12    1    4    4    0    0  0.26829262973E+02  0.12930090063E+02  0.78339874498E+01  0.30795583126E+02  0.00000000000E+00 0.  1.
         -5    1    3    3    0  504  0.27522465972E+02 -0.73238493801E+02 -0.41672493270E+02  0.88769644601E+02  0.47000000000E+01 0.  1.
<mgrwt>
<rscale>  2 0.18372270E+03</rscale>
<asrwt>0</asrwt>
<pdfrwt beam="1">  1       21 0.28550645E-01 0.18423195E+03</pdfrwt>
<pdfrwt beam="2">  1       21 0.35307908E-01 0.18423195E+03</pdfrwt>
<totfact> 0.91032725E+04</totfact>
</mgrwt>
</event>
<event>
12    1  0.2743855E-001  0.2028615E+03  0.7546771E-02  0.1149220E+00
         21   -1    0    0  502  503  0.00000000000E+00  0.00000000000E+00  0.22100227844E+03  0.22100227844E+03  0.00000000000E+00 0. -1.
         21   -1    0    0  503  504 -0.00000000000E+00 -0.00000000000E+00 -0.21539081933E+03  0.21539081933E+03  0.00000000000E+00 0. -1.
         -6    2    1    2    0  504 -0.32810963178E+02  0.81134911533E+02  0.93516298651E+02  0.22337877726E+03  0.18301187623E+03 0.  0.
        -24    2    3    3    0    0 -0.22567668720E+02  0.63551584928E+01  0.11693257129E+03  0.14421219106E+03  0.81081700231E+02 0.  0.
          6    2    1    2  502    0  0.32810963178E+02 -0.81134911533E+02 -0.87904839541E+02  0.21301432052E+03  0.17317161071E+03 0.  0.
         24    2    5    5    0    0  0.36913967616E+02  0.33529721351E+02 -0.60737234518E+02  0.95010161938E+02  0.53395093365E+02 0.  0.
          2    1    6    6  501    0  0.16722462936E+02 -0.40021607289E+01 -0.47292319358E+02  0.50321183684E+02  0.00000000000E+00 0. -1.
         -1    1    6    6    0  501  0.20191504680E+02  0.37531882079E+02 -0.13444915161E+02  0.44688978253E+02  0.00000000000E+00 0.  1.
          5    1    5    5  502    0 -0.41030044373E+01 -0.11466463288E+03 -0.27167605023E+02  0.11800415858E+03  0.47000000000E+01 0. -1.
         11    1    4    4    0    0 -0.36683246605E+02  0.19898484288E+02  0.11744940259E+03  0.12464338100E+03  0.00000000000E+00 0. -1.
        -12    1    4    4    0    0  0.14115577885E+02 -0.13543325795E+02 -0.51683130462E+00  0.19568810061E+02  0.00000000000E+00 0.  1.
         -5    1    3    3    0  504 -0.10243294458E+02  0.74779753040E+02 -0.23416272635E+02  0.79166586198E+02  0.47000000000E+01 0.  1.
<mgrwt>
<rscale>  2 0.20061675E+03</rscale>
<asrwt>0</asrwt>
<pdfrwt beam="1">  1       21 0.34000351E-01 0.20286148E+03</pdfrwt>
<pdfrwt beam="2">  1       21 0.33137049E-01 0.20286148E+03</pdfrwt>
<totfact> 0.72753196E+04</totfact>
</mgrwt>
</event>
<event>
12    1  0.2743855E-001  0.1830350E+03  0.7546771E-02  0.1166043E+00
         21   -1    0    0  502  503  0.00000000000E+00  0.00000000000E+00  0.61863944951E+03  0.61863944951E+03  0.00000000000E+00 0. -1.
         21   -1    0    0  503  504 -0.00000000000E+00 -0.00000000000E+00 -0.54407594198E+02  0.54407594198E+02  0.00000000000E+00 0. -1.
         -6    2    1    2    0  504  0.25517934546E+02 -0.52424553444E+02  0.22702935402E+03  0.29162328529E+03  0.17350018487E+03 0.  0.
        -24    2    3    3    0    0  0.63052709544E+02 -0.81874743359E+02  0.13708940874E+03  0.18970441178E+03  0.80716417660E+02 0.  0.
          6    2    1    2  502    0 -0.25517934546E+02  0.52424553444E+02  0.33720250129E+03  0.38142375841E+03  0.16846084952E+03 0.  0.
         24    2    5    5    0    0 -0.71060311122E+02  0.71483217005E+02  0.22821348833E+03  0.26168222148E+03  0.78973227453E+02 0.  0.
          2    1    6    6  501    0 -0.88529239126E+02  0.59856017201E+02  0.19591088479E+03  0.22316192273E+03  0.00000000000E+00 0. -1.
         -1    1    6    6    0  501  0.17468928004E+02  0.11627199804E+02  0.32302603536E+02  0.38520298754E+02  0.00000000000E+00 0.  1.
          5    1    5    5  502    0  0.45542376577E+02 -0.19058663561E+02  0.10898901296E+03  0.11974153693E+03  0.47000000000E+01 0. -1.
         13    1    4    4    0    0  0.26213873654E+02 -0.38014345327E+02  0.12203706361E+03  0.13048104275E+03  0.00000000000E+00 0. -1.
        -14    1    4    4    0    0  0.36838835890E+02 -0.43860398033E+02  0.15052345125E+02  0.59223369029E+02  0.00000000000E+00 0.  1.
         -5    1    3    3    0  504 -0.37534774998E+02  0.29450189915E+02  0.89939945288E+02  0.10191887352E+03  0.47000000000E+01 0.  1.
<mgrwt>
<rscale>  2 0.18183077E+03</rscale>
<asrwt>0</asrwt>
<pdfrwt beam="1">  1       21 0.95175295E-01 0.18303500E+03</pdfrwt>
<pdfrwt beam="2">  1       21 0.83703996E-02 0.18303500E+03</pdfrwt>
<totfact> 0.10268386E+05</totfact>
</mgrwt>
</event>
<event>
12    1  0.2743855E-001  0.1842303E+03  0.7546771E-02  0.1163839E+00
         21   -1    0    0  502  503  0.00000000000E+00  0.00000000000E+00  0.52696019210E+03  0.52696019210E+03  0.00000000000E+00 0. -1.
         21   -1    0    0  503  504 -0.00000000000E+00 -0.00000000000E+00 -0.76650304766E+02  0.76650304766E+02  0.00000000000E+00 0. -1.
         -6    2    1    2    0  504  0.27892634697E+02  0.57619205687E+02  0.10419034504E+03  0.21165168509E+03  0.17275079122E+03 0.  0.
        -24    2    3    3    0    0 -0.22231671720E+02  0.34299420993E+02 -0.46585012402E+01  0.89477957186E+02  0.79460088601E+02 0.  0.
          6    2    1    2  502    0 -0.27892634697E+02 -0.57619205687E+02  0.34611954229E+03  0.39195881178E+03  0.17243839665E+03 0.  0.
         24    2    5    5    0    0  0.31995539613E+02 -0.25285688347E+02  0.97353654924E+02  0.13400802871E+03  0.82567166855E+02 0.  0.
          2    1    6    6  501    0  0.38197865927E+02  0.18752909701E+02  0.69623996253E+02  0.81598097024E+02  0.00000000000E+00 0. -1.
         -1    1    6    6    0  501 -0.62023263138E+01 -0.44038598049E+02  0.27729658670E+02  0.52409931690E+02  0.00000000000E+00 0.  1.
          5    1    5    5  502    0 -0.59888174310E+02 -0.32333517339E+02  0.24876588737E+03  0.25795078306E+03  0.47000000000E+01 0. -1.
         11    1    4    4    0    0  0.29003513626E+02  0.20973429112E+02  0.32964853153E+01  0.35943780363E+02  0.00000000000E+00 0. -1.
        -12    1    4    4    0    0 -0.51235185346E+02  0.13325991881E+02 -0.79549865555E+01  0.53534176823E+02  0.00000000000E+00 0.  1.
         -5    1    3    3    0  504  0.50124306417E+02  0.23319784693E+02  0.10884884628E+03  0.12217372790E+03  0.47000000000E+01 0.  1.
<mgrwt>
<rscale>  2 0.18415704E+03</rscale>
<asrwt>0</asrwt>
<pdfrwt beam="1">  1       21 0.81070797E-01 0.18423031E+03</pdfrwt>
<pdfrwt beam="2">  1       21 0.11792355E-01 0.18423031E+03</pdfrwt>
<totfact> 0.81084989E+04</totfact>
</mgrwt>
</event>
<event>
12    1  0.2743855E-001  0.1890743E+03  0.7546771E-02  0.1161265E+00
         21   -1    0    0  502  503  0.00000000000E+00  0.00000000000E+00  0.73059882313E+02  0.73059882313E+02  0.00000000000E+00 0. -1.
         21   -1    0    0  503  504 -0.00000000000E+00 -0.00000000000E+00 -0.46859141106E+03  0.46859141106E+03  0.00000000000E+00 0.  1.
         -6    2    1    2    0  504  0.16563127513E+02 -0.53157156507E+02 -0.21423512728E+03  0.28573723949E+03  0.18069050830E+03 0.  0.
        -24    2    3    3    0    0 -0.45354047495E+01 -0.65286334517E+02 -0.43111286368E+02  0.11282765632E+03  0.81170324923E+02 0.  0.
          6    2    1    2  502    0 -0.16563127513E+02  0.53157156507E+02 -0.18129640146E+03  0.25591405388E+03  0.17182432106E+03 0.  0.
         24    2    5    5    0    0 -0.53887061378E+02  0.24755499596E+02 -0.17757033489E+03  0.20863082507E+03  0.92081198901E+02 0.  0.
          4    1    6    6  501    0 -0.21581529685E+02 -0.57683549748E+01  0.31188132853E+01  0.22555782828E+02  0.00000000000E+00 0. -1.
         -3    1    6    6    0  501 -0.32305531693E+02  0.30523854571E+02 -0.18068914818E+03  0.18607504224E+03  0.00000000000E+00 0.  1.
          5    1    5    5  502    0  0.37323933866E+02  0.28401656911E+02 -0.37260665688E+01  0.47283228809E+02  0.47000000000E+01 0. -1.
         13    1    4    4    0    0 -0.40946541087E+02 -0.49553579372E+02 -0.22339510977E+02  0.68053142515E+02  0.00000000000E+00 0. -1.
        -14    1    4    4    0    0  0.36411136337E+02 -0.15732755145E+02 -0.20771775392E+02  0.44774513808E+02  0.00000000000E+00 0.  1.
         -5    1    3    3    0  504  0.21098532262E+02  0.12129178010E+02 -0.17112384091E+03  0.17290958317E+03  0.47000000000E+01 0.  1.
<mgrwt>
<rscale>  2 0.18692433E+03</rscale>
<asrwt>0</asrwt>
<pdfrwt beam="1">  1       21 0.11239982E-01 0.18907427E+03</pdfrwt>
<pdfrwt beam="2">  1       21 0.72090987E-01 0.18907427E+03</pdfrwt>
<totfact> 0.11465718E+05</totfact>
</mgrwt>
</event>
<event>
12    1  0.2743855E-001  0.2142557E+03  0.7546771E-02  0.1139758E+00
         21   -1    0    0  502  503  0.00000000000E+00  0.00000000000E+00  0.25917671073E+03  0.25917671073E+03  0.00000000000E+00 0. -1.
         21   -1    0    0  503  504 -0.00000000000E+00 -0.00000000000E+00 -0.35332616802E+03  0.35332616802E+03  0.00000000000E+00 0. -1.
         -6    2    1    2    0  504 -0.73667800670E+02  0.80945450182E+02 -0.26759150054E+03  0.34279835961E+03  0.18419118717E+03 0.  0.
        -24    2    3    3    0    0 -0.15295276618E+02  0.99398698057E+02 -0.24570532903E+03  0.27761424787E+03  0.81145025978E+02 0.  0.
          6    2    1    2  502    0  0.73667800670E+02 -0.80945450182E+02  0.17344204324E+03  0.26970451913E+03  0.17515500140E+03 0.  0.
         24    2    5    5    0    0  0.92047026826E+02 -0.21440772028E+02  0.16394654519E+03  0.20653128778E+03  0.82730534265E+02 0.  0.
          2    1    6    6  501    0  0.53037193214E+02 -0.46904941240E+02  0.13279249720E+03  0.15048875270E+03  0.00000000000E+00 0. -1.
         -1    1    6    6    0  501  0.39009833612E+02  0.25464169212E+02  0.31154047992E+02  0.56042535081E+02  0.00000000000E+00 0.  1.
          5    1    5    5  502    0 -0.18379226156E+02 -0.59504678155E+02  0.94954980575E+01  0.63173231354E+02  0.47000000000E+01 0. -1.
         13    1    4    4    0    0  0.18302318365E+02  0.73605624777E+00 -0.78305890872E+02  0.80419706426E+02  0.00000000000E+00 0. -1.
        -14    1    4    4    0    0 -0.33597594983E+02  0.98662641809E+02 -0.16739943816E+03  0.19719454144E+03  0.00000000000E+00 0.  1.
         -5    1    3    3    0  504 -0.58372524052E+02 -0.18453247874E+02 -0.21886171507E+02  0.65184111750E+02  0.47000000000E+01 0.  1.
<mgrwt>
<rscale>  2 0.21229992E+03</rscale>
<asrwt>0</asrwt>
<pdfrwt beam="1">  1       21 0.39873340E-01 0.21425570E+03</pdfrwt>
<pdfrwt beam="2">  1       21 0.54357872E-01 0.21425570E+03</pdfrwt>
<totfact> 0.19136900E+04</totfact>
</mgrwt>
</event>
<event>
12    1  0.2743855E-001  0.1817345E+03  0.7546771E-02  0.1166517E+00
         21   -1    0    0  502  503  0.00000000000E+00  0.00000000000E+00  0.12413081601E+03  0.12413081601E+03  0.00000000000E+00 0.  1.
         21   -1    0    0  503  504 -0.00000000000E+00 -0.00000000000E+00 -0.48818555095E+03  0.48818555095E+03  0.00000000000E+00 0.  1.
         -6    2    1    2    0  504 -0.60034944664E+02 -0.67336443777E+01  0.25994498032E+02  0.18200737343E+03  0.16970985094E+03 0.  0.
        -24    2    3    3    0    0 -0.97305287642E+02  0.21026195289E+02 -0.65348689774E+00  0.12823105648E+03  0.80822997404E+02 0.  0.
          6    2    1    2  502    0  0.60034944664E+02  0.67336443777E+01 -0.39004923298E+03  0.43030899353E+03  0.17139979352E+03 0.  0.
         24    2    5    5    0    0  0.10661073989E+03  0.17173274347E+01 -0.30867301329E+03  0.33629491338E+03  0.80289728818E+02 0.  0.
          4    1    6    6  501    0  0.45955791115E+02 -0.12669900022E+02 -0.23500449296E+03  0.23979068542E+03  0.00000000000E+00 0. -1.
         -3    1    6    6    0  501  0.60654948777E+02  0.14387227457E+02 -0.73668520332E+02  0.96504227954E+02  0.00000000000E+00 0.  1.
          5    1    5    5  502    0 -0.46575795228E+02  0.50163169430E+01 -0.81376219684E+02  0.94014080153E+02  0.47000000000E+01 0. -1.
         13    1    4    4    0    0 -0.61430787138E+01  0.34507633185E+01  0.29723219649E+02  0.30546930613E+02  0.00000000000E+00 0. -1.
        -14    1    4    4    0    0 -0.91162208928E+02  0.17575431970E+02 -0.30376706547E+02  0.97684125866E+02  0.00000000000E+00 0.  1.
         -5    1    3    3    0  504  0.37270342977E+02 -0.27759839667E+02  0.26647984929E+02  0.53776316951E+02  0.47000000000E+01 0.  1.
<mgrwt>
<rscale>  2 0.18133494E+03</rscale>
<asrwt>0</asrwt>
<pdfrwt beam="1">  1       21 0.19097049E-01 0.18173449E+03</pdfrwt>
<pdfrwt beam="2">  1       21 0.75105469E-01 0.18173449E+03</pdfrwt>
<totfact> 0.40097386E+04</totfact>
</mgrwt>
</event>
<event>
12    1  0.2743855E-001  0.1950043E+03  0.7546771E-02  0.1154212E+00
         21   -1    0    0  502  503  0.00000000000E+00  0.00000000000E+00  0.12559658334E+03  0.12559658334E+03  0.00000000000E+00 0.  1.
         21   -1    0    0  503  504 -0.00000000000E+00 -0.00000000000E+00 -0.30612545053E+03  0.30612545053E+03  0.00000000000E+00 0. -1.
         -6    2    1    2    0  504  0.46404715984E+02  0.76885742608E+02 -0.63346506918E+02  0.20421736338E+03  0.17212535108E+03 0.  0.
        -24    2    3    3    0    0 -0.34737723810E+02  0.14697797116E+02 -0.49024466586E+02  0.10087982451E+03  0.79690689375E+02 0.  0.
          6    2    1    2  502    0 -0.46404715984E+02 -0.76885742608E+02 -0.11718236028E+03  0.22750467049E+03  0.17309492902E+03 0.  0.
         24    2    5    5    0    0 -0.20996616235E+02 -0.57806974035E+02 -0.15120037693E+03  0.18071913427E+03  0.77558670486E+02 0.  0.
          4    1    6    6  501    0 -0.20901506374E+02 -0.41128539378E+02 -0.15654769326E+03  0.16320419720E+03  0.00000000000E+00 0. -1.
         -3    1    6    6    0  501 -0.95109860641E-01 -0.16678434657E+02  0.53473163309E+01  0.17514937066E+02  0.00000000000E+00 0.  1.
          5    1    5    5  502    0 -0.25408099749E+02 -0.19078768573E+02  0.34018016649E+02  0.46785536225E+02  0.47000000000E+01 0. -1.
         11    1    4    4    0    0 -0.33784313048E+02 -0.22400023868E+02 -0.49227732860E+02  0.63769197579E+02  0.00000000000E+00 0. -1.
        -12    1    4    4    0    0 -0.95341076189E+00  0.37097820983E+02  0.20326627452E+00  0.37110626928E+02  0.00000000000E+00 0.  1.
         -5    1    3    3    0  504  0.81142439794E+02  0.62187945492E+02 -0.14322040333E+02  0.10333753887E+03  0.47000000000E+01 0.  1.
<mgrwt>
<rscale>  2 0.19478889E+03</rscale>
<asrwt>0</asrwt>
<pdfrwt beam="1">  1       21 0.19322552E-01 0.19500428E+03</pdfrwt>
<pdfrwt beam="2">  1       21 0.47096222E-01 0.19500428E+03</pdfrwt>
<totfact> 0.10610470E+05</totfact>
</mgrwt>
</event>
<event>
12    1  0.2743855E-001  0.1974087E+03  0.7546771E-02  0.1152117E+00
         21   -1    0    0  502  503  0.00000000000E+00  0.00000000000E+00  0.56915477615E+03  0.56915477615E+03  0.00000000000E+00 0. -1.
         21   -1    0    0  503  504 -0.00000000000E+00 -0.00000000000E+00 -0.15314778392E+03  0.15314778392E+03  0.00000000000E+00 0. -1.
         -6    2    1    2    0  504 -0.55110794139E+02  0.75479411867E+02 -0.60794579864E+02  0.20655787654E+03  0.17388454265E+03 0.  0.
        -24    2    3    3    0    0  0.24801637455E+02  0.81007844299E+02 -0.35378574749E+02  0.12238767039E+03  0.80930255484E+02 0.  0.
          6    2    1    2  502    0  0.55110794139E+02 -0.75479411867E+02  0.47680157209E+03  0.51574468353E+03  0.17296964530E+03 0.  0.
         24    2    5    5    0    0  0.60008785583E+02 -0.22113911494E+02  0.43689188566E+03  0.44876155117E+03  0.80139444853E+02 0.  0.
          4    1    6    6  501    0  0.26315772926E+02 -0.48947269358E+02  0.30479037094E+03  0.30981530837E+03  0.00000000000E+00 0. -1.
         -3    1    6    6    0  501  0.33693012657E+02  0.26833357864E+02  0.13210151472E+03  0.13894624280E+03  0.00000000000E+00 0.  1.
          5    1    5    5  502    0 -0.48979914439E+01 -0.53365500373E+02  0.39909686432E+02  0.66983132364E+02  0.47000000000E+01 0. -1.
         11    1    4    4    0    0 -0.24499661505E+02  0.54045205771E+02 -0.79858434613E+01  0.59873962425E+02  0.00000000000E+00 0. -1.
        -12    1    4    4    0    0  0.49301298960E+02  0.26962638527E+02 -0.27392731288E+02  0.62513707960E+02  0.00000000000E+00 0.  1.
         -5    1    3    3    0  504 -0.79912431594E+02 -0.55284324316E+01 -0.25416005115E+02  0.84170206156E+02  0.47000000000E+01 0.  1.
<mgrwt>
<rscale>  2 0.19720699E+03</rscale>
<asrwt>0</asrwt>
<pdfrwt beam="1">  1       21 0.87562272E-01 0.19740865E+03</pdfrwt>
<pdfrwt beam="2">  1       21 0.23561198E-01 0.19740865E+03</pdfrwt>
<totfact> 0.18923091E+04</totfact>
</mgrwt>
</event>
<event>
12    1  0.2743855E-001  0.2801650E+03  0.7546771E-02  0.1095617E+00
         21   -1    0    0  502  503  0.00000000000E+00  0.00000000000E+00  0.53171677889E+03  0.53171677889E+03  0.00000000000E+00 0.  1.
         21   -1    0    0  503  504 -0.00000000000E+00 -0.00000000000E+00 -0.36798121087E+03  0.36798121087E+03  0.00000000000E+00 0.  1.
         -6    2    1    2    0  504  0.21866117746E+03  0.87059370761E+01 -0.26629268978E+03  0.38652844539E+03  0.17493981421E+03 0.  0.
        -24    2    3    3    0    0  0.22501879691E+03 -0.30907372536E+02 -0.23501469427E+03  0.33543992783E+03  0.75493801212E+02 0.  0.
          6    2    1    2  502    0 -0.21866117746E+03 -0.87059370761E+01  0.43002825780E+03  0.51316954437E+03  0.17472886108E+03 0.  0.
         24    2    5    5    0    0 -0.13350438980E+03  0.46250274589E+01  0.38547766931E+03  0.41602924359E+03  0.81501441776E+02 0.  0.
          4    1    6    6  501    0 -0.41641444741E+02 -0.34305477315E+01  0.24124884066E+03  0.24484031877E+03  0.00000000000E+00 0. -1.
         -3    1    6    6    0  501 -0.91862945055E+02  0.80555751904E+01  0.14422882865E+03  0.17118892482E+03  0.00000000000E+00 0.  1.
          5    1    5    5  502    0 -0.85156787667E+02 -0.13330964535E+02  0.44550588492E+02  0.97140300783E+02  0.47000000000E+01 0. -1.
         13    1    4    4    0    0  0.33503760336E+02  0.17453616438E+02 -0.17539664742E+02  0.41650576499E+02  0.00000000000E+00 0. -1.
        -14    1    4    4    0    0  0.19151503657E+03 -0.48360988974E+02 -0.21747502953E+03  0.29378935133E+03  0.00000000000E+00 0.  1.
         -5    1    3    3    0  504 -0.63576194426E+01  0.39613309612E+02 -0.31277995502E+02  0.51088517555E+02  0.47000000000E+01 0.  1.
<mgrwt>
<rscale>  2 0.28013210E+03</rscale>
<asrwt>0</asrwt>
<pdfrwt beam="1">  1       21 0.81802582E-01 0.28016503E+03</pdfrwt>
<pdfrwt beam="2">  1       21 0.56612494E-01 0.28016503E+03</pdfrwt>
<totfact> 0.36096536E+03</totfact>
</mgrwt>
</event>
<event>
12    1  0.2743855E-001  0.1833295E+03  0.7546771E-02  0.1166753E+00
         21   -1    0    0  502  503  0.00000000000E+00  0.00000000000E+00  0.85526225449E+03  0.85526225449E+03  0.00000000000E+00 0. -1.
         21   -1    0    0  503  504 -0.00000000000E+00 -0.00000000000E+00 -0.44201588778E+02  0.44201588778E+02  0.00000000000E+00 0. -1.
         -6    2    1    2    0  504 -0.20633921415E+02 -0.63517082135E+00  0.23804412985E+03  0.30045750626E+03  0.18216350665E+03 0.  0.
        -24    2    3    3    0    0 -0.70813140247E+01 -0.54236923112E+02  0.60763520146E+02  0.11469603126E+03  0.80443678244E+02 0.  0.
          6    2    1    2  502    0  0.20633921415E+02  0.63517082135E+00  0.57301653586E+03  0.59900633701E+03  0.17330458521E+03 0.  0.
         24    2    5    5    0    0  0.28322646901E+02 -0.53658313417E+02  0.22478059852E+03  0.24644817587E+03  0.80802221460E+02 0.  0.
          4    1    6    6  501    0  0.47024392398E+02 -0.59903331636E+01  0.13514312795E+03  0.14321606964E+03  0.00000000000E+00 0. -1.
         -3    1    6    6    0  501 -0.18701745497E+02 -0.47667980254E+02  0.89637470571E+02  0.10323210623E+03  0.00000000000E+00 0.  1.
          5    1    5    5  502    0 -0.76887254860E+01  0.54293484238E+02  0.34823593734E+03  0.35255816114E+03  0.47000000000E+01 0. -1.
         11    1    4    4    0    0 -0.38752607229E+02 -0.40681133937E+02  0.57008164595E+02  0.80041552059E+02  0.00000000000E+00 0. -1.
        -12    1    4    4    0    0  0.31671293205E+02 -0.13555789174E+02  0.37553555508E+01  0.34654479201E+02  0.00000000000E+00 0.  1.
         -5    1    3    3    0  504 -0.13552607390E+02  0.53601752290E+02  0.17728060970E+03  0.18576147500E+03  0.47000000000E+01 0.  1.
<mgrwt>
<rscale>  2 0.18108882E+03</rscale>
<asrwt>0</asrwt>
<pdfrwt beam="1">  1       21 0.13157880E+00 0.18332950E+03</pdfrwt>
<pdfrwt beam="2">  1       21 0.68002451E-02 0.18332950E+03</pdfrwt>
<totfact> 0.66979021E+04</totfact>
</mgrwt>
</event>
<event>
12    1  0.2743855E-001  0.2518659E+03  0.7546771E-02  0.1112156E+00
         21   -1    0    0  502  503  0.00000000000E+00  0.00000000000E+00  0.49427596627E+02  0.49427596627E+02  0.00000000000E+00 0.  1.
         21   -1    0    0  503  504 -0.00000000000E+00 -0.00000000000E+00 -0.12837205924E+04  0.12837205924E+04  0.00000000000E+00 0. -1.
         -6    2    1    2    0  504 -0.14850585708E+03 -0.10571809322E+03 -0.59773729259E+03  0.64863417307E+03  0.17379906415E+03 0.  0.
        -24    2    3    3    0    0 -0.16084509235E+03 -0.65314823151E+02 -0.55891643678E+03  0.59106829946E+03  0.82686041526E+02 0.  0.
          6    2    1    2  502    0  0.14850585708E+03  0.10571809322E+03 -0.63655570318E+03  0.68451401595E+03  0.17356834379E+03 0.  0.
         24    2    5    5    0    0  0.14161103480E+03  0.24675846871E+02 -0.35452823606E+03  0.39095487970E+03  0.80578317213E+02 0.  0.
          2    1    6    6  501    0  0.15074281549E+03  0.30632715902E+02 -0.32826903340E+03  0.36252216208E+03  0.00000000000E+00 0. -1.
         -1    1    6    6    0  501 -0.91317806973E+01 -0.59568690310E+01 -0.26259202657E+02  0.28432717625E+02  0.00000000000E+00 0.  1.
          5    1    5    5  502    0  0.68948222871E+01  0.81042246344E+02 -0.28202746712E+03  0.29355913625E+03  0.47000000000E+01 0. -1.
         13    1    4    4    0    0 -0.16344430764E+03 -0.55050987433E+02 -0.45459812721E+03  0.48621405798E+03  0.00000000000E+00 0. -1.
        -14    1    4    4    0    0  0.25992152860E+01 -0.10263835718E+02 -0.10431830957E+03  0.10485424148E+03  0.00000000000E+00 0.  1.
         -5    1    3    3    0  504  0.12339235267E+02 -0.40403270065E+02 -0.38820855807E+02  0.57565873610E+02  0.47000000000E+01 0.  1.
<mgrwt>
<rscale>  2 0.25182608E+03</rscale>
<asrwt>0</asrwt>
<pdfrwt beam="1">  1       21 0.76042463E-02 0.25186588E+03</pdfrwt>
<pdfrwt beam="2">  1       21 0.19749546E+00 0.25186588E+03</pdfrwt>
<totfact> 0.17530523E+04</totfact>
</mgrwt>
</event>
<event>
12    1  0.2743855E-001  0.1840927E+03  0.7546771E-02  0.1164016E+00
         21   -1    0    0  502  503  0.00000000000E+00  0.00000000000E+00  0.66820568845E+03  0.66820568845E+03  0.00000000000E+00 0.  1.
         21   -1    0    0  503  504 -0.00000000000E+00 -0.00000000000E+00 -0.52039299936E+02  0.52039299936E+02  0.00000000000E+00 0.  1.
         -6    2    1    2    0  504 -0.21978473175E+02  0.58308876536E+02  0.24742614691E+03  0.30810487858E+03  0.17270188090E+03 0.  0.
        -24    2    3    3    0    0  0.52106871198E+02  0.50162089805E+02  0.16092209251E+03  0.19382430363E+03  0.80253221366E+02 0.  0.
          6    2    1    2  502    0  0.21978473175E+02 -0.58308876536E+02  0.36874024160E+03  0.41214010980E+03  0.17322565042E+03 0.  0.
         24    2    5    5    0    0  0.57238791866E+02 -0.86364213478E+02  0.31891474387E+03  0.34479723913E+03  0.80271200269E+02 0.  0.
          2    1    6    6  501    0 -0.11852925478E+02 -0.51975457979E+02  0.11461580535E+03  0.12640697335E+03  0.00000000000E+00 0. -1.
         -1    1    6    6    0  501  0.69091717344E+02 -0.34388755499E+02  0.20429893852E+03  0.21839026578E+03  0.00000000000E+00 0.  1.
          5    1    5    5  502    0 -0.35260318691E+02  0.28055336942E+02  0.49825497733E+02  0.67342870666E+02  0.47000000000E+01 0. -1.
         13    1    4    4    0    0  0.23506968627E+02 -0.20758896123E+02  0.52355229524E+02  0.61029332298E+02  0.00000000000E+00 0. -1.
        -14    1    4    4    0    0  0.28599902571E+02  0.70920985928E+02  0.10856686299E+03  0.13279497133E+03  0.00000000000E+00 0.  1.
         -5    1    3    3    0  504 -0.74085344372E+02  0.81467867309E+01  0.86504054397E+02  0.11428057495E+03  0.47000000000E+01 0.  1.
<mgrwt>
<rscale>  2 0.18396934E+03</rscale>
<asrwt>0</asrwt>
<pdfrwt beam="1">  1       21 0.10280087E+00 0.18409265E+03</pdfrwt>
<pdfrwt beam="2">  1       21 0.80060466E-02 0.18409265E+03</pdfrwt>
<totfact> 0.92448923E+04</totfact>
</mgrwt>
</event>
<event>
12    1  0.2743855E-001  0.2092401E+03  0.7546771E-02  0.1142462E+00
         21   -1    0    0  502  503  0.00000000000E+00  0.00000000000E+00  0.50341630819E+03  0.50341630819E+03  0.00000000000E+00 0. -1.
         21   -1    0    0  503  504 -0.00000000000E+00 -0.00000000000E+00 -0.25397653650E+03  0.25397653650E+03  0.00000000000E+00 0. -1.
         -6    2    1    2    0  504 -0.93373040630E+02 -0.68554701872E+02 -0.18277789584E+03  0.27782939252E+03  0.17425022318E+03 0.  0.
        -24    2    3    3    0    0 -0.11129177698E+03 -0.16772609747E+00 -0.10640845512E+03  0.17365530244E+03  0.80296431999E+02 0.  0.
          6    2    1    2  502    0  0.93373040630E+02  0.68554701872E+02  0.43221766753E+03  0.47956345217E+03  0.17248397219E+03 0.  0.
         24    2    5    5    0    0  0.28177658131E+02  0.29110328482E+02  0.83628538695E+02  0.12271226857E+03  0.80144723666E+02 0.  0.
          4    1    6    6  501    0 -0.33688995511E+01  0.48480970563E+02  0.65314172809E+02  0.81410657537E+02  0.00000000000E+00 0. -1.
         -3    1    6    6    0  501  0.31546557682E+02 -0.19370642080E+02  0.18314365886E+02  0.41301611034E+02  0.00000000000E+00 0.  1.
          5    1    5    5  502    0  0.65195382498E+02  0.39444373390E+02  0.34858912884E+03  0.35685118360E+03  0.47000000000E+01 0. -1.
         11    1    4    4    0    0 -0.99658667105E+02 -0.30742595450E+02 -0.76630266531E+02  0.12941852593E+03  0.00000000000E+00 0. -1.
        -12    1    4    4    0    0 -0.11633109872E+02  0.30574869353E+02 -0.29778188588E+02  0.44236776519E+02  0.00000000000E+00 0.  1.
         -5    1    3    3    0  504  0.17918736347E+02 -0.68386975775E+02 -0.76369440722E+02  0.10417409008E+03  0.47000000000E+01 0.  1.
<mgrwt>
<rscale>  2 0.20887196E+03</rscale>
<asrwt>0</asrwt>
<pdfrwt beam="1">  1       21 0.77448663E-01 0.20924008E+03</pdfrwt>
<pdfrwt beam="2">  1       21 0.39073313E-01 0.20924008E+03</pdfrwt>
<totfact> 0.92364331E+03</totfact>
</mgrwt>
</event>
<event>
12    1  0.2743855E-001  0.2782380E+03  0.7546771E-02  0.1096709E+00
         21   -1    0    0  502  503  0.00000000000E+00  0.00000000000E+00  0.95178886328E+03  0.95178886328E+03  0.00000000000E+00 0.  1.
         21   -1    0    0  503  504 -0.00000000000E+00 -0.00000000000E+00 -0.81348335069E+02  0.81348335069E+02  0.00000000000E+00 0. -1.
         -6    2    1    2    0  504  0.21435433913E+03 -0.40262022071E+02  0.41472661962E+03  0.49919756425E+03  0.17213723014E+03 0.  0.
        -24    2    3    3    0    0  0.20986645684E+03  0.17191218698E+01  0.38962219911E+03  0.44985306645E+03  0.80718264738E+02 0.  0.
          6    2    1    2  502    0 -0.21435433913E+03  0.40262022071E+02  0.45571390858E+03  0.53393963410E+03  0.17276444442E+03 0.  0.
         24    2    5    5    0    0 -0.18392684107E+03  0.78108535859E+02  0.28970587504E+03  0.36091088375E+03  0.79982158881E+02 0.  0.
          4    1    6    6  501    0 -0.11920926447E+03  0.32128329569E+02  0.11375338348E+03  0.16787766543E+03  0.00000000000E+00 0. -1.
         -3    1    6    6    0  501 -0.64717576604E+02  0.45980206290E+02  0.17595249156E+03  0.19303321833E+03  0.00000000000E+00 0.  1.
          5    1    5    5  502    0 -0.30427498063E+02 -0.37846513788E+02  0.16600803355E+03  0.17302875035E+03  0.47000000000E+01 0. -1.
         11    1    4    4    0    0  0.18267300830E+02  0.43720907352E+01  0.39384589311E+01  0.19191688716E+02  0.00000000000E+00 0. -1.
        -12    1    4    4    0    0  0.19159915601E+03 -0.26529688654E+01  0.38568374018E+03  0.43066137773E+03  0.00000000000E+00 0.  1.
         -5    1    3    3    0  504  0.44878822915E+01 -0.41981143940E+02  0.25104420512E+02  0.49344497801E+02  0.47000000000E+01 0.  1.
<mgrwt>
<rscale>  2 0.27814066E+03</rscale>
<asrwt>0</asrwt>
<pdfrwt beam="1">  1       21 0.14642905E+00 0.27823797E+03</pdfrwt>
<pdfrwt beam="2">  1       21 0.12515129E-01 0.27823797E+03</pdfrwt>
<totfact> 0.16473042E+04</totfact>
</mgrwt>
</event>
<event>
12    1  0.2743855E-001  0.1773048E+03  0.7546771E-02  0.1171302E+00
         21   -1    0    0  502  503  0.00000000000E+00  0.00000000000E+00  0.18968485641E+02  0.18968485641E+02  0.00000000000E+00 0.  1.
         21   -1    0    0  503  504 -0.00000000000E+00 -0.00000000000E+00 -0.16295701497E+04  0.16295701497E+04  0.00000000000E+00 0.  1.
         -6    2    1    2    0  504  0.38057870352E+02  0.69525725342E+00 -0.84058595179E+03  0.85837333766E+03  0.16962063432E+03 0.  0.
        -24    2    3    3    0    0  0.78775422176E+02  0.36046987951E+02 -0.60850930753E+03  0.62006823344E+03  0.81829605200E+02 0.  0.
          6    2    1    2  502    0 -0.38057870352E+02 -0.69525725342E+00 -0.77001571224E+03  0.79016529765E+03  0.17317077014E+03 0.  0.
         24    2    5    5    0    0 -0.34556971474E+02  0.65558749577E+02 -0.53492732175E+03  0.54584892272E+03  0.79446038027E+02 0.  0.
          2    1    6    6  501    0 -0.44642505184E+02  0.45923152589E+02 -0.19589763835E+03  0.20610136808E+03  0.00000000000E+00 0. -1.
         -1    1    6    6    0  501  0.10085533711E+02  0.19635596988E+02 -0.33902968340E+03  0.33974755465E+03  0.00000000000E+00 0.  1.
          5    1    5    5  502    0 -0.35008988779E+01 -0.66254006830E+02 -0.23508839049E+03  0.24431637492E+03  0.47000000000E+01 0. -1.
         11    1    4    4    0    0  0.51253702426E+02  0.62607545762E+02 -0.40966138256E+03  0.41757525688E+03  0.00000000000E+00 0. -1.
        -12    1    4    4    0    0  0.27521719749E+02 -0.26560557811E+02 -0.19884792498E+03  0.20249297656E+03  0.00000000000E+00 0.  1.
         -5    1    3    3    0  504 -0.40717551824E+02 -0.35351730698E+02 -0.23207664425E+03  0.23830510422E+03  0.47000000000E+01 0.  1.
<mgrwt>
<rscale>  2 0.17643198E+03</rscale>
<asrwt>0</asrwt>
<pdfrwt beam="1">  1       21 0.29182288E-02 0.17730482E+03</pdfrwt>
<pdfrwt beam="2">  1       21 0.25070308E+00 0.17730482E+03</pdfrwt>
<totfact> 0.44167336E+04</totfact>
</mgrwt>
</event>
<event>
12    1  0.2743855E-001  0.2235875E+03  0.7546771E-02  0.1131346E+00
         21   -1    0    0  502  503  0.00000000000E+00  0.00000000000E+00  0.90447353042E+03  0.90447353042E+03  0.00000000000E+00 0.  1.
         21   -1    0    0  503  504 -0.00000000000E+00 -0.00000000000E+00 -0.55862626201E+02  0.55862626201E+02  0.00000000000E+00 0.  1.
         -6    2    1    2    0  504  0.76024417168E+02  0.11833817872E+03  0.36961027551E+03  0.43197584132E+03  0.17380372599E+03 0.  0.
        -24    2    3    3    0    0  0.11668252635E+03  0.87362753695E+02  0.23537990436E+03  0.28826626844E+03  0.80291216531E+02 0.  0.
          6    2    1    2  502    0 -0.76024417168E+02 -0.11833817872E+03  0.47900062871E+03  0.52836031530E+03  0.17303000878E+03 0.  0.
         24    2    5    5    0    0 -0.92296470342E+02 -0.13892606189E+03  0.38507409627E+03  0.43072362065E+03  0.97065383405E+02 0.  0.
          2    1    6    6  501    0 -0.41501762687E+02 -0.74324434781E+02  0.87769407217E+02  0.12227013844E+03  0.00000000000E+00 0. -1.
         -1    1    6    6    0  501 -0.50794707655E+02 -0.64601627109E+02  0.29730468906E+03  0.30845348221E+03  0.00000000000E+00 0.  1.
          5    1    5    5  502    0  0.16272053174E+02  0.20587883174E+02  0.93926532432E+02  0.97636694653E+02  0.47000000000E+01 0. -1.
         13    1    4    4    0    0  0.80800049043E+02  0.86227515884E+02  0.12419877601E+03  0.17143269345E+03  0.00000000000E+00 0. -1.
        -14    1    4    4    0    0  0.35882477311E+02  0.11352378108E+01  0.11118112835E+03  0.11683357499E+03  0.00000000000E+00 0.  1.
         -5    1    3    3    0  504 -0.40658109185E+02  0.30975425021E+02  0.13423037115E+03  0.14370957288E+03  0.47000000000E+01 0.  1.
<mgrwt>
<rscale>  2 0.22343712E+03</rscale>
<asrwt>0</asrwt>
<pdfrwt beam="1">  1       21 0.13914976E+00 0.22358750E+03</pdfrwt>
<pdfrwt beam="2">  1       21 0.85942509E-02 0.22358750E+03</pdfrwt>
<totfact> 0.37829263E+04</totfact>
</mgrwt>
</event>
<event>
12    1  0.2743855E-001  0.1925982E+03  0.7546771E-02  0.1156147E+00
         21   -1    0    0  502  503  0.00000000000E+00  0.00000000000E+00  0.10909062540E+03  0.10909062540E+03  0.00000000000E+00 0.  1.
         21   -1    0    0  503  504 -0.00000000000E+00 -0.00000000000E+00 -0.50724857804E+03  0.50724857804E+03  0.00000000000E+00 0.  1.
         -6    2    1    2    0  504  0.65378416109E+02 -0.53603271425E+02 -0.37606523265E+03  0.42251522483E+03  0.17305030483E+03 0.  0.
        -24    2    3    3    0    0  0.24230848218E+02  0.21678710815E+02 -0.29492534304E+03  0.30433624666E+03  0.67694110240E+02 0.  0.
          6    2    1    2  502    0 -0.65378416109E+02  0.53603271425E+02 -0.22092719991E+02  0.19382397862E+03  0.17300866571E+03 0.  0.
         24    2    5    5    0    0 -0.11265467535E+03  0.43492470437E+02 -0.55345798812E+01  0.14250599943E+03  0.75462954061E+02 0.  0.
          4    1    6    6  501    0 -0.31743631461E+02 -0.77290735050E+01  0.25927234826E+02  0.41708730757E+02  0.00000000000E+00 0. -1.
         -3    1    6    6    0  501 -0.80911043886E+02  0.51221543942E+02 -0.31461814707E+02  0.10079726867E+03  0.00000000000E+00 0.  1.
          5    1    5    5  502    0  0.47276259239E+02  0.10110800988E+02 -0.16558140110E+02  0.51317979190E+02  0.47000000000E+01 0. -1.
         13    1    4    4    0    0 -0.18911938657E+01 -0.23138292898E+02 -0.93200658830E+02  0.96048529498E+02  0.00000000000E+00 0. -1.
        -14    1    4    4    0    0  0.26122042084E+02  0.44817003713E+02 -0.20172468421E+03  0.20828771717E+03  0.00000000000E+00 0.  1.
         -5    1    3    3    0  504  0.41147567891E+02 -0.75281982240E+02 -0.81139889616E+02  0.11817897817E+03  0.47000000000E+01 0.  1.
<mgrwt>
<rscale>  2 0.19258882E+03</rscale>
<asrwt>0</asrwt>
<pdfrwt beam="1">  1       21 0.16783173E-01 0.19259817E+03</pdfrwt>
<pdfrwt beam="2">  1       21 0.78038242E-01 0.19259817E+03</pdfrwt>
<totfact> 0.46465256E+04</totfact>
</mgrwt>
</event>
<event>
12    1  0.2743855E-001  0.1965530E+03  0.7546771E-02  0.1153059E+00
         21   -1    0    0  502  503  0.00000000000E+00  0.00000000000E+00  0.15161190265E+03  0.15161190265E+03  0.00000000000E+00 0. -1.
         21   -1    0    0  503  504 -0.00000000000E+00 -0.00000000000E+00 -0.26500341147E+03  0.26500341147E+03  0.00000000000E+00 0. -1.
         -6    2    1    2    0  504 -0.65295662549E+02  0.62641106470E+02 -0.10159949002E+03  0.21970892009E+03  0.17251701779E+03 0.  0.
        -24    2    3    3    0    0 -0.35832924100E+02  0.93446037736E+02 -0.11708057287E+03  0.17411560179E+03  0.81192498589E+02 0.  0.
          6    2    1    2  502    0  0.65295662549E+02 -0.62641106470E+02 -0.11792018802E+02  0.19690639403E+03  0.17448680333E+03 0.  0.
         24    2    5    5    0    0  0.11286220994E+03 -0.38120752519E+02 -0.12397699296E+02  0.14318227433E+03  0.78462669662E+02 0.  0.
          4    1    6    6  501    0  0.98893168755E+02 -0.49122302207E+02 -0.33685702280E+02  0.11544516421E+03  0.00000000000E+00 0. -1.
         -3    1    6    6    0  501  0.13969041184E+02  0.11001549688E+02  0.21288002984E+02  0.27737110126E+02  0.00000000000E+00 0.  1.
          5    1    5    5  502    0 -0.47566547389E+02 -0.24520353951E+02  0.60568049422E+00  0.53724119698E+02  0.47000000000E+01 0. -1.
         11    1    4    4    0    0 -0.36093867196E+02  0.89742461008E+02 -0.53717370825E+02  0.11064371869E+03  0.00000000000E+00 0. -1.
        -12    1    4    4    0    0  0.26094309641E+00  0.37035767277E+01 -0.63363202041E+02  0.63471883104E+02  0.00000000000E+00 0.  1.
         -5    1    3    3    0  504 -0.29462738449E+02 -0.30804931266E+02  0.15481082847E+02  0.45593318297E+02  0.47000000000E+01 0.  1.
<mgrwt>
<rscale>  2 0.19611489E+03</rscale>
<asrwt>0</asrwt>
<pdfrwt beam="1">  1       21 0.23324908E-01 0.19655299E+03</pdfrwt>
<pdfrwt beam="2">  1       21 0.40769756E-01 0.19655299E+03</pdfrwt>
<totfact> 0.10001186E+05</totfact>
</mgrwt>
</event>
<event>
12    1  0.2743855E-001  0.1967178E+03  0.7546771E-02  0.1152560E+00
         21   -1    0    0  502  503  0.00000000000E+00  0.00000000000E+00  0.97699979720E+03  0.97699979720E+03  0.00000000000E+00 0.  1.
         21   -1    0    0  503  504 -0.00000000000E+00 -0.00000000000E+00 -0.47203824168E+02  0.47203824168E+02  0.00000000000E+00 0. -1.
         -6    2    1    2    0  504 -0.48405333820E+02  0.80321896693E+02  0.67068496110E+03  0.69893934385E+03  0.17292543453E+03 0.  0.
        -24    2    3    3    0    0 -0.45893488591E+02  0.75008845842E+02  0.23582534820E+03  0.26401462530E+03  0.79734486069E+02 0.  0.
          6    2    1    2  502    0  0.48405333820E+02 -0.80321896693E+02  0.25911101193E+03  0.32526427751E+03  0.17281102480E+03 0.  0.
         24    2    5    5    0    0  0.86549502168E+02 -0.25373316177E+02  0.21153540402E+03  0.24304595506E+03  0.78673296718E+02 0.  0.
          2    1    6    6  501    0  0.96167587857E+02 -0.23574620335E+02  0.14370769514E+03  0.17451610047E+03  0.00000000000E+00 0. -1.
         -1    1    6    6    0  501 -0.96180856889E+01 -0.17986958422E+01  0.67827708873E+02  0.68529854589E+02  0.00000000000E+00 0.  1.
          5    1    5    5  502    0 -0.38144168349E+02 -0.54948580516E+02  0.47575607912E+02  0.82218322459E+02  0.47000000000E+01 0. -1.
         11    1    4    4    0    0  0.70676057173E+00 -0.13403401539E+01 -0.59939948025E+01  0.61825557762E+01  0.00000000000E+00 0. -1.
        -12    1    4    4    0    0 -0.46600249163E+02  0.76349185996E+02  0.24181934301E+03  0.25783206953E+03  0.00000000000E+00 0.  1.
         -5    1    3    3    0  504 -0.25118452284E+01  0.53130508513E+01  0.43485961290E+03  0.43492471855E+03  0.47000000000E+01 0.  1.
<mgrwt>
<rscale>  2 0.19669265E+03</rscale>
<asrwt>0</asrwt>
<pdfrwt beam="1">  1       21 0.15030765E+00 0.19671779E+03</pdfrwt>
<pdfrwt beam="2">  1       21 0.72621275E-02 0.19671779E+03</pdfrwt>
<totfact> 0.42100260E+04</totfact>
</mgrwt>
</event>
<event>
12    1  0.2743855E-001  0.2401895E+03  0.7546771E-02  0.1119736E+00
         21   -1    0    0  502  503  0.00000000000E+00  0.00000000000E+00  0.40344656146E+03  0.40344656146E+03  0.00000000000E+00 0.  1.
         21   -1    0    0  503  504 -0.00000000000E+00 -0.00000000000E+00 -0.15171036561E+03  0.15171036561E+03  0.00000000000E+00 0.  1.
         -6    2    1    2    0  504  0.92072775362E+02 -0.13808790915E+03  0.58500978254E+02  0.24721119914E+03  0.17362415128E+03 0.  0.
        -24    2    3    3    0    0 -0.83943021884E+00 -0.77421389427E+01  0.28980747539E+02  0.84373145302E+02  0.78856189115E+02 0.  0.
          6    2    1    2  502    0 -0.92072775362E+02  0.13808790915E+03  0.19323521760E+03  0.30794572793E+03  0.17304639671E+03 0.  0.
         24    2    5    5    0    0 -0.22303164443E+02  0.80664193403E+02  0.29350746910E+02  0.12074131700E+03  0.81932020884E+02 0.  0.
          4    1    6    6  501    0  0.19669223793E+02  0.48726513193E+02 -0.11787998951E+02  0.53852654269E+02  0.00000000000E+00 0. -1.
         -3    1    6    6    0  501 -0.41972388237E+02  0.31937680210E+02  0.41138745860E+02  0.66888662735E+02  0.00000000000E+00 0.  1.
          5    1    5    5  502    0 -0.69769610919E+02  0.57423715750E+02  0.16388447069E+03  0.18720441093E+03  0.47000000000E+01 0. -1.
         11    1    4    4    0    0 -0.31836403270E+02 -0.20690743745E+02  0.33300971774E+02  0.50503645126E+02  0.00000000000E+00 0. -1.
        -12    1    4    4    0    0  0.30996973052E+02  0.12948604803E+02 -0.43202242356E+01  0.33869500176E+02  0.00000000000E+00 0.  1.
         -5    1    3    3    0  504  0.92912205581E+02 -0.13034577021E+03  0.29520230716E+02  0.16283805384E+03  0.47000000000E+01 0.  1.
<mgrwt>
<rscale>  2 0.24008514E+03</rscale>
<asrwt>0</asrwt>
<pdfrwt beam="1">  1       21 0.62068701E-01 0.24018953E+03</pdfrwt>
<pdfrwt beam="2">  1       21 0.23340056E-01 0.24018953E+03</pdfrwt>
<totfact> 0.40641622E+04</totfact>
</mgrwt>
</event>
<event>
12    1  0.2743855E-001  0.2198231E+03  0.7546771E-02  0.1134044E+00
         21   -1    0    0  502  503  0.00000000000E+00  0.00000000000E+00  0.59234553168E+03  0.59234553168E+03  0.00000000000E+00 0.  1.
         21   -1    0    0  503  504 -0.00000000000E+00 -0.00000000000E+00 -0.98357698179E+02  0.98357698179E+02  0.00000000000E+00 0. -1.
         -6    2    1    2    0  504  0.29383387351E+02  0.13178466161E+03  0.38995351987E+03  0.44764489650E+03  0.17346937833E+03 0.  0.
        -24    2    3    3    0    0 -0.97055316497E+01  0.13456051789E+02  0.22868455291E+03  0.24378373494E+03  0.82816797841E+02 0.  0.
          6    2    1    2  502    0 -0.29383387351E+02 -0.13178466161E+03  0.10403431363E+03  0.24305833336E+03  0.17327329429E+03 0.  0.
         24    2    5    5    0    0  0.26843703454E+02 -0.68008702561E+02  0.46462313437E+00  0.10897765062E+03  0.80809308999E+02 0.  0.
          2    1    6    6  501    0 -0.66356395428E+01 -0.57611815129E+02 -0.27453496127E+02  0.64162663631E+02  0.00000000000E+00 0. -1.
         -1    1    6    6    0  501  0.33479342997E+02 -0.10396887432E+02  0.27918119262E+02  0.44814986990E+02  0.00000000000E+00 0.  1.
          5    1    5    5  502    0 -0.56227090805E+02 -0.63775959051E+02  0.10356969050E+03  0.13408068274E+03  0.47000000000E+01 0. -1.
         13    1    4    4    0    0  0.26580085309E+02  0.12707075409E+02  0.30889181635E+02  0.42686206702E+02  0.00000000000E+00 0. -1.
        -14    1    4    4    0    0 -0.36285616958E+02  0.74897637962E+00  0.19779537128E+03  0.20109752824E+03  0.00000000000E+00 0.  1.
         -5    1    3    3    0  504  0.39088919001E+02  0.11832860982E+03  0.16126896695E+03  0.20386116156E+03  0.47000000000E+01 0.  1.
<mgrwt>
<rscale>  2 0.21978444E+03</rscale>
<asrwt>0</asrwt>
<pdfrwt beam="1">  1       21 0.91130080E-01 0.21982312E+03</pdfrwt>
<pdfrwt beam="2">  1       21 0.15131954E-01 0.21982312E+03</pdfrwt>
<totfact> 0.38850546E+04</totfact>
</mgrwt>
</event>
<event>
12    1  0.2743855E-001  0.3709903E+03  0.7546771E-02  0.1054693E+00
         21   -1    0    0  502  503  0.00000000000E+00  0.00000000000E+00  0.16277246232E+03  0.16277246232E+03  0.00000000000E+00 0. -1.
         21   -1    0    0  503  504 -0.00000000000E+00 -0.00000000000E+00 -0.87970036954E+03  0.87970036954E+03  0.00000000000E+00 0.  1.
         -6    2    1    2    0  504 -0.88777211428E+02  0.31087750558E+03 -0.47568744366E+03  0.60325147690E+03  0.18195489436E+03 0.  0.
        -24    2    3    3    0    0 -0.81008058305E+00  0.45081918801E+02 -0.17652322055E+03  0.19348711480E+03  0.65144305705E+02 0.  0.
          6    2    1    2  502    0  0.88777211428E+02 -0.31087750558E+03 -0.24124046356E+03  0.43922135496E+03  0.17375908796E+03 0.  0.
         24    2    5    5    0    0 -0.11595936075E+02 -0.16685726130E+03 -0.16174654140E+03  0.24645732003E+03  0.81261648755E+02 0.  0.
          2    1    6    6  501    0 -0.21936908601E+02 -0.17202615263E+03 -0.15710188111E+03  0.23399834657E+03  0.00000000000E+00 0. -1.
         -1    1    6    6    0  501  0.10340972526E+02  0.51688913350E+01 -0.46446602923E+01  0.12458973459E+02  0.00000000000E+00 0.  1.
          5    1    5    5  502    0  0.10037314750E+03 -0.14402024429E+03 -0.79493922159E+02  0.19276403493E+03  0.47000000000E+01 0. -1.
         13    1    4    4    0    0  0.12176695299E+02 -0.47131991524E+01 -0.43107327641E+01  0.13750220785E+02  0.00000000000E+00 0. -1.
        -14    1    4    4    0    0 -0.12986775882E+02  0.49795117954E+02 -0.17221248778E+03  0.17973689401E+03  0.00000000000E+00 0.  1.
         -5    1    3    3    0  504 -0.87967130845E+02  0.26579558678E+03 -0.29916422311E+03  0.40976436211E+03  0.47000000000E+01 0.  1.
<mgrwt>
<rscale>  2 0.36999878E+03</rscale>
<asrwt>0</asrwt>
<pdfrwt beam="1">  1       21 0.25041917E-01 0.37099030E+03</pdfrwt>
<pdfrwt beam="2">  1       21 0.13533852E+00 0.37099030E+03</pdfrwt>
<totfact> 0.53100297E+03</totfact>
</mgrwt>
</event>
<event>
12    1  0.2743855E-001  0.1914548E+03  0.7546771E-02  0.1157600E+00
         21   -1    0    0  502  503  0.00000000000E+00  0.00000000000E+00  0.82972303868E+02  0.82972303868E+02  0.00000000000E+00 0. -1.
         21   -1    0    0  503  504 -0.00000000000E+00 -0.00000000000E+00 -0.11471917708E+04  0.11471917708E+04  0.00000000000E+00 0. -1.
         -6    2    1    2    0  504 -0.76717116169E+02 -0.41730597092E+01 -0.10149321931E+04  0.10324668970E+04  0.17319817121E+03 0.  0.
        -24    2    3    3    0    0 -0.10546466927E+03 -0.40682060497E+02 -0.65690329576E+03  0.67140442282E+03  0.80524111207E+02 0.  0.
          6    2    1    2  502    0  0.76717116169E+02  0.41730597092E+01 -0.49287273780E+02  0.19769717760E+03  0.17536250549E+03 0.  0.
         24    2    5    5    0    0  0.54659738027E+02 -0.60358850334E+02 -0.60699954716E+02  0.12839180529E+03  0.78543576367E+02 0.  0.
          4    1    6    6  501    0 -0.26545459879E+01 -0.30026641731E+02  0.10656843564E+02  0.31972083804E+02  0.00000000000E+00 0. -1.
         -3    1    6    6    0  501  0.57314284015E+02 -0.30332208603E+02 -0.71356798279E+02  0.96419721487E+02  0.00000000000E+00 0.  1.
          5    1    5    5  502    0  0.22057378142E+02  0.64531910043E+02  0.11412680936E+02  0.69305372306E+02  0.47000000000E+01 0. -1.
         13    1    4    4    0    0 -0.80624522915E+02 -0.64998579959E+02 -0.51455797817E+03  0.52487621588E+03  0.00000000000E+00 0. -1.
        -14    1    4    4    0    0 -0.24840146355E+02  0.24316519462E+02 -0.14234531759E+03  0.14652820694E+03  0.00000000000E+00 0.  1.
         -5    1    3    3    0  504  0.28747553100E+02  0.36509000788E+02 -0.35802889737E+03  0.36106247423E+03  0.47000000000E+01 0.  1.
<mgrwt>
<rscale>  2 0.19095776E+03</rscale>
<asrwt>0</asrwt>
<pdfrwt beam="1">  1       21 0.12764971E-01 0.19145480E+03</pdfrwt>
<pdfrwt beam="2">  1       21 0.17649102E+00 0.19145480E+03</pdfrwt>
<totfact> 0.10111329E+04</totfact>
</mgrwt>
</event>
<event>
12    1  0.2743855E-001  0.2070638E+03  0.7546771E-02  0.1144639E+00
         21   -1    0    0  502  503  0.00000000000E+00  0.00000000000E+00  0.19542171751E+03  0.19542171751E+03  0.00000000000E+00 0. -1.
         21   -1    0    0  503  504 -0.00000000000E+00 -0.00000000000E+00 -0.30035899605E+03  0.30035899605E+03  0.00000000000E+00 0. -1.
         -6    2    1    2    0  504  0.94309674507E+02  0.63062130332E+02 -0.18379682119E+03  0.27420853281E+03  0.16893164594E+03 0.  0.
        -24    2    3    3    0    0  0.76344059360E+02  0.93123489843E+02 -0.18940085989E+03  0.23843222902E+03  0.80478831672E+02 0.  0.
          6    2    1    2  502    0 -0.94309674507E+02 -0.63062130332E+02  0.78859542642E+02  0.22157218075E+03  0.17321736873E+03 0.  0.
         24    2    5    5    0    0 -0.81318769091E+02 -0.89978432623E+02  0.10389161704E+03  0.18230456431E+03  0.87935348603E+02 0.  0.
          4    1    6    6  501    0 -0.72538128749E+02 -0.10780122775E+03  0.90454820167E+02  0.15831916915E+03  0.00000000000E+00 0. -1.
         -3    1    6    6    0  501 -0.87806403414E+01  0.17822795130E+02  0.13436796869E+02  0.23985395164E+02  0.00000000000E+00 0.  1.
          5    1    5    5  502    0 -0.12990905416E+02  0.26916302290E+02 -0.25032074394E+02  0.39267616441E+02  0.47000000000E+01 0. -1.
         11    1    4    4    0    0  0.51233678409E+02  0.99403365413E+02 -0.11841365175E+03  0.16287329977E+03  0.00000000000E+00 0. -1.
        -12    1    4    4    0    0  0.25110380952E+02 -0.62798755700E+01 -0.70987208146E+02  0.75558929248E+02  0.00000000000E+00 0.  1.
         -5    1    3    3    0  504  0.17965615146E+02 -0.30061359510E+02  0.56040387041E+01  0.35776303792E+02  0.47000000000E+01 0.  1.
<mgrwt>
<rscale>  2 0.20616502E+03</rscale>
<asrwt>0</asrwt>
<pdfrwt beam="1">  1       21 0.30064880E-01 0.20706377E+03</pdfrwt>
<pdfrwt beam="2">  1       21 0.46209076E-01 0.20706377E+03</pdfrwt>
<totfact> 0.47277527E+04</totfact>
</mgrwt>
</event>
<event>
12    1  0.2743855E-001  0.2157179E+03  0.7546771E-02  0.1137155E+00
         21   -1    0    0  502  503  0.00000000000E+00  0.00000000000E+00  0.11892553783E+04  0.11892553783E+04  0.00000000000E+00 0. -1.
         21   -1    0    0  503  504 -0.00000000000E+00 -0.00000000000E+00 -0.46015840438E+02  0.46015840438E+02  0.00000000000E+00 0. -1.
         -6    2    1    2    0  504 -0.99900342227E+02 -0.76375297410E+02  0.33181951000E+03  0.39566614413E+03  0.17502641504E+03 0.  0.
        -24    2    3    3    0    0  0.15485562162E+02 -0.14745150725E+02  0.10738454298E+03  0.13584827267E+03  0.80412007867E+02 0.  0.
          6    2    1    2  502    0  0.99900342227E+02  0.76375297410E+02  0.81142002783E+03  0.83960507457E+03  0.17527394346E+03 0.  0.
         24    2    5    5    0    0  0.11697196588E+03  0.99918791462E+02  0.76354763763E+03  0.78339482472E+03  0.83882362671E+02 0.  0.
          2    1    6    6  501    0  0.10413891086E+03  0.77655736195E+02  0.72818550521E+03  0.73968199662E+03  0.00000000000E+00 0. -1.
         -1    1    6    6    0  501  0.12833055018E+02  0.22263055267E+02  0.35362132420E+02  0.43712828097E+02  0.00000000000E+00 0.  1.
          5    1    5    5  502    0 -0.17071623648E+02 -0.23543494052E+02  0.47872390194E+02  0.56210249857E+02  0.47000000000E+01 0. -1.
         13    1    4    4    0    0 -0.10746913927E+02 -0.30657925351E+02  0.10376523737E+02  0.34103911662E+02  0.00000000000E+00 0. -1.
        -14    1    4    4    0    0  0.26232476089E+02  0.15912774626E+02  0.97008019247E+02  0.10174436100E+03  0.00000000000E+00 0.  1.
         -5    1    3    3    0  504 -0.11538590439E+03 -0.61630146685E+02  0.22443496701E+03  0.25981787146E+03  0.47000000000E+01 0.  1.
<mgrwt>
<rscale>  2 0.21566763E+03</rscale>
<asrwt>0</asrwt>
<pdfrwt beam="1">  1       21 0.18296234E+00 0.21571792E+03</pdfrwt>
<pdfrwt beam="2">  1       21 0.70793610E-02 0.21571792E+03</pdfrwt>
<totfact> 0.25372500E+04</totfact>
</mgrwt>
</event>
<event>
12    1  0.2743855E-001  0.2072506E+03  0.7546771E-02  0.1143919E+00
         21   -1    0    0  502  503  0.00000000000E+00  0.00000000000E+00  0.31418559911E+03  0.31418559911E+03  0.00000000000E+00 0. -1.
         21   -1    0    0  503  504 -0.00000000000E+00 -0.00000000000E+00 -0.17594611623E+03  0.17594611623E+03  0.00000000000E+00 0. -1.
         -6    2    1    2    0  504 -0.52754824003E+02 -0.10156654675E+03  0.18569941283E+03  0.27827522745E+03  0.17278308775E+03 0.  0.
        -24    2    3    3    0    0  0.10023319102E+02 -0.61885437596E+02  0.17582441118E+03  0.20320664992E+03  0.80302208515E+02 0.  0.
          6    2    1    2  502    0  0.52754824003E+02  0.10156654675E+03 -0.47459929942E+02  0.21185648789E+03  0.17184845544E+03 0.  0.
         24    2    5    5    0    0  0.53733873974E+02  0.11846739789E+03  0.12906919039E+02  0.14898484274E+03  0.71470562002E+02 0.  0.
          2    1    6    6  501    0 -0.41651062335E+01  0.21787708038E+02  0.27523819489E+02  0.35349865216E+02  0.00000000000E+00 0. -1.
         -1    1    6    6    0  501  0.57898980207E+02  0.96679689849E+02 -0.14616900450E+02  0.11363497752E+03  0.00000000000E+00 0.  1.
          5    1    5    5  502    0 -0.97904997055E+00 -0.16900851141E+02 -0.60366848980E+02  0.62871645151E+02  0.47000000000E+01 0. -1.
         11    1    4    4    0    0  0.93666529595E+00 -0.22498206758E+02  0.15701750723E+03  0.15862390811E+03  0.00000000000E+00 0. -1.
        -12    1    4    4    0    0  0.90866538058E+01 -0.39387230838E+02  0.18806903948E+02  0.44582741802E+02  0.00000000000E+00 0.  1.
         -5    1    3    3    0  504 -0.62778143105E+02 -0.39681109150E+02  0.98750016517E+01  0.75068577532E+02  0.47000000000E+01 0.  1.
<mgrwt>
<rscale>  2 0.20705573E+03</rscale>
<asrwt>0</asrwt>
<pdfrwt beam="1">  1       21 0.48336246E-01 0.20725065E+03</pdfrwt>
<pdfrwt beam="2">  1       21 0.27068633E-01 0.20725065E+03</pdfrwt>
<totfact> 0.52799798E+04</totfact>
</mgrwt>
</event>
<event>
12    1  0.2743855E-001  0.2467861E+03  0.7546771E-02  0.1115355E+00
         21   -1    0    0  502  503  0.00000000000E+00  0.00000000000E+00  0.42447362045E+03  0.42447362045E+03  0.00000000000E+00 0.  1.
         21   -1    0    0  503  504 -0.00000000000E+00 -0.00000000000E+00 -0.48373047233E+03  0.48373047233E+03  0.00000000000E+00 0.  1.
         -6    2    1    2    0  504  0.16799214896E+03  0.56316194580E+02 -0.41048063211E+03  0.47895484762E+03  0.17178626497E+03 0.  0.
        -24    2    3    3    0    0  0.13702665163E+03 -0.20662235252E+02 -0.29457122241E+03  0.33633078954E+03  0.84516055866E+02 0.  0.
          6    2    1    2  502    0 -0.16799214896E+03 -0.56316194580E+02  0.35122378023E+03  0.42924924517E+03  0.17176697819E+03 0.  0.
         24    2    5    5    0    0 -0.10213090238E+03 -0.85911314336E+02  0.16020359564E+03  0.22498379083E+03  0.84504668095E+02 0.  0.
          4    1    6    6  501    0 -0.75973450269E+02 -0.77682016650E+02  0.66595220808E+02  0.12744168977E+03  0.00000000000E+00 0. -1.
         -3    1    6    6    0  501 -0.26157452106E+02 -0.82292976859E+01  0.93608374831E+02  0.97542101062E+02  0.00000000000E+00 0.  1.
          5    1    5    5  502    0 -0.65861246586E+02  0.29595119756E+02  0.19102018459E+03  0.20426545434E+03  0.47000000000E+01 0. -1.
         13    1    4    4    0    0  0.93215071776E+02  0.85042753116E+01 -0.11016368722E+03  0.14455936596E+03  0.00000000000E+00 0. -1.
        -14    1    4    4    0    0  0.43811579856E+02 -0.29166510563E+02 -0.18440753519E+03  0.19177142358E+03  0.00000000000E+00 0.  1.
         -5    1    3    3    0  504  0.30965497328E+02  0.76978429832E+02 -0.11590940970E+03  0.14262405807E+03  0.47000000000E+01 0.  1.
<mgrwt>
<rscale>  2 0.24678278E+03</rscale>
<asrwt>0</asrwt>
<pdfrwt beam="1">  1       21 0.65303634E-01 0.24678614E+03</pdfrwt>
<pdfrwt beam="2">  1       21 0.74420072E-01 0.24678614E+03</pdfrwt>
<totfact> 0.33504781E+03</totfact>
</mgrwt>
</event>
<event>
12    1  0.2743855E-001  0.1836726E+03  0.7546771E-02  0.1165296E+00
         21   -1    0    0  502  503  0.00000000000E+00  0.00000000000E+00  0.21426200185E+03  0.21426200185E+03  0.00000000000E+00 0. -1.
         21   -1    0    0  503  504 -0.00000000000E+00 -0.00000000000E+00 -0.49946901637E+03  0.49946901637E+03  0.00000000000E+00 0. -1.
         -6    2    1    2    0  504 -0.11363939290E+02 -0.46348777096E+02 -0.43995270956E+03  0.47675361220E+03  0.17736479875E+03 0.  0.
        -24    2    3    3    0    0 -0.51051499531E+02 -0.79392448902E+02 -0.23465525925E+03  0.26500819952E+03  0.79100180614E+02 0.  0.
          6    2    1    2  502    0  0.11363939290E+02  0.46348777096E+02  0.15474569504E+03  0.23697740602E+03  0.17301650955E+03 0.  0.
         24    2    5    5    0    0 -0.39195533625E+02  0.76785290079E+02  0.12112585228E+03  0.16889638479E+03  0.80138917365E+02 0.  0.
          2    1    6    6  501    0 -0.11330080690E+02  0.73353316282E+02  0.11962442591E+03  0.14078026499E+03  0.00000000000E+00 0. -1.
         -1    1    6    6    0  501 -0.27865452935E+02  0.34319737971E+01  0.15014263738E+01  0.28116119799E+02  0.00000000000E+00 0.  1.
          5    1    5    5  502    0  0.50559472915E+02 -0.30436512983E+02  0.33619842759E+02  0.68081021226E+02  0.47000000000E+01 0. -1.
         11    1    4    4    0    0  0.98157353392E+01  0.34816573025E+01 -0.70799516187E+02  0.71561456736E+02  0.00000000000E+00 0. -1.
        -12    1    4    4    0    0 -0.60867234870E+02 -0.82874106205E+02 -0.16385574307E+03  0.19344674279E+03  0.00000000000E+00 0.  1.
         -5    1    3    3    0  504  0.39687560240E+02  0.33043671806E+02 -0.20529745031E+03  0.21174541267E+03  0.47000000000E+01 0.  1.
<mgrwt>
<rscale>  2 0.18261463E+03</rscale>
<asrwt>0</asrwt>
<pdfrwt beam="1">  1       21 0.32963385E-01 0.18367259E+03</pdfrwt>
<pdfrwt beam="2">  1       21 0.76841387E-01 0.18367259E+03</pdfrwt>
<totfact> 0.13420985E+04</totfact>
</mgrwt>
</event>
<event>
12    1  0.2743855E-001  0.2183820E+03  0.7546771E-02  0.1137707E+00
         21   -1    0    0  502  503  0.00000000000E+00  0.00000000000E+00  0.91741512514E+03  0.91741512514E+03  0.00000000000E+00 0.  1.
         21   -1    0    0  503  504 -0.00000000000E+00 -0.00000000000E+00 -0.67974083347E+02  0.67974083347E+02  0.00000000000E+00 0. -1.
         -6    2    1    2    0  504  0.79752289762E+02  0.73486128576E+02  0.15373432250E+03  0.25621260582E+03  0.17392532492E+03 0.  0.
        -24    2    3    3    0    0  0.12156859580E+03  0.40619876618E+02  0.11575672608E+03  0.19069022950E+03  0.80834683958E+02 0.  0.
          6    2    1    2  502    0 -0.79752289762E+02 -0.73486128576E+02  0.69570671929E+03  0.72917660267E+03  0.18955220863E+03 0.  0.
         24    2    5    5    0    0 -0.10572730235E+03 -0.10181097187E+03  0.42209332602E+03  0.45283736006E+03  0.73178974726E+02 0.  0.
          2    1    6    6  501    0 -0.27782480247E+02 -0.73687258674E+02  0.16729334769E+03  0.18490198074E+03  0.00000000000E+00 0. -1.
         -1    1    6    6    0  501 -0.77944822100E+02 -0.28123713197E+02  0.25479997833E+03  0.26793537932E+03  0.00000000000E+00 0.  1.
          5    1    5    5  502    0  0.25975012586E+02  0.28324843296E+02  0.27361339327E+03  0.27633924261E+03  0.47000000000E+01 0. -1.
         11    1    4    4    0    0  0.43391678028E+02  0.52416190575E+01 -0.34140091069E+01  0.43840252629E+02  0.00000000000E+00 0. -1.
        -12    1    4    4    0    0  0.78176917776E+02  0.35378257560E+02  0.11917073519E+03  0.14684997687E+03  0.00000000000E+00 0.  1.
         -5    1    3    3    0  504 -0.41816306042E+02  0.32866251958E+02  0.37977596420E+02  0.65522376320E+02  0.47000000000E+01 0.  1.
<mgrwt>
<rscale>  2 0.21494755E+03</rscale>
<asrwt>0</asrwt>
<pdfrwt beam="1">  1       21 0.14114078E+00 0.21838196E+03</pdfrwt>
<pdfrwt beam="2">  1       21 0.10457552E-01 0.21838196E+03</pdfrwt>
<totfact> 0.25856633E+04</totfact>
</mgrwt>
</event>
<event>
12    1  0.2743855E-001  0.2105680E+03  0.7546771E-02  0.1142506E+00
         21   -1    0    0  502  503  0.00000000000E+00  0.00000000000E+00  0.15054098814E+04  0.15054098814E+04  0.00000000000E+00 0. -1.
         21   -1    0    0  503  504 -0.00000000000E+00 -0.00000000000E+00 -0.29611180701E+02  0.29611180701E+02  0.00000000000E+00 0.  1.
         -6    2    1    2    0  504 -0.77290499774E+02  0.89570936772E+02  0.87512563020E+03  0.89850947009E+03  0.16576376301E+03 0.  0.
        -24    2    3    3    0    0 -0.61106214974E+02 -0.14961360157E+01  0.31094324051E+03  0.32677613919E+03  0.79754237459E+02 0.  0.
          6    2    1    2  502    0  0.77290499774E+02 -0.89570936772E+02  0.60067307050E+03  0.63651159202E+03  0.17418982484E+03 0.  0.
         24    2    5    5    0    0  0.44262703769E+02 -0.86519688190E+02  0.20473605009E+03  0.23915990956E+03  0.76392203406E+02 0.  0.
          4    1    6    6  501    0 -0.12761361139E+02 -0.58872573825E+02  0.99056900366E+02  0.11593576582E+03  0.00000000000E+00 0. -1.
         -3    1    6    6    0  501  0.57024064908E+02 -0.27647114365E+02  0.10567914973E+03  0.12322414373E+03  0.00000000000E+00 0.  1.
          5    1    5    5  502    0  0.33027796005E+02 -0.30512485815E+01  0.39593702041E+03  0.39735168246E+03  0.47000000000E+01 0. -1.
         13    1    4    4    0    0 -0.35944392353E+02  0.21216148180E+02  0.27184349509E+03  0.27502910775E+03  0.00000000000E+00 0. -1.
        -14    1    4    4    0    0 -0.25161822621E+02 -0.22712284196E+02  0.39099745414E+02  0.51747031436E+02  0.00000000000E+00 0.  1.
         -5    1    3    3    0  504 -0.16184284800E+02  0.91067072787E+02  0.56418238970E+03  0.57173333090E+03  0.47000000000E+01 0.  1.
<mgrwt>
<rscale>  2 0.20881743E+03</rscale>
<asrwt>0</asrwt>
<pdfrwt beam="1">  1       21 0.23160146E+00 0.21056797E+03</pdfrwt>
<pdfrwt beam="2">  1       21 0.45555674E-02 0.21056797E+03</pdfrwt>
<totfact> 0.26557063E+04</totfact>
</mgrwt>
</event>
<event>
12    1  0.2743855E-001  0.2173952E+03  0.7546771E-02  0.1137701E+00
         21   -1    0    0  502  503  0.00000000000E+00  0.00000000000E+00  0.15676297985E+03  0.15676297985E+03  0.00000000000E+00 0.  1.
         21   -1    0    0  503  504 -0.00000000000E+00 -0.00000000000E+00 -0.29044368550E+03  0.29044368550E+03  0.00000000000E+00 0. -1.
         -6    2    1    2    0  504  0.81017693338E+02  0.80879243691E+02 -0.84479976632E+02  0.22431348671E+03  0.17341959282E+03 0.  0.
        -24    2    3    3    0    0  0.45531503359E+02  0.81764061314E+02 -0.12102646493E+03  0.17314915940E+03  0.81084811560E+02 0.  0.
          6    2    1    2  502    0 -0.81017693338E+02 -0.80879243691E+02 -0.49200729013E+02  0.22289317865E+03  0.18481163020E+03 0.  0.
         24    2    5    5    0    0  0.23224326872E+02 -0.13545471891E+02 -0.47173650050E+01  0.90979967499E+02  0.86788546399E+02 0.  0.
          2    1    6    6  501    0  0.13776264985E+02  0.96859245691E+01 -0.42452632494E+02  0.45670872746E+02  0.00000000000E+00 0. -1.
         -1    1    6    6    0  501  0.94480618868E+01 -0.23231396460E+02  0.37735267489E+02  0.45309094753E+02  0.00000000000E+00 0.  1.
          5    1    5    5  502    0 -0.10424202021E+03 -0.67333771800E+02 -0.44483364008E+02  0.13191321115E+03  0.47000000000E+01 0. -1.
         13    1    4    4    0    0 -0.11757735980E+02  0.57256832521E+02 -0.39540851263E+02  0.70569597875E+02  0.00000000000E+00 0. -1.
        -14    1    4    4    0    0  0.57289239339E+02  0.24507228793E+02 -0.81485613671E+02  0.10257956152E+03  0.00000000000E+00 0.  1.
         -5    1    3    3    0  504  0.35486189979E+02 -0.88481762258E+00  0.36546488302E+02  0.51164327306E+02  0.47000000000E+01 0.  1.
<mgrwt>
<rscale>  2 0.21495489E+03</rscale>
<asrwt>0</asrwt>
<pdfrwt beam="1">  1       21 0.24117382E-01 0.21739516E+03</pdfrwt>
<pdfrwt beam="2">  1       21 0.44683643E-01 0.21739516E+03</pdfrwt>
<totfact> 0.77168354E+04</totfact>
</mgrwt>
</event>
<event>
12    1  0.2743855E-001  0.2042900E+03  0.7546771E-02  0.1148200E+00
         21   -1    0    0  502  503  0.00000000000E+00  0.00000000000E+00  0.14587048578E+04  0.14587048578E+04  0.00000000000E+00 0. -1.
         21   -1    0    0  503  504 -0.00000000000E+00 -0.00000000000E+00 -0.86056722187E+02  0.86056722187E+02  0.00000000000E+00 0. -1.
         -6    2    1    2    0  504  0.86957883131E+02  0.59652874890E+02  0.53294525788E+02  0.21112719922E+03  0.17496927974E+03 0.  0.
        -24    2    3    3    0    0  0.52633428968E+02  0.76841667565E+02  0.94377038554E+02  0.15470481357E+03  0.79697140584E+02 0.  0.
          6    2    1    2  502    0 -0.86957883131E+02 -0.59652874890E+02  0.13193536098E+04  0.13336343807E+04  0.16360493537E+03 0.  0.
         24    2    5    5    0    0 -0.42795483394E+02 -0.22689552534E+02  0.34362323049E+03  0.35619462922E+03  0.80320733046E+02 0.  0.
          2    1    6    6  501    0 -0.30097365101E+02  0.24891887625E+02  0.94546679948E+02  0.10229629585E+03  0.00000000000E+00 0. -1.
         -1    1    6    6    0  501 -0.12698118293E+02 -0.47581440160E+02  0.24907655054E+03  0.25389833336E+03  0.00000000000E+00 0.  1.
          5    1    5    5  502    0 -0.44162399737E+02 -0.36963322355E+02  0.97573037931E+03  0.97743975152E+03  0.47000000000E+01 0. -1.
         11    1    4    4    0    0  0.17485501151E+02  0.77842107279E+02  0.38259337999E+02  0.88481146920E+02  0.00000000000E+00 0. -1.
        -12    1    4    4    0    0  0.35147927816E+02 -0.10004397134E+01  0.56117700554E+02  0.66223666653E+02  0.00000000000E+00 0.  1.
         -5    1    3    3    0  504  0.34324454163E+02 -0.17188792676E+02 -0.41082512766E+02  0.56422385650E+02  0.47000000000E+01 0.  1.
<mgrwt>
<rscale>  2 0.20183484E+03</rscale>
<asrwt>0</asrwt>
<pdfrwt beam="1">  1       21 0.22441611E+00 0.20428996E+03</pdfrwt>
<pdfrwt beam="2">  1       21 0.13239497E-01 0.20428996E+03</pdfrwt>
<totfact> 0.45975680E+03</totfact>
</mgrwt>
</event>
<event>
12    1  0.2743855E-001  0.3563400E+03  0.7546771E-02  0.1060057E+00
         21   -1    0    0  502  503  0.00000000000E+00  0.00000000000E+00  0.32642413479E+03  0.32642413479E+03  0.00000000000E+00 0. -1.
         21   -1    0    0  503  504 -0.00000000000E+00 -0.00000000000E+00 -0.11102617185E+04  0.11102617185E+04  0.00000000000E+00 0.  1.
         -6    2    1    2    0  504  0.31067399003E+03  0.31136694443E+02 -0.97099044031E+03  0.10343116593E+04  0.17172755059E+03 0.  0.
        -24    2    3    3    0    0  0.14248950316E+03  0.24443623743E+01 -0.65050163837E+03  0.67120777101E+03  0.84013433014E+02 0.  0.
          6    2    1    2  502    0 -0.31067399003E+03 -0.31136694443E+02  0.18715285655E+03  0.40237419401E+03  0.17143797265E+03 0.  0.
         24    2    5    5    0    0 -0.79531317297E+02  0.20040217989E+02  0.19703707426E+02  0.11236157520E+03  0.74229688989E+02 0.  0.
          2    1    6    6  501    0 -0.77250130218E+02  0.40952348061E+02  0.68332081956E+01  0.87700457038E+02  0.00000000000E+00 0. -1.
         -1    1    6    6    0  501 -0.22811870788E+01 -0.20912130072E+02  0.12870499230E+02  0.24661118163E+02  0.00000000000E+00 0.  1.
          5    1    5    5  502    0 -0.23114267273E+03 -0.51176912432E+02  0.16744914913E+03  0.29001261881E+03  0.47000000000E+01 0. -1.
         11    1    4    4    0    0  0.22245972189E+02  0.27083916163E+02 -0.24628516896E+03  0.24876656979E+03  0.00000000000E+00 0. -1.
        -12    1    4    4    0    0  0.12024353097E+03 -0.24639553789E+02 -0.40421646941E+03  0.42244120123E+03  0.00000000000E+00 0.  1.
         -5    1    3    3    0  504  0.16818448687E+03  0.28692332068E+02 -0.32048880194E+03  0.36310388832E+03  0.47000000000E+01 0.  1.
<mgrwt>
<rscale>  2 0.35630510E+03</rscale>
<asrwt>0</asrwt>
<pdfrwt beam="1">  1       21 0.50219099E-01 0.35633997E+03</pdfrwt>
<pdfrwt beam="2">  1       21 0.17080949E+00 0.35633997E+03</pdfrwt>
<totfact> 0.69645864E+02</totfact>
</mgrwt>
</event>
<event>
12    1  0.2743855E-001  0.1790130E+03  0.7546771E-02  0.1169390E+00
         21   -1    0    0  502  503  0.00000000000E+00  0.00000000000E+00  0.35928912945E+02  0.35928912945E+02  0.00000000000E+00 0. -1.
         21   -1    0    0  503  504 -0.00000000000E+00 -0.00000000000E+00 -0.88521299653E+03  0.88521299653E+03  0.00000000000E+00 0. -1.
         -6    2    1    2    0  504 -0.26183313347E+01  0.41677273449E+02 -0.46560296573E+03  0.49883042403E+03  0.17407417805E+03 0.  0.
        -24    2    3    3    0    0  0.22418972134E+02  0.79151849662E+02 -0.29701634919E+03  0.32426024416E+03  0.10078873268E+03 0.  0.
          6    2    1    2  502    0  0.26183313347E+01 -0.41677273449E+02 -0.38368111786E+03  0.42231148544E+03  0.17144077623E+03 0.  0.
         24    2    5    5    0    0  0.15597051878E+02 -0.56832626721E+02 -0.38862787800E+03  0.40122375546E+03  0.80471478778E+02 0.  0.
          2    1    6    6  501    0  0.26466912836E+02  0.10058537873E+01 -0.23860781971E+03  0.24007332389E+03  0.00000000000E+00 0. -1.
         -1    1    6    6    0  501 -0.10869860958E+02 -0.57838480509E+02 -0.15002005829E+03  0.16115043157E+03  0.00000000000E+00 0.  1.
          5    1    5    5  502    0 -0.12978720544E+02  0.15155353272E+02  0.49467601486E+01  0.21087729980E+02  0.47000000000E+01 0. -1.
         11    1    4    4    0    0  0.36503061505E+02 -0.49767369826E+01 -0.14839926541E+03  0.15290383705E+03  0.00000000000E+00 0. -1.
        -12    1    4    4    0    0 -0.14084089370E+02  0.84128586645E+02 -0.14861708379E+03  0.17135640711E+03  0.00000000000E+00 0.  1.
         -5    1    3    3    0  504 -0.25037303469E+02 -0.37474576213E+02 -0.16858661653E+03  0.17457017987E+03  0.47000000000E+01 0.  1.
<mgrwt>
<rscale>  2 0.17836967E+03</rscale>
<asrwt>0</asrwt>
<pdfrwt beam="1">  1       21 0.55275250E-02 0.17901304E+03</pdfrwt>
<pdfrwt beam="2">  1       21 0.13618662E+00 0.17901304E+03</pdfrwt>
<totfact> 0.87704286E+04</totfact>
</mgrwt>
</event>
<event>
12    1  0.2743855E-001  0.1777816E+03  0.7546771E-02  0.1170444E+00
         21   -1    0    0  502  503  0.00000000000E+00  0.00000000000E+00  0.82609705144E+03  0.82609705144E+03  0.00000000000E+00 0.  1.
         21   -1    0    0  503  504 -0.00000000000E+00 -0.00000000000E+00 -0.14975676473E+03  0.14975676473E+03  0.00000000000E+00 0.  1.
         -6    2    1    2    0  504 -0.33552652248E+02 -0.33485620393E+01 -0.83153583094E+02  0.19626716170E+03  0.17455453887E+03 0.  0.
        -24    2    3    3    0    0 -0.14398191126E+02  0.49330088546E+02  0.31623889819E+01  0.93240608600E+02  0.77737023639E+02 0.  0.
          6    2    1    2  502    0  0.33552652248E+02  0.33485620393E+01  0.75949386981E+03  0.77958665447E+03  0.17259032477E+03 0.  0.
         24    2    5    5    0    0  0.22195830785E+02 -0.60345810281E+02  0.58500457285E+03  0.59342931453E+03  0.76116551184E+02 0.  0.
          2    1    6    6  501    0  0.21664906057E+02 -0.48823770619E+02  0.16846896717E+03  0.17673404208E+03  0.00000000000E+00 0. -1.
         -1    1    6    6    0  501  0.53092472766E+00 -0.11522039663E+02  0.41653560568E+03  0.41669527245E+03  0.00000000000E+00 0.  1.
          5    1    5    5  502    0  0.11356821463E+02  0.63694372321E+02  0.17448929696E+03  0.18615733994E+03  0.47000000000E+01 0. -1.
         13    1    4    4    0    0 -0.29979520739E+02  0.34381661688E+01 -0.23205730172E+02  0.38067027243E+02  0.00000000000E+00 0. -1.
        -14    1    4    4    0    0  0.15581329613E+02  0.45891922378E+02  0.26368119154E+02  0.55173581357E+02  0.00000000000E+00 0.  1.
         -5    1    3    3    0  504 -0.19154461122E+02 -0.52678650586E+02 -0.86315972076E+02  0.10302655310E+03  0.47000000000E+01 0.  1.
<mgrwt>
<rscale>  2 0.17729754E+03</rscale>
<asrwt>0</asrwt>
<pdfrwt beam="1">  1       21 0.12709185E+00 0.17778155E+03</pdfrwt>
<pdfrwt beam="2">  1       21 0.23039503E-01 0.17778155E+03</pdfrwt>
<totfact> 0.81880501E+03</totfact>
</mgrwt>
</event>
<event>
12    1  0.2743855E-001  0.2499325E+03  0.7546771E-02  0.1114322E+00
         21   -1    0    0  502  503  0.00000000000E+00  0.00000000000E+00  0.99511282189E+03  0.99511282189E+03  0.00000000000E+00 0. -1.
         21   -1    0    0  503  504 -0.00000000000E+00 -0.00000000000E+00 -0.10722611774E+03  0.10722611774E+03  0.00000000000E+00 0. -1.
         -6    2    1    2    0  504  0.17444068079E+03 -0.42003809678E+02  0.86189098832E+02  0.26437631739E+03  0.17398967008E+03 0.  0.
        -24    2    3    3    0    0  0.15150005610E+03 -0.76119290059E+02  0.10912640554E+03  0.21706513159E+03  0.80388342742E+02 0.  0.
          6    2    1    2  502    0 -0.17444068079E+03  0.42003809678E+02  0.80169760531E+03  0.83796262224E+03  0.16513156803E+03 0.  0.
         24    2    5    5    0    0 -0.91904671860E+02 -0.38270002882E+02  0.44165472602E+03  0.45992949844E+03  0.81025827333E+02 0.  0.
          2    1    6    6  501    0  0.11319815821E+01  0.18250836339E+02  0.44119803940E+02  0.47759098705E+02  0.00000000000E+00 0. -1.
         -1    1    6    6    0  501 -0.93036653443E+02 -0.56520839222E+02  0.39753492208E+03  0.41217039974E+03  0.00000000000E+00 0.  1.
          5    1    5    5  502    0 -0.82536008932E+02  0.80273812561E+02  0.36004287930E+03  0.37803312380E+03  0.47000000000E+01 0. -1.
         13    1    4    4    0    0  0.76914434792E+02 -0.11941816634E+02  0.11906550155E+02  0.78741369054E+02  0.00000000000E+00 0. -1.
        -14    1    4    4    0    0  0.74585621307E+02 -0.64177473425E+02  0.97219855383E+02  0.13832376253E+03  0.00000000000E+00 0.  1.
         -5    1    3    3    0  504  0.22940624693E+02  0.34115480381E+02 -0.22937306705E+02  0.47311185800E+02  0.47000000000E+01 0.  1.
<mgrwt>
<rscale>  2 0.24839756E+03</rscale>
<asrwt>0</asrwt>
<pdfrwt beam="1">  1       21 0.15309427E+00 0.24993254E+03</pdfrwt>
<pdfrwt beam="2">  1       21 0.16496326E-01 0.24993254E+03</pdfrwt>
<totfact> 0.89712259E+03</totfact>
</mgrwt>
</event>
<event>
12    1  0.2743855E-001  0.3672538E+03  0.7546771E-02  0.1056126E+00
         21   -1    0    0  502  503  0.00000000000E+00  0.00000000000E+00  0.33386752384E+03  0.33386752384E+03  0.00000000000E+00 0.  1.
         21   -1    0    0  503  504 -0.00000000000E+00 -0.00000000000E+00 -0.49805988431E+03  0.49805988431E+03  0.00000000000E+00 0. -1.
         -6    2    1    2    0  504  0.25631434877E+03 -0.19131429798E+03  0.10239269029E+03  0.38126059365E+03  0.18049147141E+03 0.  0.
        -24    2    3    3    0    0  0.20651077474E+03 -0.13696587902E+03  0.62050169469E+01  0.25998279217E+03  0.78397690592E+02 0.  0.
          6    2    1    2  502    0 -0.25631434877E+03  0.19131429798E+03 -0.26658505076E+03  0.45066681450E+03  0.17243776387E+03 0.  0.
         24    2    5    5    0    0 -0.21288934856E+03  0.16380336278E+03 -0.28058458488E+03  0.39718168428E+03  0.82898520312E+02 0.  0.
          2    1    6    6  501    0 -0.81646906712E+02  0.33142900838E+02 -0.13679942898E+03  0.16272293330E+03  0.00000000000E+00 0. -1.
         -1    1    6    6    0  501 -0.13124244185E+03  0.13066046194E+03 -0.14378515590E+03  0.23445875099E+03  0.00000000000E+00 0.  1.
          5    1    5    5  502    0 -0.43425000206E+02  0.27510935202E+02  0.13999534125E+02  0.53485130216E+02  0.47000000000E+01 0. -1.
         13    1    4    4    0    0  0.10081027642E+03 -0.34206148902E+02 -0.24876689238E+02  0.10932347471E+03  0.00000000000E+00 0. -1.
        -14    1    4    4    0    0  0.10570049832E+03 -0.10275973012E+03  0.31081706185E+02  0.15065931746E+03  0.00000000000E+00 0.  1.
         -5    1    3    3    0  504  0.49803574025E+02 -0.54348418965E+02  0.96187673342E+02  0.12127780148E+03  0.47000000000E+01 0.  1.
<mgrwt>
<rscale>  2 0.36627735E+03</rscale>
<asrwt>0</asrwt>
<pdfrwt beam="1">  1       21 0.51364235E-01 0.36725383E+03</pdfrwt>
<pdfrwt beam="2">  1       21 0.76624597E-01 0.36725383E+03</pdfrwt>
<totfact> 0.49470773E+03</totfact>
</mgrwt>
</event>
<event>
12    1  0.2743855E-001  0.1838404E+03  0.7546771E-02  0.1164337E+00
         21   -1    0    0  502  503  0.00000000000E+00  0.00000000000E+00  0.25932839662E+03  0.25932839662E+03  0.00000000000E+00 0. -1.
         21   -1    0    0  503  504 -0.00000000000E+00 -0.00000000000E+00 -0.17616914695E+03  0.17616914695E+03  0.00000000000E+00 0. -1.
         -6    2    1    2    0  504  0.49871889134E+02  0.34373954355E+02 -0.70151761383E+02  0.19677030360E+03  0.17357565696E+03 0.  0.
        -24    2    3    3    0    0  0.11489960637E+02  0.58813648914E+02 -0.10033016085E+03  0.14196795968E+03  0.80608286828E+02 0.  0.
          6    2    1    2  502    0 -0.49871889134E+02 -0.34373954355E+02  0.15331101106E+03  0.23872723997E+03  0.17267789357E+03 0.  0.
         24    2    5    5    0    0  0.29775663994E+02 -0.54487096907E+02  0.76672331082E+02  0.12628237129E+03  0.78823581817E+02 0.  0.
          4    1    6    6  501    0  0.27883530497E+02 -0.99578383826E+01 -0.79355364256E+01  0.30653263392E+02  0.00000000000E+00 0. -1.
         -3    1    6    6    0  501  0.18921334967E+01 -0.44529258525E+02  0.84607867508E+02  0.95629107902E+02  0.00000000000E+00 0.  1.
          5    1    5    5  502    0 -0.79647553128E+02  0.20113142553E+02  0.76638679973E+02  0.11244486867E+03  0.47000000000E+01 0. -1.
         13    1    4    4    0    0  0.11615481849E+02 -0.18090578044E+02 -0.34927273463E+02  0.41013447357E+02  0.00000000000E+00 0. -1.
        -14    1    4    4    0    0 -0.12552121123E+00  0.76904226958E+02 -0.65402887385E+02  0.10095451232E+03  0.00000000000E+00 0.  1.
         -5    1    3    3    0  504  0.38381928496E+02 -0.24439694559E+02  0.30178399465E+02  0.54802343924E+02  0.47000000000E+01 0.  1.
<mgrwt>
<rscale>  2 0.18362816E+03</rscale>
<asrwt>0</asrwt>
<pdfrwt beam="1">  1       21 0.39896676E-01 0.18384037E+03</pdfrwt>
<pdfrwt beam="2">  1       21 0.27102946E-01 0.18384037E+03</pdfrwt>
<totfact> 0.78839397E+04</totfact>
</mgrwt>
</event>
<event>
12    1  0.2743855E-001  0.1839906E+03  0.7546771E-02  0.1164343E+00
         21   -1    0    0  502  503  0.00000000000E+00  0.00000000000E+00  0.77334539825E+02  0.77334539825E+02  0.00000000000E+00 0. -1.
         21   -1    0    0  503  504 -0.00000000000E+00 -0.00000000000E+00 -0.50947908128E+03  0.50947908128E+03  0.00000000000E+00 0. -1.
         -6    2    1    2    0  504 -0.87797245394E+01  0.59073915968E+02 -0.32807844018E+03  0.37543173720E+03  0.17247236089E+03 0.  0.
        -24    2    3    3    0    0 -0.49237804141E+02  0.11357439755E+02 -0.99904804189E+02  0.13879062397E+03  0.82027523476E+02 0.  0.
          6    2    1    2  502    0  0.87797245394E+01 -0.59073915968E+02 -0.10406610127E+03  0.21138188390E+03  0.17402797562E+03 0.  0.
         24    2    5    5    0    0  0.27822748629E+02  0.15437642347E+01  0.37923862777E+01  0.86111443433E+02  0.81389863909E+02 0.  0.
          4    1    6    6  501    0  0.56546038276E+02  0.63344805099E+01  0.30672396720E+01  0.56982348559E+02  0.00000000000E+00 0. -1.
         -3    1    6    6    0  501 -0.28723289647E+02 -0.47907162752E+01  0.72514660569E+00  0.29129094874E+02  0.00000000000E+00 0.  1.
          5    1    5    5  502    0 -0.19043024090E+02 -0.60617680203E+02 -0.10785848755E+03  0.12527044047E+03  0.47000000000E+01 0. -1.
         11    1    4    4    0    0 -0.42168857369E+02  0.80161943688E+01 -0.11447343537E+03  0.12225644895E+03  0.00000000000E+00 0. -1.
        -12    1    4    4    0    0 -0.70689467720E+01  0.33412453862E+01  0.14568631181E+02  0.16534175023E+02  0.00000000000E+00 0.  1.
         -5    1    3    3    0  504  0.40458079602E+02  0.47716476213E+02 -0.22817363599E+03  0.23664111323E+03  0.47000000000E+01 0.  1.
<mgrwt>
<rscale>  2 0.18362184E+03</rscale>
<asrwt>0</asrwt>
<pdfrwt beam="1">  1       21 0.11897622E-01 0.18399062E+03</pdfrwt>
<pdfrwt beam="2">  1       21 0.78381396E-01 0.18399062E+03</pdfrwt>
<totfact> 0.86127564E+04</totfact>
</mgrwt>
</event>
<event>
12    1  0.2743855E-001  0.2051875E+03  0.7546771E-02  0.1145818E+00
         21   -1    0    0  502  503  0.00000000000E+00  0.00000000000E+00  0.67897419501E+02  0.67897419501E+02  0.00000000000E+00 0. -1.
         21   -1    0    0  503  504 -0.00000000000E+00 -0.00000000000E+00 -0.98770812489E+03  0.98770812489E+03  0.00000000000E+00 0. -1.
         -6    2    1    2    0  504 -0.95981527280E+02 -0.53090762336E+02 -0.78305746640E+03  0.80902219325E+03  0.17119237970E+03 0.  0.
        -24    2    3    3    0    0 -0.71910615756E+02 -0.66472380521E+02 -0.76589267665E+03  0.77623200426E+03  0.79717113989E+02 0.  0.
          6    2    1    2  502    0  0.95981527280E+02  0.53090762336E+02 -0.13675323899E+03  0.24658335114E+03  0.17340939438E+03 0.  0.
         24    2    5    5    0    0  0.83971966051E+02 -0.36484582003E+01 -0.22743315601E+02  0.11858365841E+03  0.80499834207E+02 0.  0.
          2    1    6    6  501    0  0.95440164225E+02  0.10841858509E+02 -0.10983965028E+02  0.96679978956E+02  0.00000000000E+00 0. -1.
         -1    1    6    6    0  501 -0.11468198173E+02 -0.14490316709E+02 -0.11759350573E+02  0.21903679453E+02  0.00000000000E+00 0.  1.
          5    1    5    5  502    0  0.12009561229E+02  0.56739220536E+02 -0.11400992339E+03  0.12799969273E+03  0.47000000000E+01 0. -1.
         13    1    4    4    0    0 -0.13341874253E+02 -0.49711190055E+02 -0.53385718734E+03  0.53633264351E+03  0.00000000000E+00 0. -1.
        -14    1    4    4    0    0 -0.58568741503E+02 -0.16761190466E+02 -0.23203548931E+03  0.23989936075E+03  0.00000000000E+00 0.  1.
         -5    1    3    3    0  504 -0.24070911524E+02  0.13381618185E+02 -0.17164789746E+02  0.32790188988E+02  0.47000000000E+01 0.  1.
<mgrwt>
<rscale>  2 0.20471832E+03</rscale>
<asrwt>0</asrwt>
<pdfrwt beam="1">  1       21 0.10445757E-01 0.20518748E+03</pdfrwt>
<pdfrwt beam="2">  1       21 0.15195509E+00 0.20518748E+03</pdfrwt>
<totfact> 0.21519288E+04</totfact>
</mgrwt>
</event>
<event>
12    1  0.2743855E-001  0.2218760E+03  0.7546771E-02  0.1132557E+00
         21   -1    0    0  502  503  0.00000000000E+00  0.00000000000E+00  0.50468634349E+03  0.50468634349E+03  0.00000000000E+00 0.  1.
         21   -1    0    0  503  504 -0.00000000000E+00 -0.00000000000E+00 -0.11393001005E+03  0.11393001005E+03  0.00000000000E+00 0. -1.
         -6    2    1    2    0  504  0.68581844893E+02 -0.11994050744E+03  0.31310106919E+03  0.38354342367E+03  0.17315912779E+03 0.  0.
        -24    2    3    3    0    0  0.37922980859E+02 -0.47091271163E+02  0.56294170188E+02  0.11480777187E+03  0.79724842983E+02 0.  0.
          6    2    1    2  502    0 -0.68581844893E+02  0.11994050744E+03  0.77655264240E+02  0.23507292987E+03  0.17360802839E+03 0.  0.
         24    2    5    5    0    0 -0.65923117541E+02  0.10540406087E+03  0.12295349781E+03  0.18719394623E+03  0.66844127688E+02 0.  0.
          4    1    6    6  501    0 -0.57515155649E+02  0.59693325102E+02  0.39845384122E+02  0.91972500385E+02  0.00000000000E+00 0. -1.
         -3    1    6    6    0  501 -0.84079618915E+01  0.45710735765E+02  0.83108113689E+02  0.95221445843E+02  0.00000000000E+00 0.  1.
          5    1    5    5  502    0 -0.26587273524E+01  0.14536446572E+02 -0.45298233572E+02  0.47878983644E+02  0.47000000000E+01 0. -1.
         13    1    4    4    0    0  0.43888274505E+02  0.80149028927E+01  0.24062540054E+02  0.50689497347E+02  0.00000000000E+00 0. -1.
        -14    1    4    4    0    0 -0.59652936460E+01 -0.55106174056E+02  0.32231630134E+02  0.64118274528E+02  0.00000000000E+00 0.  1.
         -5    1    3    3    0  504  0.30658864034E+02 -0.72849236276E+02  0.25680689901E+03  0.26873565180E+03  0.47000000000E+01 0.  1.
<mgrwt>
<rscale>  2 0.22178814E+03</rscale>
<asrwt>0</asrwt>
<pdfrwt beam="1">  1       21 0.77644052E-01 0.22187596E+03</pdfrwt>
<pdfrwt beam="2">  1       21 0.17527694E-01 0.22187596E+03</pdfrwt>
<totfact> 0.42754534E+04</totfact>
</mgrwt>
</event>
<event>
12    1  0.2743855E-001  0.2018011E+03  0.7546771E-02  0.1152221E+00
         21   -1    0    0  502  503  0.00000000000E+00  0.00000000000E+00  0.10542421496E+04  0.10542421496E+04  0.00000000000E+00 0. -1.
         21   -1    0    0  503  504 -0.00000000000E+00 -0.00000000000E+00 -0.11298679798E+03  0.11298679798E+03  0.00000000000E+00 0. -1.
         -6    2    1    2    0  504 -0.64507705277E+02  0.19753569029E+02 -0.20314546758E+02  0.18471158382E+03  0.17074612985E+03 0.  0.
        -24    2    3    3    0    0 -0.78501861012E+02  0.66355724828E+02 -0.35350731272E+02  0.13356694418E+03  0.77619778251E+02 0.  0.
          6    2    1    2  502    0  0.64507705277E+02 -0.19753569029E+02  0.96156989834E+03  0.98251736371E+03  0.19019004463E+03 0.  0.
         24    2    5    5    0    0  0.59539500202E+02  0.62978281907E+02  0.50847718186E+03  0.52188264732E+03  0.79380331472E+02 0.  0.
          2    1    6    6  501    0  0.59502431488E+02  0.63016286784E+01  0.29521244462E+03  0.30121526743E+03  0.00000000000E+00 0. -1.
         -1    1    6    6    0  501  0.37068713549E-01  0.56676653229E+02  0.21326473724E+03  0.22066737988E+03  0.00000000000E+00 0.  1.
          5    1    5    5  502    0  0.49682050749E+01 -0.82731850937E+02  0.45309271648E+03  0.46063471639E+03  0.47000000000E+01 0. -1.
         11    1    4    4    0    0 -0.61864089763E+02  0.53831039238E+01 -0.32999219031E+02  0.70321347162E+02  0.00000000000E+00 0. -1.
        -12    1    4    4    0    0 -0.16637771249E+02  0.60972620904E+02 -0.23515122411E+01  0.63245597016E+02  0.00000000000E+00 0.  1.
         -5    1    3    3    0  504  0.13994155735E+02 -0.46602155799E+02  0.15036184514E+02  0.51144639646E+02  0.47000000000E+01 0.  1.
<mgrwt>
<rscale>  2 0.19708593E+03</rscale>
<asrwt>0</asrwt>
<pdfrwt beam="1">  1       21 0.16219109E+00 0.20180114E+03</pdfrwt>
<pdfrwt beam="2">  1       21 0.17382585E-01 0.20180114E+03</pdfrwt>
<totfact> 0.72109401E+03</totfact>
</mgrwt>
</event>
<event>
12    1  0.2743855E-001  0.1800073E+03  0.7546771E-02  0.1168078E+00
         21   -1    0    0  502  503  0.00000000000E+00  0.00000000000E+00  0.32257515400E+03  0.32257515400E+03  0.00000000000E+00 0. -1.
         21   -1    0    0  503  504 -0.00000000000E+00 -0.00000000000E+00 -0.40116454173E+03  0.40116454173E+03  0.00000000000E+00 0. -1.
         -6    2    1    2    0  504 -0.36811295516E+02  0.23166242483E+02 -0.35296813517E+03  0.39621853275E+03  0.17467362418E+03 0.  0.
        -24    2    3    3    0    0 -0.27249012757E+02 -0.21081845748E+02 -0.81314840831E+02  0.12077900602E+03  0.82392427073E+02 0.  0.
          6    2    1    2  502    0  0.36811295516E+02 -0.23166242483E+02  0.27437874743E+03  0.32752116298E+03  0.17347815104E+03 0.  0.
         24    2    5    5    0    0 -0.24231649595E+02  0.26155708975E+02  0.20466167375E+03  0.22244282836E+03  0.79518030867E+02 0.  0.
          4    1    6    6  501    0 -0.17661145298E+02  0.37840578657E+02  0.20482277753E+03  0.20903635005E+03  0.00000000000E+00 0. -1.
         -3    1    6    6    0  501 -0.65705042973E+01 -0.11684869682E+02 -0.16110378449E+00  0.13406478309E+02  0.00000000000E+00 0.  1.
          5    1    5    5  502    0  0.61042945111E+02 -0.49321951458E+02  0.69717073688E+02  0.10507833462E+03  0.47000000000E+01 0. -1.
         11    1    4    4    0    0 -0.19725360775E+02  0.21052075654E+02  0.43623044115E-01  0.28849292019E+02  0.00000000000E+00 0. -1.
        -12    1    4    4    0    0 -0.75236519816E+01 -0.42133921402E+02 -0.81358463875E+02  0.91929713999E+02  0.00000000000E+00 0.  1.
         -5    1    3    3    0  504 -0.95622827592E+01  0.44248088231E+02 -0.27165329433E+03  0.27543952673E+03  0.47000000000E+01 0.  1.
<mgrwt>
<rscale>  2 0.17971662E+03</rscale>
<asrwt>0</asrwt>
<pdfrwt beam="1">  1       21 0.49626947E-01 0.18000728E+03</pdfrwt>
<pdfrwt beam="2">  1       21 0.61717622E-01 0.18000728E+03</pdfrwt>
<totfact> 0.95217777E+03</totfact>
</mgrwt>
</event>
<event>
12    1  0.2743855E-001  0.2178489E+03  0.7546771E-02  0.1135773E+00
         21   -1    0    0  502  503  0.00000000000E+00  0.00000000000E+00  0.18585502878E+03  0.18585502878E+03  0.00000000000E+00 0. -1.
         21   -1    0    0  503  504 -0.00000000000E+00 -0.00000000000E+00 -0.54549624152E+03  0.54549624152E+03  0.00000000000E+00 0. -1.
         -6    2    1    2    0  504  0.40993613621E+02 -0.12491874388E+03 -0.44701239444E+03  0.49663474937E+03  0.17187444419E+03 0.  0.
        -24    2    3    3    0    0 -0.23521178083E+02 -0.99259934199E+01 -0.15116977378E+03  0.17270506995E+03  0.79517102054E+02 0.  0.
          6    2    1    2  502    0 -0.40993613621E+02  0.12491874388E+03  0.87371181691E+02  0.23471652093E+03  0.17370363519E+03 0.  0.
         24    2    5    5    0    0 -0.14344612369E+02  0.14132807634E+03  0.24778078134E+02  0.16457792904E+03  0.79325585425E+02 0.  0.
          2    1    6    6  501    0  0.18570158274E+02  0.11802616670E+03  0.48049060017E+01  0.11957472110E+03  0.00000000000E+00 0. -1.
         -1    1    6    6    0  501 -0.32914770643E+02  0.23301909641E+02  0.19973172132E+02  0.45003207935E+02  0.00000000000E+00 0.  1.
          5    1    5    5  502    0 -0.26649001251E+02 -0.16409332464E+02  0.62593103558E+02  0.70138591892E+02  0.47000000000E+01 0. -1.
         11    1    4    4    0    0 -0.46577901027E+02 -0.25356503219E+02 -0.76819245710E+02  0.93346931557E+02  0.00000000000E+00 0. -1.
        -12    1    4    4    0    0  0.23056722944E+02  0.15430509799E+02 -0.74350528066E+02  0.79358138393E+02  0.00000000000E+00 0.  1.
         -5    1    3    3    0  504  0.64514791704E+02 -0.11499275046E+03 -0.29584262066E+03  0.32392967942E+03  0.47000000000E+01 0.  1.
<mgrwt>
<rscale>  2 0.21748401E+03</rscale>
<asrwt>0</asrwt>
<pdfrwt beam="1">  1       21 0.28593081E-01 0.21784885E+03</pdfrwt>
<pdfrwt beam="2">  1       21 0.83922499E-01 0.21784885E+03</pdfrwt>
<totfact> 0.14203929E+04</totfact>
</mgrwt>
</event>
<event>
12    1  0.2743855E-001  0.2145354E+03  0.7546771E-02  0.1138540E+00
         21   -1    0    0  502  503  0.00000000000E+00  0.00000000000E+00  0.52765645462E+03  0.52765645462E+03  0.00000000000E+00 0.  1.
         21   -1    0    0  503  504 -0.00000000000E+00 -0.00000000000E+00 -0.10979018833E+03  0.10979018833E+03  0.00000000000E+00 0. -1.
         -6    2    1    2    0  504 -0.97305997402E+02 -0.81485634472E+02  0.62051604496E+02  0.22332899147E+03  0.17296551984E+03 0.  0.
        -24    2    3    3    0    0 -0.53980590047E+02  0.21941861390E+02  0.51571754360E+02  0.11060696575E+03  0.78606015302E+02 0.  0.
          6    2    1    2  502    0  0.97305997402E+02  0.81485634472E+02  0.35581466180E+03  0.41411765149E+03  0.16964960939E+03 0.  0.
         24    2    5    5    0    0  0.12322063906E+03  0.66647680975E+02  0.21249744052E+03  0.26764700790E+03  0.82792024641E+02 0.  0.
          4    1    6    6  501    0  0.13445931432E+02  0.46198945831E+02  0.88848849484E+02  0.10104085175E+03  0.00000000000E+00 0. -1.
         -3    1    6    6    0  501  0.10977470762E+03  0.20448735143E+02  0.12364859103E+03  0.16660615615E+03  0.00000000000E+00 0.  1.
          5    1    5    5  502    0 -0.25914641654E+02  0.14837953498E+02  0.14331722128E+03  0.14647064358E+03  0.47000000000E+01 0. -1.
         13    1    4    4    0    0 -0.58279911226E+02 -0.15278020699E+02  0.34569502011E+02  0.69462338273E+02  0.00000000000E+00 0. -1.
        -14    1    4    4    0    0  0.42993211793E+01  0.37219882089E+02  0.17002252349E+02  0.41144627478E+02  0.00000000000E+00 0.  1.
         -5    1    3    3    0  504 -0.43325407356E+02 -0.10342749586E+03  0.10479850136E+02  0.11272202572E+03  0.47000000000E+01 0.  1.
<mgrwt>
<rscale>  2 0.21386619E+03</rscale>
<asrwt>0</asrwt>
<pdfrwt beam="1">  1       21 0.81177915E-01 0.21453540E+03</pdfrwt>
<pdfrwt beam="2">  1       21 0.16890799E-01 0.21453540E+03</pdfrwt>
<totfact> 0.41537120E+04</totfact>
</mgrwt>
</event>
<event>
12    1  0.2743855E-001  0.2101914E+03  0.7546771E-02  0.1141664E+00
         21   -1    0    0  502  503  0.00000000000E+00  0.00000000000E+00  0.36422782170E+02  0.36422782170E+02  0.00000000000E+00 0. -1.
         21   -1    0    0  503  504 -0.00000000000E+00 -0.00000000000E+00 -0.13667082313E+04  0.13667082313E+04  0.00000000000E+00 0. -1.
         -6    2    1    2    0  504  0.11411609463E+03 -0.32091571798E+02 -0.42613004081E+03  0.47514969844E+03  0.17357439963E+03 0.  0.
        -24    2    3    3    0    0  0.52811342878E+02  0.32650911573E+02 -0.32381452438E+03  0.33935420277E+03  0.80313814349E+02 0.  0.
          6    2    1    2  502    0 -0.11411609463E+03  0.32091571798E+02 -0.90415540831E+03  0.92798131503E+03  0.17204640837E+03 0.  0.
         24    2    5    5    0    0 -0.14826620683E+02 -0.33523513508E+02 -0.44033485948E+03  0.44911251194E+03  0.80396550101E+02 0.  0.
          4    1    6    6  501    0  0.27127029508E+02  0.79288776016E+00 -0.24158954971E+03  0.24310905974E+03  0.00000000000E+00 0. -1.
         -3    1    6    6    0  501 -0.41953650192E+02 -0.34316401268E+02 -0.19874530977E+03  0.20600345220E+03  0.00000000000E+00 0.  1.
          5    1    5    5  502    0 -0.99289473943E+02  0.65615085306E+02 -0.46382054883E+03  0.47886880309E+03  0.47000000000E+01 0. -1.
         11    1    4    4    0    0  0.10014145859E+02 -0.25893655167E+02 -0.67722083566E+02  0.73191837644E+02  0.00000000000E+00 0. -1.
        -12    1    4    4    0    0  0.42797197020E+02  0.58544566740E+02 -0.25609244081E+03  0.26616236513E+03  0.00000000000E+00 0.  1.
         -5    1    3    3    0  504  0.61304751748E+02 -0.64742483371E+02 -0.10231551643E+03  0.13579549567E+03  0.47000000000E+01 0.  1.
<mgrwt>
<rscale>  2 0.20987568E+03</rscale>
<asrwt>0</asrwt>
<pdfrwt beam="1">  1       21 0.56035048E-02 0.21019140E+03</pdfrwt>
<pdfrwt beam="2">  1       21 0.21026281E+00 0.21019140E+03</pdfrwt>
<totfact> 0.25287754E+04</totfact>
</mgrwt>
</event>
<event>
12    1  0.2743855E-001  0.1876831E+03  0.7546771E-02  0.1161080E+00
         21   -1    0    0  502  503  0.00000000000E+00  0.00000000000E+00  0.21330210557E+03  0.21330210557E+03  0.00000000000E+00 0.  1.
         21   -1    0    0  503  504 -0.00000000000E+00 -0.00000000000E+00 -0.26618807624E+03  0.26618807624E+03  0.00000000000E+00 0.  1.
         -6    2    1    2    0  504  0.60069099869E+02 -0.41245022006E+02 -0.17547371787E+03  0.25531900896E+03  0.17055005738E+03 0.  0.
        -24    2    3    3    0    0  0.52372525148E+02 -0.23823021715E+02 -0.25179598711E+02  0.10374996327E+03  0.82581020421E+02 0.  0.
          6    2    1    2  502    0 -0.60069099869E+02  0.41245022006E+02  0.12258774720E+03  0.22417117286E+03  0.17296100826E+03 0.  0.
         24    2    5    5    0    0 -0.62369878200E+02 -0.36940478815E+02  0.89137103703E+02  0.13896963725E+03  0.78182709972E+02 0.  0.
          2    1    6    6  501    0  0.49735955526E+01 -0.20656037686E+02 -0.52478162153E+01  0.21884883382E+02  0.00000000000E+00 0. -1.
         -1    1    6    6    0  501 -0.67343473752E+02 -0.16284441129E+02  0.94384919918E+02  0.11708475387E+03  0.00000000000E+00 0.  1.
          5    1    5    5  502    0  0.23007783312E+01  0.78185500821E+02  0.33450643498E+02  0.85201535608E+02  0.47000000000E+01 0. -1.
         11    1    4    4    0    0 -0.11587640681E+02 -0.27000758325E+02  0.95557848878E+01  0.30897045029E+02  0.00000000000E+00 0. -1.
        -12    1    4    4    0    0  0.63960165829E+02  0.31777366105E+01 -0.34735383599E+02  0.72852918243E+02  0.00000000000E+00 0.  1.
         -5    1    3    3    0  504  0.76965747209E+01 -0.17422000292E+02 -0.15029411916E+03  0.15156904569E+03  0.47000000000E+01 0.  1.
<mgrwt>
<rscale>  2 0.18712579E+03</rscale>
<asrwt>0</asrwt>
<pdfrwt beam="1">  1       21 0.32815708E-01 0.18768313E+03</pdfrwt>
<pdfrwt beam="2">  1       21 0.40952012E-01 0.18768313E+03</pdfrwt>
<totfact> 0.51457860E+04</totfact>
</mgrwt>
</event>
<event>
12    1  0.2743855E-001  0.2115768E+03  0.7546771E-02  0.1141192E+00
         21   -1    0    0  502  503  0.00000000000E+00  0.00000000000E+00  0.73779860462E+03  0.73779860462E+03  0.00000000000E+00 0.  1.
         21   -1    0    0  503  504 -0.00000000000E+00 -0.00000000000E+00 -0.61144664946E+02  0.61144664946E+02  0.00000000000E+00 0.  1.
         -6    2    1    2    0  504 -0.56099840379E+02  0.10140459213E+03  0.27473920643E+03  0.34676561862E+03  0.17701604252E+03 0.  0.
        -24    2    3    3    0    0 -0.50695204835E+02  0.13681672174E+03  0.25441008907E+03  0.30530971407E+03  0.84856991138E+02 0.  0.
          6    2    1    2  502    0  0.56099840379E+02 -0.10140459213E+03  0.40191473324E+03  0.45217765095E+03  0.17175299655E+03 0.  0.
         24    2    5    5    0    0  0.10443742162E+03 -0.80158984517E+02  0.29585318574E+03  0.33360683050E+03  0.80198329230E+02 0.  0.
          4    1    6    6  501    0  0.65799221864E+02 -0.65426675058E+02  0.11339634216E+03  0.14652275530E+03  0.00000000000E+00 0. -1.
         -3    1    6    6    0  501  0.38638199755E+02 -0.14732309459E+02  0.18245684359E+03  0.18708407520E+03  0.00000000000E+00 0.  1.
          5    1    5    5  502    0 -0.48337581241E+02 -0.21245607613E+02  0.10606154750E+03  0.11857082044E+03  0.47000000000E+01 0. -1.
         11    1    4    4    0    0 -0.10206987294E+02  0.15609350551E+01  0.81172630033E+02  0.81826737527E+02  0.00000000000E+00 0. -1.
        -12    1    4    4    0    0 -0.40488217541E+02  0.13525578669E+03  0.17323745903E+03  0.22348297654E+03  0.00000000000E+00 0.  1.
         -5    1    3    3    0  504 -0.54046355435E+01 -0.35412129611E+02  0.20329117365E+02  0.41455904547E+02  0.47000000000E+01 0.  1.
<mgrwt>
<rscale>  2 0.21047241E+03</rscale>
<asrwt>0</asrwt>
<pdfrwt beam="1">  1       21 0.11350747E+00 0.21157685E+03</pdfrwt>
<pdfrwt beam="2">  1       21 0.94068721E-02 0.21157685E+03</pdfrwt>
<totfact> 0.54175213E+04</totfact>
</mgrwt>
</event>
<event>
12    1  0.2743855E-001  0.1826685E+03  0.7546771E-02  0.1165409E+00
         21   -1    0    0  502  503  0.00000000000E+00  0.00000000000E+00  0.56794434216E+02  0.56794434216E+02  0.00000000000E+00 0.  1.
         21   -1    0    0  503  504 -0.00000000000E+00 -0.00000000000E+00 -0.10484017705E+04  0.10484017705E+04  0.00000000000E+00 0.  1.
         -6    2    1    2    0  504 -0.47338177757E+02  0.30393714166E+02 -0.86359669783E+03  0.88270439717E+03  0.17379043510E+03 0.  0.
        -24    2    3    3    0    0  0.37513184055E+02  0.41111411648E+02 -0.48608139935E+03  0.49559393072E+03  0.78998925495E+02 0.  0.
          6    2    1    2  502    0  0.47338177757E+02 -0.30393714166E+02 -0.12801063842E+03  0.22249180752E+03  0.17306414976E+03 0.  0.
         24    2    5    5    0    0 -0.24273305793E+02  0.12019528618E+02 -0.10394545554E+03  0.13572596881E+03  0.82965164015E+02 0.  0.
          2    1    6    6  501    0 -0.10117439370E+02  0.15675592718E+02 -0.11555833354E+03  0.11705475315E+03  0.00000000000E+00 0. -1.
         -1    1    6    6    0  501 -0.14155866423E+02 -0.36560641002E+01  0.11612877993E+02  0.18671215659E+02  0.00000000000E+00 0.  1.
          5    1    5    5  502    0  0.71611483550E+02 -0.42413242784E+02 -0.24065182877E+02  0.86765838707E+02  0.47000000000E+01 0. -1.
         11    1    4    4    0    0  0.27829043427E+02  0.23500629365E+02 -0.68959431576E+02  0.77988066022E+02  0.00000000000E+00 0. -1.
        -12    1    4    4    0    0  0.96841406275E+01  0.17610782283E+02 -0.41712196778E+03  0.41760586470E+03  0.00000000000E+00 0.  1.
         -5    1    3    3    0  504 -0.84851361811E+02 -0.10717697482E+02 -0.37751529848E+03  0.38711046644E+03  0.47000000000E+01 0.  1.
<mgrwt>
<rscale>  2 0.18249558E+03</rscale>
<asrwt>0</asrwt>
<pdfrwt beam="1">  1       21 0.87376051E-02 0.18266854E+03</pdfrwt>
<pdfrwt beam="2">  1       21 0.16129258E+00 0.18266854E+03</pdfrwt>
<totfact> 0.25505982E+04</totfact>
</mgrwt>
</event>
<event>
12    1  0.2743855E-001  0.2739281E+03  0.7546771E-02  0.1102570E+00
         21   -1    0    0  502  503  0.00000000000E+00  0.00000000000E+00  0.49858397998E+03  0.49858397998E+03  0.00000000000E+00 0. -1.
         21   -1    0    0  503  504 -0.00000000000E+00 -0.00000000000E+00 -0.23753799961E+03  0.23753799961E+03  0.00000000000E+00 0. -1.
         -6    2    1    2    0  504  0.16155790071E+03  0.10461153064E+03 -0.11142290993E+03  0.27376965127E+03  0.15965659859E+03 0.  0.
        -24    2    3    3    0    0  0.16653027750E+03  0.64766247516E+02 -0.52387891132E+02  0.20221830913E+03  0.78871752027E+02 0.  0.
          6    2    1    2  502    0 -0.16155790071E+03 -0.10461153064E+03  0.37246889030E+03  0.46235232832E+03  0.19491555514E+03 0.  0.
         24    2    5    5    0    0 -0.92257513974E+02 -0.38918138160E+02  0.72134271854E+02  0.14716803548E+03  0.80181089589E+02 0.  0.
          2    1    6    6  501    0 -0.72869148556E+02 -0.54723945634E+02  0.79667672872E+02  0.12104363320E+03  0.00000000000E+00 0. -1.
         -1    1    6    6    0  501 -0.19388365418E+02  0.15805807474E+02 -0.75334010182E+01  0.26124402278E+02  0.00000000000E+00 0.  1.
          5    1    5    5  502    0 -0.69300386739E+02 -0.65693392483E+02  0.30033461845E+03  0.31518429285E+03  0.47000000000E+01 0. -1.
         13    1    4    4    0    0  0.27945850745E+02 -0.15930464028E+02 -0.22069554186E+02  0.39010453471E+02  0.00000000000E+00 0. -1.
        -14    1    4    4    0    0  0.13858442676E+03  0.80696711545E+02 -0.30318336946E+02  0.16320785566E+03  0.00000000000E+00 0.  1.
         -5    1    3    3    0  504 -0.49723767874E+01  0.39845283127E+02 -0.59035018794E+02  0.71551342143E+02  0.47000000000E+01 0.  1.
<mgrwt>
<rscale>  2 0.26775810E+03</rscale>
<asrwt>0</asrwt>
<pdfrwt beam="1">  1       21 0.76705228E-01 0.27392810E+03</pdfrwt>
<pdfrwt beam="2">  1       21 0.36544308E-01 0.27392810E+03</pdfrwt>
<totfact> 0.10405547E+04</totfact>
</mgrwt>
</event>
<event>
12    1  0.2743855E-001  0.1774913E+03  0.7546771E-02  0.1170446E+00
         21   -1    0    0  502  503  0.00000000000E+00  0.00000000000E+00  0.40622988595E+02  0.40622988595E+02  0.00000000000E+00 0.  1.
         21   -1    0    0  503  504 -0.00000000000E+00 -0.00000000000E+00 -0.14392840853E+04  0.14392840853E+04  0.00000000000E+00 0.  1.
         -6    2    1    2    0  504 -0.39171146163E+02 -0.92023116371E+01 -0.12039483280E+04  0.12169612688E+04  0.17287015940E+03 0.  0.
        -24    2    3    3    0    0 -0.39480930981E+02 -0.50926537260E+02 -0.11018797613E+04  0.11065932966E+04  0.79104106569E+02 0.  0.
          6    2    1    2  502    0  0.39171146163E+02  0.92023116371E+01 -0.19471276875E+03  0.26294580515E+03  0.17207083687E+03 0.  0.
         24    2    5    5    0    0  0.46047456968E+02  0.31436889895E+02 -0.39619322076E+02  0.10604543128E+03  0.81038857798E+02 0.  0.
          2    1    6    6  501    0  0.37180011145E+02  0.57653740048E+02 -0.17995323437E+02  0.70923470275E+02  0.00000000000E+00 0. -1.
         -1    1    6    6    0  501  0.88674458231E+01 -0.26216850153E+02 -0.21623998639E+02  0.35121961001E+02  0.00000000000E+00 0.  1.
          5    1    5    5  502    0 -0.68763108052E+01 -0.22234578258E+02 -0.15509344667E+03  0.15690037387E+03  0.47000000000E+01 0. -1.
         13    1    4    4    0    0 -0.35247811776E+02  0.12207065539E+02 -0.32276451276E+03  0.32491283659E+03  0.00000000000E+00 0. -1.
        -14    1    4    4    0    0 -0.42331192049E+01 -0.63133602799E+02 -0.77911524852E+03  0.78168046002E+03  0.00000000000E+00 0.  1.
         -5    1    3    3    0  504  0.30978481813E+00  0.41724225623E+02 -0.10206856669E+03  0.11036797215E+03  0.47000000000E+01 0.  1.
<mgrwt>
<rscale>  2 0.17729635E+03</rscale>
<asrwt>0</asrwt>
<pdfrwt beam="1">  1       21 0.62496913E-02 0.17749128E+03</pdfrwt>
<pdfrwt beam="2">  1       21 0.22142829E+00 0.17749128E+03</pdfrwt>
<totfact> 0.18359412E+04</totfact>
</mgrwt>
</event>
<event>
12    1  0.2743855E-001  0.2335337E+03  0.7546771E-02  0.1124259E+00
         21   -1    0    0  502  503  0.00000000000E+00  0.00000000000E+00  0.64404984006E+03  0.64404984006E+03  0.00000000000E+00 0. -1.
         21   -1    0    0  503  504 -0.00000000000E+00 -0.00000000000E+00 -0.13447287897E+03  0.13447287897E+03  0.00000000000E+00 0. -1.
         -6    2    1    2    0  504 -0.93326267885E+02  0.12553042387E+03  0.17346771334E+02  0.23370299382E+03  0.17276718222E+03 0.  0.
        -24    2    3    3    0    0 -0.10411678663E+03  0.15022532666E+03  0.25321328057E+02  0.20520813335E+03  0.89784488145E+02 0.  0.
          6    2    1    2  502    0  0.93326267885E+02 -0.12553042387E+03  0.49223018976E+03  0.54481972521E+03  0.17340788236E+03 0.  0.
         24    2    5    5    0    0  0.12762178214E+02 -0.11207890922E+03  0.39269908660E+03  0.41597855831E+03  0.78109111313E+02 0.  0.
          4    1    6    6  501    0  0.40065203999E+02 -0.86358768513E+02  0.22828643297E+03  0.24734136926E+03  0.00000000000E+00 0. -1.
         -3    1    6    6    0  501 -0.27303025784E+02 -0.25720140702E+02  0.16441265363E+03  0.16863718905E+03  0.00000000000E+00 0.  1.
          5    1    5    5  502    0  0.80564089671E+02 -0.13451514657E+02  0.99531103160E+02  0.12884116690E+03  0.47000000000E+01 0. -1.
         11    1    4    4    0    0 -0.60561918628E+02  0.49005466457E+02  0.49622933832E+02  0.92367295579E+02  0.00000000000E+00 0. -1.
        -12    1    4    4    0    0 -0.43554867999E+02  0.10121986020E+03 -0.24301605775E+02  0.11284083777E+03  0.00000000000E+00 0.  1.
         -5    1    3    3    0  504  0.10790518742E+02 -0.24694902788E+02 -0.79745567228E+01  0.28494860472E+02  0.47000000000E+01 0.  1.
<mgrwt>
<rscale>  2 0.23341474E+03</rscale>
<asrwt>0</asrwt>
<pdfrwt beam="1">  1       21 0.99084590E-01 0.23353367E+03</pdfrwt>
<pdfrwt beam="2">  1       21 0.20688135E-01 0.23353367E+03</pdfrwt>
<totfact> 0.17740235E+04</totfact>
</mgrwt>
</event>
<event>
12    1  0.2743855E-001  0.2619889E+03  0.7546771E-02  0.1106144E+00
         21   -1    0    0  502  503  0.00000000000E+00  0.00000000000E+00  0.38058646266E+02  0.38058646266E+02  0.00000000000E+00 0. -1.
         21   -1    0    0  503  504 -0.00000000000E+00 -0.00000000000E+00 -0.19820601007E+04  0.19820601007E+04  0.00000000000E+00 0.  1.
         -6    2    1    2    0  504 -0.15193347503E+03  0.12276527923E+03 -0.12846677732E+04  0.13111100188E+04  0.17459409898E+03 0.  0.
        -24    2    3    3    0    0 -0.18184182673E+03  0.77603806490E+02 -0.92150305885E+03  0.94389786236E+03  0.51831326091E+02 0.  0.
          6    2    1    2  502    0  0.15193347503E+03 -0.12276527923E+03 -0.65933368120E+03  0.70900872809E+03  0.17267709379E+03 0.  0.
         24    2    5    5    0    0  0.76350109866E+01 -0.36289561749E+02 -0.26878893518E+03  0.28374717906E+03  0.83004483397E+02 0.  0.
          2    1    6    6  501    0 -0.70156022560E+01 -0.24595691369E+02 -0.26283862385E+03  0.26408011833E+03  0.00000000000E+00 0. -1.
         -1    1    6    6    0  501  0.14650613243E+02 -0.11693870380E+02 -0.59503113296E+01  0.19667060730E+02  0.00000000000E+00 0.  1.
          5    1    5    5  502    0  0.14429846404E+03 -0.86475717476E+02 -0.39054474601E+03  0.42526154902E+03  0.47000000000E+01 0. -1.
         11    1    4    4    0    0 -0.79786064761E+02  0.27772588229E+02 -0.28178813223E+03  0.29417968022E+03  0.00000000000E+00 0. -1.
        -12    1    4    4    0    0 -0.10205576197E+03  0.49831218260E+02 -0.63971492662E+03  0.64971818215E+03  0.00000000000E+00 0.  1.
         -5    1    3    3    0  504  0.29908351707E+02  0.45161472735E+02 -0.36316471435E+03  0.36721215649E+03  0.47000000000E+01 0.  1.
<mgrwt>
<rscale>  2 0.26166994E+03</rscale>
<asrwt>0</asrwt>
<pdfrwt beam="1">  1       21 0.58551746E-02 0.26198892E+03</pdfrwt>
<pdfrwt beam="2">  1       21 0.30493241E+00 0.26198892E+03</pdfrwt>
<totfact> 0.61399892E+03</totfact>
</mgrwt>
</event>
<event>
12    1  0.2743855E-001  0.2005064E+03  0.7546771E-02  0.1149605E+00
         21   -1    0    0  502  503  0.00000000000E+00  0.00000000000E+00  0.21568124237E+03  0.21568124237E+03  0.00000000000E+00 0. -1.
         21   -1    0    0  503  504 -0.00000000000E+00 -0.00000000000E+00 -0.23791819881E+03  0.23791819881E+03  0.00000000000E+00 0. -1.
         -6    2    1    2    0  504 -0.36737065739E+02  0.95546457184E+02 -0.11799730743E+03  0.23265031432E+03  0.17240668987E+03 0.  0.
        -24    2    3    3    0    0 -0.82948121436E+02  0.65792060814E+02 -0.43049984468E+02  0.13959131695E+03  0.80146419061E+02 0.  0.
          6    2    1    2  502    0  0.36737065739E+02 -0.95546457184E+02  0.95760350997E+02  0.22094912686E+03  0.17079149381E+03 0.  0.
         24    2    5    5    0    0  0.69244151626E+02 -0.89918909883E+02  0.11451350259E+03  0.18271104877E+03  0.85964074929E+02 0.  0.
          4    1    6    6  501    0  0.54187465124E+01 -0.39095728188E+02  0.88783705476E+02  0.97161644358E+02  0.00000000000E+00 0. -1.
         -3    1    6    6    0  501  0.63825405113E+02 -0.50823181695E+02  0.25729797110E+02  0.85549404410E+02  0.00000000000E+00 0.  1.
          5    1    5    5  502    0 -0.32507085887E+02 -0.56275473004E+01 -0.18753151590E+02  0.38238078090E+02  0.47000000000E+01 0. -1.
         11    1    4    4    0    0 -0.40216612814E+02  0.21277277208E+02 -0.60282067949E+02  0.75525003726E+02  0.00000000000E+00 0. -1.
        -12    1    4    4    0    0 -0.42731508622E+02  0.44514783606E+02  0.17232083481E+02  0.64066313221E+02  0.00000000000E+00 0.  1.
         -5    1    3    3    0  504  0.46211055697E+02  0.29754396370E+02 -0.74947322965E+02  0.93058997371E+02  0.47000000000E+01 0.  1.
<mgrwt>
<rscale>  2 0.20015868E+03</rscale>
<asrwt>0</asrwt>
<pdfrwt beam="1">  1       21 0.33181729E-01 0.20050637E+03</pdfrwt>
<pdfrwt beam="2">  1       21 0.36602800E-01 0.20050637E+03</pdfrwt>
<totfact> 0.62725921E+04</totfact>
</mgrwt>
</event>
<event>
12    1  0.2743855E-001  0.2274736E+03  0.7546771E-02  0.1128725E+00
         21   -1    0    0  502  503  0.00000000000E+00  0.00000000000E+00  0.13822125012E+03  0.13822125012E+03  0.00000000000E+00 0. -1.
         21   -1    0    0  503  504 -0.00000000000E+00 -0.00000000000E+00 -0.47846753359E+03  0.47846753359E+03  0.00000000000E+00 0. -1.
         -6    2    1    2    0  504  0.13899438299E+03 -0.46042285117E+02 -0.23963989773E+02  0.22710089617E+03  0.17193374803E+03 0.  0.
        -24    2    3    3    0    0  0.14807625872E+03 -0.19715138478E+02 -0.61250941319E+02  0.18032477114E+03  0.80312391277E+02 0.  0.
          6    2    1    2  502    0 -0.13899438299E+03  0.46042285117E+02 -0.31628229369E+03  0.38958788754E+03  0.17408303275E+03 0.  0.
         24    2    5    5    0    0 -0.58076510556E+02 -0.19703104192E+02 -0.73249162134E+02  0.12509336712E+03  0.80757769604E+02 0.  0.
          2    1    6    6  501    0 -0.54797910927E+02  0.15193523833E+02 -0.17966868522E+02  0.59636084486E+02  0.00000000000E+00 0. -1.
         -1    1    6    6    0  501 -0.32785996291E+01 -0.34896628025E+02 -0.55282293612E+02  0.65457282636E+02  0.00000000000E+00 0.  1.
          5    1    5    5  502    0 -0.80917872435E+02  0.65745389309E+02 -0.24303313156E+03  0.26449452042E+03  0.47000000000E+01 0. -1.
         11    1    4    4    0    0  0.93958271176E+02 -0.30403802526E+02 -0.11719025345E+01  0.98761942498E+02  0.00000000000E+00 0. -1.
        -12    1    4    4    0    0  0.54117987546E+02  0.10688664048E+02 -0.60079038784E+02  0.81562828644E+02  0.00000000000E+00 0.  1.
         -5    1    3    3    0  504 -0.90818757310E+01 -0.26327146639E+02  0.37286951546E+02  0.46776125027E+02  0.47000000000E+01 0.  1.
<mgrwt>
<rscale>  2 0.22706233E+03</rscale>
<asrwt>0</asrwt>
<pdfrwt beam="1">  1       21 0.21264808E-01 0.22747359E+03</pdfrwt>
<pdfrwt beam="2">  1       21 0.73610390E-01 0.22747359E+03</pdfrwt>
<totfact> 0.33498180E+04</totfact>
</mgrwt>
</event>
<event>
12    1  0.2743855E-001  0.1889680E+03  0.7546771E-02  0.1163891E+00
         21   -1    0    0  502  503  0.00000000000E+00  0.00000000000E+00  0.33559417168E+03  0.33559417168E+03  0.00000000000E+00 0.  1.
         21   -1    0    0  503  504 -0.00000000000E+00 -0.00000000000E+00 -0.10862259328E+03  0.10862259328E+03  0.00000000000E+00 0.  1.
         -6    2    1    2    0  504  0.54894163423E+02  0.47391543903E+02  0.43464319596E+02  0.19390221117E+03  0.17449811692E+03 0.  0.
        -24    2    3    3    0    0  0.10276889137E+03  0.33976817112E+02  0.10964863785E+02  0.13431824437E+03  0.78773684682E+02 0.  0.
          6    2    1    2  502    0 -0.54894163423E+02 -0.47391543903E+02  0.18350725880E+03  0.25031455378E+03  0.15402316122E+03 0.  0.
         24    2    5    5    0    0 -0.40548993464E+02  0.21974392791E+02  0.84312231130E+02  0.12833438905E+03  0.85053326124E+02 0.  0.
          4    1    6    6  501    0  0.13766418684E+02  0.29520480916E+02  0.66196676512E+01  0.33238427711E+02  0.00000000000E+00 0. -1.
         -3    1    6    6    0  501 -0.54315412147E+02 -0.75460881253E+01  0.77692563479E+02  0.95095961337E+02  0.00000000000E+00 0.  1.
          5    1    5    5  502    0 -0.14345169959E+02 -0.69365936694E+02  0.99195027669E+02  0.12198016474E+03  0.47000000000E+01 0. -1.
         13    1    4    4    0    0  0.13715761123E+02  0.40896189438E+02 -0.55250981688E+01  0.43487321411E+02  0.00000000000E+00 0. -1.
        -14    1    4    4    0    0  0.89053130252E+02 -0.69193723261E+01  0.16489961953E+02  0.90830922963E+02  0.00000000000E+00 0.  1.
         -5    1    3    3    0  504 -0.47874727952E+02  0.13414726791E+02  0.32499455812E+02  0.59583966798E+02  0.47000000000E+01 0.  1.
<mgrwt>
<rscale>  2 0.18410186E+03</rscale>
<asrwt>0</asrwt>
<pdfrwt beam="1">  1       21 0.51629872E-01 0.18896804E+03</pdfrwt>
<pdfrwt beam="2">  1       21 0.16711168E-01 0.18896804E+03</pdfrwt>
<totfact> 0.11487729E+05</totfact>
</mgrwt>
</event>
<event>
12    1  0.2743855E-001  0.2049066E+03  0.7546771E-02  0.1145765E+00
         21   -1    0    0  502  503  0.00000000000E+00  0.00000000000E+00  0.22492776782E+03  0.22492776782E+03  0.00000000000E+00 0.  1.
         21   -1    0    0  503  504 -0.00000000000E+00 -0.00000000000E+00 -0.18654987514E+03  0.18654987514E+03  0.00000000000E+00 0. -1.
         -6    2    1    2    0  504  0.10074382793E+03  0.43593973661E+02  0.27841293571E+02  0.20630032830E+03  0.17243820465E+03 0.  0.
        -24    2    3    3    0    0  0.88324556501E+02  0.92900431080E+02  0.11785374872E+02  0.15277232094E+03  0.82272532532E+02 0.  0.
          6    2    1    2  502    0 -0.10074382793E+03 -0.43593973661E+02  0.10536599110E+02  0.20517731466E+03  0.17302299595E+03 0.  0.
         24    2    5    5    0    0 -0.91021280481E+02  0.33983522491E+02  0.75152662608E+01  0.12679355174E+03  0.81119493551E+02 0.  0.
          2    1    6    6  501    0 -0.72529347941E+02  0.54663018234E+02 -0.13727223338E+02  0.91853081254E+02  0.00000000000E+00 0. -1.
         -1    1    6    6    0  501 -0.18491932540E+02 -0.20679495744E+02  0.21242489599E+02  0.34940470484E+02  0.00000000000E+00 0.  1.
          5    1    5    5  502    0 -0.97225474475E+01 -0.77577496152E+02  0.30213328489E+01  0.78383762925E+02  0.47000000000E+01 0. -1.
         11    1    4    4    0    0  0.65182483142E+02  0.30298468325E+02 -0.25563212060E+02  0.76290439127E+02  0.00000000000E+00 0. -1.
        -12    1    4    4    0    0  0.23142073359E+02  0.62601962755E+02  0.37348586932E+02  0.76481881815E+02  0.00000000000E+00 0.  1.
         -5    1    3    3    0  504  0.12419271427E+02 -0.49306457418E+02  0.16055918699E+02  0.53528007353E+02  0.47000000000E+01 0.  1.
<mgrwt>
<rscale>  2 0.20478309E+03</rscale>
<asrwt>0</asrwt>
<pdfrwt beam="1">  1       21 0.34604272E-01 0.20490659E+03</pdfrwt>
<pdfrwt beam="2">  1       21 0.28699981E-01 0.20490659E+03</pdfrwt>
<totfact> 0.93015621E+04</totfact>
</mgrwt>
</event>
<event>
12    1  0.2743855E-001  0.2123984E+03  0.7546771E-02  0.1139777E+00
         21   -1    0    0  502  503  0.00000000000E+00  0.00000000000E+00  0.69817331790E+03  0.69817331790E+03  0.00000000000E+00 0. -1.
         21   -1    0    0  503  504 -0.00000000000E+00 -0.00000000000E+00 -0.66374614842E+02  0.66374614842E+02  0.00000000000E+00 0. -1.
         -6    2    1    2    0  504  0.54328556041E+02  0.11042501393E+03  0.25073077759E+03  0.32828441089E+03  0.17250929221E+03 0.  0.
        -24    2    3    3    0    0 -0.33674046279E+02  0.54286210335E+02  0.90441872570E+02  0.13694532352E+03  0.80581358229E+02 0.  0.
          6    2    1    2  502    0 -0.54328556041E+02 -0.11042501393E+03  0.38106792547E+03  0.43626352185E+03  0.17311216299E+03 0.  0.
         24    2    5    5    0    0 -0.34780611857E+02 -0.26513360100E+02  0.75650080509E+02  0.11889081069E+03  0.80619110395E+02 0.  0.
          2    1    6    6  501    0  0.20065150895E+02 -0.27218176955E+02  0.44241499078E+02  0.55684375528E+02  0.00000000000E+00 0. -1.
         -1    1    6    6    0  501 -0.54845762752E+02  0.70481685475E+00  0.31408581431E+02  0.63206435164E+02  0.00000000000E+00 0.  1.
          5    1    5    5  502    0 -0.19547944184E+02 -0.83911653828E+02  0.30541784496E+03  0.31737271116E+03  0.47000000000E+01 0. -1.
         11    1    4    4    0    0 -0.46975037984E+02  0.11489649758E+01  0.51635504954E+02  0.69815468816E+02  0.00000000000E+00 0. -1.
        -12    1    4    4    0    0  0.13300991705E+02  0.53137245360E+02  0.38806367616E+02  0.67129854702E+02  0.00000000000E+00 0.  1.
         -5    1    3    3    0  504  0.88002602320E+02  0.56138803593E+02  0.16028890502E+03  0.19133908737E+03  0.47000000000E+01 0.  1.
<mgrwt>
<rscale>  2 0.21227556E+03</rscale>
<asrwt>0</asrwt>
<pdfrwt beam="1">  1       21 0.10741127E+00 0.21239844E+03</pdfrwt>
<pdfrwt beam="2">  1       21 0.10211480E-01 0.21239844E+03</pdfrwt>
<totfact> 0.53559054E+04</totfact>
</mgrwt>
</event>
<event>
12    1  0.2743855E-001  0.1824743E+03  0.7546771E-02  0.1165484E+00
         21   -1    0    0  502  503  0.00000000000E+00  0.00000000000E+00  0.14771360353E+04  0.14771360353E+04  0.00000000000E+00 0.  1.
         21   -1    0    0  503  504 -0.00000000000E+00 -0.00000000000E+00 -0.29221316054E+02  0.29221316054E+02  0.00000000000E+00 0.  1.
         -6    2    1    2    0  504  0.59767528197E+02  0.12181416672E+02  0.36274176951E+03  0.40594961439E+03  0.17173512670E+03 0.  0.
        -24    2    3    3    0    0  0.44062501642E+01 -0.20684619779E+02  0.31494229144E+03  0.32562572280E+03  0.79976220694E+02 0.  0.
          6    2    1    2  502    0 -0.59767528197E+02 -0.12181416672E+02  0.10851729497E+04  0.11004077369E+04  0.17197765080E+03 0.  0.
         24    2    5    5    0    0  0.15847642223E+02 -0.51957105749E+02  0.64409347074E+03  0.65110499244E+03  0.78298298369E+02 0.  0.
          4    1    6    6  501    0  0.27201174428E+02 -0.19607007093E+02  0.91524653244E+02  0.97473590110E+02  0.00000000000E+00 0. -1.
         -3    1    6    6    0  501 -0.11353532205E+02 -0.32350098656E+02  0.55256881750E+03  0.55363140233E+03  0.00000000000E+00 0.  1.
          5    1    5    5  502    0 -0.75615170420E+02  0.39775689077E+02  0.44107947895E+03  0.44930274447E+03  0.47000000000E+01 0. -1.
         13    1    4    4    0    0  0.28375953809E+02  0.13362808978E+02  0.21619846274E+03  0.21846174656E+03  0.00000000000E+00 0. -1.
        -14    1    4    4    0    0 -0.23969703644E+02 -0.34047428757E+02  0.98743828696E+02  0.10716397624E+03  0.00000000000E+00 0.  1.
         -5    1    3    3    0  504  0.55361278033E+02  0.32866036450E+02  0.47799478071E+02  0.80323891597E+02  0.47000000000E+01 0.  1.
<mgrwt>
<rscale>  2 0.18241710E+03</rscale>
<asrwt>0</asrwt>
<pdfrwt beam="1">  1       21 0.22725164E+00 0.18247426E+03</pdfrwt>
<pdfrwt beam="2">  1       21 0.44955882E-02 0.18247426E+03</pdfrwt>
<totfact> 0.29491387E+04</totfact>
</mgrwt>
</event>
<event>
12    1  0.2743855E-001  0.1869323E+03  0.7546771E-02  0.1162090E+00
         21   -1    0    0  502  503  0.00000000000E+00  0.00000000000E+00  0.16318159231E+04  0.16318159231E+04  0.00000000000E+00 0. -1.
         21   -1    0    0  503  504 -0.00000000000E+00 -0.00000000000E+00 -0.39448434562E+02  0.39448434562E+02  0.00000000000E+00 0. -1.
         -6    2    1    2    0  504  0.58393750906E+02  0.18224294944E+02  0.22893658803E+03  0.29555991123E+03  0.17664015601E+03 0.  0.
        -24    2    3    3    0    0  0.93020176266E+02  0.42752472656E+01  0.22630698639E+03  0.25784293800E+03  0.81222519382E+02 0.  0.
          6    2    1    2  502    0 -0.58393750906E+02 -0.18224294944E+02  0.13634309005E+04  0.13757044464E+04  0.17284949641E+03 0.  0.
         24    2    5    5    0    0 -0.31544489390E+02 -0.55509510645E+02  0.47767919913E+03  0.48874941001E+03  0.81376949537E+02 0.  0.
          4    1    6    6  501    0 -0.22424850327E+02 -0.76694804182E+02  0.38880267341E+03  0.39692881698E+03  0.00000000000E+00 0. -1.
         -3    1    6    6    0  501 -0.91196390627E+01  0.21185293537E+02  0.88876525719E+02  0.91820593021E+02  0.00000000000E+00 0.  1.
          5    1    5    5  502    0 -0.26849261517E+02  0.37285215701E+02  0.88575170138E+03  0.88695503643E+03  0.47000000000E+01 0. -1.
         13    1    4    4    0    0  0.10715710456E+03  0.92966514621E+01  0.20808215191E+03  0.23423760315E+03  0.00000000000E+00 0. -1.
        -14    1    4    4    0    0 -0.14136928289E+02 -0.50214041965E+01  0.18224834482E+02  0.23605334852E+02  0.00000000000E+00 0.  1.
         -5    1    3    3    0  504 -0.34626425360E+02  0.13949047678E+02  0.26296016326E+01  0.37716973223E+02  0.47000000000E+01 0.  1.
<mgrwt>
<rscale>  2 0.18603141E+03</rscale>
<asrwt>0</asrwt>
<pdfrwt beam="1">  1       21 0.25104855E+00 0.18693234E+03</pdfrwt>
<pdfrwt beam="2">  1       21 0.60689912E-02 0.18693234E+03</pdfrwt>
<totfact> 0.12744053E+04</totfact>
</mgrwt>
</event>
<event>
12    1  0.2743855E-001  0.1744768E+03  0.7546771E-02  0.1174949E+00
         21   -1    0    0  502  503  0.00000000000E+00  0.00000000000E+00  0.11194401896E+03  0.11194401896E+03  0.00000000000E+00 0.  1.
         21   -1    0    0  503  504 -0.00000000000E+00 -0.00000000000E+00 -0.31578143102E+03  0.31578143102E+03  0.00000000000E+00 0.  1.
         -6    2    1    2    0  504 -0.10154226209E+02 -0.39463625552E+00 -0.18871206404E+03  0.25259423995E+03  0.16759577230E+03 0.  0.
        -24    2    3    3    0    0  0.40570173127E+02 -0.33721926619E+02 -0.15663912164E+03  0.18378699756E+03  0.80366278749E+02 0.  0.
          6    2    1    2  502    0  0.10154226209E+02  0.39463625552E+00 -0.15125348025E+02  0.17513121003E+03  0.17418065486E+03 0.  0.
         24    2    5    5    0    0  0.13619919437E+02 -0.75070013201E+02 -0.23999322331E+02  0.98922537514E+02  0.58212471761E+02 0.  0.
          4    1    6    6  501    0  0.28268443190E+02 -0.40751895265E+02 -0.34193537989E+02  0.60241346999E+02  0.00000000000E+00 0. -1.
         -3    1    6    6    0  501 -0.14648523753E+02 -0.34318117936E+02  0.10194215658E+02  0.38681190515E+02  0.00000000000E+00 0.  1.
          5    1    5    5  502    0 -0.34656932274E+01  0.75464649456E+02  0.88739743062E+01  0.76208672519E+02  0.47000000000E+01 0. -1.
         11    1    4    4    0    0  0.29533005922E+02 -0.14706957337E+02 -0.85601623278E+01  0.34084738696E+02  0.00000000000E+00 0. -1.
        -12    1    4    4    0    0  0.11037167206E+02 -0.19014969282E+02 -0.14807895932E+03  0.14970225886E+03  0.00000000000E+00 0.  1.
         -5    1    3    3    0  504 -0.50724399337E+02  0.33327290363E+02 -0.32072942399E+02  0.68807242389E+02  0.47000000000E+01 0.  1.
<mgrwt>
<rscale>  2 0.17280977E+03</rscale>
<asrwt>0</asrwt>
<pdfrwt beam="1">  1       21 0.17222157E-01 0.17447683E+03</pdfrwt>
<pdfrwt beam="2">  1       21 0.48581758E-01 0.17447683E+03</pdfrwt>
<totfact> 0.12402288E+05</totfact>
</mgrwt>
</event>
<event>
12    1  0.2743855E-001  0.2901010E+03  0.7546771E-02  0.1090423E+00
         21   -1    0    0  502  503  0.00000000000E+00  0.00000000000E+00  0.10561669031E+03  0.10561669031E+03  0.00000000000E+00 0.  1.
         21   -1    0    0  503  504 -0.00000000000E+00 -0.00000000000E+00 -0.80727665378E+03  0.80727665378E+03  0.00000000000E+00 0. -1.
         -6    2    1    2    0  504 -0.22469232383E+03  0.58948205338E+02 -0.29324068966E+03  0.41249081449E+03  0.17377295147E+03 0.  0.
        -24    2    3    3    0    0 -0.43646917443E+02  0.46377453190E+02 -0.64367564483E+02  0.12035991846E+03  0.79293158896E+02 0.  0.
          6    2    1    2  502    0  0.22469232383E+03 -0.58948205338E+02 -0.40841927380E+03  0.50040252960E+03  0.17214777699E+03 0.  0.
         24    2    5    5    0    0  0.24829770610E+03 -0.45489241711E+02 -0.36598336866E+03  0.44979369817E+03  0.68187409509E+02 0.  0.
          4    1    6    6  501    0  0.22861448120E+03 -0.52850084216E+02 -0.35637698473E+03  0.42668755273E+03  0.00000000000E+00 0. -1.
         -3    1    6    6    0  501  0.19683224899E+02  0.73608425043E+01 -0.96063839350E+01  0.23106145440E+02  0.00000000000E+00 0.  1.
          5    1    5    5  502    0 -0.23605382265E+02 -0.13458963627E+02 -0.42435905138E+02  0.50608831430E+02  0.47000000000E+01 0. -1.
         11    1    4    4    0    0 -0.17196329821E+02  0.54693906263E+02 -0.71579449426E+02  0.91710166949E+02  0.00000000000E+00 0. -1.
        -12    1    4    4    0    0 -0.26450587622E+02 -0.83164530733E+01  0.72118849428E+01  0.28649751512E+02  0.00000000000E+00 0.  1.
         -5    1    3    3    0  504 -0.18104540639E+03  0.12570752148E+02 -0.22887312518E+03  0.29213089603E+03  0.47000000000E+01 0.  1.
<mgrwt>
<rscale>  2 0.28985802E+03</rscale>
<asrwt>0</asrwt>
<pdfrwt beam="1">  1       21 0.16248722E-01 0.29010097E+03</pdfrwt>
<pdfrwt beam="2">  1       21 0.12419640E+00 0.29010097E+03</pdfrwt>
<totfact> 0.15557288E+04</totfact>
</mgrwt>
</event>
<event>
12    1  0.2743855E-001  0.1807062E+03  0.7546771E-02  0.1167317E+00
         21   -1    0    0  502  503  0.00000000000E+00  0.00000000000E+00  0.13291931627E+03  0.13291931627E+03  0.00000000000E+00 0. -1.
         21   -1    0    0  503  504 -0.00000000000E+00 -0.00000000000E+00 -0.25468554259E+03  0.25468554259E+03  0.00000000000E+00 0. -1.
         -6    2    1    2    0  504  0.35746252597E+02  0.33623573850E+02 -0.22131740223E+02  0.18125133160E+03  0.17307192721E+03 0.  0.
        -24    2    3    3    0    0 -0.12994906847E+01 -0.38721350379E+02 -0.44131228921E+02  0.96917218336E+02  0.77099612143E+02 0.  0.
          6    2    1    2  502    0 -0.35746252597E+02 -0.33623573850E+02 -0.99634486100E+02  0.20635352726E+03  0.17391494502E+03 0.  0.
         24    2    5    5    0    0 -0.17536652627E+02 -0.71345516411E+01 -0.13401226328E+03  0.15905469649E+03  0.83550426404E+02 0.  0.
          2    1    6    6  501    0 -0.36345473544E+02 -0.35951590827E+02 -0.75695053922E+02  0.91341400900E+02  0.00000000000E+00 0. -1.
         -1    1    6    6    0  501  0.18808820917E+02  0.28817039186E+02 -0.58317209360E+02  0.67713295587E+02  0.00000000000E+00 0.  1.
          5    1    5    5  502    0 -0.18209599970E+02 -0.26489022209E+02  0.34377777183E+02  0.47298830775E+02  0.47000000000E+01 0. -1.
         11    1    4    4    0    0  0.14965114380E+01  0.16885276502E+02  0.96510804165E+01  0.19506292888E+02  0.00000000000E+00 0. -1.
        -12    1    4    4    0    0 -0.27960021227E+01 -0.55606626881E+02 -0.53782309338E+02  0.77410925448E+02  0.00000000000E+00 0.  1.
         -5    1    3    3    0  504  0.37045743281E+02  0.72344924230E+02  0.21999488698E+02  0.84334113264E+02  0.47000000000E+01 0.  1.
<mgrwt>
<rscale>  2 0.18050311E+03</rscale>
<asrwt>0</asrwt>
<pdfrwt beam="1">  1       21 0.20449126E-01 0.18070625E+03</pdfrwt>
<pdfrwt beam="2">  1       21 0.39182391E-01 0.18070625E+03</pdfrwt>
<totfact> 0.13961177E+05</totfact>
</mgrwt>
</event>
<event>
12    1  0.2743855E-001  0.1841609E+03  0.7546771E-02  0.1164020E+00
         21   -1    0    0  502  503  0.00000000000E+00  0.00000000000E+00  0.82668371383E+02  0.82668371383E+02  0.00000000000E+00 0.  1.
         21   -1    0    0  503  504 -0.00000000000E+00 -0.00000000000E+00 -0.40932065327E+03  0.40932065327E+03  0.00000000000E+00 0.  1.
         -6    2    1    2    0  504  0.60187100842E+02 -0.27167541237E+01 -0.15278478906E+03  0.23928736875E+03  0.17402696692E+03 0.  0.
        -24    2    3    3    0    0  0.22025962132E+02 -0.69003113369E+02 -0.99316438937E+02  0.14584696853E+03  0.78492104844E+02 0.  0.
          6    2    1    2  502    0 -0.60187100842E+02  0.27167541237E+01 -0.17386749283E+03  0.25270165590E+03  0.17320032902E+03 0.  0.
         24    2    5    5    0    0 -0.79375900782E+02 -0.51784818665E+02 -0.13024147191E+03  0.18014856375E+03  0.80675045378E+02 0.  0.
          2    1    6    6  501    0 -0.22496635715E+01 -0.24516136434E+02  0.19458504877E+01  0.24695915977E+02  0.00000000000E+00 0. -1.
         -1    1    6    6    0  501 -0.77126237211E+02 -0.27268682231E+02 -0.13218732240E+03  0.15545264777E+03  0.00000000000E+00 0.  1.
          5    1    5    5  502    0  0.19188799940E+02  0.54501572788E+02 -0.43626020921E+02  0.72553092153E+02  0.47000000000E+01 0. -1.
         11    1    4    4    0    0  0.39165874769E+01  0.11217050478E+02  0.51033071315E+01  0.12930801312E+02  0.00000000000E+00 0. -1.
        -12    1    4    4    0    0  0.18109374655E+02 -0.80220163847E+02 -0.10441974607E+03  0.13291616722E+03  0.00000000000E+00 0.  1.
         -5    1    3    3    0  504  0.38161138710E+02  0.66286359246E+02 -0.53468350121E+02  0.93440400226E+02  0.47000000000E+01 0.  1.
<mgrwt>
<rscale>  2 0.18396539E+03</rscale>
<asrwt>0</asrwt>
<pdfrwt beam="1">  1       21 0.12718211E-01 0.18416094E+03</pdfrwt>
<pdfrwt beam="2">  1       21 0.62972408E-01 0.18416094E+03</pdfrwt>
<totfact> 0.12381766E+05</totfact>
</mgrwt>
</event>
<event>
12    1  0.2743855E-001  0.1812120E+03  0.7546771E-02  0.1166686E+00
         21   -1    0    0  502  503  0.00000000000E+00  0.00000000000E+00  0.11735274270E+04  0.11735274270E+04  0.00000000000E+00 0. -1.
         21   -1    0    0  503  504 -0.00000000000E+00 -0.00000000000E+00 -0.42373759196E+02  0.42373759196E+02  0.00000000000E+00 0. -1.
         -6    2    1    2    0  504 -0.38277880077E+02 -0.37950167423E+02  0.21109040340E+03  0.27820304866E+03  0.17300972969E+03 0.  0.
        -24    2    3    3    0    0 -0.83136590722E+01 -0.80307786242E+02  0.84227023113E+02  0.14105922025E+03  0.79278337130E+02 0.  0.
          6    2    1    2  502    0  0.38277880077E+02  0.37950167423E+02  0.92006326442E+03  0.93769813755E+03  0.17278881711E+03 0.  0.
         24    2    5    5    0    0  0.38598068189E+02 -0.46106930198E+02  0.48806981705E+03  0.49757755549E+03  0.75865786319E+02 0.  0.
          2    1    6    6  501    0  0.45026045125E+02 -0.16403931954E+01  0.33606522406E+03  0.33907207265E+03  0.00000000000E+00 0. -1.
         -1    1    6    6    0  501 -0.64279769360E+01 -0.44466537003E+02  0.15200459299E+03  0.15850548284E+03  0.00000000000E+00 0.  1.
          5    1    5    5  502    0 -0.32018811178E+00  0.84057097621E+02  0.43199344737E+03  0.44012058206E+03  0.47000000000E+01 0. -1.
         11    1    4    4    0    0 -0.42769362269E+02 -0.49795710605E+02  0.60543873657E+02  0.89299450060E+02  0.00000000000E+00 0. -1.
        -12    1    4    4    0    0  0.34455703197E+02 -0.30512075637E+02  0.23683149456E+02  0.51759770195E+02  0.00000000000E+00 0.  1.
         -5    1    3    3    0  504 -0.29964221005E+02  0.42357618819E+02  0.12686338029E+03  0.13714382841E+03  0.47000000000E+01 0.  1.
<mgrwt>
<rscale>  2 0.18115922E+03</rscale>
<asrwt>0</asrwt>
<pdfrwt beam="1">  1       21 0.18054266E+00 0.18121197E+03</pdfrwt>
<pdfrwt beam="2">  1       21 0.65190408E-02 0.18121197E+03</pdfrwt>
<totfact> 0.31093439E+04</totfact>
</mgrwt>
</event>
