<event>
12    1  0.2768653E-001  0.2725083E+03  0.7546771E-02  0.1099981E+00
         21   -1    0    0  504  503  0.00000000000E+00  0.00000000000E+00  0.45600329660E+03  0.45600329660E+03  0.00000000000E+00 0. -1.
         21   -1    0    0  502  504 -0.00000000000E+00 -0.00000000000E+00 -0.34412908518E+03  0.34412908518E+03  0.00000000000E+00 0.  1.
          6    2    1    2  502    0 -0.94188269867E+02  0.18798461284E+03 -0.23490516108E+03  0.35909191161E+03  0.17192126522E+03 0.  0.
         24    2    3    3    0    0 -0.11728002747E+03  0.19252026079E+03 -0.23647305072E+03  0.33504301040E+03  0.74267485761E+02 0.  0.
         -6    2    1    2    0  503  0.94188269867E+02 -0.18798461284E+03  0.34677937250E+03  0.44104047017E+03  0.17335258376E+03 0.  0.
        -24    2    5    5    0    0  0.77412189679E+02 -0.20609684966E+03  0.34327402025E+03  0.41566592616E+03  0.80452163709E+02 0.  0.
          2    1    4    4  501    0 -0.93244392461E+02  0.81943010390E+02 -0.12731954381E+03  0.17781855897E+03  0.00000000000E+00 0. -1.
         -1    1    4    4    0  501 -0.24035635006E+02  0.11057725040E+03 -0.10915350691E+03  0.15722445143E+03  0.00000000000E+00 0.  1.
          5    1    3    3  502    0  0.23091757599E+02 -0.45356479585E+01  0.15678896381E+01  0.24048901209E+02  0.47000000000E+01 0. -1.
         11    1    6    6    0    0 -0.15833350217E+02 -0.17518735275E+02  0.27700689659E+02  0.36399577914E+02  0.00000000000E+00 0. -1.
        -12    1    6    6    0    0  0.93245539896E+02 -0.18857811438E+03  0.31557333059E+03  0.37926634825E+03  0.00000000000E+00 0.  1.
         -5    1    5    5    0  503  0.16776080188E+02  0.18112236824E+02  0.35053522498E+01  0.25374544008E+02  0.47000000000E+01 0.  1.
<mgrwt>
<rscale>  2 0.27228093E+03</rscale>
<asrwt>0</asrwt>
<pdfrwt beam="1">  1       21 0.70154353E-01 0.27250828E+03</pdfrwt>
<pdfrwt beam="2">  1       21 0.52942936E-01 0.27250828E+03</pdfrwt>
<totfact> 0.59171970E+03</totfact>
</mgrwt>
</event>
<event>
12    1  0.2768653E-001  0.2378877E+03  0.7546771E-02  0.1121239E+00
         21   -1    0    0  504  503  0.00000000000E+00  0.00000000000E+00  0.16880419334E+03  0.16880419334E+03  0.00000000000E+00 0.  1.
         21   -1    0    0  502  504 -0.00000000000E+00 -0.00000000000E+00 -0.34385863038E+03  0.34385863038E+03  0.00000000000E+00 0. -1.
          6    2    1    2  502    0 -0.11626347114E+03  0.11494484255E+03 -0.12874497667E+03  0.27049185706E+03  0.17280354211E+03 0.  0.
         24    2    3    3    0    0 -0.94353414603E+02  0.49210041789E+02 -0.14758017269E+03  0.19853374968E+03  0.79445247373E+02 0.  0.
         -6    2    1    2    0  503  0.11626347114E+03 -0.11494484255E+03 -0.46309460370E+02  0.24217096666E+03  0.17254767290E+03 0.  0.
        -24    2    5    5    0    0  0.65970452927E+02 -0.71475198654E+01 -0.61646826825E+02  0.12214190656E+03  0.81945874700E+02 0.  0.
          4    1    4    4  501    0 -0.39888964237E+02  0.43450488252E+02 -0.12699588711E+03  0.14002510396E+03  0.00000000000E+00 0. -1.
         -3    1    4    4    0  501 -0.54464450366E+02  0.57595535362E+01 -0.20584285582E+02  0.58508645716E+02  0.00000000000E+00 0.  1.
          5    1    3    3  502    0 -0.21910056539E+02  0.65734800757E+02  0.18835196024E+02  0.71958107378E+02  0.47000000000E+01 0. -1.
         13    1    6    6    0    0  0.51113882232E+02 -0.94526235120E+01 -0.81848636706E+02  0.96959684295E+02  0.00000000000E+00 0. -1.
        -14    1    6    6    0    0  0.14856570695E+02  0.23051036466E+01  0.20201809880E+02  0.25182222263E+02  0.00000000000E+00 0.  1.
         -5    1    5    5    0  503  0.50293018214E+02 -0.10779732268E+03  0.15337366455E+02  0.12002906010E+03  0.47000000000E+01 0.  1.
<mgrwt>
<rscale>  2 0.23784127E+03</rscale>
<asrwt>0</asrwt>
<pdfrwt beam="1">  1       21 0.25969876E-01 0.23788774E+03</pdfrwt>
<pdfrwt beam="2">  1       21 0.52901327E-01 0.23788774E+03</pdfrwt>
<totfact> 0.46692191E+04</totfact>
</mgrwt>
</event>
<event>
12    1  0.2768653E-001  0.2835221E+03  0.7546771E-02  0.1094211E+00
         21   -1    0    0  504  503  0.00000000000E+00  0.00000000000E+00  0.17932474159E+03  0.17932474159E+03  0.00000000000E+00 0. -1.
         21   -1    0    0  502  504 -0.00000000000E+00 -0.00000000000E+00 -0.44466688756E+03  0.44466688756E+03  0.00000000000E+00 0. -1.
          6    2    1    2  502    0  0.18843694738E+02 -0.22413750704E+03 -0.14960219467E+03  0.31775561942E+03  0.16731739338E+03 0.  0.
         24    2    3    3    0    0 -0.21689926069E+02 -0.20406687189E+03 -0.15848424806E+03  0.27142220077E+03  0.80243461377E+02 0.  0.
         -6    2    1    2    0  503 -0.18843694738E+02  0.22413750704E+03 -0.11573995130E+03  0.30623600973E+03  0.17260373818E+03 0.  0.
        -24    2    5    5    0    0 -0.27254969208E+02  0.23418811716E+03 -0.13517996516E+03  0.28232432973E+03  0.76462386898E+02 0.  0.
          4    1    4    4  501    0 -0.40356396638E+02 -0.17009775365E+03 -0.10041716033E+03  0.20160726831E+03  0.00000000000E+00 0. -1.
         -3    1    4    4    0  501  0.18666470569E+02 -0.33969118239E+02 -0.58067087731E+02  0.69814932464E+02  0.00000000000E+00 0.  1.
          5    1    3    3  502    0  0.40533620807E+02 -0.20070635159E+02  0.88820533888E+01  0.46333418650E+02  0.47000000000E+01 0. -1.
         13    1    6    6    0    0 -0.47945276845E+02  0.10523208579E+03 -0.79582568560E+02  0.14037779978E+03  0.00000000000E+00 0. -1.
        -14    1    6    6    0    0  0.20690307636E+02  0.12895603136E+03 -0.55597396598E+02  0.14194652995E+03  0.00000000000E+00 0.  1.
         -5    1    5    5    0  503  0.84112744703E+01 -0.10050610114E+02  0.19440013860E+02  0.23911680007E+02  0.47000000000E+01 0.  1.
<mgrwt>
<rscale>  2 0.28272196E+03</rscale>
<asrwt>0</asrwt>
<pdfrwt beam="1">  1       21 0.27588422E-01 0.28352206E+03</pdfrwt>
<pdfrwt beam="2">  1       21 0.68410290E-01 0.28352206E+03</pdfrwt>
<totfact> 0.23356450E+04</totfact>
</mgrwt>
</event>
<event>
12    1  0.2768653E-001  0.2054967E+03  0.7546771E-02  0.1145336E+00
         21   -1    0    0  504  503  0.00000000000E+00  0.00000000000E+00  0.18693586349E+03  0.18693586349E+03  0.00000000000E+00 0. -1.
         21   -1    0    0  502  504 -0.00000000000E+00 -0.00000000000E+00 -0.59231761132E+03  0.59231761132E+03  0.00000000000E+00 0.  1.
          6    2    1    2  502    0  0.10697551173E+03  0.28170368519E+02 -0.50962533226E+03  0.54949691456E+03  0.17318068616E+03 0.  0.
         24    2    3    3    0    0  0.51486791075E+02  0.83253646285E+02 -0.30654672166E+03  0.33183622060E+03  0.81008181503E+02 0.  0.
         -6    2    1    2    0  503 -0.10697551173E+03 -0.28170368519E+02  0.10424358443E+03  0.22975656025E+03  0.17229051718E+03 0.  0.
        -24    2    5    5    0    0 -0.13602719217E+02 -0.57779008687E+02  0.82673373229E+02  0.12934483800E+03  0.79823258892E+02 0.  0.
          2    1    4    4  501    0  0.29240651929E+02  0.96678312140E+02 -0.24829095409E+03  0.26804870760E+03  0.00000000000E+00 0. -1.
         -1    1    4    4    0  501  0.22246139146E+02 -0.13424665855E+02 -0.58255767571E+02  0.63787513006E+02  0.00000000000E+00 0.  1.
          5    1    3    3  502    0  0.55488720656E+02 -0.55083277766E+02 -0.20307861060E+03  0.21766069395E+03  0.47000000000E+01 0. -1.
         11    1    6    6    0    0  0.30783936713E+01 -0.19643552330E+01  0.69530824612E+02  0.69626652729E+02  0.00000000000E+00 0. -1.
        -12    1    6    6    0    0 -0.16681112888E+02 -0.55814653454E+02  0.13142548617E+02  0.59718185267E+02  0.00000000000E+00 0.  1.
         -5    1    5    5    0  503 -0.93372792515E+02  0.29608640168E+02  0.21570211203E+02  0.10041172225E+03  0.47000000000E+01 0.  1.
<mgrwt>
<rscale>  2 0.20530900E+03</rscale>
<asrwt>0</asrwt>
<pdfrwt beam="1">  1       21 0.28759364E-01 0.20549667E+03</pdfrwt>
<pdfrwt beam="2">  1       21 0.91125786E-01 0.20549667E+03</pdfrwt>
<totfact> 0.11705879E+04</totfact>
</mgrwt>
</event>
<event>
12    1  0.2768653E-001  0.2347690E+03  0.7546771E-02  0.1123929E+00
         21   -1    0    0  504  503  0.00000000000E+00  0.00000000000E+00  0.23762452717E+03  0.23762452717E+03  0.00000000000E+00 0. -1.
         21   -1    0    0  502  504 -0.00000000000E+00 -0.00000000000E+00 -0.23803023501E+03  0.23803023501E+03  0.00000000000E+00 0.  1.
          6    2    1    2  502    0  0.14118804276E+03  0.73217701842E+02 -0.47747143929E+02  0.23957521349E+03  0.17268931027E+03 0.  0.
         24    2    3    3    0    0  0.12048552639E+03 -0.12599540953E+02 -0.30044513174E+02  0.14941609592E+03  0.82140041671E+02 0.  0.
         -6    2    1    2    0  503 -0.14118804276E+03 -0.73217701842E+02  0.47341436083E+02  0.23607954870E+03  0.16792095301E+03 0.  0.
        -24    2    5    5    0    0 -0.11621011697E+03 -0.11561293550E+03  0.39745422667E+02  0.18606912945E+03  0.78554950010E+02 0.  0.
          4    1    4    4  501    0 -0.51497371810E+01 -0.56495736427E+01 -0.22047178164E+02  0.23334856768E+02  0.00000000000E+00 0. -1.
         -3    1    4    4    0  501  0.12563526357E+03 -0.69499673106E+01 -0.79973350093E+01  0.12608123915E+03  0.00000000000E+00 0.  1.
          5    1    3    3  502    0  0.20702516369E+02  0.85817242795E+02 -0.17702630755E+02  0.90159117568E+02  0.47000000000E+01 0. -1.
         13    1    6    6    0    0 -0.47975435164E+02 -0.96243664877E+02  0.65016445028E+01  0.10773465918E+03  0.00000000000E+00 0. -1.
        -14    1    6    6    0    0 -0.68234681803E+02 -0.19369270620E+02  0.33243778164E+02  0.78334470265E+02  0.00000000000E+00 0.  1.
         -5    1    5    5    0  503 -0.24977925794E+02  0.42395233655E+02  0.75960134157E+01  0.50010419249E+02  0.47000000000E+01 0.  1.
<mgrwt>
<rscale>  2 0.23389290E+03</rscale>
<asrwt>0</asrwt>
<pdfrwt beam="1">  1       21 0.36557620E-01 0.23476902E+03</pdfrwt>
<pdfrwt beam="2">  1       21 0.36620036E-01 0.23476902E+03</pdfrwt>
<totfact> 0.50908076E+04</totfact>
</mgrwt>
</event>
<event>
12    1  0.2768653E-001  0.2372939E+03  0.7546771E-02  0.1121814E+00
         21   -1    0    0  504  503  0.00000000000E+00  0.00000000000E+00  0.15010022531E+04  0.15010022531E+04  0.00000000000E+00 0.  1.
         21   -1    0    0  502  504 -0.00000000000E+00 -0.00000000000E+00 -0.51382431994E+02  0.51382431994E+02  0.00000000000E+00 0. -1.
          6    2    1    2  502    0 -0.12191052952E+03 -0.10794325356E+03  0.32013451160E+03  0.39849026674E+03  0.17261072959E+03 0.  0.
         24    2    3    3    0    0 -0.78492135877E+01 -0.56939979069E+02  0.86396448560E+02  0.13341124094E+03  0.83847728152E+02 0.  0.
         -6    2    1    2    0  503  0.12191052952E+03  0.10794325356E+03  0.11294853095E+04  0.11538944183E+04  0.17094250825E+03 0.  0.
        -24    2    5    5    0    0  0.23153926712E+02  0.25614672359E+02  0.70235510014E+03  0.70780791594E+03  0.80604859765E+02 0.  0.
          2    1    4    4  501    0  0.70688391677E+01 -0.64497238240E+02  0.24597295246E+02  0.69389402370E+02  0.00000000000E+00 0. -1.
         -1    1    4    4    0  501 -0.14918052755E+02  0.75572591714E+01  0.61799153313E+02  0.64021838574E+02  0.00000000000E+00 0.  1.
          5    1    3    3  502    0 -0.11406131593E+03 -0.51003274493E+02  0.23373806304E+03  0.26507902579E+03  0.47000000000E+01 0. -1.
         11    1    6    6    0    0 -0.11361156268E+02  0.27878573496E+02  0.99334609916E+02  0.10379622083E+03  0.00000000000E+00 0. -1.
        -12    1    6    6    0    0  0.34515082980E+02 -0.22639011370E+01  0.60302049022E+03  0.60401169511E+03  0.00000000000E+00 0.  1.
         -5    1    5    5    0  503  0.98756602808E+02  0.82328581203E+02  0.42713020934E+03  0.44608650238E+03  0.47000000000E+01 0.  1.
<mgrwt>
<rscale>  2 0.23699062E+03</rscale>
<asrwt>0</asrwt>
<pdfrwt beam="1">  1       21 0.23092339E+00 0.23729388E+03</pdfrwt>
<pdfrwt beam="2">  1       21 0.79049907E-02 0.23729388E+03</pdfrwt>
<totfact> 0.10190566E+04</totfact>
</mgrwt>
</event>
<event>
12    1  0.2768653E-001  0.1770990E+03  0.7546771E-02  0.1171189E+00
         21   -1    0    0  504  503  0.00000000000E+00  0.00000000000E+00  0.10770623714E+04  0.10770623714E+04  0.00000000000E+00 0. -1.
         21   -1    0    0  502  504 -0.00000000000E+00 -0.00000000000E+00 -0.32859572288E+02  0.32859572288E+02  0.00000000000E+00 0. -1.
          6    2    1    2  502    0 -0.34618537394E+02 -0.97574581590E+01  0.71528780696E+03  0.73635917827E+03  0.17115648255E+03 0.  0.
         24    2    3    3    0    0 -0.76210416368E+02 -0.21846441808E+01  0.64325468303E+03  0.65270457379E+03  0.80211427927E+02 0.  0.
         -6    2    1    2    0  503  0.34618537394E+02  0.97574581590E+01  0.32891499220E+03  0.37356276546E+03  0.17340823662E+03 0.  0.
        -24    2    5    5    0    0  0.10729946253E+00  0.72307487031E+02  0.20027956724E+03  0.22634627790E+03  0.76761632819E+02 0.  0.
          2    1    4    4  501    0 -0.74196915501E+02 -0.19707855357E+02  0.61216422913E+03  0.61695917633E+03  0.00000000000E+00 0. -1.
         -1    1    4    4    0  501 -0.20135008664E+01  0.17523211176E+02  0.31090453904E+02  0.35745397460E+02  0.00000000000E+00 0.  1.
          5    1    3    3  502    0  0.41591878974E+02 -0.75728139782E+01  0.72033123928E+02  0.83654604481E+02  0.47000000000E+01 0. -1.
         11    1    6    6    0    0 -0.29768497875E+02  0.43990300533E+02  0.59910606923E+02  0.80066165317E+02  0.00000000000E+00 0. -1.
        -12    1    6    6    0    0  0.29875797338E+02  0.28317186498E+02  0.14036896032E+03  0.14628011259E+03  0.00000000000E+00 0.  1.
         -5    1    5    5    0  503  0.34511237931E+02 -0.62550028872E+02  0.12863542496E+03  0.14721648756E+03  0.47000000000E+01 0.  1.
<mgrwt>
<rscale>  2 0.17654539E+03</rscale>
<asrwt>0</asrwt>
<pdfrwt beam="1">  1       21 0.16570188E+00 0.17709903E+03</pdfrwt>
<pdfrwt beam="2">  1       21 0.50553197E-02 0.17709903E+03</pdfrwt>
<totfact> 0.60966909E+04</totfact>
</mgrwt>
</event>
<event>
12    1  0.2768653E-001  0.1970478E+03  0.7546771E-02  0.1154111E+00
         21   -1    0    0  504  503  0.00000000000E+00  0.00000000000E+00  0.56619556895E+02  0.56619556895E+02  0.00000000000E+00 0.  1.
         21   -1    0    0  502  504 -0.00000000000E+00 -0.00000000000E+00 -0.65682894640E+03  0.65682894640E+03  0.00000000000E+00 0.  1.
          6    2    1    2  502    0 -0.52401751728E+02  0.78539478362E+02 -0.30215614598E+03  0.36073003114E+03  0.17295498132E+03 0.  0.
         24    2    3    3    0    0 -0.57837566547E+02  0.57048059799E+02 -0.83379768207E+02  0.14078316795E+03  0.79171013639E+02 0.  0.
         -6    2    1    2    0  503  0.52401751728E+02 -0.78539478362E+02 -0.29805324352E+03  0.35271847216E+03  0.16327948855E+03 0.  0.
        -24    2    5    5    0    0 -0.61755976354E+01 -0.72485656608E+01 -0.71506005147E+02  0.10805658034E+03  0.80451451647E+02 0.  0.
          4    1    4    4  501    0 -0.33739953448E+02  0.73684571622E+02 -0.74760341374E+02  0.11025837472E+03  0.00000000000E+00 0. -1.
         -3    1    4    4    0  501 -0.24097613099E+02 -0.16636511823E+02 -0.86194268334E+01  0.30524793228E+02  0.00000000000E+00 0.  1.
          5    1    3    3  502    0  0.54358148183E+01  0.21491418563E+02 -0.21877637778E+03  0.21994686319E+03  0.47000000000E+01 0. -1.
         13    1    6    6    0    0 -0.29446012456E+02  0.18571027028E+01 -0.77010502335E+02  0.82468987807E+02  0.00000000000E+00 0. -1.
        -14    1    6    6    0    0  0.23270414820E+02 -0.91056683636E+01  0.55044971884E+01  0.25587592531E+02  0.00000000000E+00 0.  1.
         -5    1    5    5    0  503  0.58577349364E+02 -0.71290912701E+02 -0.22654723837E+03  0.24466189182E+03  0.47000000000E+01 0.  1.
<mgrwt>
<rscale>  2 0.19490416E+03</rscale>
<asrwt>0</asrwt>
<pdfrwt beam="1">  1       21 0.87107015E-02 0.19704776E+03</pdfrwt>
<pdfrwt beam="2">  1       21 0.10105060E+00 0.19704776E+03</pdfrwt>
<totfact> 0.82667665E+04</totfact>
</mgrwt>
</event>
<event>
12    1  0.2768653E-001  0.1768353E+03  0.7546771E-02  0.1172879E+00
         21   -1    0    0  504  503  0.00000000000E+00  0.00000000000E+00  0.74600381571E+03  0.74600381571E+03  0.00000000000E+00 0. -1.
         21   -1    0    0  502  504 -0.00000000000E+00 -0.00000000000E+00 -0.43559277539E+02  0.43559277539E+02  0.00000000000E+00 0. -1.
          6    2    1    2  502    0 -0.28703201052E+01  0.23593861505E+02  0.24712245654E+03  0.30387535765E+03  0.17523074908E+03 0.  0.
         24    2    3    3    0    0 -0.67357620702E+02  0.33601555067E+02  0.14262999760E+03  0.18058898434E+03  0.81258547122E+02 0.  0.
         -6    2    1    2    0  503  0.28703201052E+01 -0.23593861505E+02  0.45532208163E+03  0.48568773560E+03  0.16736029831E+03 0.  0.
        -24    2    5    5    0    0 -0.14653380593E+02 -0.48525828108E+02  0.13697652478E+03  0.16585236136E+03  0.78580912903E+02 0.  0.
          2    1    4    4  501    0 -0.83008082844E+02  0.38932098137E+02  0.13273272143E+03  0.16131963743E+03  0.00000000000E+00 0. -1.
         -1    1    4    4    0  501  0.15650462143E+02 -0.53305430707E+01  0.98972761689E+01  0.19269346908E+02  0.00000000000E+00 0.  1.
          5    1    3    3  502    0  0.64487300596E+02 -0.10007693562E+02  0.10449245894E+03  0.12328637331E+03  0.47000000000E+01 0. -1.
         13    1    6    6    0    0  0.18999316367E+02 -0.87212898549E+01  0.99453952785E+02  0.10162737645E+03  0.00000000000E+00 0. -1.
        -14    1    6    6    0    0 -0.33652696961E+02 -0.39804538254E+02  0.37522571995E+02  0.64224984916E+02  0.00000000000E+00 0.  1.
         -5    1    5    5    0  503  0.17523700699E+02  0.24931966603E+02  0.31834555685E+03  0.31983537424E+03  0.47000000000E+01 0.  1.
<mgrwt>
<rscale>  2 0.17485330E+03</rscale>
<asrwt>0</asrwt>
<pdfrwt beam="1">  1       21 0.11476981E+00 0.17683530E+03</pdfrwt>
<pdfrwt beam="2">  1       21 0.67014278E-02 0.17683530E+03</pdfrwt>
<totfact> 0.96735803E+04</totfact>
</mgrwt>
</event>
<event>
12    1  0.2768653E-001  0.1986106E+03  0.7546771E-02  0.1151420E+00
         21   -1    0    0  504  503  0.00000000000E+00  0.00000000000E+00  0.10817610653E+03  0.10817610653E+03  0.00000000000E+00 0. -1.
         21   -1    0    0  502  504 -0.00000000000E+00 -0.00000000000E+00 -0.36322056114E+03  0.36322056114E+03  0.00000000000E+00 0. -1.
          6    2    1    2  502    0  0.27957513870E+02  0.95980989816E+02 -0.14923243314E+03  0.24842806416E+03  0.17161646475E+03 0.  0.
         24    2    3    3    0    0  0.54981537052E+02  0.39439972891E+02 -0.15077122006E+03  0.18556597472E+03  0.84405505139E+02 0.  0.
         -6    2    1    2    0  503 -0.27957513870E+02 -0.95980989816E+02 -0.10581202147E+03  0.22296860351E+03  0.16889298764E+03 0.  0.
        -24    2    5    5    0    0 -0.82906021707E+02 -0.64204279871E+02 -0.61097156037E+02  0.14518295574E+03  0.79684566709E+02 0.  0.
          4    1    4    4  501    0  0.68779041800E+02  0.46387571093E+02 -0.14829212984E+03  0.16992033167E+03  0.00000000000E+00 0. -1.
         -3    1    4    4    0  501 -0.13797504748E+02 -0.69475982018E+01 -0.24790902150E+01  0.15645643046E+02  0.00000000000E+00 0.  1.
          5    1    3    3  502    0 -0.27024023182E+02  0.56541016925E+02  0.15387869189E+01  0.62862089442E+02  0.47000000000E+01 0. -1.
         13    1    6    6    0    0 -0.51945554806E+02 -0.60242611330E+02 -0.34408529312E+01  0.79620049943E+02  0.00000000000E+00 0. -1.
        -14    1    6    6    0    0 -0.30960466901E+02 -0.39616685411E+01 -0.57656303106E+02  0.65562905795E+02  0.00000000000E+00 0.  1.
         -5    1    5    5    0  503  0.54948507837E+02 -0.31776709945E+02 -0.44714865433E+02  0.77785647771E+02  0.47000000000E+01 0.  1.
<mgrwt>
<rscale>  2 0.19802088E+03</rscale>
<asrwt>0</asrwt>
<pdfrwt beam="1">  1       21 0.16642478E-01 0.19861063E+03</pdfrwt>
<pdfrwt beam="2">  1       21 0.55880086E-01 0.19861063E+03</pdfrwt>
<totfact> 0.97602285E+04</totfact>
</mgrwt>
</event>
<event>
12    1  0.2768653E-001  0.2192275E+03  0.7546771E-02  0.1137177E+00
         21   -1    0    0  504  503  0.00000000000E+00  0.00000000000E+00  0.17456219792E+03  0.17456219792E+03  0.00000000000E+00 0. -1.
         21   -1    0    0  502  504 -0.00000000000E+00 -0.00000000000E+00 -0.79205084459E+03  0.79205084459E+03  0.00000000000E+00 0. -1.
          6    2    1    2  502    0 -0.10202193277E+03  0.49440132108E+02 -0.70221109749E+03  0.73158416962E+03  0.17106189050E+03 0.  0.
         24    2    3    3    0    0 -0.90449798237E+02  0.66765201572E+02 -0.31015382080E+03  0.33894556921E+03  0.77781412888E+02 0.  0.
         -6    2    1    2    0  503  0.10202193277E+03 -0.49440132108E+02  0.84722450820E+02  0.23502887288E+03  0.18763761879E+03 0.  0.
        -24    2    5    5    0    0  0.32680576633E+02 -0.10009211812E+03  0.56240531667E+02  0.14443551178E+03  0.81315235115E+02 0.  0.
          4    1    4    4  501    0 -0.94221368489E+02  0.69857411100E+02 -0.31231270110E+03  0.33361197136E+03  0.00000000000E+00 0. -1.
         -3    1    4    4    0  501  0.37715702526E+01 -0.30922095280E+01  0.21588802994E+01  0.53335978554E+01  0.00000000000E+00 0.  1.
          5    1    3    3  502    0 -0.11572134534E+02 -0.17325069464E+02 -0.39205727669E+03  0.39263860041E+03  0.47000000000E+01 0. -1.
         11    1    6    6    0    0  0.53950685013E+02 -0.58232352191E+02  0.56575364773E+02  0.97480537310E+02  0.00000000000E+00 0. -1.
        -12    1    6    6    0    0 -0.21270108381E+02 -0.41859765926E+02 -0.33483310600E+00  0.46954974466E+02  0.00000000000E+00 0.  1.
         -5    1    5    5    0  503  0.69341356139E+02  0.50651986009E+02  0.28481919153E+02  0.90593361106E+02  0.47000000000E+01 0.  1.
<mgrwt>
<rscale>  2 0.21563824E+03</rscale>
<asrwt>0</asrwt>
<pdfrwt beam="1">  1       21 0.26855723E-01 0.21922746E+03</pdfrwt>
<pdfrwt beam="2">  1       21 0.12185398E+00 0.21922746E+03</pdfrwt>
<totfact> 0.65804141E+03</totfact>
</mgrwt>
</event>
<event>
12    1  0.2768653E-001  0.2501916E+03  0.7546771E-02  0.1113345E+00
         21   -1    0    0  504  503  0.00000000000E+00  0.00000000000E+00  0.17518040559E+03  0.17518040559E+03  0.00000000000E+00 0.  1.
         21   -1    0    0  502  504 -0.00000000000E+00 -0.00000000000E+00 -0.54226647724E+03  0.54226647724E+03  0.00000000000E+00 0.  1.
          6    2    1    2  502    0  0.15835315477E+03  0.86145034699E+02 -0.39410650410E+03  0.46681448761E+03  0.17349103908E+03 0.  0.
         24    2    3    3    0    0  0.62639998646E+02  0.36841836637E+02 -0.99013315042E+02  0.15265864440E+03  0.90663856073E+02 0.  0.
         -6    2    1    2    0  503 -0.15835315477E+03 -0.86145034699E+02  0.27020432441E+02  0.25063239522E+03  0.17201687456E+03 0.  0.
        -24    2    5    5    0    0 -0.16906268491E+03 -0.33079398591E+02  0.39911836903E+02  0.19478497737E+03  0.81681054378E+02 0.  0.
          2    1    4    4  501    0  0.23744563482E+02  0.46261515679E+02 -0.71910630768E+01  0.52494223644E+02  0.00000000000E+00 0. -1.
         -1    1    4    4    0  501  0.38895435164E+02 -0.94196790416E+01 -0.91822251965E+02  0.10016442076E+03  0.00000000000E+00 0.  1.
          5    1    3    3  502    0  0.95713156126E+02  0.49303198062E+02 -0.29509318906E+03  0.31415584321E+03  0.47000000000E+01 0. -1.
         11    1    6    6    0    0 -0.36478255723E+02  0.43427550133E+00  0.45007524772E+02  0.57935559218E+02  0.00000000000E+00 0. -1.
        -12    1    6    6    0    0 -0.13258442919E+03 -0.33513674092E+02 -0.50956878686E+01  0.13684941815E+03  0.00000000000E+00 0.  1.
         -5    1    5    5    0  503  0.10709530136E+02 -0.53065636109E+02 -0.12891404463E+02  0.55847417849E+02  0.47000000000E+01 0.  1.
<mgrwt>
<rscale>  2 0.24993620E+03</rscale>
<asrwt>0</asrwt>
<pdfrwt beam="1">  1       21 0.26950832E-01 0.25019159E+03</pdfrwt>
<pdfrwt beam="2">  1       21 0.83425611E-01 0.25019159E+03</pdfrwt>
<totfact> 0.15863647E+04</totfact>
</mgrwt>
</event>
<event>
12    1  0.2768653E-001  0.3459626E+03  0.7546771E-02  0.1064358E+00
         21   -1    0    0  504  503  0.00000000000E+00  0.00000000000E+00  0.11376303413E+04  0.11376303413E+04  0.00000000000E+00 0.  1.
         21   -1    0    0  502  504 -0.00000000000E+00 -0.00000000000E+00 -0.11278022074E+03  0.11278022074E+03  0.00000000000E+00 0. -1.
          6    2    1    2  502    0 -0.28893500010E+03 -0.77555778590E+02  0.67717932282E+03  0.76043539239E+03  0.17375792838E+03 0.  0.
         24    2    3    3    0    0 -0.30321525895E+03 -0.59718286032E+02  0.59984485878E+03  0.67965908855E+03  0.81344053898E+02 0.  0.
         -6    2    1    2    0  503  0.28893500010E+03  0.77555778590E+02  0.34767079778E+03  0.48997516968E+03  0.17234369790E+03 0.  0.
        -24    2    5    5    0    0  0.16352311025E+03 -0.17103406246E+02  0.15010242266E+03  0.23749971299E+03  0.82722683038E+02 0.  0.
          4    1    4    4  501    0 -0.16906569764E+03  0.52932492392E+01  0.28759756491E+03  0.33365189637E+03  0.00000000000E+00 0. -1.
         -3    1    4    4    0  501 -0.13414956131E+03 -0.65011535271E+02  0.31224729387E+03  0.34600719218E+03  0.00000000000E+00 0.  1.
          5    1    3    3  502    0  0.14280258847E+02 -0.17837492558E+02  0.77334464039E+02  0.80776303838E+02  0.47000000000E+01 0. -1.
         13    1    6    6    0    0  0.52562227419E+02  0.96502751720E+00  0.34089026050E+01  0.52681492446E+02  0.00000000000E+00 0. -1.
        -14    1    6    6    0    0  0.11096088283E+03 -0.18068433763E+02  0.14669352006E+03  0.18481822054E+03  0.00000000000E+00 0.  1.
         -5    1    5    5    0  503  0.12541188985E+03  0.94659184836E+02  0.19756837511E+03  0.25247545670E+03  0.47000000000E+01 0.  1.
<mgrwt>
<rscale>  2 0.34578548E+03</rscale>
<asrwt>0</asrwt>
<pdfrwt beam="1">  1       21 0.17502004E+00 0.34596264E+03</pdfrwt>
<pdfrwt beam="2">  1       21 0.17350804E-01 0.34596264E+03</pdfrwt>
<totfact> 0.53540361E+03</totfact>
</mgrwt>
</event>
<event>
12    1  0.2768653E-001  0.2440377E+03  0.7546771E-02  0.1117296E+00
         21   -1    0    0  504  503  0.00000000000E+00  0.00000000000E+00  0.27101177434E+04  0.27101177434E+04  0.00000000000E+00 0. -1.
         21   -1    0    0  502  504 -0.00000000000E+00 -0.00000000000E+00 -0.21895365150E+02  0.21895365150E+02  0.00000000000E+00 0.  1.
          6    2    1    2  502    0 -0.48713624206E+02  0.16506441957E+03  0.13112008459E+04  0.13335344008E+04  0.17160145737E+03 0.  0.
         24    2    3    3    0    0  0.36780138591E+02  0.86741153543E+02  0.78702304542E+03  0.79666553977E+03  0.79961877961E+02 0.  0.
         -6    2    1    2    0  503  0.48713624206E+02 -0.16506441957E+03  0.13770215323E+04  0.13984787077E+04  0.17301767408E+03 0.  0.
        -24    2    5    5    0    0  0.45121981039E+02 -0.99460711153E+02  0.12275549198E+04  0.12351413123E+04  0.82186094123E+02 0.  0.
          4    1    4    4  501    0  0.17192940177E+02  0.86187782614E+02  0.74647732262E+03  0.75163310481E+03  0.00000000000E+00 0. -1.
         -3    1    4    4    0  501  0.19587198414E+02  0.55337092942E+00  0.40545722795E+02  0.45032434956E+02  0.00000000000E+00 0.  1.
          5    1    3    3  502    0 -0.85493762797E+02  0.78323266024E+02  0.52417780046E+03  0.53686886105E+03  0.47000000000E+01 0. -1.
         11    1    6    6    0    0 -0.78898689062E+01  0.86198668466E+01  0.23869686154E+03  0.23898272709E+03  0.00000000000E+00 0. -1.
        -12    1    6    6    0    0  0.53011849945E+02 -0.10808057800E+03  0.98885805826E+03  0.99615858524E+03  0.00000000000E+00 0.  1.
         -5    1    5    5    0  503  0.35916431671E+01 -0.65603708414E+02  0.14946661253E+03  0.16333739535E+03  0.47000000000E+01 0.  1.
<mgrwt>
<rscale>  2 0.24378680E+03</rscale>
<asrwt>0</asrwt>
<pdfrwt beam="1">  1       21 0.41694093E+00 0.24403769E+03</pdfrwt>
<pdfrwt beam="2">  1       21 0.33685199E-02 0.24403769E+03</pdfrwt>
<totfact> 0.33348910E+03</totfact>
</mgrwt>
</event>
<event>
12    1  0.2768653E-001  0.2110092E+03  0.7546771E-02  0.1140802E+00
         21   -1    0    0  504  503  0.00000000000E+00  0.00000000000E+00  0.47287986530E+03  0.47287986530E+03  0.00000000000E+00 0.  1.
         21   -1    0    0  502  504 -0.00000000000E+00 -0.00000000000E+00 -0.14613272153E+03  0.14613272153E+03  0.00000000000E+00 0. -1.
          6    2    1    2  502    0 -0.91290173590E+02  0.79617648848E+02 -0.21386412002E+02  0.21192311285E+03  0.17257219167E+03 0.  0.
         24    2    3    3    0    0 -0.71358947094E+02  0.78444956390E+01 -0.64366616151E+02  0.12579514259E+03  0.80794314052E+02 0.  0.
         -6    2    1    2    0  503  0.91290173590E+02 -0.79617648848E+02  0.34813355577E+03  0.40708947398E+03  0.17277731729E+03 0.  0.
        -24    2    5    5    0    0  0.74467914146E+01 -0.93862491178E+02  0.23267227112E+03  0.26361116021E+03  0.80553312089E+02 0.  0.
          2    1    4    4  501    0 -0.70941944086E+02 -0.21465955017E+02 -0.61557075793E+02  0.96347393508E+02  0.00000000000E+00 0. -1.
         -1    1    4    4    0  501 -0.41700300774E+00  0.29310450656E+02 -0.28095403579E+01  0.29447749086E+02  0.00000000000E+00 0.  1.
          5    1    3    3  502    0 -0.19931226496E+02  0.71773153209E+02  0.42980204149E+02  0.86127970253E+02  0.47000000000E+01 0. -1.
         13    1    6    6    0    0  0.29158811550E+02 -0.18338598826E+01  0.49711945446E+02  0.57661745145E+02  0.00000000000E+00 0. -1.
        -14    1    6    6    0    0 -0.21712020136E+02 -0.92028631296E+02  0.18296032567E+03  0.20594941507E+03  0.00000000000E+00 0.  1.
         -5    1    5    5    0  503  0.83843382176E+02  0.14244842330E+02  0.11546128465E+03  0.14347831376E+03  0.47000000000E+01 0.  1.
<mgrwt>
<rscale>  2 0.21096717E+03</rscale>
<asrwt>0</asrwt>
<pdfrwt beam="1">  1       21 0.72750748E-01 0.21100916E+03</pdfrwt>
<pdfrwt beam="2">  1       21 0.22481957E-01 0.21100916E+03</pdfrwt>
<totfact> 0.31213156E+04</totfact>
</mgrwt>
</event>
<event>
12    1  0.2768653E-001  0.2086905E+03  0.7546771E-02  0.1143025E+00
         21   -1    0    0  504  503  0.00000000000E+00  0.00000000000E+00  0.10417900030E+04  0.10417900030E+04  0.00000000000E+00 0. -1.
         21   -1    0    0  502  504 -0.00000000000E+00 -0.00000000000E+00 -0.44882218289E+02  0.44882218289E+02  0.00000000000E+00 0. -1.
          6    2    1    2  502    0 -0.29114780595E+02  0.10935184938E+03  0.34457103569E+03  0.40176715869E+03  0.17286455320E+03 0.  0.
         24    2    3    3    0    0  0.45009811186E+02  0.40407177385E+02  0.12493255546E+03  0.15987673949E+03  0.79333506970E+02 0.  0.
         -6    2    1    2    0  503  0.29114780595E+02 -0.10935184938E+03  0.65233674906E+03  0.68490506264E+03  0.17534598155E+03 0.  0.
        -24    2    5    5    0    0  0.22033555989E+02 -0.14640868913E+03  0.48157817145E+03  0.50996525888E+03  0.78905311599E+02 0.  0.
          2    1    4    4  501    0  0.21982492789E+02 -0.16787293827E+02  0.76888461898E+02  0.81712170429E+02  0.00000000000E+00 0. -1.
         -1    1    4    4    0  501  0.23027318396E+02  0.57194471212E+02  0.48044093560E+02  0.78164569057E+02  0.00000000000E+00 0.  1.
          5    1    3    3  502    0 -0.74124591781E+02  0.68944671992E+02  0.21963848023E+03  0.24189041920E+03  0.47000000000E+01 0. -1.
         13    1    6    6    0    0  0.50035346562E+02 -0.78954467502E+02  0.23892358316E+03  0.25655763960E+03  0.00000000000E+00 0. -1.
        -14    1    6    6    0    0 -0.28001790573E+02 -0.67454221631E+02  0.24265458829E+03  0.25340761928E+03  0.00000000000E+00 0.  1.
         -5    1    5    5    0  503  0.70812246055E+01  0.37056839755E+02  0.17075857760E+03  0.17493980376E+03  0.47000000000E+01 0.  1.
<mgrwt>
<rscale>  2 0.20816837E+03</rscale>
<asrwt>0</asrwt>
<pdfrwt beam="1">  1       21 0.16027537E+00 0.20869047E+03</pdfrwt>
<pdfrwt beam="2">  1       21 0.69049574E-02 0.20869047E+03</pdfrwt>
<totfact> 0.38425105E+04</totfact>
</mgrwt>
</event>
<event>
12    1  0.2768653E-001  0.1910682E+03  0.7546771E-02  0.1157688E+00
         21   -1    0    0  504  503  0.00000000000E+00  0.00000000000E+00  0.16930524199E+04  0.16930524199E+04  0.00000000000E+00 0. -1.
         21   -1    0    0  502  504 -0.00000000000E+00 -0.00000000000E+00 -0.24996741973E+02  0.24996741973E+02  0.00000000000E+00 0. -1.
          6    2    1    2  502    0 -0.66926137053E+02 -0.45383215677E+02  0.51289146695E+03  0.54732503721E+03  0.17311353326E+03 0.  0.
         24    2    3    3    0    0 -0.18314359076E+02  0.31036218531E+02  0.11540698008E+03  0.13962534113E+03  0.69841264481E+02 0.  0.
         -6    2    1    2    0  503  0.66926137053E+02  0.45383215677E+02  0.11551642109E+04  0.11707241246E+04  0.17219720574E+03 0.  0.
        -24    2    5    5    0    0  0.23888136671E+02  0.36308006239E+02  0.10797669527E+04  0.10833086486E+04  0.75973953088E+02 0.  0.
          4    1    4    4  501    0 -0.48267075258E+01 -0.15787920112E+02  0.25590997025E+01  0.16706421469E+02  0.00000000000E+00 0. -1.
         -3    1    4    4    0  501 -0.13487651550E+02  0.46824138643E+02  0.11284788038E+03  0.12291891966E+03  0.00000000000E+00 0.  1.
          5    1    3    3  502    0 -0.48611777977E+02 -0.76419434208E+02  0.39748448687E+03  0.40769969608E+03  0.47000000000E+01 0. -1.
         13    1    6    6    0    0  0.39970567164E+02  0.47399853319E+02  0.95607127006E+03  0.95807967610E+03  0.00000000000E+00 0. -1.
        -14    1    6    6    0    0 -0.16082430493E+02 -0.11091847080E+02  0.12369568264E+03  0.12522897247E+03  0.00000000000E+00 0.  1.
         -5    1    5    5    0  503  0.43038000382E+02  0.90752094379E+01  0.75397258239E+02  0.87415476051E+02  0.47000000000E+01 0.  1.
<mgrwt>
<rscale>  2 0.19086036E+03</rscale>
<asrwt>0</asrwt>
<pdfrwt beam="1">  1       21 0.26046951E+00 0.19106815E+03</pdfrwt>
<pdfrwt beam="2">  1       21 0.38456539E-02 0.19106815E+03</pdfrwt>
<totfact> 0.24202311E+04</totfact>
</mgrwt>
</event>
<event>
12    1  0.2768653E-001  0.1778750E+03  0.7546771E-02  0.1170313E+00
         21   -1    0    0  504  503  0.00000000000E+00  0.00000000000E+00  0.13802892614E+03  0.13802892614E+03  0.00000000000E+00 0.  1.
         21   -1    0    0  502  504 -0.00000000000E+00 -0.00000000000E+00 -0.40112382914E+03  0.40112382914E+03  0.00000000000E+00 0.  1.
          6    2    1    2  502    0  0.33492569155E+02 -0.41318548933E+01 -0.30955833656E+03  0.35702362784E+03  0.17464444650E+03 0.  0.
         24    2    3    3    0    0  0.79052063418E+02 -0.39875262263E+02 -0.17232755615E+03  0.20800136179E+03  0.75686951505E+02 0.  0.
         -6    2    1    2    0  503 -0.33492569155E+02  0.41318548933E+01  0.46463433556E+02  0.18212912744E+03  0.17283906963E+03 0.  0.
        -24    2    5    5    0    0  0.30871282972E+02 -0.39459996793E+02  0.42645667110E+02  0.10415720727E+03  0.80746166748E+02 0.  0.
          4    1    4    4  501    0  0.94463877233E+01 -0.42063946752E+02 -0.92587228468E+02  0.10213229035E+03  0.00000000000E+00 0. -1.
         -3    1    4    4    0  501  0.69605675695E+02  0.21886844894E+01 -0.79740327679E+02  0.10586907144E+03  0.00000000000E+00 0.  1.
          5    1    3    3  502    0 -0.45559494263E+02  0.35743407370E+02 -0.13723078041E+03  0.14902226605E+03  0.47000000000E+01 0. -1.
         11    1    6    6    0    0  0.39565666338E+01 -0.60370510769E+02  0.22394460484E+02  0.64511741957E+02  0.00000000000E+00 0. -1.
        -12    1    6    6    0    0  0.26914716339E+02  0.20910513976E+02  0.20251206626E+02  0.39645465316E+02  0.00000000000E+00 0.  1.
         -5    1    5    5    0  503 -0.64363852127E+02  0.43591851686E+02  0.38177664467E+01  0.77971920168E+02  0.47000000000E+01 0.  1.
<mgrwt>
<rscale>  2 0.17743025E+03</rscale>
<asrwt>0</asrwt>
<pdfrwt beam="1">  1       21 0.21235219E-01 0.17787498E+03</pdfrwt>
<pdfrwt beam="2">  1       21 0.61711359E-01 0.17787498E+03</pdfrwt>
<totfact> 0.50676244E+04</totfact>
</mgrwt>
</event>
<event>
12    1  0.2768653E-001  0.2043353E+03  0.7546771E-02  0.1146566E+00
         21   -1    0    0  504  503  0.00000000000E+00  0.00000000000E+00  0.44633665679E+02  0.44633665679E+02  0.00000000000E+00 0. -1.
         21   -1    0    0  502  504 -0.00000000000E+00 -0.00000000000E+00 -0.10808361515E+04  0.10808361515E+04  0.00000000000E+00 0. -1.
          6    2    1    2  502    0  0.42599614551E+02 -0.95396528514E+02 -0.72889655182E+03  0.75643073472E+03  0.17315325110E+03 0.  0.
         24    2    3    3    0    0  0.72956595666E+01  0.19129530819E+02 -0.35811203860E+03  0.36673106479E+03  0.76343146989E+02 0.  0.
         -6    2    1    2    0  503 -0.42599614551E+02  0.95396528514E+02 -0.30730593405E+03  0.36903908250E+03  0.17560661292E+03 0.  0.
        -24    2    5    5    0    0 -0.30131327106E+01  0.70421240422E+02 -0.71680946315E+02  0.12876407464E+03  0.80459920344E+02 0.  0.
          2    1    4    4  501    0 -0.22167598182E+02  0.13720612873E+01 -0.32842015776E+02  0.39646979223E+02  0.00000000000E+00 0. -1.
         -1    1    4    4    0  501  0.29463257748E+02  0.17757469532E+02 -0.32527002283E+03  0.32708408557E+03  0.00000000000E+00 0.  1.
          5    1    3    3  502    0  0.35303954984E+02 -0.11452605933E+03 -0.37078451321E+03  0.38969966993E+03  0.47000000000E+01 0. -1.
         13    1    6    6    0    0 -0.37447166251E+01 -0.70444403802E+01  0.12203406789E+02  0.14579786697E+02  0.00000000000E+00 0. -1.
        -14    1    6    6    0    0  0.73158391452E+00  0.77465680802E+02 -0.83884353104E+02  0.11418428794E+03  0.00000000000E+00 0.  1.
         -5    1    5    5    0  503 -0.39586481840E+02  0.24975288092E+02 -0.23562498773E+03  0.24027500786E+03  0.47000000000E+01 0.  1.
<mgrwt>
<rscale>  2 0.20380710E+03</rscale>
<asrwt>0</asrwt>
<pdfrwt beam="1">  1       21 0.68667184E-02 0.20433528E+03</pdfrwt>
<pdfrwt beam="2">  1       21 0.16628247E+00 0.20433528E+03</pdfrwt>
<totfact> 0.35190396E+04</totfact>
</mgrwt>
</event>
<event>
12    1  0.2768653E-001  0.2086850E+03  0.7546771E-02  0.1142896E+00
         21   -1    0    0  504  503  0.00000000000E+00  0.00000000000E+00  0.26209048301E+02  0.26209048301E+02  0.00000000000E+00 0. -1.
         21   -1    0    0  502  504 -0.00000000000E+00 -0.00000000000E+00 -0.18402349044E+04  0.18402349044E+04  0.00000000000E+00 0. -1.
          6    2    1    2  502    0 -0.11214645977E+03 -0.29920900191E+02 -0.12095882900E+04  0.12274580442E+04  0.17342817055E+03 0.  0.
         24    2    3    3    0    0 -0.67937237970E+02  0.51857722693E+02 -0.62952798851E+03  0.63997677490E+03  0.77201634624E+02 0.  0.
         -6    2    1    2    0  503  0.11214645977E+03  0.29920900191E+02 -0.60443756614E+03  0.63898590851E+03  0.17171526200E+03 0.  0.
        -24    2    5    5    0    0  0.89601352406E+02  0.84728034538E+02 -0.44371852183E+03  0.46762428781E+03  0.81111686913E+02 0.  0.
          2    1    4    4  501    0 -0.63260760804E+02  0.31362876420E+02 -0.24760801560E+03  0.25747870449E+03  0.00000000000E+00 0. -1.
         -1    1    4    4    0  501 -0.46764771660E+01  0.20494846273E+02 -0.38191997291E+03  0.38249807042E+03  0.00000000000E+00 0.  1.
          5    1    3    3  502    0 -0.44209221798E+02 -0.81778622884E+02 -0.58006030145E+03  0.58748126930E+03  0.47000000000E+01 0. -1.
         13    1    6    6    0    0  0.16591201930E+02  0.36214092379E+02 -0.48304655368E+02  0.62610447998E+02  0.00000000000E+00 0. -1.
        -14    1    6    6    0    0  0.73010150476E+02  0.48513942159E+02 -0.39541386646E+03  0.40501383982E+03  0.00000000000E+00 0.  1.
         -5    1    5    5    0  503  0.22545107363E+02 -0.54807134347E+02 -0.16071904432E+03  0.17136162070E+03  0.47000000000E+01 0.  1.
<mgrwt>
<rscale>  2 0.20832873E+03</rscale>
<asrwt>0</asrwt>
<pdfrwt beam="1">  1       21 0.40321601E-02 0.20868498E+03</pdfrwt>
<pdfrwt beam="2">  1       21 0.28311315E+00 0.20868498E+03</pdfrwt>
<totfact> 0.16259141E+04</totfact>
</mgrwt>
</event>
<event>
12    1  0.2768653E-001  0.1825870E+03  0.7546771E-02  0.1165438E+00
         21   -1    0    0  504  503  0.00000000000E+00  0.00000000000E+00  0.32122917093E+03  0.32122917093E+03  0.00000000000E+00 0.  1.
         21   -1    0    0  502  504 -0.00000000000E+00 -0.00000000000E+00 -0.81622124074E+03  0.81622124074E+03  0.00000000000E+00 0.  1.
          6    2    1    2  502    0  0.58380161597E+02  0.45797911037E+01 -0.77889642528E+03  0.79990087098E+03  0.17243127423E+03 0.  0.
         24    2    3    3    0    0  0.92793623623E+02  0.29371329309E+02 -0.68840727064E+03  0.69985446254E+03  0.80114710853E+02 0.  0.
         -6    2    1    2    0  503 -0.58380161597E+02 -0.45797911037E+01  0.28390435547E+03  0.33754954069E+03  0.17294158440E+03 0.  0.
        -24    2    5    5    0    0 -0.57776171334E+02 -0.64943182602E+02  0.18384994297E+03  0.22060049496E+03  0.85487273364E+02 0.  0.
          2    1    4    4  501    0  0.31105145983E+02  0.45301265924E+02 -0.20386281274E+03  0.21113924604E+03  0.00000000000E+00 0. -1.
         -1    1    4    4    0  501  0.61688477640E+02 -0.15929936614E+02 -0.48454445790E+03  0.48871521649E+03  0.00000000000E+00 0.  1.
          5    1    3    3  502    0 -0.34413462026E+02 -0.24791538206E+02 -0.90489154642E+02  0.10004640845E+03  0.47000000000E+01 0. -1.
         11    1    6    6    0    0  0.86647444242E+01  0.66995408785E+00 -0.49279022798E+01  0.99905382886E+01  0.00000000000E+00 0. -1.
        -12    1    6    6    0    0 -0.66440915759E+02 -0.65613136690E+02  0.18877784525E+03  0.21060995667E+03  0.00000000000E+00 0.  1.
         -5    1    5    5    0  503 -0.60399026238E+00  0.60363391498E+02  0.10005441250E+03  0.11694904573E+03  0.47000000000E+01 0.  1.
<mgrwt>
<rscale>  2 0.18246605E+03</rscale>
<asrwt>0</asrwt>
<pdfrwt beam="1">  1       21 0.49419873E-01 0.18258699E+03</pdfrwt>
<pdfrwt beam="2">  1       21 0.12557250E+00 0.18258699E+03</pdfrwt>
<totfact> 0.18590826E+03</totfact>
</mgrwt>
</event>
<event>
12    1  0.2768653E-001  0.2086487E+03  0.7546771E-02  0.1142925E+00
         21   -1    0    0  504  503  0.00000000000E+00  0.00000000000E+00  0.63716113525E+03  0.63716113525E+03  0.00000000000E+00 0.  1.
         21   -1    0    0  502  504 -0.00000000000E+00 -0.00000000000E+00 -0.16694769783E+03  0.16694769783E+03  0.00000000000E+00 0.  1.
          6    2    1    2  502    0  0.28309748184E+02 -0.11320224541E+03 -0.74963167975E+02  0.22036931603E+03  0.17125118594E+03 0.  0.
         24    2    3    3    0    0 -0.42156508861E+02 -0.37736006834E+02 -0.61410477237E+02  0.11612723252E+03  0.80703841096E+02 0.  0.
         -6    2    1    2    0  503 -0.28309748184E+02  0.11320224541E+03  0.54517660540E+03  0.58373951705E+03  0.17296850143E+03 0.  0.
        -24    2    5    5    0    0  0.12995265158E+01  0.11615008201E+03  0.53303091636E+03  0.55125865113E+03  0.79193511931E+02 0.  0.
          4    1    4    4  501    0 -0.40664422929E+02 -0.12253005712E+02  0.70600210229E+01  0.43053168733E+02  0.00000000000E+00 0. -1.
         -3    1    4    4    0  501 -0.14920859320E+01 -0.25483001122E+02 -0.68470498260E+02  0.73074063789E+02  0.00000000000E+00 0.  1.
          5    1    3    3  502    0  0.70466257045E+02 -0.75466238578E+02 -0.13552690737E+02  0.10424208350E+03  0.47000000000E+01 0. -1.
         13    1    6    6    0    0 -0.22219194907E+02  0.10903776557E+01  0.64290700807E+02  0.68030697159E+02  0.00000000000E+00 0. -1.
        -14    1    6    6    0    0  0.23518721423E+02  0.11505970435E+03  0.46874021555E+03  0.48322795397E+03  0.00000000000E+00 0.  1.
         -5    1    5    5    0  503 -0.29609274699E+02 -0.29478365979E+01  0.12145689039E+02  0.32480865923E+02  0.47000000000E+01 0.  1.
<mgrwt>
<rscale>  2 0.20829246E+03</rscale>
<asrwt>0</asrwt>
<pdfrwt beam="1">  1       21 0.98024789E-01 0.20864873E+03</pdfrwt>
<pdfrwt beam="2">  1       21 0.25684262E-01 0.20864873E+03</pdfrwt>
<totfact> 0.12246807E+04</totfact>
</mgrwt>
</event>
<event>
12    1  0.2768653E-001  0.1987965E+03  0.7546771E-02  0.1154047E+00
         21   -1    0    0  504  503  0.00000000000E+00  0.00000000000E+00  0.13951913692E+02  0.13951913692E+02  0.00000000000E+00 0.  1.
         21   -1    0    0  502  504 -0.00000000000E+00 -0.00000000000E+00 -0.26471555288E+04  0.26471555288E+04  0.00000000000E+00 0.  1.
          6    2    1    2  502    0  0.88550493110E+01  0.96546566478E+02 -0.13873845195E+04  0.13995269860E+04  0.15633402711E+03 0.  0.
         24    2    3    3    0    0 -0.46351867338E+02  0.44408695297E+02 -0.56186390388E+03  0.57050796441E+03  0.75283883675E+02 0.  0.
         -6    2    1    2    0  503 -0.88550493110E+01 -0.96546566478E+02 -0.12458190955E+04  0.12615804565E+04  0.17355223413E+03 0.  0.
        -24    2    5    5    0    0  0.38065001925E+02  0.37529126492E+01 -0.45583385951E+03  0.46385855013E+03  0.76923457629E+02 0.  0.
          2    1    4    4  501    0 -0.49029844023E+02  0.79419996261E+01 -0.17476654802E+03  0.18168749894E+03  0.00000000000E+00 0. -1.
         -1    1    4    4    0  501  0.26779766850E+01  0.36466695671E+02 -0.38709735586E+03  0.38882046547E+03  0.00000000000E+00 0.  1.
          5    1    3    3  502    0  0.55206916649E+02  0.52137871181E+02 -0.82552061565E+03  0.82901902157E+03  0.47000000000E+01 0. -1.
         11    1    6    6    0    0 -0.14854336411E+02 -0.26091455471E+01 -0.27293906782E+03  0.27335543472E+03  0.00000000000E+00 0. -1.
        -12    1    6    6    0    0  0.52919338336E+02  0.63620581962E+01 -0.18289479169E+03  0.19050311541E+03  0.00000000000E+00 0.  1.
         -5    1    5    5    0  503 -0.46920051236E+02 -0.10029947913E+03 -0.78998523604E+03  0.79772190635E+03  0.47000000000E+01 0.  1.
<mgrwt>
<rscale>  2 0.19497783E+03</rscale>
<asrwt>0</asrwt>
<pdfrwt beam="1">  1       21 0.21464471E-02 0.19879645E+03</pdfrwt>
<pdfrwt beam="2">  1       21 0.40725491E+00 0.19879645E+03</pdfrwt>
<totfact> 0.85415904E+03</totfact>
</mgrwt>
</event>
<event>
12    1  0.2768653E-001  0.1923580E+03  0.7546771E-02  0.1156397E+00
         21   -1    0    0  504  503  0.00000000000E+00  0.00000000000E+00  0.10700376420E+03  0.10700376420E+03  0.00000000000E+00 0.  1.
         21   -1    0    0  502  504 -0.00000000000E+00 -0.00000000000E+00 -0.39698574051E+03  0.39698574051E+03  0.00000000000E+00 0.  1.
          6    2    1    2  502    0  0.32459505292E+02 -0.72715680818E+02 -0.23587357663E+03  0.30436481913E+03  0.17510114007E+03 0.  0.
         24    2    3    3    0    0  0.65338153651E+02 -0.28231523332E+02 -0.63412748219E+02  0.12318901191E+03  0.78027320776E+02 0.  0.
         -6    2    1    2    0  503 -0.32459505292E+02  0.72715680818E+02 -0.54108399680E+02  0.19962468558E+03  0.17487454491E+03 0.  0.
        -24    2    5    5    0    0  0.29747121222E+02  0.92400194200E+02 -0.25661484212E+02  0.12829123306E+03  0.79858885531E+02 0.  0.
          4    1    4    4  501    0  0.18640380237E+02  0.26797035118E+02 -0.12915171345E+02  0.35104793367E+02  0.00000000000E+00 0. -1.
         -3    1    4    4    0  501  0.46697773414E+02 -0.55028558449E+02 -0.50497576874E+02  0.88084218547E+02  0.00000000000E+00 0.  1.
          5    1    3    3  502    0 -0.32878648359E+02 -0.44484157486E+02 -0.17246082841E+03  0.18117580722E+03  0.47000000000E+01 0. -1.
         11    1    6    6    0    0  0.33003512777E+02  0.10117490736E+03 -0.60887554537E+01  0.10659580985E+03  0.00000000000E+00 0. -1.
        -12    1    6    6    0    0 -0.32563915556E+01 -0.87747131606E+01 -0.19572728758E+02  0.21695423205E+02  0.00000000000E+00 0.  1.
         -5    1    5    5    0  503 -0.62206626513E+02 -0.19684513382E+02 -0.28446915469E+02  0.71333452524E+02  0.47000000000E+01 0.  1.
<mgrwt>
<rscale>  2 0.19230642E+03</rscale>
<asrwt>0</asrwt>
<pdfrwt beam="1">  1       21 0.16462118E-01 0.19235800E+03</pdfrwt>
<pdfrwt beam="2">  1       21 0.61074729E-01 0.19235800E+03</pdfrwt>
<totfact> 0.82559119E+04</totfact>
</mgrwt>
</event>
<event>
12    1  0.2768653E-001  0.1969806E+03  0.7546771E-02  0.1152470E+00
         21   -1    0    0  504  503  0.00000000000E+00  0.00000000000E+00  0.15226504155E+03  0.15226504155E+03  0.00000000000E+00 0. -1.
         21   -1    0    0  502  504 -0.00000000000E+00 -0.00000000000E+00 -0.33547308224E+03  0.33547308224E+03  0.00000000000E+00 0. -1.
          6    2    1    2  502    0 -0.89970787713E+02  0.17195538464E+02 -0.21174595481E+03  0.28870100238E+03  0.17355543844E+03 0.  0.
         24    2    3    3    0    0  0.23845676016E+02 -0.14943813490E+02 -0.76949508162E+02  0.10931511278E+03  0.72364585599E+02 0.  0.
         -6    2    1    2    0  503  0.89970787713E+02 -0.17195538464E+02  0.28537914115E+02  0.19903712141E+03  0.17438731024E+03 0.  0.
        -24    2    5    5    0    0  0.10921198392E+03 -0.60438318086E+02  0.28481146403E+02  0.15147395453E+03  0.80951438999E+02 0.  0.
          4    1    4    4  501    0  0.27854337860E+02  0.24920069418E+02 -0.41103710203E+02  0.55555278686E+02  0.00000000000E+00 0. -1.
         -3    1    4    4    0  501 -0.40086618437E+01 -0.39863882908E+02 -0.35845797958E+02  0.53759834091E+02  0.00000000000E+00 0.  1.
          5    1    3    3  502    0 -0.11381646373E+03  0.32139351954E+02 -0.13479644665E+03  0.17938588960E+03  0.47000000000E+01 0. -1.
         13    1    6    6    0    0  0.15914876324E+02  0.18378067255E+02 -0.50325135008E+01  0.24826655767E+02  0.00000000000E+00 0. -1.
        -14    1    6    6    0    0  0.93297107598E+02 -0.78816385341E+02  0.33513659903E+02  0.12664729876E+03  0.00000000000E+00 0.  1.
         -5    1    5    5    0  503 -0.19241196209E+02  0.43242779621E+02  0.56767712037E-01  0.47563166878E+02  0.47000000000E+01 0.  1.
<mgrwt>
<rscale>  2 0.19679634E+03</rscale>
<asrwt>0</asrwt>
<pdfrwt beam="1">  1       21 0.23425391E-01 0.19698062E+03</pdfrwt>
<pdfrwt beam="2">  1       21 0.51611243E-01 0.19698062E+03</pdfrwt>
<totfact> 0.61009632E+04</totfact>
</mgrwt>
</event>
<event>
12    1  0.2768653E-001  0.1899317E+03  0.7546771E-02  0.1158537E+00
         21   -1    0    0  504  503  0.00000000000E+00  0.00000000000E+00  0.82139457729E+02  0.82139457729E+02  0.00000000000E+00 0.  1.
         21   -1    0    0  502  504 -0.00000000000E+00 -0.00000000000E+00 -0.46136676203E+03  0.46136676203E+03  0.00000000000E+00 0.  1.
          6    2    1    2  502    0 -0.68581530789E+02  0.39377747555E+02 -0.24943118379E+03  0.31351228343E+03  0.17268469256E+03 0.  0.
         24    2    3    3    0    0 -0.71462696392E+02 -0.22226376363E+02 -0.21726331283E+03  0.24379692557E+03  0.81441175297E+02 0.  0.
         -6    2    1    2    0  503  0.68581530789E+02 -0.39377747555E+02 -0.12979612051E+03  0.22999393633E+03  0.17261559744E+03 0.  0.
        -24    2    5    5    0    0  0.11960248268E+02  0.87558403340E+01 -0.13678535018E+03  0.15520255147E+03  0.71818435536E+02 0.  0.
          4    1    4    4  501    0  0.13639310268E+02 -0.16335436016E+02 -0.21482931398E+02  0.30238941712E+02  0.00000000000E+00 0. -1.
         -3    1    4    4    0  501 -0.85102006660E+02 -0.58909403462E+01 -0.19578038143E+03  0.21355798386E+03  0.00000000000E+00 0.  1.
          5    1    3    3  502    0  0.28811656033E+01  0.61604123918E+02 -0.32167870958E+02  0.69715357855E+02  0.47000000000E+01 0. -1.
         13    1    6    6    0    0 -0.18576888426E+02 -0.16607710039E+02 -0.20304849373E+02  0.32143486501E+02  0.00000000000E+00 0. -1.
        -14    1    6    6    0    0  0.30537136694E+02  0.25363550373E+02 -0.11648050080E+03  0.12305906497E+03  0.00000000000E+00 0.  1.
         -5    1    5    5    0  503  0.56621282521E+02 -0.48133587889E+02  0.69892296652E+01  0.74791384856E+02  0.47000000000E+01 0.  1.
<mgrwt>
<rscale>  2 0.18991596E+03</rscale>
<asrwt>0</asrwt>
<pdfrwt beam="1">  1       21 0.12636840E-01 0.18993166E+03</pdfrwt>
<pdfrwt beam="2">  1       21 0.70979502E-01 0.18993166E+03</pdfrwt>
<totfact> 0.96218280E+04</totfact>
</mgrwt>
</event>
<event>
12    1  0.2768653E-001  0.2280316E+03  0.7546771E-02  0.1128058E+00
         21   -1    0    0  504  503  0.00000000000E+00  0.00000000000E+00  0.65504028599E+03  0.65504028599E+03  0.00000000000E+00 0. -1.
         21   -1    0    0  502  504 -0.00000000000E+00 -0.00000000000E+00 -0.24672551499E+03  0.24672551499E+03  0.00000000000E+00 0. -1.
          6    2    1    2  502    0 -0.10552274208E+03 -0.10386541011E+03 -0.16720805867E+03  0.28276660997E+03  0.17342245620E+03 0.  0.
         24    2    3    3    0    0 -0.12448239719E+02 -0.10437894825E+03 -0.75109949044E+02  0.15174264839E+03  0.79588965214E+02 0.  0.
         -6    2    1    2    0  503  0.10552274208E+03  0.10386541011E+03  0.57552282967E+03  0.61899919101E+03  0.17323509599E+03 0.  0.
        -24    2    5    5    0    0  0.80726876423E+02 -0.71371308209E+01  0.28154006159E+03  0.30374634491E+03  0.80182719768E+02 0.  0.
          4    1    4    4  501    0 -0.31807403168E+02 -0.82976221056E+02 -0.22390539543E+02  0.91641150244E+02  0.00000000000E+00 0. -1.
         -3    1    4    4    0  501  0.19359163449E+02 -0.21402727194E+02 -0.52719409500E+02  0.60101498141E+02  0.00000000000E+00 0.  1.
          5    1    3    3  502    0 -0.93074502364E+02  0.51353813613E+00 -0.92098109626E+02  0.13102396158E+03  0.47000000000E+01 0. -1.
         11    1    6    6    0    0  0.13477536184E+02  0.73779419013E+01  0.18255756677E+03  0.18320301087E+03  0.00000000000E+00 0. -1.
        -12    1    6    6    0    0  0.67249340239E+02 -0.14515072722E+02  0.98982494829E+02  0.12054333404E+03  0.00000000000E+00 0.  1.
         -5    1    5    5    0  503  0.24795865659E+02  0.11100254094E+03  0.29398276808E+03  0.31525284610E+03  0.47000000000E+01 0.  1.
<mgrwt>
<rscale>  2 0.22799600E+03</rscale>
<asrwt>0</asrwt>
<pdfrwt beam="1">  1       21 0.10077543E+00 0.22803162E+03</pdfrwt>
<pdfrwt beam="2">  1       21 0.37957772E-01 0.22803162E+03</pdfrwt>
<totfact> 0.52545849E+03</totfact>
</mgrwt>
</event>
<event>
12    1  0.2768653E-001  0.2070579E+03  0.7546771E-02  0.1144289E+00
         21   -1    0    0  504  503  0.00000000000E+00  0.00000000000E+00  0.89117839678E+02  0.89117839678E+02  0.00000000000E+00 0.  1.
         21   -1    0    0  502  504 -0.00000000000E+00 -0.00000000000E+00 -0.51720698338E+03  0.51720698338E+03  0.00000000000E+00 0. -1.
          6    2    1    2  502    0 -0.24078757267E+02  0.10782967004E+03 -0.29962781894E+03  0.36421120464E+03  0.17511695351E+03 0.  0.
         24    2    3    3    0    0  0.98261657314E+01  0.51810789745E+02 -0.27949804350E+03  0.29554566297E+03  0.80294278198E+02 0.  0.
         -6    2    1    2    0  503  0.24078757267E+02 -0.10782967004E+03 -0.12846132477E+03  0.24211361843E+03  0.17294411807E+03 0.  0.
        -24    2    5    5    0    0  0.21837383893E+02 -0.14465406428E+03 -0.96265937413E+02  0.19292324607E+03  0.80935644320E+02 0.  0.
          2    1    4    4  501    0 -0.33233379070E+02  0.80868115704E+01 -0.86096351049E+02  0.92641436030E+02  0.00000000000E+00 0. -1.
         -1    1    4    4    0  501  0.43059544801E+02  0.43723978175E+02 -0.19340169245E+03  0.20290422694E+03  0.00000000000E+00 0.  1.
          5    1    3    3  502    0 -0.33904922998E+02  0.56018880297E+02 -0.20129775438E+02  0.68665541667E+02  0.47000000000E+01 0. -1.
         11    1    6    6    0    0  0.12866853148E+01 -0.72717873864E+01 -0.43825856783E+02  0.44443674169E+02  0.00000000000E+00 0. -1.
        -12    1    6    6    0    0  0.20550698578E+02 -0.13738227689E+03 -0.52440080631E+02  0.14847957190E+03  0.00000000000E+00 0.  1.
         -5    1    5    5    0  503  0.22413733739E+01  0.36824394236E+02 -0.32195387352E+02  0.49190372353E+02  0.47000000000E+01 0.  1.
<mgrwt>
<rscale>  2 0.20659777E+03</rscale>
<asrwt>0</asrwt>
<pdfrwt beam="1">  1       21 0.13710437E-01 0.20705789E+03</pdfrwt>
<pdfrwt beam="2">  1       21 0.79570303E-01 0.20705789E+03</pdfrwt>
<totfact> 0.63856003E+04</totfact>
</mgrwt>
</event>
<event>
12    1  0.2768653E-001  0.2039423E+03  0.7546771E-02  0.1146552E+00
         21   -1    0    0  504  503  0.00000000000E+00  0.00000000000E+00  0.18017500125E+03  0.18017500125E+03  0.00000000000E+00 0. -1.
         21   -1    0    0  502  504 -0.00000000000E+00 -0.00000000000E+00 -0.27242341363E+03  0.27242341363E+03  0.00000000000E+00 0.  1.
          6    2    1    2  502    0  0.93193542255E+02 -0.54131849825E+02 -0.13514309912E+03  0.24465506259E+03  0.17313910283E+03 0.  0.
         24    2    3    3    0    0  0.40882245717E+02 -0.79365841095E+02 -0.14155951155E+03  0.18603351016E+03  0.81234702224E+02 0.  0.
         -6    2    1    2    0  503 -0.93193542255E+02  0.54131849825E+02  0.42894686748E+02  0.20794335229E+03  0.17258386404E+03 0.  0.
        -24    2    5    5    0    0 -0.67779121231E+02  0.38706593421E+02  0.95769331209E+02  0.14710217086E+03  0.79844061905E+02 0.  0.
          2    1    4    4  501    0  0.38085730480E+02 -0.87593965850E+02 -0.82125613591E+02  0.12596762333E+03  0.00000000000E+00 0. -1.
         -1    1    4    4    0  501  0.27965152369E+01  0.82281247549E+01 -0.59433897957E+02  0.60065886832E+02  0.00000000000E+00 0.  1.
          5    1    3    3  502    0  0.52311296538E+02  0.25233991270E+02  0.64164124294E+01  0.58621552431E+02  0.47000000000E+01 0. -1.
         11    1    6    6    0    0 -0.39671564721E+01 -0.12285818128E+02  0.53683561856E+02  0.55214169115E+02  0.00000000000E+00 0. -1.
        -12    1    6    6    0    0 -0.63811964759E+02  0.50992411549E+02  0.42085769353E+02  0.91888001741E+02  0.00000000000E+00 0.  1.
         -5    1    5    5    0  503 -0.25414421024E+02  0.15425256404E+02 -0.52874644460E+02  0.60841181431E+02  0.47000000000E+01 0.  1.
<mgrwt>
<rscale>  2 0.20382436E+03</rscale>
<asrwt>0</asrwt>
<pdfrwt beam="1">  1       21 0.27719231E-01 0.20394225E+03</pdfrwt>
<pdfrwt beam="2">  1       21 0.41911294E-01 0.20394225E+03</pdfrwt>
<totfact> 0.67730624E+04</totfact>
</mgrwt>
</event>
<event>
12    1  0.2768653E-001  0.2089211E+03  0.7546771E-02  0.1142433E+00
         21   -1    0    0  504  503  0.00000000000E+00  0.00000000000E+00  0.11727835988E+03  0.11727835988E+03  0.00000000000E+00 0.  1.
         21   -1    0    0  502  504 -0.00000000000E+00 -0.00000000000E+00 -0.42456885996E+03  0.42456885996E+03  0.00000000000E+00 0. -1.
          6    2    1    2  502    0  0.10879946379E+03 -0.44140481143E+02 -0.24887897625E+03  0.32491416735E+03  0.17275058879E+03 0.  0.
         24    2    3    3    0    0  0.99690400693E+01 -0.56996159643E+02 -0.74581762695E+02  0.12408008216E+03  0.80532499570E+02 0.  0.
         -6    2    1    2    0  503 -0.10879946379E+03  0.44140481143E+02 -0.58411523834E+02  0.21693305250E+03  0.17280722715E+03 0.  0.
        -24    2    5    5    0    0 -0.24092935333E+02  0.80819073854E+02 -0.12259874173E+02  0.11362487328E+03  0.75153942563E+02 0.  0.
          2    1    4    4  501    0 -0.21510020191E+02 -0.57405431080E+02 -0.68662450940E+02  0.92046709095E+02  0.00000000000E+00 0. -1.
         -1    1    4    4    0  501  0.31479060261E+02  0.40927143651E+00 -0.59193117556E+01  0.32033373061E+02  0.00000000000E+00 0.  1.
          5    1    3    3  502    0  0.98830423721E+02  0.12855678500E+02 -0.17429721355E+03  0.20083408519E+03  0.47000000000E+01 0. -1.
         13    1    6    6    0    0 -0.14492164842E+02  0.95454661660E+01 -0.34271417648E+02  0.38414435226E+02  0.00000000000E+00 0. -1.
        -14    1    6    6    0    0 -0.96007704906E+01  0.71273607688E+02  0.22011543475E+02  0.75210438059E+02  0.00000000000E+00 0.  1.
         -5    1    5    5    0  503 -0.84706528457E+02 -0.36678592711E+02 -0.46151649662E+02  0.10330817922E+03  0.47000000000E+01 0.  1.
<mgrwt>
<rscale>  2 0.20890943E+03</rscale>
<asrwt>0</asrwt>
<pdfrwt beam="1">  1       21 0.18042824E-01 0.20892114E+03</pdfrwt>
<pdfrwt beam="2">  1       21 0.65318287E-01 0.20892114E+03</pdfrwt>
<totfact> 0.59820694E+04</totfact>
</mgrwt>
</event>
<event>
12    1  0.2768653E-001  0.1795165E+03  0.7546771E-02  0.1169177E+00
         21   -1    0    0  504  503  0.00000000000E+00  0.00000000000E+00  0.43228773544E+03  0.43228773544E+03  0.00000000000E+00 0.  1.
         21   -1    0    0  502  504 -0.00000000000E+00 -0.00000000000E+00 -0.11465614725E+03  0.11465614725E+03  0.00000000000E+00 0.  1.
          6    2    1    2  502    0 -0.27025980599E+01  0.26789706553E+02 -0.49169555587E+01  0.17958385230E+03  0.17748574912E+03 0.  0.
         24    2    3    3    0    0 -0.33809192280E+02  0.79375108408E+02 -0.93215773984E+01  0.11814823245E+03  0.80178823321E+02 0.  0.
         -6    2    1    2    0  503  0.27025980599E+01 -0.26789706553E+02  0.32254854374E+03  0.36736003039E+03  0.17375510480E+03 0.  0.
        -24    2    5    5    0    0  0.97784200921E+01  0.50667618303E+02  0.19047055712E+03  0.21400948758E+03  0.82814265674E+02 0.  0.
          4    1    4    4  501    0 -0.57167842580E+02  0.53108106210E+02  0.89341189349E+01  0.78539491032E+02  0.00000000000E+00 0. -1.
         -3    1    4    4    0  501  0.23358650300E+02  0.26267002198E+02 -0.18255696333E+02  0.39608741421E+02  0.00000000000E+00 0.  1.
          5    1    3    3  502    0  0.31106594220E+02 -0.52585401855E+02  0.44046218397E+01  0.61435619846E+02  0.47000000000E+01 0. -1.
         11    1    6    6    0    0  0.20844896743E+02 -0.17419709632E+02  0.38531673977E+02  0.47144945682E+02  0.00000000000E+00 0. -1.
        -12    1    6    6    0    0 -0.11066476651E+02  0.68087327936E+02  0.15193888314E+03  0.16686454189E+03  0.00000000000E+00 0.  1.
         -5    1    5    5    0  503 -0.70758220321E+01 -0.77457324856E+02  0.13207798662E+03  0.15335054282E+03  0.47000000000E+01 0.  1.
<mgrwt>
<rscale>  2 0.17858745E+03</rscale>
<asrwt>0</asrwt>
<pdfrwt beam="1">  1       21 0.66505805E-01 0.17951653E+03</pdfrwt>
<pdfrwt beam="2">  1       21 0.17639407E-01 0.17951653E+03</pdfrwt>
<totfact> 0.60786449E+04</totfact>
</mgrwt>
</event>
<event>
12    1  0.2768653E-001  0.2327699E+03  0.7546771E-02  0.1125061E+00
         21   -1    0    0  504  503  0.00000000000E+00  0.00000000000E+00  0.91706006505E+03  0.91706006505E+03  0.00000000000E+00 0.  1.
         21   -1    0    0  502  504 -0.00000000000E+00 -0.00000000000E+00 -0.11658324876E+03  0.11658324876E+03  0.00000000000E+00 0. -1.
          6    2    1    2  502    0  0.13790877862E+03 -0.65601070393E+02  0.34763059504E+02  0.23333127058E+03  0.17295282555E+03 0.  0.
         24    2    3    3    0    0  0.22997064130E+02 -0.69560139598E+02 -0.10979816619E+02  0.10949719986E+03  0.80632514681E+02 0.  0.
         -6    2    1    2    0  503 -0.13790877862E+03  0.65601070393E+02  0.76571375678E+03  0.80031204323E+03  0.17566865842E+03 0.  0.
        -24    2    5    5    0    0 -0.88503015146E+02  0.11273066365E+03  0.51638174697E+03  0.54175707975E+03  0.79433233783E+02 0.  0.
          2    1    4    4  501    0  0.24404923654E+02 -0.64974885109E+01 -0.33996552419E+02  0.42350717018E+02  0.00000000000E+00 0. -1.
         -1    1    4    4    0  501 -0.14078595244E+01 -0.63062651088E+02  0.23016735800E+02  0.67146482838E+02  0.00000000000E+00 0.  1.
          5    1    3    3  502    0  0.11491171449E+03  0.39590692052E+01  0.45742876122E+02  0.12383407072E+03  0.47000000000E+01 0. -1.
         11    1    6    6    0    0 -0.54809597221E+02  0.16935307189E+02  0.12706495121E+03  0.13941448420E+03  0.00000000000E+00 0. -1.
        -12    1    6    6    0    0 -0.33693417926E+02  0.95795356464E+02  0.38931679576E+03  0.40234259555E+03  0.00000000000E+00 0.  1.
         -5    1    5    5    0  503 -0.49405763475E+02 -0.47129593259E+02  0.24933200981E+03  0.25855496348E+03  0.47000000000E+01 0.  1.
<mgrwt>
<rscale>  2 0.23225749E+03</rscale>
<asrwt>0</asrwt>
<pdfrwt beam="1">  1       21 0.14108616E+00 0.23276986E+03</pdfrwt>
<pdfrwt beam="2">  1       21 0.17935885E-01 0.23276986E+03</pdfrwt>
<totfact> 0.96359371E+03</totfact>
</mgrwt>
</event>
<event>
12    1  0.2768653E-001  0.2151081E+03  0.7546771E-02  0.1138003E+00
         21   -1    0    0  504  503  0.00000000000E+00  0.00000000000E+00  0.77103617858E+03  0.77103617858E+03  0.00000000000E+00 0. -1.
         21   -1    0    0  502  504 -0.00000000000E+00 -0.00000000000E+00 -0.62025268543E+02  0.62025268543E+02  0.00000000000E+00 0.  1.
          6    2    1    2  502    0 -0.95593566666E+02  0.85075058169E+02  0.44180632074E+03  0.49139017574E+03  0.17290339574E+03 0.  0.
         24    2    3    3    0    0 -0.10164348411E+03  0.11452095053E+03  0.29556517921E+03  0.34201740863E+03  0.78553718386E+02 0.  0.
         -6    2    1    2    0  503  0.95593566666E+02 -0.85075058169E+02  0.26720458930E+03  0.34167127138E+03  0.17019127368E+03 0.  0.
        -24    2    5    5    0    0  0.96817597381E+02  0.17106789478E+01  0.16248304314E+03  0.20557588333E+03  0.80524101459E+02 0.  0.
          2    1    4    4  501    0 -0.11184237750E+03  0.10257559405E+03  0.23733624682E+03  0.28170723093E+03  0.00000000000E+00 0. -1.
         -1    1    4    4    0  501  0.10198893391E+02  0.11945356484E+02  0.58228932388E+02  0.60310177707E+02  0.00000000000E+00 0.  1.
          5    1    3    3  502    0  0.60499174466E+01 -0.29445892364E+02  0.14624114153E+03  0.14937276711E+03  0.47000000000E+01 0. -1.
         13    1    6    6    0    0  0.93313833915E+02 -0.21724367376E+02  0.15197542483E+03  0.17965508479E+03  0.00000000000E+00 0. -1.
        -14    1    6    6    0    0  0.35037634664E+01  0.23435046324E+02  0.10507618304E+02  0.25920798542E+02  0.00000000000E+00 0.  1.
         -5    1    5    5    0  503 -0.12240307149E+01 -0.86785737116E+02  0.10472154616E+03  0.13609538805E+03  0.47000000000E+01 0.  1.
<mgrwt>
<rscale>  2 0.21456252E+03</rscale>
<asrwt>0</asrwt>
<pdfrwt beam="1">  1       21 0.11862094E+00 0.21510807E+03</pdfrwt>
<pdfrwt beam="2">  1       21 0.95423495E-02 0.21510807E+03</pdfrwt>
<totfact> 0.47333792E+04</totfact>
</mgrwt>
</event>
<event>
12    1  0.2768653E-001  0.1854990E+03  0.7546771E-02  0.1162597E+00
         21   -1    0    0  504  503  0.00000000000E+00  0.00000000000E+00  0.18165911064E+03  0.18165911064E+03  0.00000000000E+00 0.  1.
         21   -1    0    0  502  504 -0.00000000000E+00 -0.00000000000E+00 -0.28576836660E+03  0.28576836660E+03  0.00000000000E+00 0. -1.
          6    2    1    2  502    0 -0.46349143278E+02  0.47503846345E+02 -0.18780232276E+03  0.26396889289E+03  0.17321952973E+03 0.  0.
         24    2    3    3    0    0 -0.16996889974E+02  0.59281429443E+02 -0.20444542459E+03  0.22792240796E+03  0.79671263739E+02 0.  0.
         -6    2    1    2    0  503  0.46349143278E+02 -0.47503846345E+02  0.83693066811E+02  0.20345858435E+03  0.17316468350E+03 0.  0.
        -24    2    5    5    0    0  0.13357681609E+02 -0.84109334620E+02  0.82282085501E+01  0.11320653093E+03  0.74129666126E+02 0.  0.
          2    1    4    4  501    0 -0.10376424773E+02  0.63664268976E+02 -0.20902842779E+03  0.21875486957E+03  0.00000000000E+00 0. -1.
         -1    1    4    4    0  501 -0.66204652006E+01 -0.43828395328E+01  0.45830031950E+01  0.91675383897E+01  0.00000000000E+00 0.  1.
          5    1    3    3  502    0 -0.29352253304E+02 -0.11777583098E+02  0.16643101830E+02  0.36046484935E+02  0.47000000000E+01 0. -1.
         11    1    6    6    0    0  0.36080560811E+02 -0.70854983678E+02 -0.11479766968E+02  0.80336919471E+02  0.00000000000E+00 0. -1.
        -12    1    6    6    0    0 -0.22722879202E+02 -0.13254350942E+02  0.19707975518E+02  0.32869611454E+02  0.00000000000E+00 0.  1.
         -5    1    5    5    0  503  0.32991461669E+02  0.36605488275E+02  0.75464858261E+02  0.90252053424E+02  0.47000000000E+01 0.  1.
<mgrwt>
<rscale>  2 0.18548615E+03</rscale>
<asrwt>0</asrwt>
<pdfrwt beam="1">  1       21 0.27947556E-01 0.18549896E+03</pdfrwt>
<pdfrwt beam="2">  1       21 0.43964364E-01 0.18549896E+03</pdfrwt>
<totfact> 0.60968146E+04</totfact>
</mgrwt>
</event>
<event>
12    1  0.2768653E-001  0.2599172E+03  0.7546771E-02  0.1107246E+00
         21   -1    0    0  504  503  0.00000000000E+00  0.00000000000E+00  0.43721416419E+03  0.43721416419E+03  0.00000000000E+00 0. -1.
         21   -1    0    0  502  504 -0.00000000000E+00 -0.00000000000E+00 -0.25880312755E+03  0.25880312755E+03  0.00000000000E+00 0.  1.
          6    2    1    2  502    0 -0.18701910109E+03  0.51624300166E+02 -0.13196422441E+03  0.29118428261E+03  0.17243119606E+03 0.  0.
         24    2    3    3    0    0 -0.10205732360E+03  0.44089841674E+02 -0.15089147951E+03  0.20368798164E+03  0.79755525425E+02 0.  0.
         -6    2    1    2    0  503  0.18701910109E+03 -0.51624300166E+02  0.31037526105E+03  0.40483300913E+03  0.17296170117E+03 0.  0.
        -24    2    5    5    0    0  0.12565904390E+03 -0.21191499356E+02  0.96817762042E+02  0.18051157153E+03  0.83495349882E+02 0.  0.
          4    1    4    4  501    0 -0.49558455282E+02  0.59576282909E+02 -0.61771159250E+02  0.99101211346E+02  0.00000000000E+00 0. -1.
         -3    1    4    4    0  501 -0.52498868320E+02 -0.15486441235E+02 -0.89120320259E+02  0.10458677029E+03  0.00000000000E+00 0.  1.
          5    1    3    3  502    0 -0.84961777482E+02  0.75344584921E+01  0.18927255100E+02  0.87496300970E+02  0.47000000000E+01 0. -1.
         13    1    6    6    0    0  0.10451684889E+03 -0.21983763998E+02  0.11177716965E+03  0.15460010749E+03  0.00000000000E+00 0. -1.
        -14    1    6    6    0    0  0.21142195010E+02  0.79226464166E+00 -0.14959407604E+02  0.25911464045E+02  0.00000000000E+00 0.  1.
         -5    1    5    5    0  503  0.61360057189E+02 -0.30432800810E+02  0.21355749901E+03  0.22432143760E+03  0.47000000000E+01 0.  1.
<mgrwt>
<rscale>  2 0.25982900E+03</rscale>
<asrwt>0</asrwt>
<pdfrwt beam="1">  1       21 0.67263718E-01 0.25991722E+03</pdfrwt>
<pdfrwt beam="2">  1       21 0.39815866E-01 0.25991722E+03</pdfrwt>
<totfact> 0.11816471E+04</totfact>
</mgrwt>
</event>
<event>
12    1  0.2768653E-001  0.1755508E+03  0.7546771E-02  0.1172615E+00
         21   -1    0    0  504  503  0.00000000000E+00  0.00000000000E+00  0.57983468650E+03  0.57983468650E+03  0.00000000000E+00 0.  1.
         21   -1    0    0  502  504 -0.00000000000E+00 -0.00000000000E+00 -0.67168220318E+02  0.67168220318E+02  0.00000000000E+00 0.  1.
          6    2    1    2  502    0 -0.23219797467E+02  0.27504557534E+00  0.10680694102E+03  0.20548922726E+03  0.17400823321E+03 0.  0.
         24    2    3    3    0    0  0.54139002302E+02  0.16326130142E+02  0.46625638367E+02  0.10606136192E+03  0.76664778373E+02 0.  0.
         -6    2    1    2    0  503  0.23219797467E+02 -0.27504557534E+00  0.40585952516E+03  0.44151367956E+03  0.17225893424E+03 0.  0.
        -24    2    5    5    0    0  0.64904255573E+02 -0.19487534876E+02  0.36585750691E+03  0.38044842547E+03  0.79353403648E+02 0.  0.
          2    1    4    4  501    0  0.67675549369E+02  0.27843342704E+02  0.23428672382E+02  0.76838365449E+02  0.00000000000E+00 0. -1.
         -1    1    4    4    0  501 -0.13536547066E+02 -0.11517212562E+02  0.23196965985E+02  0.29222996468E+02  0.00000000000E+00 0.  1.
          5    1    3    3  502    0 -0.77358799769E+02 -0.16051084567E+02  0.60181302652E+02  0.99427865341E+02  0.47000000000E+01 0. -1.
         11    1    6    6    0    0  0.28743213921E+02  0.22661608073E+02  0.65802426699E+02  0.75297278745E+02  0.00000000000E+00 0. -1.
        -12    1    6    6    0    0  0.36161041652E+02 -0.42149142950E+02  0.30005508022E+03  0.30515114673E+03  0.00000000000E+00 0.  1.
         -5    1    5    5    0  503 -0.41684458106E+02  0.19212489301E+02  0.40002018247E+02  0.61065254086E+02  0.47000000000E+01 0.  1.
<mgrwt>
<rscale>  2 0.17511579E+03</rscale>
<asrwt>0</asrwt>
<pdfrwt beam="1">  1       21 0.89205333E-01 0.17555085E+03</pdfrwt>
<pdfrwt beam="2">  1       21 0.10333573E-01 0.17555085E+03</pdfrwt>
<totfact> 0.82715119E+04</totfact>
</mgrwt>
</event>
<event>
12    1  0.2768653E-001  0.5386995E+03  0.7546771E-02  0.1004151E+00
         21   -1    0    0  504  503  0.00000000000E+00  0.00000000000E+00  0.48052010168E+03  0.48052010168E+03  0.00000000000E+00 0. -1.
         21   -1    0    0  502  504 -0.00000000000E+00 -0.00000000000E+00 -0.11308703323E+04  0.11308703323E+04  0.00000000000E+00 0.  1.
          6    2    1    2  502    0  0.37658425970E+03 -0.34412077733E+03 -0.87520789092E+03  0.10276455152E+04  0.17271837942E+03 0.  0.
         24    2    3    3    0    0  0.22621539521E+03 -0.16316449301E+03 -0.36692899344E+03  0.46753347299E+03  0.78451292685E+02 0.  0.
         -6    2    1    2    0  503 -0.37658425970E+03  0.34412077733E+03  0.22485766028E+03  0.58374491878E+03  0.17309635687E+03 0.  0.
        -24    2    5    5    0    0 -0.34473014549E+03  0.32777807588E+03  0.24623544357E+03  0.54178221985E+03  0.81355638000E+02 0.  0.
          4    1    4    4  501    0  0.22459339084E+03 -0.13606620022E+03 -0.33279882989E+03  0.42392365259E+03  0.00000000000E+00 0. -1.
         -3    1    4    4    0  501  0.16220043672E+01 -0.27098292797E+02 -0.34130163557E+02  0.43609820397E+02  0.00000000000E+00 0.  1.
          5    1    3    3  502    0  0.15036886450E+03 -0.18095628432E+03 -0.50827889747E+03  0.56011204224E+03  0.47000000000E+01 0. -1.
         13    1    6    6    0    0 -0.88938441701E+02  0.99293335113E+02  0.10965962800E+03  0.17261067992E+03  0.00000000000E+00 0. -1.
        -14    1    6    6    0    0 -0.25579170379E+03  0.22848474077E+03  0.13657581557E+03  0.36917153992E+03  0.00000000000E+00 0.  1.
         -5    1    5    5    0  503 -0.31854114212E+02  0.16342701450E+02 -0.21377783290E+02  0.41962698928E+02  0.47000000000E+01 0.  1.
<mgrwt>
<rscale>  2 0.53866917E+03</rscale>
<asrwt>0</asrwt>
<pdfrwt beam="1">  1       21 0.73926170E-01 0.53869951E+03</pdfrwt>
<pdfrwt beam="2">  1       21 0.17398005E+00 0.53869951E+03</pdfrwt>
<totfact> 0.25817392E+02</totfact>
</mgrwt>
</event>
<event>
12    1  0.2768653E-001  0.1775788E+03  0.7546771E-02  0.1170833E+00
         21   -1    0    0  504  503  0.00000000000E+00  0.00000000000E+00  0.51047535857E+03  0.51047535857E+03  0.00000000000E+00 0.  1.
         21   -1    0    0  502  504 -0.00000000000E+00 -0.00000000000E+00 -0.22947333045E+03  0.22947333045E+03  0.00000000000E+00 0.  1.
          6    2    1    2  502    0 -0.35897179679E+02  0.18200990836E+01 -0.17636789087E+03  0.25027960214E+03  0.17390320885E+03 0.  0.
         24    2    3    3    0    0 -0.16195737656E+02 -0.52940981855E+02 -0.16341036078E+03  0.19047232508E+03  0.80695174166E+02 0.  0.
         -6    2    1    2    0  503  0.35897179679E+02 -0.18200990836E+01  0.45736991900E+03  0.48966908688E+03  0.17116264655E+03 0.  0.
        -24    2    5    5    0    0 -0.36062996220E+02 -0.32539388571E+02  0.19984664084E+03  0.22048091764E+03  0.79459446804E+02 0.  0.
          4    1    4    4  501    0 -0.26426876017E+02 -0.70836945597E+01 -0.12992944537E+03  0.13277883596E+03  0.00000000000E+00 0. -1.
         -3    1    4    4    0  501  0.10231138361E+02 -0.45857287296E+02 -0.33480915406E+02  0.57693489119E+02  0.00000000000E+00 0.  1.
          5    1    3    3  502    0 -0.19701442024E+02  0.54761080939E+02 -0.12957530098E+02  0.59807277063E+02  0.47000000000E+01 0. -1.
         13    1    6    6    0    0 -0.58811698732E+02 -0.15293935026E+02  0.16238089536E+03  0.17337899392E+03  0.00000000000E+00 0. -1.
        -14    1    6    6    0    0  0.22748702512E+02 -0.17245453545E+02  0.37465745478E+02  0.47101923721E+02  0.00000000000E+00 0.  1.
         -5    1    5    5    0  503  0.71960175899E+02  0.30719289488E+02  0.25752327816E+03  0.26918816923E+03  0.47000000000E+01 0.  1.
<mgrwt>
<rscale>  2 0.17690427E+03</rscale>
<asrwt>0</asrwt>
<pdfrwt beam="1">  1       21 0.78534671E-01 0.17757885E+03</pdfrwt>
<pdfrwt beam="2">  1       21 0.35303589E-01 0.17757885E+03</pdfrwt>
<totfact> 0.11207711E+04</totfact>
</mgrwt>
</event>
<event>
12    1  0.2768653E-001  0.2064693E+03  0.7546771E-02  0.1144461E+00
         21   -1    0    0  504  503  0.00000000000E+00  0.00000000000E+00  0.77884883596E+03  0.77884883596E+03  0.00000000000E+00 0. -1.
         21   -1    0    0  502  504 -0.00000000000E+00 -0.00000000000E+00 -0.10017254604E+03  0.10017254604E+03  0.00000000000E+00 0. -1.
          6    2    1    2  502    0 -0.78123223077E+00 -0.11221562953E+03  0.42884815668E+02  0.21054522393E+03  0.17290814344E+03 0.  0.
         24    2    3    3    0    0 -0.52543062558E+02 -0.55703648180E+02  0.70125532210E+02  0.12907720718E+03  0.76678975621E+02 0.  0.
         -6    2    1    2    0  503  0.78123223077E+00  0.11221562953E+03  0.63579147425E+03  0.66847615808E+03  0.17331075372E+03 0.  0.
        -24    2    5    5    0    0 -0.39311503214E+02  0.70685868505E+02  0.56239642103E+03  0.57498245603E+03  0.88165776002E+02 0.  0.
          2    1    4    4  501    0 -0.39004901525E+02 -0.70825238955E+02  0.72554626322E+02  0.10863595453E+03  0.00000000000E+00 0. -1.
         -1    1    4    4    0  501 -0.13538161033E+02  0.15121590774E+02 -0.24290941121E+01  0.20441252650E+02  0.00000000000E+00 0.  1.
          5    1    3    3  502    0  0.51761830327E+02 -0.56511981350E+02 -0.27240716542E+02  0.81468016747E+02  0.47000000000E+01 0. -1.
         11    1    6    6    0    0 -0.63053082189E+02  0.71547119399E+02  0.47026241567E+03  0.47983478517E+03  0.00000000000E+00 0. -1.
        -12    1    6    6    0    0  0.23741578976E+02 -0.86125089423E+00  0.92134005361E+02  0.95147670855E+02  0.00000000000E+00 0.  1.
         -5    1    5    5    0  503  0.40092735444E+02  0.41529761025E+02  0.73395053218E+02  0.93493702050E+02  0.47000000000E+01 0.  1.
<mgrwt>
<rscale>  2 0.20638480E+03</rscale>
<asrwt>0</asrwt>
<pdfrwt beam="1">  1       21 0.11982289E+00 0.20646931E+03</pdfrwt>
<pdfrwt beam="2">  1       21 0.15411161E-01 0.20646931E+03</pdfrwt>
<totfact> 0.19618927E+04</totfact>
</mgrwt>
</event>
<event>
12    1  0.2768653E-001  0.2680928E+03  0.7546771E-02  0.1102868E+00
         21   -1    0    0  504  503  0.00000000000E+00  0.00000000000E+00  0.79902137430E+03  0.79902137430E+03  0.00000000000E+00 0.  1.
         21   -1    0    0  502  504 -0.00000000000E+00 -0.00000000000E+00 -0.10984822490E+03  0.10984822490E+03  0.00000000000E+00 0.  1.
          6    2    1    2  502    0  0.43960984394E+01 -0.19887732347E+03  0.14400122745E+03  0.30134495121E+03  0.17464509910E+03 0.  0.
         24    2    3    3    0    0  0.20489793423E+02 -0.47935101271E+02  0.11041096342E+03  0.14580409710E+03  0.79690955057E+02 0.  0.
         -6    2    1    2    0  503 -0.43960984394E+01  0.19887732347E+03  0.54517192194E+03  0.60752464799E+03  0.17972828929E+03 0.  0.
        -24    2    5    5    0    0 -0.20419102093E+01  0.13775239223E+03  0.51496617025E+03  0.53914133967E+03  0.80643268043E+02 0.  0.
          4    1    4    4  501    0  0.28234040459E+01 -0.50016802123E+02  0.11665067160E+03  0.12695287034E+03  0.00000000000E+00 0. -1.
         -3    1    4    4    0  501  0.17666389377E+02  0.20817008515E+01 -0.62397081716E+01  0.18851226754E+02  0.00000000000E+00 0.  1.
          5    1    3    3  502    0 -0.16093694983E+02 -0.15094222220E+03  0.33590264031E+02  0.15554085411E+03  0.47000000000E+01 0. -1.
         13    1    6    6    0    0  0.38542163339E+02  0.52857645829E+02  0.20095170404E+03  0.21133153204E+03  0.00000000000E+00 0. -1.
        -14    1    6    6    0    0 -0.40584073548E+02  0.84894746405E+02  0.31401446620E+03  0.32780980763E+03  0.00000000000E+00 0.  1.
         -5    1    5    5    0  503 -0.23541882301E+01  0.61124931237E+02  0.30205751693E+02  0.68383308317E+02  0.47000000000E+01 0.  1.
<mgrwt>
<rscale>  2 0.26724360E+03</rscale>
<asrwt>0</asrwt>
<pdfrwt beam="1">  1       21 0.12292636E+00 0.26809284E+03</pdfrwt>
<pdfrwt beam="2">  1       21 0.16899727E-01 0.26809284E+03</pdfrwt>
<totfact> 0.15004555E+04</totfact>
</mgrwt>
</event>
<event>
12    1  0.2768653E-001  0.2688542E+03  0.7546771E-02  0.1102008E+00
         21   -1    0    0  504  503  0.00000000000E+00  0.00000000000E+00  0.30157089921E+03  0.30157089921E+03  0.00000000000E+00 0. -1.
         21   -1    0    0  502  504 -0.00000000000E+00 -0.00000000000E+00 -0.38042713671E+03  0.38042713671E+03  0.00000000000E+00 0. -1.
          6    2    1    2  502    0  0.64125629542E+02  0.19334592831E+03 -0.24718357447E+03  0.36521538238E+03  0.17546455961E+03 0.  0.
         24    2    3    3    0    0  0.11202453884E+03  0.15124437346E+03 -0.19683375833E+03  0.28382717428E+03  0.79937341936E+02 0.  0.
         -6    2    1    2    0  503 -0.64125629542E+02 -0.19334592831E+03  0.16832733697E+03  0.31678265354E+03  0.17470664800E+03 0.  0.
        -24    2    5    5    0    0 -0.24897982030E+01 -0.23287970183E+02  0.77691496390E+02  0.11440767874E+03  0.80651222521E+02 0.  0.
          2    1    4    4  501    0  0.10682356554E+03  0.11788089638E+03 -0.19258848352E+03  0.24979492362E+03  0.00000000000E+00 0. -1.
         -1    1    4    4    0  501  0.52009732979E+01  0.33363477088E+02 -0.42452748156E+01  0.34032250659E+02  0.00000000000E+00 0.  1.
          5    1    3    3  502    0 -0.47898909295E+02  0.42101554846E+02 -0.50349816136E+02  0.81388208096E+02  0.47000000000E+01 0. -1.
         11    1    6    6    0    0 -0.18906617993E+02 -0.38706646582E+02  0.80903931157E+02  0.91657573447E+02  0.00000000000E+00 0. -1.
        -12    1    6    6    0    0  0.16416819790E+02  0.15418676399E+02 -0.32124347668E+01  0.22750105298E+02  0.00000000000E+00 0.  1.
         -5    1    5    5    0  503 -0.61635831339E+02 -0.17005795813E+03  0.90635840578E+02  0.20237497480E+03  0.47000000000E+01 0.  1.
<mgrwt>
<rscale>  2 0.26873056E+03</rscale>
<asrwt>0</asrwt>
<pdfrwt beam="1">  1       21 0.46395523E-01 0.26885415E+03</pdfrwt>
<pdfrwt beam="2">  1       21 0.58527252E-01 0.26885415E+03</pdfrwt>
<totfact> 0.11633892E+04</totfact>
</mgrwt>
</event>
<event>
12    1  0.2768653E-001  0.2175285E+03  0.7546771E-02  0.1135817E+00
         21   -1    0    0  504  503  0.00000000000E+00  0.00000000000E+00  0.42571441366E+03  0.42571441366E+03  0.00000000000E+00 0.  1.
         21   -1    0    0  502  504 -0.00000000000E+00 -0.00000000000E+00 -0.15880247709E+03  0.15880247709E+03  0.00000000000E+00 0.  1.
          6    2    1    2  502    0  0.10106720611E+01  0.12805500351E+03  0.29398977112E+03  0.36571660478E+03  0.17583954079E+03 0.  0.
         24    2    3    3    0    0  0.27725428888E+02  0.12306902135E+03  0.30211829066E+03  0.33696419479E+03  0.79716520201E+02 0.  0.
         -6    2    1    2    0  503 -0.10106720611E+01 -0.12805500351E+03 -0.27077834556E+02  0.21880028597E+03  0.17533183007E+03 0.  0.
        -24    2    5    5    0    0  0.12354831342E+02 -0.40078765450E+02 -0.74696579228E+02  0.11776519312E+03  0.80809111273E+02 0.  0.
          2    1    4    4  501    0  0.49094959983E+02  0.64128273603E+02  0.21470068167E+03  0.22938860757E+03  0.00000000000E+00 0. -1.
         -1    1    4    4    0  501 -0.21369531095E+02  0.58940747750E+02  0.87417608989E+02  0.10757558722E+03  0.00000000000E+00 0.  1.
          5    1    3    3  502    0 -0.26714756827E+02  0.49859821522E+01 -0.81285195385E+01  0.28752409990E+02  0.47000000000E+01 0. -1.
         13    1    6    6    0    0 -0.64554889703E+01  0.14465053168E+02 -0.54310444664E+02  0.56573275498E+02  0.00000000000E+00 0. -1.
        -14    1    6    6    0    0  0.18810320313E+02 -0.54543818619E+02 -0.20386134564E+02  0.61191917622E+02  0.00000000000E+00 0.  1.
         -5    1    5    5    0  503 -0.13365503403E+02 -0.87976238055E+02  0.47618744672E+02  0.10103509285E+03  0.47000000000E+01 0.  1.
<mgrwt>
<rscale>  2 0.21742588E+03</rscale>
<asrwt>0</asrwt>
<pdfrwt beam="1">  1       21 0.65494525E-01 0.21752850E+03</pdfrwt>
<pdfrwt beam="2">  1       21 0.24431150E-01 0.21752850E+03</pdfrwt>
<totfact> 0.33486199E+04</totfact>
</mgrwt>
</event>
<event>
12    1  0.2768653E-001  0.2950717E+03  0.7546771E-02  0.1087902E+00
         21   -1    0    0  504  503  0.00000000000E+00  0.00000000000E+00  0.12295808035E+04  0.12295808035E+04  0.00000000000E+00 0.  1.
         21   -1    0    0  502  504 -0.00000000000E+00 -0.00000000000E+00 -0.20196718992E+03  0.20196718992E+03  0.00000000000E+00 0. -1.
          6    2    1    2  502    0  0.42951436031E+02 -0.23537086769E+03 -0.64112684182E+02  0.30064850788E+03  0.17039606159E+03 0.  0.
         24    2    3    3    0    0 -0.32596710122E+02 -0.10281970974E+03 -0.61840863718E+02  0.14799012119E+03  0.80264221929E+02 0.  0.
         -6    2    1    2    0  503 -0.42951436031E+02  0.23537086769E+03  0.10917262977E+04  0.11308994855E+04  0.17269356079E+03 0.  0.
        -24    2    5    5    0    0 -0.48085746901E+02  0.43505009246E+02  0.43347788299E+03  0.44522322494E+03  0.78203069653E+02 0.  0.
          4    1    4    4  501    0 -0.28895431173E+02 -0.97464371897E+02 -0.79575230303E+02  0.12909867160E+03  0.00000000000E+00 0. -1.
         -3    1    4    4    0  501 -0.37012789487E+01 -0.53553378470E+01  0.17734366585E+02  0.18891449587E+02  0.00000000000E+00 0.  1.
          5    1    3    3  502    0  0.75548146154E+02 -0.13255115794E+03 -0.22718204640E+01  0.15265838669E+03  0.47000000000E+01 0. -1.
         13    1    6    6    0    0 -0.25550464420E+02  0.24293325627E+02  0.53370553641E+02  0.63964114143E+02  0.00000000000E+00 0. -1.
        -14    1    6    6    0    0 -0.22535282481E+02  0.19211683619E+02  0.38010732935E+03  0.38125911080E+03  0.00000000000E+00 0.  1.
         -5    1    5    5    0  503  0.51343108699E+01  0.19186585844E+03  0.65824841476E+03  0.68567626057E+03  0.47000000000E+01 0.  1.
<mgrwt>
<rscale>  2 0.29473650E+03</rscale>
<asrwt>0</asrwt>
<pdfrwt beam="1">  1       21 0.18916627E+00 0.29507175E+03</pdfrwt>
<pdfrwt beam="2">  1       21 0.31071876E-01 0.29507175E+03</pdfrwt>
<totfact> 0.14394033E+03</totfact>
</mgrwt>
</event>
<event>
12    1  0.2768653E-001  0.2578308E+03  0.7546771E-02  0.1108613E+00
         21   -1    0    0  504  503  0.00000000000E+00  0.00000000000E+00  0.60390360798E+03  0.60390360798E+03  0.00000000000E+00 0. -1.
         21   -1    0    0  502  504 -0.00000000000E+00 -0.00000000000E+00 -0.12293414862E+03  0.12293414862E+03  0.00000000000E+00 0.  1.
          6    2    1    2  502    0 -0.48693585344E+02 -0.18419238957E+03  0.12137747890E+03  0.28497226753E+03  0.17372046295E+03 0.  0.
         24    2    3    3    0    0 -0.79297462081E+02 -0.10984086867E+03  0.12974779944E+03  0.20399759125E+03  0.80171203409E+02 0.  0.
         -6    2    1    2    0  503  0.48693585344E+02  0.18419238957E+03  0.35959198046E+03  0.44186548906E+03  0.17216508469E+03 0.  0.
        -24    2    5    5    0    0 -0.31570351584E+02  0.66390029088E+02  0.11322774796E+03  0.15719529259E+03  0.80532689280E+02 0.  0.
          2    1    4    4  501    0 -0.30387958343E+02 -0.45007218272E+02  0.10646163615E+03  0.11951216541E+03  0.00000000000E+00 0. -1.
         -1    1    4    4    0  501 -0.48909503738E+02 -0.64833650394E+02  0.23286163288E+02  0.84485425844E+02  0.00000000000E+00 0.  1.
          5    1    3    3  502    0  0.30603876737E+02 -0.74351520908E+02 -0.83703205392E+01  0.80974676280E+02  0.47000000000E+01 0. -1.
         13    1    6    6    0    0 -0.27918134520E+02 -0.47767457907E+01  0.65683715056E+02  0.71530342925E+02  0.00000000000E+00 0. -1.
        -14    1    6    6    0    0 -0.36522170646E+01  0.71166774879E+02  0.47544032900E+02  0.85664949662E+02  0.00000000000E+00 0.  1.
         -5    1    5    5    0  503  0.80263936928E+02  0.11780236049E+03  0.24636423250E+03  0.28467019648E+03  0.47000000000E+01 0.  1.
<mgrwt>
<rscale>  2 0.25756901E+03</rscale>
<asrwt>0</asrwt>
<pdfrwt beam="1">  1       21 0.92908246E-01 0.25783076E+03</pdfrwt>
<pdfrwt beam="2">  1       21 0.18912946E-01 0.25783076E+03</pdfrwt>
<totfact> 0.24146634E+04</totfact>
</mgrwt>
</event>
<event>
12    1  0.2768653E-001  0.1824745E+03  0.7546771E-02  0.1165584E+00
         21   -1    0    0  504  503  0.00000000000E+00  0.00000000000E+00  0.29140204505E+03  0.29140204505E+03  0.00000000000E+00 0.  1.
         21   -1    0    0  502  504 -0.00000000000E+00 -0.00000000000E+00 -0.48983093310E+03  0.48983093310E+03  0.00000000000E+00 0. -1.
          6    2    1    2  502    0 -0.52189474284E+02 -0.26384698428E+02 -0.44139328711E+03  0.47737666710E+03  0.17216432513E+03 0.  0.
         24    2    3    3    0    0 -0.87586675879E+02 -0.17511510484E+02 -0.41598163959E+03  0.43266048239E+03  0.78589374333E+02 0.  0.
         -6    2    1    2    0  503  0.52189474284E+02  0.26384698428E+02  0.24296439906E+03  0.30385631105E+03  0.17284983372E+03 0.  0.
        -24    2    5    5    0    0  0.31867591135E+02 -0.49038466211E+02  0.10331453024E+03  0.14377567961E+03  0.81100180992E+02 0.  0.
          4    1    4    4  501    0 -0.62731728671E+02  0.63988406875E+01 -0.36916547868E+03  0.37451217016E+03  0.00000000000E+00 0. -1.
         -3    1    4    4    0  501 -0.24854947208E+02 -0.23910351172E+02 -0.46816160903E+02  0.58148312233E+02  0.00000000000E+00 0.  1.
          5    1    3    3  502    0  0.35397201595E+02 -0.88731879442E+01 -0.25411647520E+02  0.44716184707E+02  0.47000000000E+01 0. -1.
         11    1    6    6    0    0  0.36503377650E+02 -0.43103186189E+02  0.11600126422E+03  0.12902199246E+03  0.00000000000E+00 0. -1.
        -12    1    6    6    0    0 -0.46357865150E+01 -0.59352800222E+01 -0.12686733977E+02  0.14753687151E+02  0.00000000000E+00 0.  1.
         -5    1    5    5    0  503  0.20321883149E+02  0.75423164640E+02  0.13964986883E+03  0.16008063144E+03  0.47000000000E+01 0.  1.
<mgrwt>
<rscale>  2 0.18231202E+03</rscale>
<asrwt>0</asrwt>
<pdfrwt beam="1">  1       21 0.44831084E-01 0.18247454E+03</pdfrwt>
<pdfrwt beam="2">  1       21 0.75358605E-01 0.18247454E+03</pdfrwt>
<totfact> 0.75682290E+03</totfact>
</mgrwt>
</event>
<event>
12    1  0.2768653E-001  0.1877657E+03  0.7546771E-02  0.1160978E+00
         21   -1    0    0  504  503  0.00000000000E+00  0.00000000000E+00  0.56607453450E+02  0.56607453450E+02  0.00000000000E+00 0.  1.
         21   -1    0    0  502  504 -0.00000000000E+00 -0.00000000000E+00 -0.75872261203E+03  0.75872261203E+03  0.00000000000E+00 0.  1.
          6    2    1    2  502    0 -0.26830531543E+02  0.63771764019E+02 -0.17576015366E+03  0.25719173747E+03  0.17455441244E+03 0.  0.
         24    2    3    3    0    0  0.25219480906E+02  0.59492024994E+02 -0.38113899536E+02  0.10989577271E+03  0.80306215611E+02 0.  0.
         -6    2    1    2    0  503  0.26830531543E+02 -0.63771764019E+02 -0.52635500492E+03  0.55813832801E+03  0.17228489974E+03 0.  0.
        -24    2    5    5    0    0 -0.39252341298E+02  0.44567555401E+01 -0.29004755187E+03  0.30341224114E+03  0.79817271065E+02 0.  0.
          4    1    4    4  501    0  0.36078465769E+02  0.69790344923E+02 -0.11553513346E+02  0.79409266508E+02  0.00000000000E+00 0. -1.
         -3    1    4    4    0  501 -0.10858984862E+02 -0.10298319929E+02 -0.26560386190E+02  0.30486506198E+02  0.00000000000E+00 0.  1.
          5    1    3    3  502    0 -0.52050012449E+02  0.42797390248E+01 -0.13764625412E+03  0.14729596477E+03  0.47000000000E+01 0. -1.
         11    1    6    6    0    0 -0.61801227242E+02 -0.87042015587E+01 -0.21899389090E+03  0.22771358999E+03  0.00000000000E+00 0. -1.
        -12    1    6    6    0    0  0.22548885944E+02  0.13160957099E+02 -0.71053660968E+02  0.75698651150E+02  0.00000000000E+00 0.  1.
         -5    1    5    5    0  503  0.66082872841E+02 -0.68228519559E+02 -0.23630745305E+03  0.25472608687E+03  0.47000000000E+01 0.  1.
<mgrwt>
<rscale>  2 0.18723648E+03</rscale>
<asrwt>0</asrwt>
<pdfrwt beam="1">  1       21 0.87088395E-02 0.18776570E+03</pdfrwt>
<pdfrwt beam="2">  1       21 0.11672655E+00 0.18776570E+03</pdfrwt>
<totfact> 0.58637699E+04</totfact>
</mgrwt>
</event>
<event>
12    1  0.2768653E-001  0.1848284E+03  0.7546771E-02  0.1163258E+00
         21   -1    0    0  504  503  0.00000000000E+00  0.00000000000E+00  0.28358479543E+02  0.28358479543E+02  0.00000000000E+00 0. -1.
         21   -1    0    0  502  504 -0.00000000000E+00 -0.00000000000E+00 -0.12199035599E+04  0.12199035599E+04  0.00000000000E+00 0.  1.
          6    2    1    2  502    0 -0.42378493322E+02  0.49018713591E+02 -0.66888274960E+03  0.69394933901E+03  0.17309760663E+03 0.  0.
         24    2    3    3    0    0  0.32153329542E+02 -0.10232299241E+02 -0.30822972844E+03  0.32090997538E+03  0.82698913291E+02 0.  0.
         -6    2    1    2    0  503  0.42378493322E+02 -0.49018713591E+02 -0.52266233071E+03  0.55431270039E+03  0.17288113514E+03 0.  0.
        -24    2    5    5    0    0  0.65795035430E+02  0.22373258759E+02 -0.25008249191E+03  0.27152831843E+03  0.79729703075E+02 0.  0.
          4    1    4    4  501    0  0.12590344887E+02 -0.27731544301E+02 -0.34889133960E+02  0.46312061087E+02  0.00000000000E+00 0. -1.
         -3    1    4    4    0  501  0.19562984656E+02  0.17499245060E+02 -0.27334059448E+03  0.27459791430E+03  0.00000000000E+00 0.  1.
          5    1    3    3  502    0 -0.74531822864E+02  0.59251012832E+02 -0.36065302116E+03  0.37303936362E+03  0.47000000000E+01 0. -1.
         11    1    6    6    0    0  0.47854250587E+02  0.46947249243E+02 -0.11546270105E+03  0.13351295384E+03  0.00000000000E+00 0. -1.
        -12    1    6    6    0    0  0.17940784843E+02 -0.24573990484E+02 -0.13461979086E+03  0.13801536458E+03  0.00000000000E+00 0.  1.
         -5    1    5    5    0  503 -0.23416542108E+02 -0.71391972350E+02 -0.27257983880E+03  0.28278438196E+03  0.47000000000E+01 0.  1.
<mgrwt>
<rscale>  2 0.18477774E+03</rscale>
<asrwt>0</asrwt>
<pdfrwt beam="1">  1       21 0.43628430E-02 0.18482844E+03</pdfrwt>
<pdfrwt beam="2">  1       21 0.18767747E+00 0.18482844E+03</pdfrwt>
<totfact> 0.54986429E+04</totfact>
</mgrwt>
</event>
<event>
12    1  0.2768653E-001  0.1879838E+03  0.7546771E-02  0.1160665E+00
         21   -1    0    0  504  503  0.00000000000E+00  0.00000000000E+00  0.39224400699E+03  0.39224400699E+03  0.00000000000E+00 0.  1.
         21   -1    0    0  502  504 -0.00000000000E+00 -0.00000000000E+00 -0.10742326529E+03  0.10742326529E+03  0.00000000000E+00 0.  1.
          6    2    1    2  502    0 -0.10264534477E+02  0.70679534227E+02  0.39326352540E+02  0.19046605013E+03  0.17213307939E+03 0.  0.
         24    2    3    3    0    0 -0.25613942459E+01 -0.20725291441E+02 -0.14453678516E+02  0.84030331195E+02  0.80100494957E+02 0.  0.
         -6    2    1    2    0  503  0.10264534477E+02 -0.70679534227E+02  0.24549438916E+03  0.30920122215E+03  0.17388773230E+03 0.  0.
        -24    2    5    5    0    0 -0.17552995480E+02 -0.45693872765E+02  0.25346036417E+03  0.27068310940E+03  0.81431884736E+02 0.  0.
          4    1    4    4  501    0 -0.83408250735E+01 -0.16888514755E+02 -0.47062437936E+02  0.50691856920E+02  0.00000000000E+00 0. -1.
         -3    1    4    4    0  501  0.57794308276E+01 -0.38367766862E+01  0.32608759420E+02  0.33338474275E+02  0.00000000000E+00 0.  1.
          5    1    3    3  502    0 -0.77031402311E+01  0.91404825668E+02  0.53780031056E+02  0.10643571893E+03  0.47000000000E+01 0. -1.
         13    1    6    6    0    0  0.18235900566E+02  0.32389450875E+01  0.14707606547E+03  0.14823767358E+03  0.00000000000E+00 0. -1.
        -14    1    6    6    0    0 -0.35788896047E+02 -0.48932817852E+02  0.10638429870E+03  0.12244543582E+03  0.00000000000E+00 0.  1.
         -5    1    5    5    0  503  0.27817529957E+02 -0.24985661462E+02 -0.79659750145E+01  0.38518112746E+02  0.47000000000E+01 0.  1.
<mgrwt>
<rscale>  2 0.18757699E+03</rscale>
<asrwt>0</asrwt>
<pdfrwt beam="1">  1       21 0.60345231E-01 0.18798378E+03</pdfrwt>
<pdfrwt beam="2">  1       21 0.16526656E-01 0.18798378E+03</pdfrwt>
<totfact> 0.84259562E+04</totfact>
</mgrwt>
</event>
<event>
12    1  0.2768653E-001  0.1741226E+03  0.7546771E-02  0.1173668E+00
         21   -1    0    0  504  503  0.00000000000E+00  0.00000000000E+00  0.14787043734E+03  0.14787043734E+03  0.00000000000E+00 0. -1.
         21   -1    0    0  502  504 -0.00000000000E+00 -0.00000000000E+00 -0.25110893942E+03  0.25110893942E+03  0.00000000000E+00 0. -1.
          6    2    1    2  502    0 -0.11775169568E+02 -0.21931897953E+02 -0.13727109357E+03  0.22156208628E+03  0.17212420567E+03 0.  0.
         24    2    3    3    0    0 -0.47963490664E+02 -0.65633381254E+02 -0.11001877210E+03  0.15844162009E+03  0.79946104286E+02 0.  0.
         -6    2    1    2    0  503  0.11775169568E+02  0.21931897953E+02  0.34032591498E+02  0.17741729048E+03  0.17233402134E+03 0.  0.
        -24    2    5    5    0    0  0.11647309031E+02  0.41660158364E+02  0.83262601349E+02  0.12417346946E+03  0.81333640841E+02 0.  0.
          2    1    4    4  501    0 -0.30537502109E+02 -0.71454835492E+02 -0.11555531965E+03  0.13925287950E+03  0.00000000000E+00 0. -1.
         -1    1    4    4    0  501 -0.17425988555E+02  0.58214542387E+01  0.55365475488E+01  0.19188740587E+02  0.00000000000E+00 0.  1.
          5    1    3    3  502    0  0.36188321096E+02  0.43701483301E+02 -0.27252321474E+02  0.63120466191E+02  0.47000000000E+01 0. -1.
         13    1    6    6    0    0  0.83666972942E+01  0.26253392371E+02 -0.10208298033E+02  0.29384546676E+02  0.00000000000E+00 0. -1.
        -14    1    6    6    0    0  0.32806117371E+01  0.15406765992E+02  0.93470899382E+02  0.94788922786E+02  0.00000000000E+00 0.  1.
         -5    1    5    5    0  503  0.12786053713E+00 -0.19728260411E+02 -0.49230009850E+02  0.53243821022E+02  0.47000000000E+01 0.  1.
<mgrwt>
<rscale>  2 0.17407066E+03</rscale>
<asrwt>0</asrwt>
<pdfrwt beam="1">  1       21 0.22749298E-01 0.17412259E+03</pdfrwt>
<pdfrwt beam="2">  1       21 0.38632144E-01 0.17412259E+03</pdfrwt>
<totfact> 0.11785527E+05</totfact>
</mgrwt>
</event>
<event>
12    1  0.2768653E-001  0.1995003E+03  0.7546771E-02  0.1150402E+00
         21   -1    0    0  504  503  0.00000000000E+00  0.00000000000E+00  0.59286443954E+03  0.59286443954E+03  0.00000000000E+00 0.  1.
         21   -1    0    0  502  504 -0.00000000000E+00 -0.00000000000E+00 -0.94718947341E+02  0.94718947341E+02  0.00000000000E+00 0. -1.
          6    2    1    2  502    0 -0.41793017855E+02  0.88494049190E+02  0.62760736402E+02  0.20913939797E+03  0.17384626733E+03 0.  0.
         24    2    3    3    0    0 -0.16343111197E+02 -0.17267429037E+02 -0.61102716768E+01  0.80304256100E+02  0.76460295178E+02 0.  0.
         -6    2    1    2    0  503  0.41793017855E+02 -0.88494049190E+02  0.43538475580E+03  0.47844398892E+03  0.17254249292E+03 0.  0.
        -24    2    5    5    0    0 -0.33116041917E+01  0.15412669257E+02  0.15536214740E+03  0.17634171438E+03  0.81917557874E+02 0.  0.
          2    1    4    4  501    0 -0.14779339628E+02  0.78442256125E+01 -0.36915167427E+02  0.40530116475E+02  0.00000000000E+00 0. -1.
         -1    1    4    4    0  501 -0.15637715685E+01 -0.25111654650E+02  0.30804895750E+02  0.39774139625E+02  0.00000000000E+00 0.  1.
          5    1    3    3  502    0 -0.25449906659E+02  0.10576147823E+03  0.68871008079E+02  0.12883514187E+03  0.47000000000E+01 0. -1.
         13    1    6    6    0    0 -0.19294977708E+02 -0.13283420397E+02  0.70899494232E+01  0.24474738099E+02  0.00000000000E+00 0. -1.
        -14    1    6    6    0    0  0.15983373516E+02  0.28696089654E+02  0.14827219798E+03  0.15186697628E+03  0.00000000000E+00 0.  1.
         -5    1    5    5    0  503  0.45104622047E+02 -0.10390671845E+03  0.28002260840E+03  0.30210227454E+03  0.47000000000E+01 0.  1.
<mgrwt>
<rscale>  2 0.19921594E+03</rscale>
<asrwt>0</asrwt>
<pdfrwt beam="1">  1       21 0.91209912E-01 0.19950032E+03</pdfrwt>
<pdfrwt beam="2">  1       21 0.14572146E-01 0.19950032E+03</pdfrwt>
<totfact> 0.41963980E+04</totfact>
</mgrwt>
</event>
<event>
12    1  0.2768653E-001  0.1769392E+03  0.7546771E-02  0.1171176E+00
         21   -1    0    0  504  503  0.00000000000E+00  0.00000000000E+00  0.80390177511E+02  0.80390177511E+02  0.00000000000E+00 0.  1.
         21   -1    0    0  502  504 -0.00000000000E+00 -0.00000000000E+00 -0.51749431928E+03  0.51749431928E+03  0.00000000000E+00 0.  1.
          6    2    1    2  502    0 -0.28161802650E+02  0.19993969362E+02 -0.36988452366E+03  0.41002687180E+03  0.17353567016E+03 0.  0.
         24    2    3    3    0    0 -0.67168836111E+02  0.50512371175E+02 -0.31418515192E+03  0.33534466829E+03  0.81734843732E+02 0.  0.
         -6    2    1    2    0  503  0.28161802650E+02 -0.19993969362E+02 -0.67219618106E+02  0.18785762499E+03  0.17198594206E+03 0.  0.
        -24    2    5    5    0    0 -0.39145718868E+02  0.26160587813E+02 -0.36698810170E+02  0.10059849757E+03  0.80972164256E+02 0.  0.
          2    1    4    4  501    0 -0.24025996442E+02  0.42754848340E+02 -0.26483490637E+03  0.26933761934E+03  0.00000000000E+00 0. -1.
         -1    1    4    4    0  501 -0.43142839669E+02  0.77575228352E+01 -0.49350245548E+02  0.66007048948E+02  0.00000000000E+00 0.  1.
          5    1    3    3  502    0  0.39007033461E+02 -0.30518401813E+02 -0.55699371742E+02  0.74682203510E+02  0.47000000000E+01 0. -1.
         11    1    6    6    0    0 -0.14679967042E+02  0.18875336546E+02  0.24533031897E+02  0.34258567047E+02  0.00000000000E+00 0. -1.
        -12    1    6    6    0    0 -0.24465751826E+02  0.72852512674E+01 -0.61231842066E+02  0.66339930519E+02  0.00000000000E+00 0.  1.
         -5    1    5    5    0  503  0.67307521518E+02 -0.46154557176E+02 -0.30520807936E+02  0.87259127419E+02  0.47000000000E+01 0.  1.
<mgrwt>
<rscale>  2 0.17655804E+03</rscale>
<asrwt>0</asrwt>
<pdfrwt beam="1">  1       21 0.12367720E-01 0.17693918E+03</pdfrwt>
<pdfrwt beam="2">  1       21 0.79614510E-01 0.17693918E+03</pdfrwt>
<totfact> 0.77822832E+04</totfact>
</mgrwt>
</event>
<event>
12    1  0.2768653E-001  0.2073583E+03  0.7546771E-02  0.1145417E+00
         21   -1    0    0  504  503  0.00000000000E+00  0.00000000000E+00  0.13947395202E+03  0.13947395202E+03  0.00000000000E+00 0.  1.
         21   -1    0    0  502  504 -0.00000000000E+00 -0.00000000000E+00 -0.29632949393E+03  0.29632949393E+03  0.00000000000E+00 0.  1.
          6    2    1    2  502    0 -0.10166680148E+03 -0.36396870498E+02 -0.85746998716E+02  0.21659150623E+03  0.16702832717E+03 0.  0.
         24    2    3    3    0    0 -0.56539982193E+02 -0.34735187433E+02 -0.12267138449E+03  0.15807064436E+03  0.74395948824E+02 0.  0.
         -6    2    1    2    0  503  0.10166680148E+03  0.36396870498E+02 -0.71108543199E+02  0.21921193972E+03  0.17702140801E+03 0.  0.
        -24    2    5    5    0    0  0.57559594421E+02 -0.49322018497E+02 -0.51687904475E+02  0.12076182619E+03  0.78523950338E+02 0.  0.
          2    1    4    4  501    0 -0.66022432655E+01 -0.47570835824E+02 -0.55590253546E+02  0.73463258344E+02  0.00000000000E+00 0. -1.
         -1    1    4    4    0  501 -0.49937738928E+02  0.12835648391E+02 -0.67081130947E+02  0.84607386013E+02  0.00000000000E+00 0.  1.
          5    1    3    3  502    0 -0.45126819289E+02 -0.16616830656E+01  0.36924385778E+02  0.58520861877E+02  0.47000000000E+01 0. -1.
         11    1    6    6    0    0  0.24147890577E+02 -0.62786477754E+02 -0.14162723652E+02  0.68744782706E+02  0.00000000000E+00 0. -1.
        -12    1    6    6    0    0  0.33411703844E+02  0.13464459256E+02 -0.37525180823E+02  0.52017043482E+02  0.00000000000E+00 0.  1.
         -5    1    5    5    0  503  0.44107207062E+02  0.85718888996E+02 -0.19420638723E+02  0.98450113529E+02  0.47000000000E+01 0.  1.
<mgrwt>
<rscale>  2 0.20520934E+03</rscale>
<asrwt>0</asrwt>
<pdfrwt beam="1">  1       21 0.21457531E-01 0.20735826E+03</pdfrwt>
<pdfrwt beam="2">  1       21 0.45589152E-01 0.20735826E+03</pdfrwt>
<totfact> 0.92780278E+04</totfact>
</mgrwt>
</event>
<event>
12    1  0.2768653E-001  0.2519008E+03  0.7546771E-02  0.1112153E+00
         21   -1    0    0  504  503  0.00000000000E+00  0.00000000000E+00  0.49018258899E+02  0.49018258899E+02  0.00000000000E+00 0. -1.
         21   -1    0    0  502  504 -0.00000000000E+00 -0.00000000000E+00 -0.19361887003E+04  0.19361887003E+04  0.00000000000E+00 0.  1.
          6    2    1    2  502    0 -0.64476013191E+02  0.17157101329E+03 -0.15160083018E+04  0.15367938006E+04  0.17280117343E+03 0.  0.
         24    2    3    3    0    0 -0.72378372192E+02  0.19225484973E+03 -0.14564943420E+04  0.14731206526E+04  0.80672998955E+02 0.  0.
         -6    2    1    2    0  503  0.64476013191E+02 -0.17157101329E+03 -0.37116213959E+03  0.44841315859E+03  0.17239274363E+03 0.  0.
        -24    2    5    5    0    0  0.49667342429E+02 -0.19549522368E+03 -0.28890204232E+03  0.36134721706E+03  0.80138591417E+02 0.  0.
          4    1    4    4  501    0  0.90516561273E+01  0.55729311030E+02 -0.53985574760E+03  0.54280007075E+03  0.00000000000E+00 0. -1.
         -3    1    4    4    0  501 -0.81430028319E+02  0.13652553870E+03 -0.91663859439E+03  0.93032058181E+03  0.00000000000E+00 0.  1.
          5    1    3    3  502    0  0.79023590009E+01 -0.20683836437E+02 -0.59513959802E+02  0.63673148021E+02  0.47000000000E+01 0. -1.
         11    1    6    6    0    0  0.64957627828E+02 -0.10355650920E+03 -0.14195323241E+03  0.18733436471E+03  0.00000000000E+00 0. -1.
        -12    1    6    6    0    0 -0.15290285399E+02 -0.91938714478E+02 -0.14694880991E+03  0.17401285234E+03  0.00000000000E+00 0.  1.
         -5    1    5    5    0  503  0.14808670761E+02  0.23924210388E+02 -0.82260097271E+02  0.87065941536E+02  0.47000000000E+01 0.  1.
<mgrwt>
<rscale>  2 0.25183077E+03</rscale>
<asrwt>0</asrwt>
<pdfrwt beam="1">  1       21 0.75412703E-02 0.25190080E+03</pdfrwt>
<pdfrwt beam="2">  1       21 0.29787520E+00 0.25190080E+03</pdfrwt>
<totfact> 0.43932091E+03</totfact>
</mgrwt>
</event>
<event>
12    1  0.2768653E-001  0.1941955E+03  0.7546771E-02  0.1155027E+00
         21   -1    0    0  504  503  0.00000000000E+00  0.00000000000E+00  0.12011058310E+03  0.12011058310E+03  0.00000000000E+00 0.  1.
         21   -1    0    0  502  504 -0.00000000000E+00 -0.00000000000E+00 -0.58798808823E+03  0.58798808823E+03  0.00000000000E+00 0.  1.
          6    2    1    2  502    0 -0.36634480348E+02 -0.78284131704E+02 -0.47615554035E+03  0.51372679169E+03  0.17239671536E+03 0.  0.
         24    2    3    3    0    0  0.65785565818E+01 -0.91211969496E+01 -0.10101887942E+03  0.12979908693E+03  0.80724936230E+02 0.  0.
         -6    2    1    2    0  503  0.36634480348E+02  0.78284131704E+02  0.82780352083E+01  0.19437187965E+03  0.17390057879E+03 0.  0.
        -24    2    5    5    0    0  0.68138519517E+02  0.93804228835E+02 -0.27592692100E+02  0.14395187393E+03  0.80738430508E+02 0.  0.
          2    1    4    4  501    0 -0.27293750148E+02  0.22160044366E+02 -0.38806058371E+02  0.52363408309E+02  0.00000000000E+00 0. -1.
         -1    1    4    4    0  501  0.33872306730E+02 -0.31281241316E+02 -0.62212821045E+02  0.77435678623E+02  0.00000000000E+00 0.  1.
          5    1    3    3  502    0 -0.43213036929E+02 -0.69162934754E+02 -0.37513666093E+03  0.38392770475E+03  0.47000000000E+01 0. -1.
         13    1    6    6    0    0  0.83872090955E+02  0.78626180691E+02 -0.91089511700E+01  0.11532379166E+03  0.00000000000E+00 0. -1.
        -14    1    6    6    0    0 -0.15733571438E+02  0.15178048144E+02 -0.18483740930E+02  0.28628082269E+02  0.00000000000E+00 0.  1.
         -5    1    5    5    0  503 -0.31504039169E+02 -0.15520097131E+02  0.35870727308E+02  0.50420005717E+02  0.47000000000E+01 0.  1.
<mgrwt>
<rscale>  2 0.19385826E+03</rscale>
<asrwt>0</asrwt>
<pdfrwt beam="1">  1       21 0.18478551E-01 0.19419552E+03</pdfrwt>
<pdfrwt beam="2">  1       21 0.90459707E-01 0.19419552E+03</pdfrwt>
<totfact> 0.27744724E+04</totfact>
</mgrwt>
</event>
<event>
12    1  0.2768653E-001  0.1887589E+03  0.7546771E-02  0.1159830E+00
         21   -1    0    0  504  503  0.00000000000E+00  0.00000000000E+00  0.18719880836E+04  0.18719880836E+04  0.00000000000E+00 0.  1.
         21   -1    0    0  502  504 -0.00000000000E+00 -0.00000000000E+00 -0.34321779189E+02  0.34321779189E+02  0.00000000000E+00 0.  1.
          6    2    1    2  502    0 -0.28430240441E+02 -0.66532088874E+02  0.28188243220E+03  0.33924569229E+03  0.17434201081E+03 0.  0.
         24    2    3    3    0    0 -0.40149663730E+02 -0.10852363900E+03  0.26031607905E+03  0.29038023667E+03  0.56274728933E+02 0.  0.
         -6    2    1    2    0  503  0.28430240441E+02  0.66532088874E+02  0.15557838722E+04  0.15670641705E+04  0.17318158103E+03 0.  0.
        -24    2    5    5    0    0 -0.19339678967E+01 -0.37510846609E+02  0.52170998187E+03  0.52731524973E+03  0.66852550902E+02 0.  0.
          2    1    4    4  501    0 -0.24583777511E+02 -0.11762868205E+02  0.88233492408E+02  0.92346501653E+02  0.00000000000E+00 0. -1.
         -1    1    4    4    0  501 -0.15565886219E+02 -0.96760770799E+02  0.17208258664E+03  0.19803373502E+03  0.00000000000E+00 0.  1.
          5    1    3    3  502    0  0.11719423290E+02  0.41991550131E+02  0.21566353150E+02  0.48865455619E+02  0.47000000000E+01 0. -1.
         13    1    6    6    0    0 -0.12819740767E+02  0.30137856601E+01  0.36028650939E+03  0.36052711063E+03  0.00000000000E+00 0. -1.
        -14    1    6    6    0    0  0.10885772871E+02 -0.40524632269E+02  0.16142347249E+03  0.16678813909E+03  0.00000000000E+00 0.  1.
         -5    1    5    5    0  503  0.30364208338E+02  0.10404293548E+03  0.10340738903E+04  0.10397489207E+04  0.47000000000E+01 0.  1.
<mgrwt>
<rscale>  2 0.18849054E+03</rscale>
<asrwt>0</asrwt>
<pdfrwt beam="1">  1       21 0.28799809E+00 0.18875893E+03</pdfrwt>
<pdfrwt beam="2">  1       21 0.52802752E-02 0.18875893E+03</pdfrwt>
<totfact> 0.98537903E+03</totfact>
</mgrwt>
</event>
<event>
12    1  0.2768653E-001  0.3424759E+03  0.7546771E-02  0.1065845E+00
         21   -1    0    0  504  503  0.00000000000E+00  0.00000000000E+00  0.53166704356E+03  0.53166704356E+03  0.00000000000E+00 0.  1.
         21   -1    0    0  502  504 -0.00000000000E+00 -0.00000000000E+00 -0.23184073547E+03  0.23184073547E+03  0.00000000000E+00 0. -1.
          6    2    1    2  502    0 -0.28243336819E+03 -0.81799772040E+02  0.63854828035E+02  0.34837789017E+03  0.17558446720E+03 0.  0.
         24    2    3    3    0    0 -0.19575085305E+03 -0.11401947367E+03  0.81713224801E+02  0.25407529244E+03  0.80983740807E+02 0.  0.
         -6    2    1    2    0  503  0.28243336819E+03  0.81799772040E+02  0.23597148005E+03  0.41512988886E+03  0.17375406487E+03 0.  0.
        -24    2    5    5    0    0  0.12318280393E+03  0.93096966622E+02  0.79246745745E+02  0.19135969164E+03  0.80606677732E+02 0.  0.
          2    1    4    4  501    0 -0.16918836057E+03 -0.11448510214E+03  0.45715316168E+02  0.20933568758E+03  0.00000000000E+00 0. -1.
         -1    1    4    4    0  501 -0.26562492481E+02  0.46562846987E+00  0.35997908633E+02  0.44739604856E+02  0.00000000000E+00 0.  1.
          5    1    3    3  502    0 -0.86682515137E+02  0.32219701628E+02 -0.17858396766E+02  0.94302597730E+02  0.47000000000E+01 0. -1.
         11    1    6    6    0    0  0.56321103806E+02  0.90555385410E+02  0.40723773231E+02  0.11415239930E+03  0.00000000000E+00 0. -1.
        -12    1    6    6    0    0  0.66861700121E+02  0.25415812114E+01  0.38522972514E+02  0.77207292334E+02  0.00000000000E+00 0.  1.
         -5    1    5    5    0  503  0.15925056426E+03 -0.11297194582E+02  0.15672473431E+03  0.22377019723E+03  0.47000000000E+01 0.  1.
<mgrwt>
<rscale>  2 0.34224192E+03</rscale>
<asrwt>0</asrwt>
<pdfrwt beam="1">  1       21 0.81794930E-01 0.34247586E+03</pdfrwt>
<pdfrwt beam="2">  1       21 0.35667806E-01 0.34247586E+03</pdfrwt>
<totfact> 0.91515462E+03</totfact>
</mgrwt>
</event>
<event>
12    1  0.2768653E-001  0.2145612E+03  0.7546771E-02  0.1138446E+00
         21   -1    0    0  504  503  0.00000000000E+00  0.00000000000E+00  0.51020823899E+03  0.51020823899E+03  0.00000000000E+00 0. -1.
         21   -1    0    0  502  504 -0.00000000000E+00 -0.00000000000E+00 -0.22443697922E+03  0.22443697922E+03  0.00000000000E+00 0. -1.
          6    2    1    2  502    0  0.11923726674E+03  0.28622425968E+02 -0.14247151669E+03  0.25565838695E+03  0.17328101081E+03 0.  0.
         24    2    3    3    0    0  0.17269313700E+01  0.14365393702E+02 -0.10423211609E+03  0.13117431711E+03  0.78313604287E+02 0.  0.
         -6    2    1    2    0  503 -0.11923726674E+03 -0.28622425968E+02  0.42824277646E+03  0.47898683126E+03  0.17606742992E+03 0.  0.
        -24    2    5    5    0    0 -0.81058825968E+02  0.31168339487E+02  0.36616779297E+03  0.38460503985E+03  0.79373707352E+02 0.  0.
          2    1    4    4  501    0  0.33293823136E+02  0.28901843549E+02 -0.48969785247E+02  0.65892602671E+02  0.00000000000E+00 0. -1.
         -1    1    4    4    0  501 -0.31566891766E+02 -0.14536449847E+02 -0.55262330842E+02  0.65281714438E+02  0.00000000000E+00 0.  1.
          5    1    3    3  502    0  0.11751033537E+03  0.14257032266E+02 -0.38239400597E+02  0.12448406984E+03  0.47000000000E+01 0. -1.
         11    1    6    6    0    0 -0.71279599523E+02 -0.77054863742E+01  0.28760989885E+03  0.29641121731E+03  0.00000000000E+00 0. -1.
        -12    1    6    6    0    0 -0.97792264448E+01  0.38873825861E+02  0.78557894113E+02  0.88193822541E+02  0.00000000000E+00 0.  1.
         -5    1    5    5    0  503 -0.38178440769E+02 -0.59790765455E+02  0.62074983493E+02  0.94381791405E+02  0.47000000000E+01 0.  1.
<mgrwt>
<rscale>  2 0.21398878E+03</rscale>
<asrwt>0</asrwt>
<pdfrwt beam="1">  1       21 0.78493575E-01 0.21456120E+03</pdfrwt>
<pdfrwt beam="2">  1       21 0.34528766E-01 0.21456120E+03</pdfrwt>
<totfact> 0.11438048E+04</totfact>
</mgrwt>
</event>
<event>
12    1  0.2768653E-001  0.2265918E+03  0.7546771E-02  0.1130127E+00
         21   -1    0    0  504  503  0.00000000000E+00  0.00000000000E+00  0.49350221145E+03  0.49350221145E+03  0.00000000000E+00 0. -1.
         21   -1    0    0  502  504 -0.00000000000E+00 -0.00000000000E+00 -0.10440371563E+03  0.10440371563E+03  0.00000000000E+00 0.  1.
          6    2    1    2  502    0  0.14017085949E+03 -0.19665467004E+02  0.14604941044E+03  0.26958169540E+03  0.17694422783E+03 0.  0.
         24    2    3    3    0    0  0.34381210740E+02 -0.59720903280E+02  0.30770993777E+02  0.10800480625E+03  0.77262734709E+02 0.  0.
         -6    2    1    2    0  503 -0.14017085949E+03  0.19665467004E+02  0.24304908537E+03  0.32832423169E+03  0.16937928672E+03 0.  0.
        -24    2    5    5    0    0 -0.76532285957E+02  0.63578413312E+02  0.90214647516E+02  0.15698051196E+03  0.81269878036E+02 0.  0.
          2    1    4    4  501    0  0.59265105858E+02 -0.42588593562E+02  0.25685133176E+02  0.77368385922E+02  0.00000000000E+00 0. -1.
         -1    1    4    4    0  501 -0.24883895118E+02 -0.17132309718E+02  0.50858606009E+01  0.30636420329E+02  0.00000000000E+00 0.  1.
          5    1    3    3  502    0  0.10578964875E+03  0.40055436276E+02  0.11527841667E+03  0.16157688915E+03  0.47000000000E+01 0. -1.
         11    1    6    6    0    0 -0.32392766450E+02  0.58544188097E+02  0.90507791459E+02  0.11255386974E+03  0.00000000000E+00 0. -1.
        -12    1    6    6    0    0 -0.44139519507E+02  0.50342252152E+01 -0.29314394271E+00  0.44426642223E+02  0.00000000000E+00 0.  1.
         -5    1    5    5    0  503 -0.63638573530E+02 -0.43912946309E+02  0.15283443786E+03  0.17134371973E+03  0.47000000000E+01 0.  1.
<mgrwt>
<rscale>  2 0.22511322E+03</rscale>
<asrwt>0</asrwt>
<pdfrwt beam="1">  1       21 0.75923416E-01 0.22659184E+03</pdfrwt>
<pdfrwt beam="2">  1       21 0.16062110E-01 0.22659184E+03</pdfrwt>
<totfact> 0.52711390E+04</totfact>
</mgrwt>
</event>
<event>
12    1  0.2768653E-001  0.1890791E+03  0.7546771E-02  0.1159386E+00
         21   -1    0    0  504  503  0.00000000000E+00  0.00000000000E+00  0.25824167487E+03  0.25824167487E+03  0.00000000000E+00 0.  1.
         21   -1    0    0  502  504 -0.00000000000E+00 -0.00000000000E+00 -0.15878528093E+03  0.15878528093E+03  0.00000000000E+00 0.  1.
          6    2    1    2  502    0 -0.74896628860E+02  0.10455809204E+02  0.12486071779E+03  0.22624888939E+03  0.17285697020E+03 0.  0.
         24    2    3    3    0    0 -0.23537633080E+02  0.18264240447E+02 -0.56647324343E+01  0.85686799195E+02  0.80140724433E+02 0.  0.
         -6    2    1    2    0  503  0.74896628860E+02 -0.10455809204E+02 -0.25404323847E+02  0.19077806640E+03  0.17329761103E+03 0.  0.
        -24    2    5    5    0    0  0.77465669880E+02 -0.20706968776E+02 -0.77080055764E+02  0.13782376994E+03  0.81390097668E+02 0.  0.
          4    1    4    4  501    0  0.19709728031E+02  0.33713636336E+02  0.21100961339E+01  0.39109272043E+02  0.00000000000E+00 0. -1.
         -3    1    4    4    0  501 -0.43247361111E+02 -0.15449395889E+02 -0.77748285682E+01  0.46577527152E+02  0.00000000000E+00 0.  1.
          5    1    3    3  502    0 -0.51358995780E+02 -0.78084312424E+01  0.13052545022E+03  0.14056209020E+03  0.47000000000E+01 0. -1.
         11    1    6    6    0    0 -0.85245905753E+01  0.15174832582E+02 -0.26775031859E+02  0.31935035923E+02  0.00000000000E+00 0. -1.
        -12    1    6    6    0    0  0.85990260455E+02 -0.35881801357E+02 -0.50305023905E+02  0.10588873402E+03  0.00000000000E+00 0.  1.
         -5    1    5    5    0  503 -0.25690410205E+01  0.10251159571E+02  0.51675731917E+02  0.52954296459E+02  0.47000000000E+01 0.  1.
<mgrwt>
<rscale>  2 0.18897803E+03</rscale>
<asrwt>0</asrwt>
<pdfrwt beam="1">  1       21 0.39729488E-01 0.18907906E+03</pdfrwt>
<pdfrwt beam="2">  1       21 0.24428505E-01 0.18907906E+03</pdfrwt>
<totfact> 0.96798734E+04</totfact>
</mgrwt>
</event>
<event>
12    1  0.2768653E-001  0.1930156E+03  0.7546771E-02  0.1156164E+00
         21   -1    0    0  504  503  0.00000000000E+00  0.00000000000E+00  0.14133298311E+03  0.14133298311E+03  0.00000000000E+00 0.  1.
         21   -1    0    0  502  504 -0.00000000000E+00 -0.00000000000E+00 -0.39993937687E+03  0.39993937687E+03  0.00000000000E+00 0.  1.
          6    2    1    2  502    0 -0.69105251362E+02  0.40576822282E+02  0.29720464212E+02  0.19529032496E+03  0.17559325374E+03 0.  0.
         24    2    3    3    0    0 -0.41132704505E+02  0.94267125350E+02  0.32845769724E+01  0.12906300314E+03  0.77899165800E+02 0.  0.
         -6    2    1    2    0  503  0.69105251362E+02 -0.40576822282E+02 -0.28832685797E+03  0.34598203502E+03  0.17363518438E+03 0.  0.
        -24    2    5    5    0    0  0.57579866022E+02  0.22088845241E+02 -0.84088348535E+02  0.13198371930E+03  0.80904225763E+02 0.  0.
          4    1    4    4  501    0 -0.30898886430E+02  0.57315831238E+02 -0.35803966717E+02  0.74308611384E+02  0.00000000000E+00 0. -1.
         -3    1    4    4    0  501 -0.10233818075E+02  0.36951294112E+02  0.39088543689E+02  0.54754391757E+02  0.00000000000E+00 0.  1.
          5    1    3    3  502    0 -0.27972546856E+02 -0.53690303069E+02  0.26435887240E+02  0.66227321819E+02  0.47000000000E+01 0. -1.
         11    1    6    6    0    0  0.68680278742E+02 -0.58093491657E+01 -0.71835651874E+02  0.99554457991E+02  0.00000000000E+00 0. -1.
        -12    1    6    6    0    0 -0.11100412720E+02  0.27898194407E+02 -0.12252696661E+02  0.32429261311E+02  0.00000000000E+00 0.  1.
         -5    1    5    5    0  503  0.11525385340E+02 -0.62665667523E+02 -0.20423850943E+03  0.21399831571E+03  0.47000000000E+01 0.  1.
<mgrwt>
<rscale>  2 0.19256911E+03</rscale>
<asrwt>0</asrwt>
<pdfrwt beam="1">  1       21 0.21743536E-01 0.19301556E+03</pdfrwt>
<pdfrwt beam="2">  1       21 0.61529135E-01 0.19301556E+03</pdfrwt>
<totfact> 0.48435078E+04</totfact>
</mgrwt>
</event>
<event>
12    1  0.2768653E-001  0.1817337E+03  0.7546771E-02  0.1166166E+00
         21   -1    0    0  504  503  0.00000000000E+00  0.00000000000E+00  0.33276907722E+03  0.33276907722E+03  0.00000000000E+00 0.  1.
         21   -1    0    0  502  504 -0.00000000000E+00 -0.00000000000E+00 -0.12150965103E+03  0.12150965103E+03  0.00000000000E+00 0.  1.
          6    2    1    2  502    0 -0.57247626366E+02  0.63062041548E+01  0.82876668042E+01  0.18192252874E+03  0.17236607006E+03 0.  0.
         24    2    3    3    0    0 -0.60683921230E+02  0.67599794729E+02 -0.32700118942E+01  0.11927763825E+03  0.77228177919E+02 0.  0.
         -6    2    1    2    0  503  0.57247626366E+02 -0.63062041548E+01  0.20297175939E+03  0.27235619951E+03  0.17223038456E+03 0.  0.
        -24    2    5    5    0    0 -0.28787026290E+02  0.26496437652E+02  0.11264613310E+03  0.14328728950E+03  0.79443954701E+02 0.  0.
          2    1    4    4  501    0 -0.73778700881E+02  0.55315724477E+02  0.15270547654E+02  0.93468260408E+02  0.00000000000E+00 0. -1.
         -1    1    4    4    0  501  0.13094779651E+02  0.12284070252E+02 -0.18540559548E+02  0.25809377839E+02  0.00000000000E+00 0.  1.
          5    1    3    3  502    0  0.34362948641E+01 -0.61293590575E+02  0.11557678698E+02  0.62644890492E+02  0.47000000000E+01 0. -1.
         11    1    6    6    0    0 -0.39717027134E+02 -0.85037338572E+01  0.93458682608E+02  0.10190329283E+03  0.00000000000E+00 0. -1.
        -12    1    6    6    0    0  0.10930000843E+02  0.35000171510E+02  0.19187450488E+02  0.41383996670E+02  0.00000000000E+00 0.  1.
         -5    1    5    5    0  503  0.86034652657E+02 -0.32802641807E+02  0.90325626292E+02  0.12906891001E+03  0.47000000000E+01 0.  1.
<mgrwt>
<rscale>  2 0.18170147E+03</rscale>
<asrwt>0</asrwt>
<pdfrwt beam="1">  1       21 0.51195242E-01 0.18173365E+03</pdfrwt>
<pdfrwt beam="2">  1       21 0.18693793E-01 0.18173365E+03</pdfrwt>
<totfact> 0.95340738E+04</totfact>
</mgrwt>
</event>
<event>
12    1  0.2768653E-001  0.1739667E+03  0.7546771E-02  0.1173815E+00
         21   -1    0    0  504  503  0.00000000000E+00  0.00000000000E+00  0.34300950789E+02  0.34300950789E+02  0.00000000000E+00 0.  1.
         21   -1    0    0  502  504 -0.00000000000E+00 -0.00000000000E+00 -0.88334298554E+03  0.88334298554E+03  0.00000000000E+00 0.  1.
          6    2    1    2  502    0  0.91732542552E+01 -0.22072010651E+01 -0.40323223151E+03  0.43909323017E+03  0.17354426502E+03 0.  0.
         24    2    3    3    0    0  0.22202574109E+02 -0.67127167263E+02 -0.24359600223E+03  0.26620546055E+03  0.80791856276E+02 0.  0.
         -6    2    1    2    0  503 -0.91732542552E+01  0.22072010651E+01 -0.44580980324E+03  0.47855070616E+03  0.17371061386E+03 0.  0.
        -24    2    5    5    0    0  0.43209311672E+02  0.46478727164E+02 -0.23662510672E+03  0.25835936097E+03  0.82041462552E+02 0.  0.
          4    1    4    4  501    0 -0.30245005464E+02 -0.18278176846E+02 -0.70621815133E+02  0.78970202463E+02  0.00000000000E+00 0. -1.
         -3    1    4    4    0  501  0.52447579573E+02 -0.48848990417E+02 -0.17297418710E+03  0.18723525808E+03  0.00000000000E+00 0.  1.
          5    1    3    3  502    0 -0.13029319854E+02  0.64919966198E+02 -0.15963622928E+03  0.17288776962E+03  0.47000000000E+01 0. -1.
         13    1    6    6    0    0  0.30267664349E+01 -0.18662029352E+02 -0.99866285898E+02  0.10164008911E+03  0.00000000000E+00 0. -1.
        -14    1    6    6    0    0  0.40182545237E+02  0.65140756516E+02 -0.13675882082E+03  0.15671927186E+03  0.00000000000E+00 0.  1.
         -5    1    5    5    0  503 -0.52382565927E+02 -0.44271526099E+02 -0.20918469653E+03  0.22019134519E+03  0.47000000000E+01 0.  1.
<mgrwt>
<rscale>  2 0.17392512E+03</rscale>
<asrwt>0</asrwt>
<pdfrwt beam="1">  1       21 0.52770689E-02 0.17396666E+03</pdfrwt>
<pdfrwt beam="2">  1       21 0.13589893E+00 0.17396666E+03</pdfrwt>
<totfact> 0.95635512E+04</totfact>
</mgrwt>
</event>
<event>
12    1  0.2768653E-001  0.2027500E+03  0.7546771E-02  0.1147534E+00
         21   -1    0    0  504  503  0.00000000000E+00  0.00000000000E+00  0.19422468079E+04  0.19422468079E+04  0.00000000000E+00 0.  1.
         21   -1    0    0  502  504 -0.00000000000E+00 -0.00000000000E+00 -0.45623847805E+02  0.45623847805E+02  0.00000000000E+00 0.  1.
          6    2    1    2  502    0 -0.95510317153E+02  0.42105618150E+02  0.21936192624E+03  0.29839968700E+03  0.17328477934E+03 0.  0.
         24    2    3    3    0    0 -0.17594309642E+02  0.11223794024E+02  0.18382132125E+03  0.20724149542E+03  0.93398211948E+02 0.  0.
         -6    2    1    2    0  503  0.95510317153E+02 -0.42105618150E+02  0.16772610338E+04  0.16894709687E+04  0.17381736009E+03 0.  0.
        -24    2    5    5    0    0  0.43151124191E+02 -0.91707819094E+01  0.37864933305E+03  0.38937842278E+03  0.79335464617E+02 0.  0.
          2    1    4    4  501    0  0.14794154887E+02  0.41943919560E+02  0.12953646091E+03  0.13695931554E+03  0.00000000000E+00 0. -1.
         -1    1    4    4    0  501 -0.32388464529E+02 -0.30720125536E+02  0.54284860333E+02  0.70282179882E+02  0.00000000000E+00 0.  1.
          5    1    3    3  502    0 -0.77916007511E+02  0.30881824126E+02  0.35540604995E+02  0.91158191575E+02  0.47000000000E+01 0. -1.
         13    1    6    6    0    0  0.59075661048E+02  0.14078053621E+02  0.29247780558E+03  0.29871624007E+03  0.00000000000E+00 0. -1.
        -14    1    6    6    0    0 -0.15924536857E+02 -0.23248835530E+02  0.86171527468E+02  0.90662182710E+02  0.00000000000E+00 0.  1.
         -5    1    5    5    0  503  0.52359192962E+02 -0.32934836241E+02  0.12986117008E+04  0.13000925459E+04  0.47000000000E+01 0.  1.
<mgrwt>
<rscale>  2 0.20263584E+03</rscale>
<asrwt>0</asrwt>
<pdfrwt beam="1">  1       21 0.29880714E+00 0.20275004E+03</pdfrwt>
<pdfrwt beam="2">  1       21 0.70190550E-02 0.20275004E+03</pdfrwt>
<totfact> 0.51621792E+03</totfact>
</mgrwt>
</event>
<event>
12    1  0.2768653E-001  0.2052378E+03  0.7546771E-02  0.1145635E+00
         21   -1    0    0  504  503  0.00000000000E+00  0.00000000000E+00  0.15590868088E+03  0.15590868088E+03  0.00000000000E+00 0. -1.
         21   -1    0    0  502  504 -0.00000000000E+00 -0.00000000000E+00 -0.39986941881E+03  0.39986941881E+03  0.00000000000E+00 0. -1.
          6    2    1    2  502    0 -0.33196221758E+02  0.10139449534E+03 -0.28094915784E+03  0.34723383008E+03  0.17394272229E+03 0.  0.
         24    2    3    3    0    0 -0.74941230187E+02  0.23790149930E+02 -0.12770456764E+03  0.17039753691E+03  0.80899349656E+02 0.  0.
         -6    2    1    2    0  503  0.33196221758E+02 -0.10139449534E+03  0.36988419907E+02  0.20854426961E+03  0.17532751169E+03 0.  0.
        -24    2    5    5    0    0  0.10228399304E+02 -0.22291327910E+01 -0.26362264717E+02  0.88558065230E+02  0.83892626202E+02 0.  0.
          2    1    4    4  501    0 -0.14001457076E+02  0.22066930397E+02  0.28710034636E+01  0.26291308037E+02  0.00000000000E+00 0. -1.
         -1    1    4    4    0  501 -0.60939773111E+02  0.17232195335E+01 -0.13057557110E+03  0.14410622888E+03  0.00000000000E+00 0.  1.
          5    1    3    3  502    0  0.41745008429E+02  0.77604345414E+02 -0.15324459020E+03  0.17683629317E+03  0.47000000000E+01 0. -1.
         13    1    6    6    0    0  0.17512432206E+01  0.22496444336E+02  0.23301172825E+02  0.32436114373E+02  0.00000000000E+00 0. -1.
        -14    1    6    6    0    0  0.84771560836E+01 -0.24725577127E+02 -0.49663437542E+02  0.56121950857E+02  0.00000000000E+00 0.  1.
         -5    1    5    5    0  503  0.22967822454E+02 -0.99165362554E+02  0.63350684624E+02  0.11998620438E+03  0.47000000000E+01 0.  1.
<mgrwt>
<rscale>  2 0.20494177E+03</rscale>
<asrwt>0</asrwt>
<pdfrwt beam="1">  1       21 0.23985951E-01 0.20523784E+03</pdfrwt>
<pdfrwt beam="2">  1       21 0.61518372E-01 0.20523784E+03</pdfrwt>
<totfact> 0.39985090E+04</totfact>
</mgrwt>
</event>
<event>
12    1  0.2768653E-001  0.1738119E+03  0.7546771E-02  0.1173937E+00
         21   -1    0    0  504  503  0.00000000000E+00  0.00000000000E+00  0.38098123941E+02  0.38098123941E+02  0.00000000000E+00 0.  1.
         21   -1    0    0  502  504 -0.00000000000E+00 -0.00000000000E+00 -0.92327120563E+03  0.92327120563E+03  0.00000000000E+00 0.  1.
          6    2    1    2  502    0  0.21434330022E+02  0.64027394871E+00 -0.62329371779E+03  0.64707467548E+03  0.17248401828E+03 0.  0.
         24    2    3    3    0    0  0.80125273618E+02  0.14420733918E+02 -0.40591760600E+03  0.42144446494E+03  0.78856306802E+02 0.  0.
         -6    2    1    2    0  503 -0.21434330022E+02 -0.64027394871E+00 -0.26187936391E+03  0.31429465409E+03  0.17245430670E+03 0.  0.
        -24    2    5    5    0    0 -0.23586913713E+02  0.59394915533E+02 -0.21279603930E+03  0.23657644293E+03  0.81253680016E+02 0.  0.
          2    1    4    4  501    0  0.87670480409E+02 -0.11829873489E+01 -0.25749334550E+03  0.27201164603E+03  0.00000000000E+00 0. -1.
         -1    1    4    4    0  501 -0.75452067915E+01  0.15603721266E+02 -0.14842426050E+03  0.14943281891E+03  0.00000000000E+00 0.  1.
          5    1    3    3  502    0 -0.58690943596E+02 -0.13780459969E+02 -0.21737611178E+03  0.22563021055E+03  0.47000000000E+01 0. -1.
         11    1    6    6    0    0 -0.50425022674E+02  0.46269621730E+02 -0.17806656342E+03  0.19076493864E+03  0.00000000000E+00 0. -1.
        -12    1    6    6    0    0  0.26838108961E+02  0.13125293803E+02 -0.34729475886E+02  0.45811504290E+02  0.00000000000E+00 0.  1.
         -5    1    5    5    0  503  0.21525836911E+01 -0.60035189482E+02 -0.49083324606E+02  0.77718211167E+02  0.47000000000E+01 0.  1.
<mgrwt>
<rscale>  2 0.17380453E+03</rscale>
<asrwt>0</asrwt>
<pdfrwt beam="1">  1       21 0.58612496E-02 0.17381190E+03</pdfrwt>
<pdfrwt beam="2">  1       21 0.14204173E+00 0.17381190E+03</pdfrwt>
<totfact> 0.71419957E+04</totfact>
</mgrwt>
</event>
<event>
12    1  0.2768653E-001  0.1876673E+03  0.7546771E-02  0.1161138E+00
         21   -1    0    0  504  503  0.00000000000E+00  0.00000000000E+00  0.23189339317E+03  0.23189339317E+03  0.00000000000E+00 0. -1.
         21   -1    0    0  502  504 -0.00000000000E+00 -0.00000000000E+00 -0.31907515766E+03  0.31907515766E+03  0.00000000000E+00 0. -1.
          6    2    1    2  502    0 -0.33990511539E+02  0.57355264203E+02 -0.24403090680E+03  0.30638593588E+03  0.17284755428E+03 0.  0.
         24    2    3    3    0    0 -0.24056701208E+02  0.41825436377E+02 -0.26268923748E+03  0.27973862000E+03  0.83186345221E+02 0.  0.
         -6    2    1    2    0  503  0.33990511539E+02 -0.57355264203E+02  0.15684914232E+03  0.24458261495E+03  0.17542525726E+03 0.  0.
        -24    2    5    5    0    0 -0.12368800028E+02  0.23071632561E+02  0.38041949576E+02  0.93735306262E+02  0.81571013659E+02 0.  0.
          4    1    4    4  501    0 -0.49851778467E+02  0.23969481504E+02 -0.21946952269E+03  0.22633295661E+03  0.00000000000E+00 0. -1.
         -3    1    4    4    0  501  0.25795077259E+02  0.17855954873E+02 -0.43219714787E+02  0.53405663384E+02  0.00000000000E+00 0.  1.
          5    1    3    3  502    0 -0.99338103313E+01  0.15529827827E+02  0.18658330674E+02  0.26647315879E+02  0.47000000000E+01 0. -1.
         13    1    6    6    0    0 -0.15508814136E+02  0.21341599388E+02  0.63115233519E+02  0.68407016325E+02  0.00000000000E+00 0. -1.
        -14    1    6    6    0    0  0.31400141083E+01  0.17300331734E+01 -0.25073283944E+02  0.25328289936E+02  0.00000000000E+00 0.  1.
         -5    1    5    5    0  503  0.46359311567E+02 -0.80426896765E+02  0.11880719274E+03  0.15084730869E+03  0.47000000000E+01 0.  1.
<mgrwt>
<rscale>  2 0.18706253E+03</rscale>
<asrwt>0</asrwt>
<pdfrwt beam="1">  1       21 0.35675907E-01 0.18766726E+03</pdfrwt>
<pdfrwt beam="2">  1       21 0.49088486E-01 0.18766726E+03</pdfrwt>
<totfact> 0.30075141E+04</totfact>
</mgrwt>
</event>
<event>
12    1  0.2768653E-001  0.1998213E+03  0.7546771E-02  0.1150885E+00
         21   -1    0    0  504  503  0.00000000000E+00  0.00000000000E+00  0.97207499303E+03  0.97207499303E+03  0.00000000000E+00 0. -1.
         21   -1    0    0  502  504 -0.00000000000E+00 -0.00000000000E+00 -0.65442609266E+02  0.65442609266E+02  0.00000000000E+00 0. -1.
          6    2    1    2  502    0 -0.10216219457E+03  0.10854530302E+02  0.12739032501E+03  0.23306329858E+03  0.16593755274E+03 0.  0.
         24    2    3    3    0    0 -0.92179168071E+02 -0.22657246026E+02  0.14717655573E+03  0.19261228009E+03  0.80176069136E+02 0.  0.
         -6    2    1    2    0  503  0.10216219457E+03 -0.10854530302E+02  0.77924205875E+03  0.80445430371E+03  0.17138729769E+03 0.  0.
        -24    2    5    5    0    0  0.62213259822E+02  0.35215437388E+02  0.67570950473E+03  0.68420689604E+03  0.80281536338E+02 0.  0.
          4    1    4    4  501    0 -0.94059835612E+02 -0.28700089800E+02  0.84619518348E+02  0.12973592685E+03  0.00000000000E+00 0. -1.
         -3    1    4    4    0  501  0.18806675411E+01  0.60428437737E+01  0.62557037379E+02  0.62876353241E+02  0.00000000000E+00 0.  1.
          5    1    3    3  502    0 -0.99830265008E+01  0.33511776328E+02 -0.19786230717E+02  0.40451018489E+02  0.47000000000E+01 0. -1.
         13    1    6    6    0    0  0.52322533520E+02  0.33072992218E+02  0.22430798066E+03  0.23269194339E+03  0.00000000000E+00 0. -1.
        -14    1    6    6    0    0  0.98907263021E+01  0.21424451692E+01  0.45140152406E+03  0.45151495265E+03  0.00000000000E+00 0.  1.
         -5    1    5    5    0  503  0.39948934749E+02 -0.46069967690E+02  0.10353255402E+03  0.12024740768E+03  0.47000000000E+01 0.  1.
<mgrwt>
<rscale>  2 0.19864743E+03</rscale>
<asrwt>0</asrwt>
<pdfrwt beam="1">  1       21 0.14954999E+00 0.19982127E+03</pdfrwt>
<pdfrwt beam="2">  1       21 0.10068094E-01 0.19982127E+03</pdfrwt>
<totfact> 0.24042515E+04</totfact>
</mgrwt>
</event>
<event>
12    1  0.2768653E-001  0.3198353E+03  0.7546771E-02  0.1075762E+00
         21   -1    0    0  504  503  0.00000000000E+00  0.00000000000E+00  0.21214085001E+03  0.21214085001E+03  0.00000000000E+00 0. -1.
         21   -1    0    0  502  504 -0.00000000000E+00 -0.00000000000E+00 -0.50055796635E+03  0.50055796635E+03  0.00000000000E+00 0. -1.
          6    2    1    2  502    0 -0.24463073738E+03  0.11162767342E+03 -0.75144169723E+02  0.32854416438E+03  0.17317530585E+03 0.  0.
         24    2    3    3    0    0 -0.18686054923E+03  0.12588495798E+03 -0.10066480599E+03  0.26362839066E+03  0.92750405338E+02 0.  0.
         -6    2    1    2    0  503  0.24463073738E+03 -0.11162767342E+03 -0.21327294661E+03  0.38415465198E+03  0.17258189864E+03 0.  0.
        -24    2    5    5    0    0  0.25243822876E+03 -0.69499516660E+02 -0.19967779840E+03  0.33895889368E+03  0.80415584790E+02 0.  0.
          4    1    4    4  501    0 -0.13309984713E+03  0.66038024662E+02 -0.10674496944E+03  0.18295102763E+03  0.00000000000E+00 0. -1.
         -3    1    4    4    0  501 -0.53760702099E+02  0.59846933322E+02  0.60801634547E+01  0.80677363032E+02  0.00000000000E+00 0.  1.
          5    1    3    3  502    0 -0.57770188151E+02 -0.14257284567E+02  0.25520636264E+02  0.64915773719E+02  0.47000000000E+01 0. -1.
         13    1    6    6    0    0  0.10789199673E+03 -0.52669489745E+02 -0.13210793232E+03  0.17851404396E+03  0.00000000000E+00 0. -1.
        -14    1    6    6    0    0  0.14454623204E+03 -0.16830026915E+02 -0.67569866073E+02  0.16044484972E+03  0.00000000000E+00 0.  1.
         -5    1    5    5    0  503 -0.78074913803E+01 -0.42128156757E+02 -0.13595148212E+02  0.45195758300E+02  0.47000000000E+01 0.  1.
<mgrwt>
<rscale>  2 0.31975505E+03</rscale>
<asrwt>0</asrwt>
<pdfrwt beam="1">  1       21 0.32637054E-01 0.31983530E+03</pdfrwt>
<pdfrwt beam="2">  1       21 0.77008918E-01 0.31983530E+03</pdfrwt>
<totfact> 0.12668573E+04</totfact>
</mgrwt>
</event>
<event>
12    1  0.2768653E-001  0.1829442E+03  0.7546771E-02  0.1166315E+00
         21   -1    0    0  504  503  0.00000000000E+00  0.00000000000E+00  0.67588411876E+02  0.67588411876E+02  0.00000000000E+00 0.  1.
         21   -1    0    0  502  504 -0.00000000000E+00 -0.00000000000E+00 -0.49619554762E+03  0.49619554762E+03  0.00000000000E+00 0.  1.
          6    2    1    2  502    0  0.30601281176E+02  0.18179872238E+02 -0.16072948489E+03  0.23939679614E+03  0.17380998972E+03 0.  0.
         24    2    3    3    0    0  0.86268524842E+02 -0.25958273663E+01 -0.98107854389E+02  0.15294432181E+03  0.79484701573E+02 0.  0.
         -6    2    1    2    0  503 -0.30601281176E+02 -0.18179872238E+02 -0.26787765085E+03  0.32438716335E+03  0.17944818125E+03 0.  0.
        -24    2    5    5    0    0 -0.26966162458E+01  0.31458521910E+02 -0.25093568169E+03  0.26479051229E+03  0.78411661843E+02 0.  0.
          2    1    4    4  501    0  0.67705202639E+02 -0.23479066632E+02 -0.10208023268E+03  0.12472223113E+03  0.00000000000E+00 0. -1.
         -1    1    4    4    0  501  0.18563322203E+02  0.20883239266E+02  0.39723782863E+01  0.28222090686E+02  0.00000000000E+00 0.  1.
          5    1    3    3  502    0 -0.55667243666E+02  0.20775699605E+02 -0.62621630498E+02  0.86452474329E+02  0.47000000000E+01 0. -1.
         11    1    6    6    0    0  0.13039299107E+02  0.37307724286E+02 -0.52838762173E+02  0.65983516128E+02  0.00000000000E+00 0. -1.
        -12    1    6    6    0    0 -0.15735915353E+02 -0.58492023760E+01 -0.19809691952E+03  0.19880699616E+03  0.00000000000E+00 0.  1.
         -5    1    5    5    0  503 -0.27904664931E+02 -0.49638394149E+02 -0.16941969163E+02  0.59596651061E+02  0.47000000000E+01 0.  1.
<mgrwt>
<rscale>  2 0.18154654E+03</rscale>
<asrwt>0</asrwt>
<pdfrwt beam="1">  1       21 0.10398217E-01 0.18294424E+03</pdfrwt>
<pdfrwt beam="2">  1       21 0.76337776E-01 0.18294424E+03</pdfrwt>
<totfact> 0.11615359E+05</totfact>
</mgrwt>
</event>
<event>
12    1  0.2768653E-001  0.1729840E+03  0.7546771E-02  0.1175131E+00
         21   -1    0    0  504  503  0.00000000000E+00  0.00000000000E+00  0.20903846224E+03  0.20903846224E+03  0.00000000000E+00 0. -1.
         21   -1    0    0  502  504 -0.00000000000E+00 -0.00000000000E+00 -0.27351185082E+03  0.27351185082E+03  0.00000000000E+00 0. -1.
          6    2    1    2  502    0 -0.17739776388E+01 -0.63890060033E+01 -0.19947995041E+03  0.26311868291E+03  0.17145035516E+03 0.  0.
         24    2    3    3    0    0 -0.29564037644E+02  0.42182916922E+02 -0.17976639307E+03  0.20360201739E+03  0.80525738766E+02 0.  0.
         -6    2    1    2    0  503  0.17739776388E+01  0.63890060033E+01  0.13500656184E+03  0.21943163014E+03  0.17285688350E+03 0.  0.
        -24    2    5    5    0    0 -0.12470770129E+02  0.70510593657E+02  0.92505762301E+02  0.14105498309E+03  0.78815786934E+02 0.  0.
          2    1    4    4  501    0  0.28403419253E+01  0.25067769872E+02 -0.15997616671E+03  0.16195318627E+03  0.00000000000E+00 0. -1.
         -1    1    4    4    0  501 -0.32404379570E+02  0.17115147050E+02 -0.19790226366E+02  0.41648831117E+02  0.00000000000E+00 0.  1.
          5    1    3    3  502    0  0.27790060006E+02 -0.48571922925E+02 -0.19713557340E+02  0.59516665521E+02  0.47000000000E+01 0. -1.
         11    1    6    6    0    0  0.24089314335E+02  0.30291503130E+02  0.63976106232E+01  0.39227536867E+02  0.00000000000E+00 0. -1.
        -12    1    6    6    0    0 -0.36560084464E+02  0.40219090527E+02  0.86108151678E+02  0.10182744622E+03  0.00000000000E+00 0.  1.
         -5    1    5    5    0  503  0.14244747768E+02 -0.64121587654E+02  0.42500799535E+02  0.78376647053E+02  0.47000000000E+01 0.  1.
<mgrwt>
<rscale>  2 0.17263157E+03</rscale>
<asrwt>0</asrwt>
<pdfrwt beam="1">  1       21 0.32159764E-01 0.17298401E+03</pdfrwt>
<pdfrwt beam="2">  1       21 0.42078746E-01 0.17298401E+03</pdfrwt>
<totfact> 0.51028614E+04</totfact>
</mgrwt>
</event>
<event>
12    1  0.2768653E-001  0.1870923E+03  0.7546771E-02  0.1161732E+00
         21   -1    0    0  504  503  0.00000000000E+00  0.00000000000E+00  0.10245373325E+03  0.10245373325E+03  0.00000000000E+00 0.  1.
         21   -1    0    0  502  504 -0.00000000000E+00 -0.00000000000E+00 -0.93308597016E+03  0.93308597016E+03  0.00000000000E+00 0. -1.
          6    2    1    2  502    0  0.51541894133E+02  0.49999688015E+02 -0.82814669489E+03  0.84843085842E+03  0.16985710941E+03 0.  0.
         24    2    3    3    0    0  0.34788594053E+02 -0.36559981791E+02 -0.46789365949E+03  0.47751632782E+03  0.80935086311E+02 0.  0.
         -6    2    1    2    0  503 -0.51541894133E+02 -0.49999688015E+02 -0.24855420173E+01  0.18710884498E+03  0.17276286146E+03 0.  0.
        -24    2    5    5    0    0  0.33826648667E+02 -0.36621648598E+02 -0.23576490552E+02  0.98037647906E+02  0.81056413653E+02 0.  0.
          2    1    4    4  501    0  0.58628835195E+02 -0.35672628851E+02 -0.28888429089E+03  0.29692425009E+03  0.00000000000E+00 0. -1.
         -1    1    4    4    0  501 -0.23840241143E+02 -0.88735293984E+00 -0.17900936860E+03  0.18059207773E+03  0.00000000000E+00 0.  1.
          5    1    3    3  502    0  0.16753300081E+02  0.86559669805E+02 -0.36025303540E+03  0.37091453061E+03  0.47000000000E+01 0. -1.
         13    1    6    6    0    0  0.31833963684E+02  0.16284484548E+02  0.76565748825E+01  0.36567865945E+02  0.00000000000E+00 0. -1.
        -14    1    6    6    0    0  0.19926849822E+01 -0.52906133146E+02 -0.31233065434E+02  0.61469781961E+02  0.00000000000E+00 0.  1.
         -5    1    5    5    0  503 -0.85368542800E+02 -0.13378039417E+02  0.21090948535E+02  0.89071197076E+02  0.47000000000E+01 0.  1.
<mgrwt>
<rscale>  2 0.18641875E+03</rscale>
<asrwt>0</asrwt>
<pdfrwt beam="1">  1       21 0.15762113E-01 0.18709234E+03</pdfrwt>
<pdfrwt beam="2">  1       21 0.14355169E+00 0.18709234E+03</pdfrwt>
<totfact> 0.12065532E+04</totfact>
</mgrwt>
</event>
<event>
12    1  0.2768653E-001  0.1811901E+03  0.7546771E-02  0.1167477E+00
         21   -1    0    0  504  503  0.00000000000E+00  0.00000000000E+00  0.28582900800E+03  0.28582900800E+03  0.00000000000E+00 0.  1.
         21   -1    0    0  502  504 -0.00000000000E+00 -0.00000000000E+00 -0.26884142270E+03  0.26884142270E+03  0.00000000000E+00 0.  1.
          6    2    1    2  502    0  0.43469022502E+02 -0.22627242202E+02 -0.20287899142E+03  0.26976487757E+03  0.17091417731E+03 0.  0.
         24    2    3    3    0    0 -0.27186230620E+02 -0.49101014389E+02 -0.14299348873E+03  0.17332116943E+03  0.80268855753E+02 0.  0.
         -6    2    1    2    0  503 -0.43469022502E+02  0.22627242202E+02  0.21986657671E+03  0.28490555313E+03  0.17443713665E+03 0.  0.
        -24    2    5    5    0    0 -0.32714105998E+01  0.49011555406E+02  0.48795791401E+02  0.10714367990E+03  0.81767378547E+02 0.  0.
          4    1    4    4  501    0  0.22431388647E+02 -0.30252858148E+02 -0.28853770376E+02  0.47444100663E+02  0.00000000000E+00 0. -1.
         -3    1    4    4    0  501 -0.49617619267E+02 -0.18848156241E+02 -0.11413971836E+03  0.12587706877E+03  0.00000000000E+00 0.  1.
          5    1    3    3  502    0  0.70655253122E+02  0.26473772187E+02 -0.59885502682E+02  0.96443708136E+02  0.47000000000E+01 0. -1.
         11    1    6    6    0    0 -0.23419075527E+02  0.53496749306E+02  0.48590303868E+01  0.58600046596E+02  0.00000000000E+00 0. -1.
        -12    1    6    6    0    0  0.20147664927E+02 -0.44851939000E+01  0.43936761014E+02  0.48543633308E+02  0.00000000000E+00 0.  1.
         -5    1    5    5    0  503 -0.40197611902E+02 -0.26384313204E+02  0.17107078531E+03  0.17776187322E+03  0.47000000000E+01 0.  1.
<mgrwt>
<rscale>  2 0.18033684E+03</rscale>
<asrwt>0</asrwt>
<pdfrwt beam="1">  1       21 0.43973694E-01 0.18119013E+03</pdfrwt>
<pdfrwt beam="2">  1       21 0.41360219E-01 0.18119013E+03</pdfrwt>
<totfact> 0.28142433E+04</totfact>
</mgrwt>
</event>
<event>
12    1  0.2768653E-001  0.1957858E+03  0.7546771E-02  0.1156433E+00
         21   -1    0    0  504  503  0.00000000000E+00  0.00000000000E+00  0.85449633792E+03  0.85449633792E+03  0.00000000000E+00 0.  1.
         21   -1    0    0  502  504 -0.00000000000E+00 -0.00000000000E+00 -0.46052579555E+02  0.46052579555E+02  0.00000000000E+00 0.  1.
          6    2    1    2  502    0 -0.30700761658E+02 -0.51774639969E+02  0.28036513640E+03  0.34196007417E+03  0.18630333467E+03 0.  0.
         24    2    3    3    0    0 -0.22438398012E+01 -0.10518254475E+03  0.16996227439E+03  0.21597165156E+03  0.81781275504E+02 0.  0.
         -6    2    1    2    0  503  0.30700761658E+02  0.51774639969E+02  0.52807862197E+03  0.55858884331E+03  0.17184677702E+03 0.  0.
        -24    2    5    5    0    0 -0.13799727434E+02  0.86971143645E+02  0.28368572541E+03  0.30765246633E+03  0.80112651520E+02 0.  0.
          4    1    4    4  501    0  0.44621823144E+01 -0.34105473416E+02  0.31694376036E+01  0.34541854650E+02  0.00000000000E+00 0. -1.
         -3    1    4    4    0  501 -0.67060221155E+01 -0.71077071330E+02  0.16679283679E+03  0.18142979691E+03  0.00000000000E+00 0.  1.
          5    1    3    3  502    0 -0.28456921857E+02  0.53407904777E+02  0.11040286200E+03  0.12598842262E+03  0.47000000000E+01 0. -1.
         13    1    6    6    0    0 -0.34009382919E+02  0.61109058296E+01  0.10369313903E+03  0.10929889468E+03  0.00000000000E+00 0. -1.
        -14    1    6    6    0    0  0.20209655485E+02  0.80860237816E+02  0.17999258638E+03  0.19835357165E+03  0.00000000000E+00 0.  1.
         -5    1    5    5    0  503  0.44500489092E+02 -0.35196503676E+02  0.24439289656E+03  0.25093637697E+03  0.47000000000E+01 0.  1.
<mgrwt>
<rscale>  2 0.19226652E+03</rscale>
<asrwt>0</asrwt>
<pdfrwt beam="1">  1       21 0.13146096E+00 0.19578581E+03</pdfrwt>
<pdfrwt beam="2">  1       21 0.70850129E-02 0.19578581E+03</pdfrwt>
<totfact> 0.62153066E+04</totfact>
</mgrwt>
</event>
<event>
12    1  0.2768653E-001  0.2190259E+03  0.7546771E-02  0.1135199E+00
         21   -1    0    0  504  503  0.00000000000E+00  0.00000000000E+00  0.49451151804E+02  0.49451151804E+02  0.00000000000E+00 0.  1.
         21   -1    0    0  502  504 -0.00000000000E+00 -0.00000000000E+00 -0.11064210067E+04  0.11064210067E+04  0.00000000000E+00 0. -1.
          6    2    1    2  502    0 -0.27974347440E+02 -0.12514225242E+03 -0.74459251024E+03  0.77613809390E+03  0.17756459961E+03 0.  0.
         24    2    3    3    0    0  0.30382948642E+02 -0.15055264208E+02 -0.21087954074E+03  0.22805384600E+03  0.79928664592E+02 0.  0.
         -6    2    1    2    0  503  0.27974347440E+02  0.12514225242E+03 -0.31237734470E+03  0.37973406465E+03  0.17371012326E+03 0.  0.
        -24    2    5    5    0    0  0.31770740239E+02  0.47296296736E+01 -0.85280094564E+02  0.12261762540E+03  0.82040466835E+02 0.  0.
          2    1    4    4  501    0  0.18086833678E+02  0.22305923667E+02 -0.16562118339E+03  0.16809242747E+03  0.00000000000E+00 0. -1.
         -1    1    4    4    0  501  0.12296114964E+02 -0.37361187875E+02 -0.45258357349E+02  0.59961418534E+02  0.00000000000E+00 0.  1.
          5    1    3    3  502    0 -0.58357296082E+02 -0.11008698821E+03 -0.53371296950E+03  0.54808424790E+03  0.47000000000E+01 0. -1.
         11    1    6    6    0    0  0.18988094653E+01 -0.58185315947E+01 -0.90330829440E+02  0.90537945275E+02  0.00000000000E+00 0. -1.
        -12    1    6    6    0    0  0.29871930774E+02  0.10548161268E+02  0.50507348765E+01  0.32079680128E+02  0.00000000000E+00 0.  1.
         -5    1    5    5    0  503 -0.37963927991E+01  0.12041262274E+03 -0.22709725014E+03  0.25711643925E+03  0.47000000000E+01 0.  1.
<mgrwt>
<rscale>  2 0.21824343E+03</rscale>
<asrwt>0</asrwt>
<pdfrwt beam="1">  1       21 0.76078699E-02 0.21902588E+03</pdfrwt>
<pdfrwt beam="2">  1       21 0.17021861E+00 0.21902588E+03</pdfrwt>
<totfact> 0.27372339E+04</totfact>
</mgrwt>
</event>
<event>
12    1  0.2768653E-001  0.2326085E+03  0.7546771E-02  0.1124874E+00
         21   -1    0    0  504  503  0.00000000000E+00  0.00000000000E+00  0.25833410653E+03  0.25833410653E+03  0.00000000000E+00 0. -1.
         21   -1    0    0  502  504 -0.00000000000E+00 -0.00000000000E+00 -0.30979964502E+03  0.30979964502E+03  0.00000000000E+00 0.  1.
          6    2    1    2  502    0 -0.12114763039E+03 -0.97842750324E+02 -0.18763710388E+03  0.29859820514E+03  0.17234631769E+03 0.  0.
         24    2    3    3    0    0 -0.53611578763E+01 -0.21261826007E+02 -0.27402969992E+02  0.86541107054E+02  0.79105203285E+02 0.  0.
         -6    2    1    2    0  503  0.12114763039E+03  0.97842750324E+02  0.13617156540E+03  0.26953554641E+03  0.17279109762E+03 0.  0.
        -24    2    5    5    0    0 -0.18284394562E+01  0.19286955966E+02  0.76217095477E+02  0.11170413304E+03  0.79331190807E+02 0.  0.
          2    1    4    4  501    0  0.17456628665E+02 -0.33795717921E+02  0.11493416877E+02  0.39736419889E+02  0.00000000000E+00 0. -1.
         -1    1    4    4    0  501 -0.22817786541E+02  0.12533891914E+02 -0.38896386868E+02  0.46804687164E+02  0.00000000000E+00 0.  1.
          5    1    3    3  502    0 -0.11578647251E+03 -0.76580924318E+02 -0.16023413389E+03  0.21205709809E+03  0.47000000000E+01 0. -1.
         13    1    6    6    0    0  0.33370005782E+02 -0.61629055572E+01  0.51656918628E+02  0.61805953863E+02  0.00000000000E+00 0. -1.
        -14    1    6    6    0    0 -0.35198445238E+02  0.25449861523E+02  0.24560176849E+02  0.49898179181E+02  0.00000000000E+00 0.  1.
         -5    1    5    5    0  503  0.12297606985E+03  0.78555794358E+02  0.59954469919E+02  0.15783141337E+03  0.47000000000E+01 0.  1.
<mgrwt>
<rscale>  2 0.23252591E+03</rscale>
<asrwt>0</asrwt>
<pdfrwt beam="1">  1       21 0.39743709E-01 0.23260850E+03</pdfrwt>
<pdfrwt beam="2">  1       21 0.47661484E-01 0.23260850E+03</pdfrwt>
<totfact> 0.25136809E+04</totfact>
</mgrwt>
</event>
<event>
12    1  0.2768653E-001  0.2004282E+03  0.7546771E-02  0.1149484E+00
         21   -1    0    0  504  503  0.00000000000E+00  0.00000000000E+00  0.11434968830E+04  0.11434968830E+04  0.00000000000E+00 0. -1.
         21   -1    0    0  502  504 -0.00000000000E+00 -0.00000000000E+00 -0.35142043213E+02  0.35142043213E+02  0.00000000000E+00 0. -1.
          6    2    1    2  502    0 -0.52570944501E+02 -0.85748438858E+02  0.52207028284E+03  0.55904143679E+03  0.17278150611E+03 0.  0.
         24    2    3    3    0    0 -0.19449832654E+02 -0.54506665797E+02  0.49628188831E+03  0.50650394802E+03  0.83073847212E+02 0.  0.
         -6    2    1    2    0  503  0.52570944501E+02  0.85748438858E+02  0.58628455691E+03  0.61959748938E+03  0.17336368769E+03 0.  0.
        -24    2    5    5    0    0  0.56656235488E+02 -0.54575386767E+01  0.23519011834E+03  0.25679642167E+03  0.85966834706E+02 0.  0.
          4    1    4    4  501    0 -0.41011823618E+02 -0.65305051604E+02  0.38175070110E+03  0.38946157350E+03  0.00000000000E+00 0. -1.
         -3    1    4    4    0  501  0.21561990963E+02  0.10798385808E+02  0.11453118721E+03  0.11704237452E+03  0.00000000000E+00 0.  1.
          5    1    3    3  502    0 -0.33121111847E+02 -0.31241773061E+02  0.25788394534E+02  0.52537488774E+02  0.47000000000E+01 0. -1.
         11    1    6    6    0    0  0.92317868246E+01  0.30595998420E+02  0.14657291034E+03  0.15001652926E+03  0.00000000000E+00 0. -1.
        -12    1    6    6    0    0  0.47424448663E+02 -0.36053537096E+02  0.88617208002E+02  0.10677989241E+03  0.00000000000E+00 0.  1.
         -5    1    5    5    0  503 -0.40852909866E+01  0.91205977535E+02  0.35109443857E+03  0.36280106771E+03  0.47000000000E+01 0.  1.
<mgrwt>
<rscale>  2 0.20030225E+03</rscale>
<asrwt>0</asrwt>
<pdfrwt beam="1">  1       21 0.17592257E+00 0.20042821E+03</pdfrwt>
<pdfrwt beam="2">  1       21 0.54064691E-02 0.20042821E+03</pdfrwt>
<totfact> 0.45487660E+04</totfact>
</mgrwt>
</event>
<event>
12    1  0.2768653E-001  0.3073651E+03  0.7546771E-02  0.1082819E+00
         21   -1    0    0  504  503  0.00000000000E+00  0.00000000000E+00  0.13506624096E+04  0.13506624096E+04  0.00000000000E+00 0. -1.
         21   -1    0    0  502  504 -0.00000000000E+00 -0.00000000000E+00 -0.13466907273E+03  0.13466907273E+03  0.00000000000E+00 0.  1.
          6    2    1    2  502    0  0.17742100621E+03  0.18250624742E+03  0.89413622382E+02  0.32010635882E+03  0.17229782731E+03 0.  0.
         24    2    3    3    0    0  0.89484166943E+02  0.12002985179E+03 -0.13936851633E+02  0.17064198785E+03  0.80683769922E+02 0.  0.
         -6    2    1    2    0  503 -0.17742100621E+03 -0.18250624742E+03  0.11265797145E+04  0.11652251235E+04  0.15421086723E+03 0.  0.
        -24    2    5    5    0    0 -0.98122286864E+02 -0.75933939335E+02  0.39255382587E+03  0.41926129135E+03  0.79294248796E+02 0.  0.
          4    1    4    4  501    0 -0.11411186601E+02 -0.99948280875E+00 -0.58585255056E+01  0.12866097568E+02  0.00000000000E+00 0. -1.
         -3    1    4    4    0  501  0.10089535354E+03  0.12102933460E+03 -0.80783261269E+01  0.15777589028E+03  0.00000000000E+00 0.  1.
          5    1    3    3  502    0  0.87936839271E+02  0.62476395633E+02  0.10335047401E+03  0.14946437098E+03  0.47000000000E+01 0. -1.
         13    1    6    6    0    0 -0.11166179780E+03 -0.70269099471E+02  0.34011340381E+03  0.36480574403E+03  0.00000000000E+00 0. -1.
        -14    1    6    6    0    0  0.13539510936E+02 -0.56648398634E+01  0.52440422063E+02  0.54455547314E+02  0.00000000000E+00 0.  1.
         -5    1    5    5    0  503 -0.79298719350E+02 -0.10657230809E+03  0.73402588859E+03  0.74596383215E+03  0.47000000000E+01 0.  1.
<mgrwt>
<rscale>  2 0.30489502E+03</rscale>
<asrwt>0</asrwt>
<pdfrwt beam="1">  1       21 0.20779421E+00 0.30736507E+03</pdfrwt>
<pdfrwt beam="2">  1       21 0.20718320E-01 0.30736507E+03</pdfrwt>
<totfact> 0.23568915E+03</totfact>
</mgrwt>
</event>
<event>
12    1  0.2768653E-001  0.3684758E+03  0.7546771E-02  0.1055396E+00
         21   -1    0    0  504  503  0.00000000000E+00  0.00000000000E+00  0.38665030161E+03  0.38665030161E+03  0.00000000000E+00 0. -1.
         21   -1    0    0  502  504 -0.00000000000E+00 -0.00000000000E+00 -0.14919372916E+04  0.14919372916E+04  0.00000000000E+00 0.  1.
          6    2    1    2  502    0 -0.28773685975E+03 -0.14896160986E+03 -0.13741972041E+04  0.14224219365E+04  0.17287032130E+03 0.  0.
         24    2    3    3    0    0 -0.87705586413E+02 -0.59551595251E+01 -0.36695025310E+03  0.38558450205E+03  0.79342209205E+02 0.  0.
         -6    2    1    2    0  503  0.28773685975E+03  0.14896160986E+03  0.26891021406E+03  0.45616565678E+03  0.17547746730E+03 0.  0.
        -24    2    5    5    0    0  0.86639926662E+02  0.21334398399E+02  0.14492363557E+03  0.18760757508E+03  0.78943705464E+02 0.  0.
          4    1    4    4  501    0 -0.15982391238E+02  0.11068840525E+02 -0.22310737710E+03  0.22395280257E+03  0.00000000000E+00 0. -1.
         -3    1    4    4    0  501 -0.71723195175E+02 -0.17024000050E+02 -0.14384287599E+03  0.16163169948E+03  0.00000000000E+00 0.  1.
          5    1    3    3  502    0 -0.20003127333E+03 -0.14300645034E+03 -0.10072469510E+04  0.10368374344E+04  0.47000000000E+01 0. -1.
         11    1    6    6    0    0  0.82095391657E+02  0.11898037827E+02  0.60835564355E+02  0.10286973571E+03  0.00000000000E+00 0. -1.
        -12    1    6    6    0    0  0.45445350057E+01  0.94363605723E+01  0.84088071217E+02  0.84737839366E+02  0.00000000000E+00 0.  1.
         -5    1    5    5    0  503  0.20109693308E+03  0.12762721146E+03  0.12398657848E+03  0.26855808170E+03  0.47000000000E+01 0.  1.
<mgrwt>
<rscale>  2 0.36816679E+03</rscale>
<asrwt>0</asrwt>
<pdfrwt beam="1">  1       21 0.59484662E-01 0.36847578E+03</pdfrwt>
<pdfrwt beam="2">  1       21 0.22952881E+00 0.36847578E+03</pdfrwt>
<totfact> 0.19570218E+02</totfact>
</mgrwt>
</event>
<event>
12    1  0.2768653E-001  0.2128079E+03  0.7546771E-02  0.1139432E+00
         21   -1    0    0  504  503  0.00000000000E+00  0.00000000000E+00  0.79476589347E+02  0.79476589347E+02  0.00000000000E+00 0.  1.
         21   -1    0    0  502  504 -0.00000000000E+00 -0.00000000000E+00 -0.68771416385E+03  0.68771416385E+03  0.00000000000E+00 0.  1.
          6    2    1    2  502    0  0.17776764221E+02 -0.12194897662E+03 -0.46338204842E+03  0.50976051734E+03  0.17304709183E+03 0.  0.
         24    2    3    3    0    0  0.14597097508E+02 -0.12277441725E+03 -0.21092721727E+03  0.25724057079E+03  0.79973667457E+02 0.  0.
         -6    2    1    2    0  503 -0.17776764221E+02  0.12194897662E+03 -0.14485552607E+03  0.25743023586E+03  0.17349246858E+03 0.  0.
        -24    2    5    5    0    0 -0.51146261397E+01 -0.75680054541E+00 -0.92522888823E+02  0.12334879638E+03  0.81410739247E+02 0.  0.
          4    1    4    4  501    0  0.40534670895E+01 -0.92664243555E+01  0.63019132267E+01  0.11916850511E+02  0.00000000000E+00 0. -1.
         -3    1    4    4    0  501  0.10543630418E+02 -0.11350799290E+03 -0.21722913050E+03  0.24532372028E+03  0.00000000000E+00 0.  1.
          5    1    3    3  502    0  0.31796667134E+01  0.82544063285E+00 -0.25245483115E+03  0.25251994655E+03  0.47000000000E+01 0. -1.
         13    1    6    6    0    0  0.49153750598E+01 -0.90858040686E+00 -0.10623869757E+03  0.10635622827E+03  0.00000000000E+00 0. -1.
        -14    1    6    6    0    0 -0.10030001200E+02  0.15177986145E+00  0.13715808751E+02  0.16992568107E+02  0.00000000000E+00 0.  1.
         -5    1    5    5    0  503 -0.12662138082E+02  0.12270577716E+03 -0.52332637251E+02  0.13408143948E+03  0.47000000000E+01 0.  1.
<mgrwt>
<rscale>  2 0.21271711E+03</rscale>
<asrwt>0</asrwt>
<pdfrwt beam="1">  1       21 0.12227167E-01 0.21280790E+03</pdfrwt>
<pdfrwt beam="2">  1       21 0.10580218E+00 0.21280790E+03</pdfrwt>
<totfact> 0.40270393E+04</totfact>
</mgrwt>
</event>
<event>
12    1  0.2768653E-001  0.1797197E+03  0.7546771E-02  0.1168130E+00
         21   -1    0    0  504  503  0.00000000000E+00  0.00000000000E+00  0.17991131964E+03  0.17991131964E+03  0.00000000000E+00 0. -1.
         21   -1    0    0  502  504 -0.00000000000E+00 -0.00000000000E+00 -0.18530174672E+03  0.18530174672E+03  0.00000000000E+00 0. -1.
          6    2    1    2  502    0  0.17433646014E+02 -0.40490582885E+02  0.30169394212E+02  0.18223434942E+03  0.17422900575E+03 0.  0.
         24    2    3    3    0    0  0.56764806327E+02 -0.72854015142E+02  0.34223858868E+02  0.13092294131E+03  0.86253076960E+02 0.  0.
         -6    2    1    2    0  503 -0.17433646014E+02  0.40490582885E+02 -0.35559821292E+02  0.18297871694E+03  0.17399221433E+03 0.  0.
        -24    2    5    5    0    0 -0.19416805737E+02  0.49326999116E+02  0.41322832523E+02  0.10542197880E+03  0.81216081773E+02 0.  0.
          4    1    4    4  501    0  0.33610842698E+01 -0.69616834242E+02  0.47977293357E+01  0.69862856398E+02  0.00000000000E+00 0. -1.
         -3    1    4    4    0  501  0.53403722058E+02 -0.32371808994E+01  0.29426129533E+02  0.61060084909E+02  0.00000000000E+00 0.  1.
          5    1    3    3  502    0 -0.39331160313E+02  0.32363432257E+02 -0.40544646559E+01  0.51311408114E+02  0.47000000000E+01 0. -1.
         13    1    6    6    0    0 -0.35565063002E+02  0.61985863936E+02  0.45174498785E+02  0.84544996154E+02  0.00000000000E+00 0. -1.
        -14    1    6    6    0    0  0.16148257265E+02 -0.12658864820E+02 -0.38516662619E+01  0.20876982641E+02  0.00000000000E+00 0.  1.
         -5    1    5    5    0  503  0.19831597233E+01 -0.88364162310E+01 -0.76882653815E+02  0.77556738146E+02  0.47000000000E+01 0.  1.
<mgrwt>
<rscale>  2 0.17966227E+03</rscale>
<asrwt>0</asrwt>
<pdfrwt beam="1">  1       21 0.27678665E-01 0.17971969E+03</pdfrwt>
<pdfrwt beam="2">  1       21 0.28507961E-01 0.17971969E+03</pdfrwt>
<totfact> 0.14720850E+05</totfact>
</mgrwt>
</event>
<event>
12    1  0.2768653E-001  0.2236606E+03  0.7546771E-02  0.1131643E+00
         21   -1    0    0  504  503  0.00000000000E+00  0.00000000000E+00  0.67605330582E+03  0.67605330582E+03  0.00000000000E+00 0.  1.
         21   -1    0    0  502  504 -0.00000000000E+00 -0.00000000000E+00 -0.73354956594E+02  0.73354956594E+02  0.00000000000E+00 0. -1.
          6    2    1    2  502    0  0.22355557489E+02 -0.13603122961E+03  0.32195136826E+03  0.39201626344E+03  0.17612439040E+03 0.  0.
         24    2    3    3    0    0  0.23730155384E+02 -0.10919393549E+00  0.15680163331E+03  0.17806950779E+03  0.80986821123E+02 0.  0.
         -6    2    1    2    0  503 -0.22355557489E+02  0.13603122961E+03  0.28074698096E+03  0.35739199898E+03  0.17293324502E+03 0.  0.
        -24    2    5    5    0    0 -0.66894256233E+02  0.34490402503E+02  0.14763062178E+03  0.18408218870E+03  0.80168711658E+02 0.  0.
          4    1    4    4  501    0  0.45066113269E+02  0.22704229704E+02  0.11742152947E+03  0.12780552490E+03  0.00000000000E+00 0. -1.
         -3    1    4    4    0  501 -0.21335957885E+02 -0.22813423639E+02  0.39380103847E+02  0.50263982891E+02  0.00000000000E+00 0.  1.
          5    1    3    3  502    0 -0.13745978944E+01 -0.13592203567E+03  0.16514973495E+03  0.21394675565E+03  0.47000000000E+01 0. -1.
         11    1    6    6    0    0 -0.40717731806E+02  0.60428294301E+02  0.10372728144E+03  0.12676301255E+03  0.00000000000E+00 0. -1.
        -12    1    6    6    0    0 -0.26176524427E+02 -0.25937891798E+02  0.43903340337E+02  0.57319176152E+02  0.00000000000E+00 0.  1.
         -5    1    5    5    0  503  0.44538698743E+02  0.10154082710E+03  0.13311635919E+03  0.17330981028E+03  0.47000000000E+01 0.  1.
<mgrwt>
<rscale>  2 0.22303192E+03</rscale>
<asrwt>0</asrwt>
<pdfrwt beam="1">  1       21 0.10400820E+00 0.22366061E+03</pdfrwt>
<pdfrwt beam="2">  1       21 0.11285378E-01 0.22366061E+03</pdfrwt>
<totfact> 0.48185394E+04</totfact>
</mgrwt>
</event>
<event>
12    1  0.2768653E-001  0.2015950E+03  0.7546771E-02  0.1148908E+00
         21   -1    0    0  504  503  0.00000000000E+00  0.00000000000E+00  0.66701120092E+02  0.66701120092E+02  0.00000000000E+00 0.  1.
         21   -1    0    0  502  504 -0.00000000000E+00 -0.00000000000E+00 -0.19962713188E+04  0.19962713188E+04  0.00000000000E+00 0.  1.
          6    2    1    2  502    0  0.55798723073E+02 -0.84060201295E+02 -0.18285717170E+04  0.18396508023E+04  0.17453061412E+03 0.  0.
         24    2    3    3    0    0  0.59548263536E+02 -0.86770352940E+02 -0.18282380287E+04  0.18330473696E+04  0.80828705089E+02 0.  0.
         -6    2    1    2    0  503 -0.55798723073E+02  0.84060201295E+02 -0.10099848175E+03  0.22332163663E+03  0.17173306360E+03 0.  0.
        -24    2    5    5    0    0 -0.56887048157E+02  0.64196292614E+02 -0.13771112982E+03  0.18130178599E+03  0.80923927825E+02 0.  0.
          2    1    4    4  501    0  0.33767690280E+02  0.54067425315E+01 -0.33375218691E+03  0.33549964536E+03  0.00000000000E+00 0. -1.
         -1    1    4    4    0  501  0.25780573256E+02 -0.92177095472E+02 -0.14944858418E+04  0.14975477242E+04  0.00000000000E+00 0.  1.
          5    1    3    3  502    0 -0.37495404630E+01  0.27101516455E+01 -0.33368824350E+00  0.66034327035E+01  0.47000000000E+01 0. -1.
         13    1    6    6    0    0 -0.10624900052E+02  0.15873448273E+02 -0.10520475740E+03  0.10692472044E+03  0.00000000000E+00 0. -1.
        -14    1    6    6    0    0 -0.46262148105E+02  0.48322844341E+02 -0.32506372418E+02  0.74377065553E+02  0.00000000000E+00 0.  1.
         -5    1    5    5    0  503  0.10883250847E+01  0.19863908681E+02  0.36712648069E+02  0.42019850640E+02  0.47000000000E+01 0.  1.
<mgrwt>
<rscale>  2 0.20098802E+03</rscale>
<asrwt>0</asrwt>
<pdfrwt beam="1">  1       21 0.10261711E-01 0.20159502E+03</pdfrwt>
<pdfrwt beam="2">  1       21 0.30711866E+00 0.20159502E+03</pdfrwt>
<totfact> 0.23813758E+03</totfact>
</mgrwt>
</event>
<event>
12    1  0.2768653E-001  0.2113845E+03  0.7546771E-02  0.1141573E+00
         21   -1    0    0  504  503  0.00000000000E+00  0.00000000000E+00  0.87901218643E+03  0.87901218643E+03  0.00000000000E+00 0. -1.
         21   -1    0    0  502  504 -0.00000000000E+00 -0.00000000000E+00 -0.32657072167E+03  0.32657072167E+03  0.00000000000E+00 0.  1.
          6    2    1    2  502    0 -0.37542200523E+02  0.10700775420E+03 -0.27843378019E+03  0.34958374007E+03  0.17839098937E+03 0.  0.
         24    2    3    3    0    0 -0.78635817510E+02  0.11330651811E+03 -0.17389204448E+03  0.23698079033E+03  0.83063186854E+02 0.  0.
         -6    2    1    2    0  503  0.37542200523E+02 -0.10700775420E+03  0.83087524495E+03  0.85599916803E+03  0.17181625857E+03 0.  0.
        -24    2    5    5    0    0 -0.19346004013E+02  0.25810976095E+01  0.37321141963E+03  0.38194827280E+03  0.78846619567E+02 0.  0.
          4    1    4    4  501    0 -0.95255101609E+02  0.10341059324E+03 -0.14305274002E+03  0.20057759497E+03  0.00000000000E+00 0. -1.
         -3    1    4    4    0  501  0.16619284099E+02  0.98959248760E+01 -0.30839304455E+02  0.36403195359E+02  0.00000000000E+00 0.  1.
          5    1    3    3  502    0  0.41093616987E+02 -0.62987639124E+01 -0.10454173572E+03  0.11260294974E+03  0.47000000000E+01 0. -1.
         11    1    6    6    0    0 -0.25376926188E+02 -0.25279148867E+02  0.31605146522E+03  0.31807475916E+03  0.00000000000E+00 0. -1.
        -12    1    6    6    0    0  0.60309221744E+01  0.27860246477E+02  0.57159954411E+02  0.63873513637E+02  0.00000000000E+00 0.  1.
         -5    1    5    5    0  503  0.56888204536E+02 -0.10958885181E+03  0.45766382532E+03  0.47405089522E+03  0.47000000000E+01 0.  1.
<mgrwt>
<rscale>  2 0.20999124E+03</rscale>
<asrwt>0</asrwt>
<pdfrwt beam="1">  1       21 0.13523264E+00 0.21138453E+03</pdfrwt>
<pdfrwt beam="2">  1       21 0.50241650E-01 0.21138453E+03</pdfrwt>
<totfact> 0.14492041E+03</totfact>
</mgrwt>
</event>
<event>
12    1  0.2768653E-001  0.2100556E+03  0.7546771E-02  0.1141596E+00
         21   -1    0    0  504  503  0.00000000000E+00  0.00000000000E+00  0.43783406901E+02  0.43783406901E+02  0.00000000000E+00 0. -1.
         21   -1    0    0  502  504 -0.00000000000E+00 -0.00000000000E+00 -0.12455948450E+04  0.12455948450E+04  0.00000000000E+00 0. -1.
          6    2    1    2  502    0 -0.73581825912E+02 -0.91224254478E+02 -0.88323938297E+03  0.90778751626E+03  0.17386839085E+03 0.  0.
         24    2    3    3    0    0 -0.13471761082E+02 -0.33242710873E+02 -0.18628105004E+03  0.20582734137E+03  0.79860495099E+02 0.  0.
         -6    2    1    2    0  503  0.73581825912E+02  0.91224254478E+02 -0.31857205511E+03  0.38159073562E+03  0.17431920579E+03 0.  0.
        -24    2    5    5    0    0  0.96423402689E+02  0.93259125029E+02 -0.16886437454E+03  0.23006397908E+03  0.80121910189E+02 0.  0.
          4    1    4    4  501    0  0.24352548473E+02  0.65188151533E+01 -0.25160892527E+02  0.35617581065E+02  0.00000000000E+00 0. -1.
         -3    1    4    4    0  501 -0.37824309555E+02 -0.39761526027E+02 -0.16112015751E+03  0.17020976030E+03  0.00000000000E+00 0.  1.
          5    1    3    3  502    0 -0.60110064830E+02 -0.57981543605E+02 -0.69695833293E+03  0.70196017489E+03  0.47000000000E+01 0. -1.
         13    1    6    6    0    0  0.47463736031E+02 -0.33599088545E+01 -0.58802787373E+02  0.75642997219E+02  0.00000000000E+00 0. -1.
        -14    1    6    6    0    0  0.48959666658E+02  0.96619033883E+02 -0.11006158717E+03  0.15442098186E+03  0.00000000000E+00 0.  1.
         -5    1    5    5    0  503 -0.22841576777E+02 -0.20348705503E+01 -0.14970768057E+03  0.15152675654E+03  0.47000000000E+01 0.  1.
<mgrwt>
<rscale>  2 0.20996200E+03</rscale>
<asrwt>0</asrwt>
<pdfrwt beam="1">  1       21 0.67359101E-02 0.21005555E+03</pdfrwt>
<pdfrwt beam="2">  1       21 0.19162994E+00 0.21005555E+03</pdfrwt>
<totfact> 0.24295232E+04</totfact>
</mgrwt>
</event>
<event>
12    1  0.2768653E-001  0.2567019E+03  0.7546771E-02  0.1110324E+00
         21   -1    0    0  504  503  0.00000000000E+00  0.00000000000E+00  0.98636121445E+02  0.98636121445E+02  0.00000000000E+00 0.  1.
         21   -1    0    0  502  504 -0.00000000000E+00 -0.00000000000E+00 -0.89398269802E+03  0.89398269802E+03  0.00000000000E+00 0. -1.
          6    2    1    2  502    0  0.33440041672E+02 -0.17186912446E+03 -0.65344285115E+03  0.69930575533E+03  0.17715458617E+03 0.  0.
         24    2    3    3    0    0  0.64605343276E+02 -0.13790214348E+03 -0.33824004811E+03  0.38071522053E+03  0.85714044628E+02 0.  0.
         -6    2    1    2    0  503 -0.33440041672E+02  0.17186912446E+03 -0.14190372543E+03  0.29331306413E+03  0.18771961531E+03 0.  0.
        -24    2    5    5    0    0  0.40586341182E+01  0.11195813186E+02 -0.65472269220E+01  0.79852212150E+02  0.78687297965E+02 0.  0.
          2    1    4    4  501    0  0.29750564896E+02 -0.12262846960E+03 -0.30542842936E+03  0.33046839960E+03  0.00000000000E+00 0. -1.
         -1    1    4    4    0  501  0.34854778380E+02 -0.15273673874E+02 -0.32811618742E+02  0.50246820934E+02  0.00000000000E+00 0.  1.
          5    1    3    3  502    0 -0.31165301604E+02 -0.33966980978E+02 -0.31520280304E+03  0.31859053480E+03  0.47000000000E+01 0. -1.
         13    1    6    6    0    0  0.15403966340E+02  0.22296799903E+02 -0.36791867659E+02  0.45695415424E+02  0.00000000000E+00 0. -1.
        -14    1    6    6    0    0 -0.11345332222E+02 -0.11100986717E+02  0.30244640737E+02  0.34156796726E+02  0.00000000000E+00 0.  1.
         -5    1    5    5    0  503 -0.37498675790E+02  0.16067331127E+03 -0.13535649851E+03  0.21346085198E+03  0.47000000000E+01 0.  1.
<mgrwt>
<rscale>  2 0.25477493E+03</rscale>
<asrwt>0</asrwt>
<pdfrwt beam="1">  1       21 0.15174789E-01 0.25670194E+03</pdfrwt>
<pdfrwt beam="2">  1       21 0.13753579E+00 0.25670194E+03</pdfrwt>
<totfact> 0.13822486E+04</totfact>
</mgrwt>
</event>
<event>
12    1  0.2768653E-001  0.2233823E+03  0.7546771E-02  0.1131408E+00
         21   -1    0    0  504  503  0.00000000000E+00  0.00000000000E+00  0.20992909055E+03  0.20992909055E+03  0.00000000000E+00 0.  1.
         21   -1    0    0  502  504 -0.00000000000E+00 -0.00000000000E+00 -0.23813808702E+03  0.23813808702E+03  0.00000000000E+00 0. -1.
          6    2    1    2  502    0  0.89204160316E+02 -0.10936585498E+03 -0.31817342091E+01  0.22340495198E+03  0.17315131153E+03 0.  0.
         24    2    3    3    0    0  0.11082762756E+03 -0.29276114524E+02  0.63509595393E+00  0.14022683555E+03  0.80766999124E+02 0.  0.
         -6    2    1    2    0  503 -0.89204160316E+02  0.10936585498E+03 -0.25027262265E+02  0.22466222558E+03  0.17299849507E+03 0.  0.
        -24    2    5    5    0    0 -0.11790070227E+03  0.12324121077E+03 -0.15863172035E+02  0.19116465003E+03  0.84872325084E+02 0.  0.
          2    1    4    4  501    0  0.68977586646E+02  0.34538308575E+01 -0.33823560733E+02  0.76901688329E+02  0.00000000000E+00 0. -1.
         -1    1    4    4    0  501  0.41850040917E+02 -0.32729945382E+02  0.34458656687E+02  0.63325147218E+02  0.00000000000E+00 0.  1.
          5    1    3    3  502    0 -0.21623467247E+02 -0.80089740453E+02 -0.38168301631E+01  0.83178116437E+02  0.47000000000E+01 0. -1.
         13    1    6    6    0    0 -0.90929812879E+01  0.67296396487E+02 -0.10356904045E+02  0.68693178338E+02  0.00000000000E+00 0. -1.
        -14    1    6    6    0    0 -0.10880772098E+03  0.55944814283E+02 -0.55062679896E+01  0.12247147169E+03  0.00000000000E+00 0.  1.
         -5    1    5    5    0  503  0.28696541953E+02 -0.13875355793E+02 -0.91640902299E+01  0.33497575557E+02  0.47000000000E+01 0.  1.
<mgrwt>
<rscale>  2 0.22335268E+03</rscale>
<asrwt>0</asrwt>
<pdfrwt beam="1">  1       21 0.32296783E-01 0.22338229E+03</pdfrwt>
<pdfrwt beam="2">  1       21 0.36636629E-01 0.22338229E+03</pdfrwt>
<totfact> 0.65385177E+04</totfact>
</mgrwt>
</event>
<event>
12    1  0.2768653E-001  0.1987384E+03  0.7546771E-02  0.1151141E+00
         21   -1    0    0  504  503  0.00000000000E+00  0.00000000000E+00  0.28152677543E+03  0.28152677543E+03  0.00000000000E+00 0.  1.
         21   -1    0    0  502  504 -0.00000000000E+00 -0.00000000000E+00 -0.24226496639E+03  0.24226496639E+03  0.00000000000E+00 0.  1.
          6    2    1    2  502    0 -0.87442000976E+02  0.43855092781E+02 -0.15114712876E+03  0.24968465246E+03  0.17299594922E+03 0.  0.
         24    2    3    3    0    0 -0.15154071721E+02  0.81876832754E+02 -0.76040582589E+02  0.13862484559E+03  0.80630118329E+02 0.  0.
         -6    2    1    2    0  503  0.87442000976E+02 -0.43855092781E+02  0.19040893780E+03  0.27410708935E+03  0.17120093499E+03 0.  0.
        -24    2    5    5    0    0  0.71074894918E+02  0.35974677179E+02  0.55203714175E+02  0.11617287258E+03  0.64053635171E+02 0.  0.
          4    1    4    4  501    0  0.54379686134E+01  0.29061128126E+01  0.15084897990E+02  0.16296353632E+02  0.00000000000E+00 0. -1.
         -3    1    4    4    0  501 -0.20592040335E+02  0.78970719941E+02 -0.91125480579E+02  0.12232849195E+03  0.00000000000E+00 0.  1.
          5    1    3    3  502    0 -0.72287929254E+02 -0.38021739973E+02 -0.75106546167E+02  0.11105980688E+03  0.47000000000E+01 0. -1.
         13    1    6    6    0    0  0.11665041758E+02  0.38257691035E+02  0.93083371128E+01  0.41065426606E+02  0.00000000000E+00 0. -1.
        -14    1    6    6    0    0  0.59409853160E+02 -0.22830138559E+01  0.45895377062E+02  0.75107445971E+02  0.00000000000E+00 0.  1.
         -5    1    5    5    0  503  0.16367106058E+02 -0.79829769960E+02  0.13520522363E+03  0.15793421677E+03  0.47000000000E+01 0.  1.
<mgrwt>
<rscale>  2 0.19834716E+03</rscale>
<asrwt>0</asrwt>
<pdfrwt beam="1">  1       21 0.43311812E-01 0.19873845E+03</pdfrwt>
<pdfrwt beam="2">  1       21 0.37271533E-01 0.19873845E+03</pdfrwt>
<totfact> 0.35464213E+04</totfact>
</mgrwt>
</event>
<event>
12    1  0.2768653E-001  0.2187514E+03  0.7546771E-02  0.1136249E+00
         21   -1    0    0  504  503  0.00000000000E+00  0.00000000000E+00  0.10488970129E+03  0.10488970129E+03  0.00000000000E+00 0.  1.
         21   -1    0    0  502  504 -0.00000000000E+00 -0.00000000000E+00 -0.44938347413E+03  0.44938347413E+03  0.00000000000E+00 0.  1.
          6    2    1    2  502    0 -0.50552994010E+02 -0.10883639197E+03 -0.20772704426E+03  0.29628613430E+03  0.17387921970E+03 0.  0.
         24    2    3    3    0    0 -0.10090479614E+03 -0.81239517562E+02 -0.14356175062E+03  0.21005292515E+03  0.82040343874E+02 0.  0.
         -6    2    1    2    0  503  0.50552994010E+02  0.10883639197E+03 -0.13676672859E+03  0.25798704112E+03  0.18289671926E+03 0.  0.
        -24    2    5    5    0    0 -0.20321104762E+02  0.89686812150E+02 -0.13403465999E+03  0.18437047720E+03  0.87008684692E+02 0.  0.
          2    1    4    4  501    0 -0.10128947870E+03 -0.40355346600E+02 -0.83215192876E+02  0.13716005548E+03  0.00000000000E+00 0. -1.
         -1    1    4    4    0  501  0.38468256138E+00 -0.40884170962E+02 -0.60346557748E+02  0.72892869665E+02  0.00000000000E+00 0.  1.
          5    1    3    3  502    0  0.50351802127E+02 -0.27596874411E+02 -0.64165293634E+02  0.86233209159E+02  0.47000000000E+01 0. -1.
         13    1    6    6    0    0 -0.13499397391E+02  0.40198327440E+02 -0.12703571101E+03  0.13392614058E+03  0.00000000000E+00 0. -1.
        -14    1    6    6    0    0 -0.68217073708E+01  0.49488484709E+02 -0.69989489816E+01  0.50444336621E+02  0.00000000000E+00 0.  1.
         -5    1    5    5    0  503  0.70874098772E+02  0.19149579823E+02 -0.27320685978E+01  0.73616563917E+02  0.47000000000E+01 0.  1.
<mgrwt>
<rscale>  2 0.21685653E+03</rscale>
<asrwt>0</asrwt>
<pdfrwt beam="1">  1       21 0.16136877E-01 0.21875140E+03</pdfrwt>
<pdfrwt beam="2">  1       21 0.69135921E-01 0.21875140E+03</pdfrwt>
<totfact> 0.64604676E+04</totfact>
</mgrwt>
</event>
<event>
12    1  0.2768653E-001  0.2200167E+03  0.7546771E-02  0.1133896E+00
         21   -1    0    0  504  503  0.00000000000E+00  0.00000000000E+00  0.33130820971E+03  0.33130820971E+03  0.00000000000E+00 0.  1.
         21   -1    0    0  502  504 -0.00000000000E+00 -0.00000000000E+00 -0.14641434781E+03  0.14641434781E+03  0.00000000000E+00 0. -1.
          6    2    1    2  502    0  0.13160137170E+03  0.32515482521E+02  0.10486251199E+03  0.24372830691E+03  0.17329501878E+03 0.  0.
         24    2    3    3    0    0  0.11896590401E+03  0.82946255338E+02  0.96368067244E+02  0.19084009006E+03  0.78103572238E+02 0.  0.
         -6    2    1    2    0  503 -0.13160137170E+03 -0.32515482521E+02  0.80031349917E+02  0.23399425061E+03  0.17312456415E+03 0.  0.
        -24    2    5    5    0    0 -0.43260502881E+02 -0.23795341153E+02 -0.24685570808E+02  0.96633872570E+02  0.79316067424E+02 0.  0.
          2    1    4    4  501    0  0.37503461288E+02  0.22790915928E+02 -0.88915299598E+01  0.44777167870E+02  0.00000000000E+00 0. -1.
         -1    1    4    4    0  501  0.81462442724E+02  0.60155339410E+02  0.10525959720E+03  0.14606292219E+03  0.00000000000E+00 0.  1.
          5    1    3    3  502    0  0.12635467688E+02 -0.50430772817E+02  0.84944447459E+01  0.52888216856E+02  0.47000000000E+01 0. -1.
         13    1    6    6    0    0 -0.69585013572E+00 -0.45394833149E+02 -0.81933681089E+01  0.46133570911E+02  0.00000000000E+00 0. -1.
        -14    1    6    6    0    0 -0.42564652745E+02  0.21599491996E+02 -0.16492202699E+02  0.50500301659E+02  0.00000000000E+00 0.  1.
         -5    1    5    5    0  503 -0.88340868819E+02 -0.87201413677E+01  0.10471692072E+03  0.13736037804E+03  0.47000000000E+01 0.  1.
<mgrwt>
<rscale>  2 0.21998312E+03</rscale>
<asrwt>0</asrwt>
<pdfrwt beam="1">  1       21 0.50970494E-01 0.22001668E+03</pdfrwt>
<pdfrwt beam="2">  1       21 0.22525284E-01 0.22001668E+03</pdfrwt>
<totfact> 0.66770820E+04</totfact>
</mgrwt>
</event>
<event>
12    1  0.2768653E-001  0.1750380E+03  0.7546771E-02  0.1174220E+00
         21   -1    0    0  504  503  0.00000000000E+00  0.00000000000E+00  0.95139189498E+02  0.95139189498E+02  0.00000000000E+00 0.  1.
         21   -1    0    0  502  504 -0.00000000000E+00 -0.00000000000E+00 -0.33945339855E+03  0.33945339855E+03  0.00000000000E+00 0.  1.
          6    2    1    2  502    0 -0.38414786265E+01 -0.14862140916E+02 -0.18295748201E+03  0.24911230422E+03  0.16836822652E+03 0.  0.
         24    2    3    3    0    0  0.53060663172E+02 -0.60038481050E+00 -0.13579881946E+03  0.17369824133E+03  0.94413797912E+02 0.  0.
         -6    2    1    2    0  503  0.38414786265E+01  0.14862140916E+02 -0.61356727044E+02  0.18548028383E+03  0.17436354993E+03 0.  0.
        -24    2    5    5    0    0  0.54695713795E+02 -0.19491763040E+02 -0.72324170124E+02  0.12296053687E+03  0.80727678708E+02 0.  0.
          4    1    4    4  501    0  0.36746763887E+02  0.40804268318E+02 -0.39590656567E+02  0.67695886556E+02  0.00000000000E+00 0. -1.
         -3    1    4    4    0  501  0.16313899285E+02 -0.41404653128E+02 -0.96208162890E+02  0.10600235477E+03  0.00000000000E+00 0.  1.
          5    1    3    3  502    0 -0.56902141799E+02 -0.14261756105E+02 -0.47158662553E+02  0.75414062895E+02  0.47000000000E+01 0. -1.
         13    1    6    6    0    0  0.18455419073E+02 -0.44865844336E+02 -0.15467002578E+02  0.50919295457E+02  0.00000000000E+00 0. -1.
        -14    1    6    6    0    0  0.36240294722E+02  0.25374081295E+02 -0.56857167547E+02  0.72041241415E+02  0.00000000000E+00 0.  1.
         -5    1    5    5    0  503 -0.50854235169E+02  0.34353903956E+02  0.10967443081E+02  0.62519746955E+02  0.47000000000E+01 0.  1.
<mgrwt>
<rscale>  2 0.17352562E+03</rscale>
<asrwt>0</asrwt>
<pdfrwt beam="1">  1       21 0.14636799E-01 0.17503796E+03</pdfrwt>
<pdfrwt beam="2">  1       21 0.52223599E-01 0.17503796E+03</pdfrwt>
<totfact> 0.14353980E+05</totfact>
</mgrwt>
</event>
<event>
12    1  0.2768653E-001  0.1915124E+03  0.7546771E-02  0.1158446E+00
         21   -1    0    0  504  503  0.00000000000E+00  0.00000000000E+00  0.24691953681E+04  0.24691953681E+04  0.00000000000E+00 0.  1.
         21   -1    0    0  502  504 -0.00000000000E+00 -0.00000000000E+00 -0.71008940472E+02  0.71008940472E+02  0.00000000000E+00 0. -1.
          6    2    1    2  502    0  0.33376877667E+02  0.73436161824E+02  0.61266087714E+02  0.19544981023E+03  0.16715325001E+03 0.  0.
         24    2    3    3    0    0  0.28204312086E+02 -0.21591965978E+02  0.46076264779E+01  0.84592371425E+02  0.76635128150E+02 0.  0.
         -6    2    1    2    0  503 -0.33376877667E+02 -0.73436161824E+02  0.23369203399E+04  0.23447544984E+04  0.17369541322E+03 0.  0.
        -24    2    5    5    0    0 -0.56372269668E+02  0.90755299584E+01  0.94891861178E+03  0.95410434297E+03  0.81291865909E+02 0.  0.
          4    1    4    4  501    0 -0.11046865744E+02 -0.20260592890E+02 -0.26026718713E+02  0.34783831790E+02  0.00000000000E+00 0. -1.
         -3    1    4    4    0  501  0.39251177830E+02 -0.13313730887E+01  0.30634345191E+02  0.49808539635E+02  0.00000000000E+00 0.  1.
          5    1    3    3  502    0  0.51725655809E+01  0.95028127802E+02  0.56658461236E+02  0.11085743880E+03  0.47000000000E+01 0. -1.
         11    1    6    6    0    0 -0.51506187215E+02  0.16480837797E+02  0.93992307705E+03  0.94147750696E+03  0.00000000000E+00 0. -1.
        -12    1    6    6    0    0 -0.48660824526E+01 -0.74053078387E+01  0.89955347272E+01  0.12626836011E+02  0.00000000000E+00 0.  1.
         -5    1    5    5    0  503  0.22995392001E+02 -0.82511691783E+02  0.13880017281E+04  0.13906501554E+04  0.47000000000E+01 0.  1.
<mgrwt>
<rscale>  2 0.19001666E+03</rscale>
<asrwt>0</asrwt>
<pdfrwt beam="1">  1       21 0.37987614E+00 0.19151236E+03</pdfrwt>
<pdfrwt beam="2">  1       21 0.10924454E-01 0.19151236E+03</pdfrwt>
<totfact> 0.80506919E+02</totfact>
</mgrwt>
</event>
<event>
12    1  0.2768653E-001  0.2144013E+03  0.7546771E-02  0.1138347E+00
         21   -1    0    0  504  503  0.00000000000E+00  0.00000000000E+00  0.16726408271E+03  0.16726408271E+03  0.00000000000E+00 0.  1.
         21   -1    0    0  502  504 -0.00000000000E+00 -0.00000000000E+00 -0.28147964823E+03  0.28147964823E+03  0.00000000000E+00 0. -1.
          6    2    1    2  502    0  0.11005243196E+03 -0.65144994877E+02 -0.95339208655E+02  0.23464328168E+03  0.17208281957E+03 0.  0.
         24    2    3    3    0    0  0.99477893469E+02 -0.10103933478E+03 -0.40244465789E+02  0.16787693392E+03  0.80363234466E+02 0.  0.
         -6    2    1    2    0  503 -0.11005243196E+03  0.65144994877E+02 -0.18876356868E+02  0.21410044926E+03  0.17066715380E+03 0.  0.
        -24    2    5    5    0    0 -0.43985036672E+02  0.87372720251E+02 -0.35614582173E+02  0.14225874353E+03  0.96956051660E+02 0.  0.
          4    1    4    4  501    0  0.10617004958E+03 -0.74660354390E+02 -0.49820985456E+02  0.13902653897E+03  0.00000000000E+00 0. -1.
         -3    1    4    4    0  501 -0.66921561139E+01 -0.26378980388E+02  0.95765196672E+01  0.28850394949E+02  0.00000000000E+00 0.  1.
          5    1    3    3  502    0  0.10574538491E+02  0.35894339901E+02 -0.55094742867E+02  0.66766347757E+02  0.47000000000E+01 0. -1.
         11    1    6    6    0    0  0.52494050428E+01  0.34146424297E+01 -0.44116587178E+02  0.44558829657E+02  0.00000000000E+00 0. -1.
        -12    1    6    6    0    0 -0.49234441715E+02  0.83958077821E+02  0.85020050049E+01  0.97699913876E+02  0.00000000000E+00 0.  1.
         -5    1    5    5    0  503 -0.66067395288E+02 -0.22227725373E+02  0.16738225305E+02  0.71841705727E+02  0.47000000000E+01 0.  1.
<mgrwt>
<rscale>  2 0.21411706E+03</rscale>
<asrwt>0</asrwt>
<pdfrwt beam="1">  1       21 0.25732936E-01 0.21440127E+03</pdfrwt>
<pdfrwt beam="2">  1       21 0.43304561E-01 0.21440127E+03</pdfrwt>
<totfact> 0.72784169E+04</totfact>
</mgrwt>
</event>
<event>
12    1  0.2768653E-001  0.1916681E+03  0.7546771E-02  0.1157113E+00
         21   -1    0    0  504  503  0.00000000000E+00  0.00000000000E+00  0.32154401548E+03  0.32154401548E+03  0.00000000000E+00 0.  1.
         21   -1    0    0  502  504 -0.00000000000E+00 -0.00000000000E+00 -0.13979970384E+03  0.13979970384E+03  0.00000000000E+00 0.  1.
          6    2    1    2  502    0  0.82488350256E+02  0.31235256643E+01 -0.86250373051E+01  0.19120087993E+03  0.17224778918E+03 0.  0.
         24    2    3    3    0    0  0.84770167361E+02 -0.44144696035E+02  0.32030471846E+02  0.12863529917E+03  0.79914664503E+02 0.  0.
         -6    2    1    2    0  503 -0.82488350256E+02 -0.31235256643E+01  0.19036934894E+03  0.27014283940E+03  0.17298144502E+03 0.  0.
        -24    2    5    5    0    0 -0.29167641586E+02  0.25918103357E+02  0.21308933279E+02  0.90448575899E+02  0.78767854150E+02 0.  0.
          2    1    4    4  501    0  0.52060386153E+02 -0.28295511250E+02  0.58813355401E+02  0.83486109843E+02  0.00000000000E+00 0. -1.
         -1    1    4    4    0  501  0.32709781208E+02 -0.15849184785E+02 -0.26782883555E+02  0.45149189323E+02  0.00000000000E+00 0.  1.
          5    1    3    3  502    0 -0.22818171050E+01  0.47268221699E+02 -0.40655509151E+02  0.62565580763E+02  0.47000000000E+01 0. -1.
         11    1    6    6    0    0  0.14535740520E+02 -0.19827289251E+02  0.73598770532E+01  0.25662753979E+02  0.00000000000E+00 0. -1.
        -12    1    6    6    0    0 -0.43703382106E+02  0.45745392608E+02  0.13949056225E+02  0.64785821921E+02  0.00000000000E+00 0.  1.
         -5    1    5    5    0  503 -0.53320708670E+02 -0.29041629021E+02  0.16906041566E+03  0.17969426350E+03  0.47000000000E+01 0.  1.
<mgrwt>
<rscale>  2 0.19150243E+03</rscale>
<asrwt>0</asrwt>
<pdfrwt beam="1">  1       21 0.49468310E-01 0.19166811E+03</pdfrwt>
<pdfrwt beam="2">  1       21 0.21507647E-01 0.19166811E+03</pdfrwt>
<totfact> 0.78519606E+04</totfact>
</mgrwt>
</event>
<event>
12    1  0.2768653E-001  0.2609569E+03  0.7546771E-02  0.1106743E+00
         21   -1    0    0  504  503  0.00000000000E+00  0.00000000000E+00  0.31286133720E+04  0.31286133720E+04  0.00000000000E+00 0.  1.
         21   -1    0    0  502  504 -0.00000000000E+00 -0.00000000000E+00 -0.44255885543E+02  0.44255885543E+02  0.00000000000E+00 0. -1.
          6    2    1    2  502    0  0.11971877167E+03 -0.15297752747E+03  0.40717732216E+03  0.48300083146E+03  0.17251586394E+03 0.  0.
         24    2    3    3    0    0  0.81450486615E+02 -0.17728367925E+03  0.35982869514E+03  0.41727995855E+03  0.81130692502E+02 0.  0.
         -6    2    1    2    0  503 -0.11971877167E+03  0.15297752747E+03  0.26771801643E+04  0.26898684261E+04  0.17425214295E+03 0.  0.
        -24    2    5    5    0    0 -0.76495759974E+02  0.12049101233E+02  0.13225214939E+04  0.13272051319E+04  0.80084818455E+02 0.  0.
          2    1    4    4  501    0  0.57273007253E+02 -0.93384185514E+02  0.12218409958E+03  0.16410288740E+03  0.00000000000E+00 0. -1.
         -1    1    4    4    0  501  0.24177479362E+02 -0.83899493735E+02  0.23764459556E+03  0.25317707115E+03  0.00000000000E+00 0.  1.
          5    1    3    3  502    0  0.38268285054E+02  0.24306151781E+02  0.47348627025E+02  0.65720872914E+02  0.47000000000E+01 0. -1.
         13    1    6    6    0    0 -0.21035525900E+01  0.18325053059E+02  0.69703162573E+03  0.69727564118E+03  0.00000000000E+00 0. -1.
        -14    1    6    6    0    0 -0.74392207384E+02 -0.62759518267E+01  0.62548986817E+03  0.62992949071E+03  0.00000000000E+00 0.  1.
         -5    1    5    5    0  503 -0.43223011696E+02  0.14092842624E+03  0.13546586704E+04  0.13626632942E+04  0.47000000000E+01 0.  1.
<mgrwt>
<rscale>  2 0.26066740E+03</rscale>
<asrwt>0</asrwt>
<pdfrwt beam="1">  1       21 0.48132496E+00 0.26095693E+03</pdfrwt>
<pdfrwt beam="2">  1       21 0.68086002E-02 0.26095693E+03</pdfrwt>
<totfact> 0.36707044E+02</totfact>
</mgrwt>
</event>
<event>
12    1  0.2768653E-001  0.1868773E+03  0.7546771E-02  0.1161466E+00
         21   -1    0    0  504  503  0.00000000000E+00  0.00000000000E+00  0.11433584255E+04  0.11433584255E+04  0.00000000000E+00 0. -1.
         21   -1    0    0  502  504 -0.00000000000E+00 -0.00000000000E+00 -0.65195379836E+02  0.65195379836E+02  0.00000000000E+00 0. -1.
          6    2    1    2  502    0 -0.60359770724E+02  0.27518551747E+02  0.97375703191E+02  0.21012157085E+03  0.17397837323E+03 0.  0.
         24    2    3    3    0    0  0.35699494908E+01 -0.42706855760E+02  0.55128068563E+02  0.10607557325E+03  0.79851757824E+02 0.  0.
         -6    2    1    2    0  503  0.60359770724E+02 -0.27518551747E+02  0.98078734244E+03  0.99843223445E+03  0.17470702071E+03 0.  0.
        -24    2    5    5    0    0  0.31334364480E+02 -0.21366771282E+02  0.18554804946E+03  0.20262576193E+03  0.72046786366E+02 0.  0.
          2    1    4    4  501    0  0.35011826816E+02 -0.57683595940E+01  0.41815798060E+01  0.35729366060E+02  0.00000000000E+00 0. -1.
         -1    1    4    4    0  501 -0.31441877325E+02 -0.36938496166E+02  0.50946488757E+02  0.70346207186E+02  0.00000000000E+00 0.  1.
          5    1    3    3  502    0 -0.63929720215E+02  0.70225407507E+02  0.42247634628E+02  0.10404599761E+03  0.47000000000E+01 0. -1.
         11    1    6    6    0    0  0.84699878958E+01  0.57324342653E+01  0.15637879499E+03  0.15671288721E+03  0.00000000000E+00 0. -1.
        -12    1    6    6    0    0  0.22864376584E+02 -0.27099205547E+02  0.29169254474E+02  0.45912874713E+02  0.00000000000E+00 0.  1.
         -5    1    5    5    0  503  0.29025406244E+02 -0.61517804651E+01  0.79523929299E+03  0.79580647253E+03  0.47000000000E+01 0.  1.
<mgrwt>
<rscale>  2 0.18670679E+03</rscale>
<asrwt>0</asrwt>
<pdfrwt beam="1">  1       21 0.17590128E+00 0.18687727E+03</pdfrwt>
<pdfrwt beam="2">  1       21 0.10030059E-01 0.18687727E+03</pdfrwt>
<totfact> 0.15736027E+04</totfact>
</mgrwt>
</event>
<event>
12    1  0.2768653E-001  0.2002046E+03  0.7546771E-02  0.1149836E+00
         21   -1    0    0  504  503  0.00000000000E+00  0.00000000000E+00  0.46322506235E+02  0.46322506235E+02  0.00000000000E+00 0.  1.
         21   -1    0    0  502  504 -0.00000000000E+00 -0.00000000000E+00 -0.94399809620E+03  0.94399809620E+03  0.00000000000E+00 0.  1.
          6    2    1    2  502    0  0.64736163726E+02 -0.74025341417E+02 -0.59803757342E+03  0.63065902425E+03  0.17438848466E+03 0.  0.
         24    2    3    3    0    0 -0.27618808136E+01 -0.63455174142E+01 -0.43234997793E+03  0.43931897645E+03  0.77632248946E+02 0.  0.
         -6    2    1    2    0  503 -0.64736163726E+02  0.74025341417E+02 -0.29963801654E+03  0.35966157818E+03  0.17292480387E+03 0.  0.
        -24    2    5    5    0    0 -0.71198262043E+02  0.44964002475E+02 -0.91086600931E+02  0.14894351277E+03  0.82440567021E+02 0.  0.
          4    1    4    4  501    0  0.26098831332E+02  0.22001187478E+02 -0.13589087890E+03  0.14011256980E+03  0.00000000000E+00 0. -1.
         -3    1    4    4    0  501 -0.28860712146E+02 -0.28346704892E+02 -0.29645909903E+03  0.29920640665E+03  0.00000000000E+00 0.  1.
          5    1    3    3  502    0  0.67498044540E+02 -0.67679824002E+02 -0.16568759549E+03  0.19134004780E+03  0.47000000000E+01 0. -1.
         11    1    6    6    0    0 -0.33003249717E+02 -0.21191037805E+02 -0.17754286445E+02  0.43052169078E+02  0.00000000000E+00 0. -1.
        -12    1    6    6    0    0 -0.38195012326E+02  0.66155040281E+02 -0.73332314487E+02  0.10589134369E+03  0.00000000000E+00 0.  1.
         -5    1    5    5    0  503  0.64620983169E+01  0.29061338941E+02 -0.20855141561E+03  0.21071806541E+03  0.47000000000E+01 0.  1.
<mgrwt>
<rscale>  2 0.19988539E+03</rscale>
<asrwt>0</asrwt>
<pdfrwt beam="1">  1       21 0.71265401E-02 0.20020456E+03</pdfrwt>
<pdfrwt beam="2">  1       21 0.14523046E+00 0.20020456E+03</pdfrwt>
<totfact> 0.47504649E+04</totfact>
</mgrwt>
</event>
<event>
12    1  0.2768653E-001  0.1990592E+03  0.7546771E-02  0.1150810E+00
         21   -1    0    0  504  503  0.00000000000E+00  0.00000000000E+00  0.15239776353E+03  0.15239776353E+03  0.00000000000E+00 0.  1.
         21   -1    0    0  502  504 -0.00000000000E+00 -0.00000000000E+00 -0.28632418270E+03  0.28632418270E+03  0.00000000000E+00 0. -1.
          6    2    1    2  502    0  0.49508282500E+02  0.83833764817E+02 -0.13575668068E+03  0.24094486489E+03  0.17362425351E+03 0.  0.
         24    2    3    3    0    0  0.49774363858E+01  0.81228480793E+02 -0.15441880565E+03  0.19236350355E+03  0.80843731940E+02 0.  0.
         -6    2    1    2    0  503 -0.49508282500E+02 -0.83833764817E+02  0.18302615026E+01  0.19777708134E+03  0.17214312035E+03 0.  0.
        -24    2    5    5    0    0 -0.71516114331E+02 -0.78674116723E+02 -0.49112435467E+02  0.14184663341E+03  0.80026650826E+02 0.  0.
          4    1    4    4  501    0 -0.27051344834E+01  0.54009516405E+02 -0.15490922841E+03  0.16407685596E+03  0.00000000000E+00 0. -1.
         -3    1    4    4    0  501  0.76825708692E+01  0.27218964388E+02  0.49042275566E+00  0.28286647592E+02  0.00000000000E+00 0.  1.
          5    1    3    3  502    0  0.44530846114E+02  0.26052840239E+01  0.18662124978E+02  0.48581361335E+02  0.47000000000E+01 0. -1.
         11    1    6    6    0    0 -0.80600000875E+02 -0.79283999049E+02 -0.24608550394E+02  0.11570606466E+03  0.00000000000E+00 0. -1.
        -12    1    6    6    0    0  0.90838865443E+01  0.60988232649E+00 -0.24503885073E+02  0.26140568756E+02  0.00000000000E+00 0.  1.
         -5    1    5    5    0  503  0.22007831831E+02 -0.51596480948E+01  0.50942696969E+02  0.55930447923E+02  0.47000000000E+01 0.  1.
<mgrwt>
<rscale>  2 0.19873574E+03</rscale>
<asrwt>0</asrwt>
<pdfrwt beam="1">  1       21 0.23445810E-01 0.19905917E+03</pdfrwt>
<pdfrwt beam="2">  1       21 0.44049874E-01 0.19905917E+03</pdfrwt>
<totfact> 0.84497419E+04</totfact>
</mgrwt>
</event>
<event>
12    1  0.2768653E-001  0.1949399E+03  0.7546771E-02  0.1154472E+00
         21   -1    0    0  504  503  0.00000000000E+00  0.00000000000E+00  0.38018136974E+02  0.38018136974E+02  0.00000000000E+00 0.  1.
         21   -1    0    0  502  504 -0.00000000000E+00 -0.00000000000E+00 -0.10022177022E+04  0.10022177022E+04  0.00000000000E+00 0.  1.
          6    2    1    2  502    0  0.85945032863E+02  0.93386479201E+01 -0.42347050058E+03  0.46544067599E+03  0.17272521237E+03 0.  0.
         24    2    3    3    0    0  0.11389180897E+02 -0.40886622960E+02 -0.29297760913E+03  0.30691106483E+03  0.80975878406E+02 0.  0.
         -6    2    1    2    0  503 -0.85945032863E+02 -0.93386479201E+01 -0.54072906470E+03  0.57479516323E+03  0.17472206285E+03 0.  0.
        -24    2    5    5    0    0 -0.72842443631E+02 -0.53436983782E+02 -0.49543372540E+03  0.51006419049E+03  0.80928173840E+02 0.  0.
          2    1    4    4  501    0  0.41762206962E+00 -0.49193396043E+02 -0.83007415990E+02  0.96490391914E+02  0.00000000000E+00 0. -1.
         -1    1    4    4    0  501  0.10971558828E+02  0.83067730824E+01 -0.20997019314E+03  0.21042067292E+03  0.00000000000E+00 0.  1.
          5    1    3    3  502    0  0.74555851965E+02  0.50225270880E+02 -0.13049289144E+03  0.15852961116E+03  0.47000000000E+01 0. -1.
         13    1    6    6    0    0 -0.13526339983E+01 -0.35747393534E+02 -0.73404220414E+02  0.81657120558E+02  0.00000000000E+00 0. -1.
        -14    1    6    6    0    0 -0.71489809633E+02 -0.17689590248E+02 -0.42202950499E+03  0.42840706993E+03  0.00000000000E+00 0.  1.
         -5    1    5    5    0  503 -0.13102589231E+02  0.44098335862E+02 -0.45295339291E+02  0.64730972740E+02  0.47000000000E+01 0.  1.
<mgrwt>
<rscale>  2 0.19449141E+03</rscale>
<asrwt>0</asrwt>
<pdfrwt beam="1">  1       21 0.58489440E-02 0.19493988E+03</pdfrwt>
<pdfrwt beam="2">  1       21 0.15418734E+00 0.19493988E+03</pdfrwt>
<totfact> 0.57172615E+04</totfact>
</mgrwt>
</event>
<event>
12    1  0.2768653E-001  0.1879006E+03  0.7546771E-02  0.1160447E+00
         21   -1    0    0  504  503  0.00000000000E+00  0.00000000000E+00  0.13951310059E+03  0.13951310059E+03  0.00000000000E+00 0.  1.
         21   -1    0    0  502  504 -0.00000000000E+00 -0.00000000000E+00 -0.60089798500E+03  0.60089798500E+03  0.00000000000E+00 0.  1.
          6    2    1    2  502    0 -0.19479762082E+02  0.68011872836E+02 -0.51245055406E+03  0.54569504955E+03  0.17370216111E+03 0.  0.
         24    2    3    3    0    0 -0.76322336919E+02  0.69519627670E+02 -0.34588484271E+03  0.36962807980E+03  0.79564534944E+02 0.  0.
         -6    2    1    2    0  503  0.19479762082E+02 -0.68011872836E+02  0.51065669649E+02  0.19471603603E+03  0.17407342156E+03 0.  0.
        -24    2    5    5    0    0  0.17507454526E+02  0.31720604526E+02  0.33266107322E+02  0.93279496966E+02  0.79257321064E+02 0.  0.
          2    1    4    4  501    0 -0.49412446480E+01  0.52945635234E+02 -0.10281393361E+03  0.11575128998E+03  0.00000000000E+00 0. -1.
         -1    1    4    4    0  501 -0.71381092271E+02  0.16573992436E+02 -0.24307090910E+03  0.25387678982E+03  0.00000000000E+00 0.  1.
          5    1    3    3  502    0  0.56842574837E+02 -0.15077548343E+01 -0.16656571135E+03  0.17606696975E+03  0.47000000000E+01 0. -1.
         13    1    6    6    0    0 -0.69127792362E+01  0.17904108051E+02 -0.23270260064E+02  0.30163696811E+02  0.00000000000E+00 0. -1.
        -14    1    6    6    0    0  0.24420233762E+02  0.13816496476E+02  0.56536367386E+02  0.63115800154E+02  0.00000000000E+00 0.  1.
         -5    1    5    5    0  503  0.19723075560E+01 -0.99732477362E+02  0.17799562327E+02  0.10143653906E+03  0.47000000000E+01 0.  1.
<mgrwt>
<rscale>  2 0.18781456E+03</rscale>
<asrwt>0</asrwt>
<pdfrwt beam="1">  1       21 0.21463553E-01 0.18790059E+03</pdfrwt>
<pdfrwt beam="2">  1       21 0.92445846E-01 0.18790059E+03</pdfrwt>
<totfact> 0.20020342E+04</totfact>
</mgrwt>
</event>
<event>
12    1  0.2768653E-001  0.1994656E+03  0.7546771E-02  0.1150597E+00
         21   -1    0    0  504  503  0.00000000000E+00  0.00000000000E+00  0.48602580431E+03  0.48602580431E+03  0.00000000000E+00 0. -1.
         21   -1    0    0  502  504 -0.00000000000E+00 -0.00000000000E+00 -0.11091468358E+03  0.11091468358E+03  0.00000000000E+00 0.  1.
          6    2    1    2  502    0 -0.94527887912E+02 -0.24770099036E+02  0.34169592584E+03  0.39469531736E+03  0.17169510306E+03 0.  0.
         24    2    3    3    0    0 -0.27713235488E+01 -0.58877738732E+02  0.18274340587E+03  0.20795862629E+03  0.79858434159E+02 0.  0.
         -6    2    1    2    0  503  0.94527887912E+02  0.24770099036E+02  0.33415194888E+02  0.20224517053E+03  0.17388920138E+03 0.  0.
        -24    2    5    5    0    0  0.48931358338E+02 -0.47116528973E+02  0.49380064838E+02  0.11550591836E+03  0.79303097294E+02 0.  0.
          2    1    4    4  501    0 -0.46964998421E+00 -0.48585747416E+02  0.18936958701E+03  0.19550354448E+03  0.00000000000E+00 0. -1.
         -1    1    4    4    0  501 -0.23016735645E+01 -0.10291991316E+02 -0.66261811317E+01  0.12455081808E+02  0.00000000000E+00 0.  1.
          5    1    3    3  502    0 -0.91756564363E+02  0.34107639696E+02  0.15895251996E+03  0.18673669107E+03  0.47000000000E+01 0. -1.
         11    1    6    6    0    0  0.56118923189E+02 -0.78011802370E+01  0.67312993088E+01  0.57057009590E+02  0.00000000000E+00 0. -1.
        -12    1    6    6    0    0 -0.71875648505E+01 -0.39315348736E+02  0.42648765529E+02  0.58448908765E+02  0.00000000000E+00 0.  1.
         -5    1    5    5    0  503  0.45596529573E+02  0.71886628009E+02 -0.15964869949E+02  0.86739252177E+02  0.47000000000E+01 0.  1.
<mgrwt>
<rscale>  2 0.19898644E+03</rscale>
<asrwt>0</asrwt>
<pdfrwt beam="1">  1       21 0.74773200E-01 0.19946562E+03</pdfrwt>
<pdfrwt beam="2">  1       21 0.17063798E-01 0.19946562E+03</pdfrwt>
<totfact> 0.49426050E+04</totfact>
</mgrwt>
</event>
<event>
12    1  0.2768653E-001  0.1863670E+03  0.7546771E-02  0.1162018E+00
         21   -1    0    0  504  503  0.00000000000E+00  0.00000000000E+00  0.54615612537E+03  0.54615612537E+03  0.00000000000E+00 0. -1.
         21   -1    0    0  502  504 -0.00000000000E+00 -0.00000000000E+00 -0.10780898943E+03  0.10780898943E+03  0.00000000000E+00 0.  1.
          6    2    1    2  502    0 -0.62088392351E+02 -0.30414935355E+02  0.93011798176E+01  0.18659896367E+03  0.17306826554E+03 0.  0.
         24    2    3    3    0    0 -0.15858383170E+02 -0.43228015024E+02  0.58692350748E+02  0.11758471495E+03  0.90891273258E+02 0.  0.
         -6    2    1    2    0  503  0.62088392351E+02  0.30414935355E+02  0.42904595612E+03  0.46736615113E+03  0.17196118749E+03 0.  0.
        -24    2    5    5    0    0  0.53415941278E+02 -0.36387565269E+02  0.34123959113E+03  0.35659687186E+03  0.80867501369E+02 0.  0.
          4    1    4    4  501    0  0.13467337430E+02  0.23581142242E+02  0.66330722264E+01  0.27954196358E+02  0.00000000000E+00 0. -1.
         -3    1    4    4    0  501 -0.29325720600E+02 -0.66809157266E+02  0.52059278522E+02  0.89630518595E+02  0.00000000000E+00 0.  1.
          5    1    3    3  502    0 -0.46230009181E+02  0.12813079669E+02 -0.49391170931E+02  0.69014248713E+02  0.47000000000E+01 0. -1.
         13    1    6    6    0    0  0.34661557269E+01 -0.36181967457E+02  0.24955930696E+03  0.25219238032E+03  0.00000000000E+00 0. -1.
        -14    1    6    6    0    0  0.49949785551E+02 -0.20559781182E+00  0.91680284172E+02  0.10440449154E+03  0.00000000000E+00 0.  1.
         -5    1    5    5    0  503  0.86724510730E+01  0.66802500624E+02  0.87806364995E+02  0.11076927927E+03  0.47000000000E+01 0.  1.
<mgrwt>
<rscale>  2 0.18610957E+03</rscale>
<asrwt>0</asrwt>
<pdfrwt beam="1">  1       21 0.84024018E-01 0.18636701E+03</pdfrwt>
<pdfrwt beam="2">  1       21 0.16585999E-01 0.18636701E+03</pdfrwt>
<totfact> 0.40289969E+04</totfact>
</mgrwt>
</event>
<event>
12    1  0.2768653E-001  0.1916308E+03  0.7546771E-02  0.1157367E+00
         21   -1    0    0  504  503  0.00000000000E+00  0.00000000000E+00  0.28147594762E+03  0.28147594762E+03  0.00000000000E+00 0.  1.
         21   -1    0    0  502  504 -0.00000000000E+00 -0.00000000000E+00 -0.14810778626E+03  0.14810778626E+03  0.00000000000E+00 0.  1.
          6    2    1    2  502    0 -0.62510771626E+02  0.51852146062E+02 -0.95104287074E+01  0.19186667872E+03  0.17356881208E+03 0.  0.
         24    2    3    3    0    0 -0.29505874692E+02  0.63978256032E-01  0.54882941852E+02  0.10276037300E+03  0.81712644178E+02 0.  0.
         -6    2    1    2    0  503  0.62510771626E+02 -0.51852146062E+02  0.14287859007E+03  0.23771705517E+03  0.17175233680E+03 0.  0.
        -24    2    5    5    0    0  0.74486992706E+02  0.22009396901E+02  0.54120201766E+02  0.12153143259E+03  0.76211332710E+02 0.  0.
          4    1    4    4  501    0  0.19637535371E+02 -0.82202612301E+01 -0.78066560685E+01  0.22674862053E+02  0.00000000000E+00 0. -1.
         -3    1    4    4    0  501 -0.49143410063E+02  0.82842394862E+01  0.62689597921E+02  0.80085510949E+02  0.00000000000E+00 0.  1.
          5    1    3    3  502    0 -0.33004896934E+02  0.51788167806E+02 -0.64393370560E+02  0.89106305716E+02  0.47000000000E+01 0. -1.
         13    1    6    6    0    0  0.23172909269E+02  0.37423786715E+01 -0.19107875080E+02  0.30267144104E+02  0.00000000000E+00 0. -1.
        -14    1    6    6    0    0  0.51314083437E+02  0.18267018229E+02  0.73228076847E+02  0.91264288485E+02  0.00000000000E+00 0.  1.
         -5    1    5    5    0  503 -0.11976221080E+02 -0.73861542963E+02  0.88758388302E+02  0.11618562258E+03  0.47000000000E+01 0.  1.
<mgrwt>
<rscale>  2 0.19121857E+03</rscale>
<asrwt>0</asrwt>
<pdfrwt beam="1">  1       21 0.43303992E-01 0.19163083E+03</pdfrwt>
<pdfrwt beam="2">  1       21 0.22785813E-01 0.19163083E+03</pdfrwt>
<totfact> 0.92654865E+04</totfact>
</mgrwt>
</event>
<event>
12    1  0.2768653E-001  0.2104096E+03  0.7546771E-02  0.1143662E+00
         21   -1    0    0  504  503  0.00000000000E+00  0.00000000000E+00  0.65119611878E+03  0.65119611878E+03  0.00000000000E+00 0. -1.
         21   -1    0    0  502  504 -0.00000000000E+00 -0.00000000000E+00 -0.65224260896E+02  0.65224260896E+02  0.00000000000E+00 0.  1.
          6    2    1    2  502    0  0.50037700836E+02  0.83569201380E+02  0.25652638050E+03  0.33178004964E+03  0.18650639272E+03 0.  0.
         24    2    3    3    0    0  0.39929036934E+02  0.11446816467E+03  0.26100914485E+03  0.29862712829E+03  0.79718876930E+02 0.  0.
         -6    2    1    2    0  503 -0.50037700836E+02 -0.83569201380E+02  0.32944547738E+03  0.38464033003E+03  0.17299213275E+03 0.  0.
        -24    2    5    5    0    0 -0.70992138794E+00 -0.51999288371E+02  0.76603072566E+02  0.12506132297E+03  0.84070647652E+02 0.  0.
          2    1    4    4  501    0  0.13322987414E+02  0.92489092398E+02  0.24158220548E+03  0.25902450890E+03  0.00000000000E+00 0. -1.
         -1    1    4    4    0  501  0.26606049519E+02  0.21979072270E+02  0.19426939372E+02  0.39602619386E+02  0.00000000000E+00 0.  1.
          5    1    3    3  502    0  0.10108663902E+02 -0.30898963288E+02 -0.44827643555E+01  0.33152921356E+02  0.47000000000E+01 0. -1.
         13    1    6    6    0    0  0.30730606746E+02 -0.48400379233E+02  0.73568981930E+02  0.93270370446E+02  0.00000000000E+00 0. -1.
        -14    1    6    6    0    0 -0.31440528134E+02 -0.35989091383E+01  0.30340906351E+01  0.31790952522E+02  0.00000000000E+00 0.  1.
         -5    1    5    5    0  503 -0.49327779448E+02 -0.31569913009E+02  0.25284240482E+03  0.25957900706E+03  0.47000000000E+01 0.  1.
<mgrwt>
<rscale>  2 0.20737450E+03</rscale>
<asrwt>0</asrwt>
<pdfrwt beam="1">  1       21 0.10018401E+00 0.21040964E+03</pdfrwt>
<pdfrwt beam="2">  1       21 0.10034502E-01 0.21040964E+03</pdfrwt>
<totfact> 0.65368254E+04</totfact>
</mgrwt>
</event>
<event>
12    1  0.2768653E-001  0.2993719E+03  0.7546771E-02  0.1085747E+00
         21   -1    0    0  504  503  0.00000000000E+00  0.00000000000E+00  0.10865317865E+04  0.10865317865E+04  0.00000000000E+00 0. -1.
         21   -1    0    0  502  504 -0.00000000000E+00 -0.00000000000E+00 -0.13135472345E+03  0.13135472345E+03  0.00000000000E+00 0. -1.
          6    2    1    2  502    0  0.24018130452E+03  0.30483476178E+02  0.10380596528E+03  0.31541420088E+03  0.17347662185E+03 0.  0.
         24    2    3    3    0    0  0.42250540345E+02 -0.21173071932E+02  0.34996891472E+02  0.99539781350E+02  0.80311758317E+02 0.  0.
         -6    2    1    2    0  503 -0.24018130452E+03 -0.30483476178E+02  0.85137109780E+03  0.90247230910E+03  0.17608867414E+03 0.  0.
        -24    2    5    5    0    0 -0.25310748087E+03 -0.32701769089E+00  0.78103410365E+03  0.82471704709E+03  0.77977130557E+02 0.  0.
          4    1    4    4  501    0 -0.97884289330E+01  0.13591824741E+02 -0.12561515900E+02  0.20936635892E+02  0.00000000000E+00 0. -1.
         -3    1    4    4    0  501  0.52038969278E+02 -0.34764896672E+02  0.47558407372E+02  0.78603145458E+02  0.00000000000E+00 0.  1.
          5    1    3    3  502    0  0.19793076418E+03  0.51656548109E+02  0.68809073807E+02  0.21587441953E+03  0.47000000000E+01 0. -1.
         11    1    6    6    0    0 -0.14719909367E+03 -0.36696583456E+02  0.41066166517E+03  0.43778672393E+03  0.00000000000E+00 0. -1.
        -12    1    6    6    0    0 -0.10590838720E+03  0.36369565765E+02  0.37037243848E+03  0.38693032316E+03  0.00000000000E+00 0.  1.
         -5    1    5    5    0  503  0.12926176350E+02 -0.30156458487E+02  0.70336994148E+02  0.77755262004E+02  0.47000000000E+01 0.  1.
<mgrwt>
<rscale>  2 0.29898892E+03</rscale>
<asrwt>0</asrwt>
<pdfrwt beam="1">  1       21 0.16715873E+00 0.29937188E+03</pdfrwt>
<pdfrwt beam="2">  1       21 0.20208420E-01 0.29937188E+03</pdfrwt>
<totfact> 0.46907680E+03</totfact>
</mgrwt>
</event>
<event>
12    1  0.2768653E-001  0.1793676E+03  0.7546771E-02  0.1168650E+00
         21   -1    0    0  504  503  0.00000000000E+00  0.00000000000E+00  0.26492723457E+04  0.26492723457E+04  0.00000000000E+00 0.  1.
         21   -1    0    0  502  504 -0.00000000000E+00 -0.00000000000E+00 -0.32232067619E+02  0.32232067619E+02  0.00000000000E+00 0.  1.
          6    2    1    2  502    0  0.70580417192E+01 -0.43581697086E+02  0.24967216604E+03  0.30742306045E+03  0.17384926611E+03 0.  0.
         24    2    3    3    0    0  0.60026570929E+02 -0.48378412320E+02  0.10388446294E+03  0.15216579672E+03  0.80117339303E+02 0.  0.
         -6    2    1    2    0  503 -0.70580417192E+01  0.43581697086E+02  0.23673681121E+04  0.23740813529E+04  0.17286211805E+03 0.  0.
        -24    2    5    5    0    0  0.28700912971E+02  0.35099374356E+02  0.67102102639E+03  0.67732969819E+03  0.80315588240E+02 0.  0.
          2    1    4    4  501    0  0.50350229445E+02  0.54854926559E-01  0.85965381073E+02  0.99625274691E+02  0.00000000000E+00 0. -1.
         -1    1    4    4    0  501  0.96763414835E+01 -0.48433267247E+02  0.17919081865E+02  0.52540522034E+02  0.00000000000E+00 0.  1.
          5    1    3    3  502    0 -0.52968529209E+02  0.47967152347E+01  0.14578770310E+03  0.15525726372E+03  0.47000000000E+01 0. -1.
         11    1    6    6    0    0  0.77588678720E+01  0.37828801734E+02  0.12338941890E+03  0.12929101658E+03  0.00000000000E+00 0. -1.
        -12    1    6    6    0    0  0.20942045099E+02 -0.27294273778E+01  0.54763160749E+03  0.54803868162E+03  0.00000000000E+00 0.  1.
         -5    1    5    5    0  503 -0.35758954690E+02  0.84823227297E+01  0.16963470857E+04  0.16967516547E+04  0.47000000000E+01 0.  1.
<mgrwt>
<rscale>  2 0.17912800E+03</rscale>
<asrwt>0</asrwt>
<pdfrwt beam="1">  1       21 0.40758019E+00 0.17936763E+03</pdfrwt>
<pdfrwt beam="2">  1       21 0.49587817E-02 0.17936763E+03</pdfrwt>
<totfact> 0.21750174E+03</totfact>
</mgrwt>
</event>
<event>
12    1  0.2768653E-001  0.4274315E+03  0.7546771E-02  0.1034750E+00
         21   -1    0    0  504  503  0.00000000000E+00  0.00000000000E+00  0.13926729298E+03  0.13926729298E+03  0.00000000000E+00 0.  1.
         21   -1    0    0  502  504 -0.00000000000E+00 -0.00000000000E+00 -0.15420266352E+04  0.15420266352E+04  0.00000000000E+00 0. -1.
          6    2    1    2  502    0  0.30026805184E+03  0.24895440481E+03 -0.37521568636E+03  0.56875696462E+03  0.17480982489E+03 0.  0.
         24    2    3    3    0    0  0.25881397103E+03  0.26617313325E+03 -0.31574718721E+03  0.49410096810E+03  0.81281436871E+02 0.  0.
         -6    2    1    2    0  503 -0.30026805184E+03 -0.24895440481E+03 -0.10275436558E+04  0.11125369635E+04  0.17249154177E+03 0.  0.
        -24    2    5    5    0    0 -0.15580025421E+03 -0.13204036049E+03 -0.37558553305E+03  0.43459056288E+03  0.78077453204E+02 0.  0.
          4    1    4    4  501    0  0.28131532642E+02  0.17427462796E+02 -0.39379780838E+01  0.33325774705E+02  0.00000000000E+00 0. -1.
         -3    1    4    4    0  501  0.23068243838E+03  0.24874567045E+03 -0.31180920913E+03  0.46077519339E+03  0.00000000000E+00 0.  1.
          5    1    3    3  502    0  0.41454080812E+02 -0.17218728441E+02 -0.59468499149E+02  0.74655996518E+02  0.47000000000E+01 0. -1.
         13    1    6    6    0    0 -0.11260931697E+03 -0.54702288334E+02 -0.26349415010E+03  0.29172309774E+03  0.00000000000E+00 0. -1.
        -14    1    6    6    0    0 -0.43190937234E+02 -0.77338072153E+02 -0.11209138295E+03  0.14286746514E+03  0.00000000000E+00 0.  1.
         -5    1    5    5    0  503 -0.14446779763E+03 -0.11691404432E+03 -0.65195812279E+03  0.67794640067E+03  0.47000000000E+01 0.  1.
<mgrwt>
<rscale>  2 0.42719557E+03</rscale>
<asrwt>0</asrwt>
<pdfrwt beam="1">  1       21 0.21425737E-01 0.42743148E+03</pdfrwt>
<pdfrwt beam="2">  1       21 0.23723487E+00 0.42743148E+03</pdfrwt>
<totfact> 0.13461748E+03</totfact>
</mgrwt>
</event>
<event>
12    1  0.2768653E-001  0.1768988E+03  0.7546771E-02  0.1171196E+00
         21   -1    0    0  504  503  0.00000000000E+00  0.00000000000E+00  0.73274920569E+02  0.73274920569E+02  0.00000000000E+00 0. -1.
         21   -1    0    0  502  504 -0.00000000000E+00 -0.00000000000E+00 -0.19202435239E+04  0.19202435239E+04  0.00000000000E+00 0. -1.
          6    2    1    2  502    0  0.25186130954E+02 -0.11500226660E+02 -0.18042893959E+04  0.18129405453E+04  0.17471863103E+03 0.  0.
         24    2    3    3    0    0  0.83449609643E+02 -0.13852569466E+02 -0.10727180573E+04  0.10790339572E+04  0.80215455955E+02 0.  0.
         -6    2    1    2    0  503 -0.25186130954E+02  0.11500226660E+02 -0.42679207352E+02  0.18057789914E+03  0.17326357527E+03 0.  0.
        -24    2    5    5    0    0 -0.31161007679E+02  0.17849670263E+01 -0.93184592859E+02  0.12858780983E+03  0.82929258915E+02 0.  0.
          4    1    4    4  501    0  0.68038123187E+02 -0.17375508074E+02 -0.10430985905E+04  0.10454595946E+04  0.00000000000E+00 0. -1.
         -3    1    4    4    0  501  0.15411486455E+02  0.35229386080E+01 -0.29619466812E+02  0.33574362622E+02  0.00000000000E+00 0.  1.
          5    1    3    3  502    0 -0.58263478689E+02  0.23523428054E+01 -0.73157133867E+03  0.73390658808E+03  0.47000000000E+01 0. -1.
         11    1    6    6    0    0 -0.32830085585E+02 -0.20885023415E+02 -0.71000290776E+01  0.39552612246E+02  0.00000000000E+00 0. -1.
        -12    1    6    6    0    0  0.16690779066E+01  0.22669990441E+02 -0.86084563781E+02  0.89035197585E+02  0.00000000000E+00 0.  1.
         -5    1    5    5    0  503  0.59748767250E+01  0.97152596341E+01  0.50505385507E+02  0.51990089314E+02  0.47000000000E+01 0.  1.
<mgrwt>
<rscale>  2 0.17653849E+03</rscale>
<asrwt>0</asrwt>
<pdfrwt beam="1">  1       21 0.11273067E-01 0.17689883E+03</pdfrwt>
<pdfrwt beam="2">  1       21 0.29542201E+00 0.17689883E+03</pdfrwt>
<totfact> 0.24283381E+03</totfact>
</mgrwt>
</event>
<event>
12    1  0.2768653E-001  0.2028673E+03  0.7546771E-02  0.1148432E+00
         21   -1    0    0  504  503  0.00000000000E+00  0.00000000000E+00  0.14667707471E+03  0.14667707471E+03  0.00000000000E+00 0. -1.
         21   -1    0    0  502  504 -0.00000000000E+00 -0.00000000000E+00 -0.40699943121E+03  0.40699943121E+03  0.00000000000E+00 0. -1.
          6    2    1    2  502    0 -0.94035339545E+02 -0.45249024372E+02 -0.28986544539E+03  0.35380377927E+03  0.17396844112E+03 0.  0.
         24    2    3    3    0    0 -0.90100076370E+02  0.18799402992E+02 -0.11149066309E+03  0.16417957116E+03  0.77803099641E+02 0.  0.
         -6    2    1    2    0  503  0.94035339545E+02  0.45249024372E+02  0.29543088883E+02  0.19987272665E+03  0.16788744286E+03 0.  0.
        -24    2    5    5    0    0  0.11409243576E+03  0.72886886579E+02  0.42609450262E+02  0.16300867458E+03  0.80166580331E+02 0.  0.
          2    1    4    4  501    0 -0.11426933034E+02  0.34275194025E+02 -0.56096154608E+02  0.66724375500E+02  0.00000000000E+00 0. -1.
         -1    1    4    4    0  501 -0.78673143335E+02 -0.15475791033E+02 -0.55394508487E+02  0.97455195659E+02  0.00000000000E+00 0.  1.
          5    1    3    3  502    0 -0.39352631755E+01 -0.64048427364E+02 -0.17837478229E+03  0.18962420811E+03  0.47000000000E+01 0. -1.
         11    1    6    6    0    0  0.10923415975E+03  0.28811658975E+02  0.32005750938E+02  0.11741627418E+03  0.00000000000E+00 0. -1.
        -12    1    6    6    0    0  0.48582760069E+01  0.44075227603E+02  0.10603699324E+02  0.45592400391E+02  0.00000000000E+00 0.  1.
         -5    1    5    5    0  503 -0.20057096217E+02 -0.27637862207E+02 -0.13066361379E+02  0.36864052079E+02  0.47000000000E+01 0.  1.
<mgrwt>
<rscale>  2 0.20155716E+03</rscale>
<asrwt>0</asrwt>
<pdfrwt beam="1">  1       21 0.22565704E-01 0.20286729E+03</pdfrwt>
<pdfrwt beam="2">  1       21 0.62615296E-01 0.20286729E+03</pdfrwt>
<totfact> 0.43264368E+04</totfact>
</mgrwt>
</event>
<event>
12    1  0.2768653E-001  0.1806346E+03  0.7546771E-02  0.1167679E+00
         21   -1    0    0  504  503  0.00000000000E+00  0.00000000000E+00  0.69619963071E+02  0.69619963071E+02  0.00000000000E+00 0.  1.
         21   -1    0    0  502  504 -0.00000000000E+00 -0.00000000000E+00 -0.46744469472E+03  0.46744469472E+03  0.00000000000E+00 0.  1.
          6    2    1    2  502    0  0.45195412046E+02  0.18604848594E+02 -0.22260952984E+03  0.28541164727E+03  0.17180232816E+03 0.  0.
         24    2    3    3    0    0  0.11231233029E+02  0.57346130751E+02 -0.62671131908E+02  0.11731395682E+03  0.80125990689E+02 0.  0.
         -6    2    1    2    0  503 -0.45195412046E+02 -0.18604848594E+02 -0.17521520180E+03  0.25165301052E+03  0.17389682314E+03 0.  0.
        -24    2    5    5    0    0  0.77308102284E+01 -0.42097096522E+02 -0.31702784999E+02  0.96827384428E+02  0.80861269073E+02 0.  0.
          2    1    4    4  501    0 -0.34002324298E+02  0.34429173176E+02 -0.32870158687E+02  0.58497635468E+02  0.00000000000E+00 0. -1.
         -1    1    4    4    0  501  0.45233557328E+02  0.22916957575E+02 -0.29800973221E+02  0.58816321356E+02  0.00000000000E+00 0.  1.
          5    1    3    3  502    0  0.33964179016E+02 -0.38741282157E+02 -0.15993839793E+03  0.16809769045E+03  0.47000000000E+01 0. -1.
         11    1    6    6    0    0  0.13397907571E+02 -0.49883064661E+02 -0.52660652636E+02  0.73762920246E+02  0.00000000000E+00 0. -1.
        -12    1    6    6    0    0 -0.56670973429E+01  0.77859681382E+01  0.20957867636E+02  0.23064464182E+02  0.00000000000E+00 0.  1.
         -5    1    5    5    0  503 -0.52926222274E+02  0.23492247929E+02 -0.14351241680E+03  0.15482562609E+03  0.47000000000E+01 0.  1.
<mgrwt>
<rscale>  2 0.18012864E+03</rscale>
<asrwt>0</asrwt>
<pdfrwt beam="1">  1       21 0.10710764E-01 0.18063463E+03</pdfrwt>
<pdfrwt beam="2">  1       21 0.71914568E-01 0.18063463E+03</pdfrwt>
<totfact> 0.12597559E+05</totfact>
</mgrwt>
</event>
<event>
12    1  0.2768653E-001  0.2368322E+03  0.7546771E-02  0.1122029E+00
         21   -1    0    0  504  503  0.00000000000E+00  0.00000000000E+00  0.95196236667E+03  0.95196236667E+03  0.00000000000E+00 0. -1.
         21   -1    0    0  502  504 -0.00000000000E+00 -0.00000000000E+00 -0.78250245106E+02  0.78250245106E+02  0.00000000000E+00 0.  1.
          6    2    1    2  502    0  0.15239869746E+03 -0.54640987338E+02  0.18023173626E+03  0.29761215248E+03  0.17285402530E+03 0.  0.
         24    2    3    3    0    0  0.92690585504E+01 -0.10500403391E+02  0.10809321886E+03  0.13129756990E+03  0.73203374102E+02 0.  0.
         -6    2    1    2    0  503 -0.15239869746E+03  0.54640987338E+02  0.69348038530E+03  0.73260045930E+03  0.17198077707E+03 0.  0.
        -24    2    5    5    0    0 -0.12567922973E+03  0.45248045393E+02  0.68521691356E+03  0.70272518057E+03  0.80360477692E+02 0.  0.
          4    1    4    4  501    0  0.96929041262E+01  0.16631968129E+02  0.10158427669E+03  0.10339216616E+03  0.00000000000E+00 0. -1.
         -3    1    4    4    0  501 -0.42384557580E+00 -0.27132371519E+02  0.65089421740E+01  0.27905403734E+02  0.00000000000E+00 0.  1.
          5    1    3    3  502    0  0.14312963891E+03 -0.44140583947E+02  0.72138517401E+02  0.16631458258E+03  0.47000000000E+01 0. -1.
         13    1    6    6    0    0 -0.40896929055E+02  0.57146447614E+02  0.30863302473E+03  0.31653217725E+03  0.00000000000E+00 0. -1.
        -14    1    6    6    0    0 -0.84782300676E+02 -0.11898402220E+02  0.37658388883E+03  0.38619300332E+03  0.00000000000E+00 0.  1.
         -5    1    5    5    0  503 -0.26719467730E+02  0.93929419443E+01  0.82634717422E+01  0.29875278733E+02  0.47000000000E+01 0.  1.
<mgrwt>
<rscale>  2 0.23667294E+03</rscale>
<asrwt>0</asrwt>
<pdfrwt beam="1">  1       21 0.14645574E+00 0.23683225E+03</pdfrwt>
<pdfrwt beam="2">  1       21 0.12038500E-01 0.23683225E+03</pdfrwt>
<totfact> 0.18053963E+04</totfact>
</mgrwt>
</event>
<event>
12    1  0.2768653E-001  0.1791393E+03  0.7546771E-02  0.1170170E+00
         21   -1    0    0  504  503  0.00000000000E+00  0.00000000000E+00  0.36694409168E+03  0.36694409168E+03  0.00000000000E+00 0. -1.
         21   -1    0    0  502  504 -0.00000000000E+00 -0.00000000000E+00 -0.16509988315E+03  0.16509988315E+03  0.00000000000E+00 0. -1.
          6    2    1    2  502    0 -0.13172888525E+02 -0.81363807981E+01 -0.84066805417E+02  0.19788413869E+03  0.17846898578E+03 0.  0.
         24    2    3    3    0    0  0.39482435359E+02  0.12541556694E+02 -0.10407881252E+03  0.13769501458E+03  0.80070996486E+02 0.  0.
         -6    2    1    2    0  503  0.13172888525E+02  0.81363807981E+01  0.28591101394E+03  0.33415983614E+03  0.17227293030E+03 0.  0.
        -24    2    5    5    0    0  0.56714278327E+02 -0.16180800650E+02  0.25876407885E+03  0.27718419201E+03  0.79961866664E+02 0.  0.
          4    1    4    4  501    0  0.10316125763E+02  0.40332333785E+01 -0.10663217190E+03  0.10720592104E+03  0.00000000000E+00 0. -1.
         -3    1    4    4    0  501  0.29166309596E+02  0.85083233158E+01  0.25533593725E+01  0.30489093544E+02  0.00000000000E+00 0.  1.
          5    1    3    3  502    0 -0.52655323884E+02 -0.20677937492E+02  0.20012007107E+02  0.60189124106E+02  0.47000000000E+01 0. -1.
         11    1    6    6    0    0 -0.16775254724E+02 -0.39192841185E+01  0.10403230385E+03  0.10544899337E+03  0.00000000000E+00 0. -1.
        -12    1    6    6    0    0  0.73489533051E+02 -0.12261516531E+02  0.15473177501E+03  0.17173519864E+03  0.00000000000E+00 0.  1.
         -5    1    5    5    0  503 -0.43541389801E+02  0.24317181448E+02  0.27146935086E+02  0.56975644130E+02  0.47000000000E+01 0.  1.
<mgrwt>
<rscale>  2 0.17757599E+03</rscale>
<asrwt>0</asrwt>
<pdfrwt beam="1">  1       21 0.56452937E-01 0.17913934E+03</pdfrwt>
<pdfrwt beam="2">  1       21 0.25399982E-01 0.17913934E+03</pdfrwt>
<totfact> 0.43658662E+04</totfact>
</mgrwt>
</event>
<event>
12    1  0.2768653E-001  0.3115504E+03  0.7546771E-02  0.1079842E+00
         21   -1    0    0  504  503  0.00000000000E+00  0.00000000000E+00  0.22462732941E+04  0.22462732941E+04  0.00000000000E+00 0. -1.
         21   -1    0    0  502  504 -0.00000000000E+00 -0.00000000000E+00 -0.11329168633E+03  0.11329168633E+03  0.00000000000E+00 0. -1.
          6    2    1    2  502    0  0.24219805560E+03  0.90246067051E+02  0.13548801935E+03  0.33792102614E+03  0.17038006271E+03 0.  0.
         24    2    3    3    0    0  0.75918384904E+02 -0.89295733237E+01  0.21479442218E+02  0.11318833562E+03  0.80665323629E+02 0.  0.
         -6    2    1    2    0  503 -0.24219805560E+03 -0.90246067051E+02  0.19974935885E+04  0.20216439543E+04  0.17395226760E+03 0.  0.
        -24    2    5    5    0    0 -0.11520382647E+03 -0.27945909191E+02  0.14172631084E+04  0.14244016719E+04  0.78946241772E+02 0.  0.
          2    1    4    4  501    0 -0.17649721436E+01  0.66862076304E+00 -0.23054907819E+02  0.23132033091E+02  0.00000000000E+00 0. -1.
         -1    1    4    4    0  501  0.77683357048E+02 -0.95981940868E+01  0.44534350036E+02  0.90056302529E+02  0.00000000000E+00 0.  1.
          5    1    3    3  502    0  0.16627967069E+03  0.99175640374E+02  0.11400857713E+03  0.22473269052E+03  0.47000000000E+01 0. -1.
         13    1    6    6    0    0 -0.20237308969E+02  0.20845863320E+02  0.16024667350E+03  0.16285912643E+03  0.00000000000E+00 0. -1.
        -14    1    6    6    0    0 -0.94966517501E+02 -0.48791772511E+02  0.12570164349E+04  0.12615425455E+04  0.00000000000E+00 0.  1.
         -5    1    5    5    0  503 -0.12699422913E+03 -0.62300157860E+02  0.58023048006E+03  0.59724228240E+03  0.47000000000E+01 0.  1.
<mgrwt>
<rscale>  2 0.31105412E+03</rscale>
<asrwt>0</asrwt>
<pdfrwt beam="1">  1       21 0.34558047E+00 0.31155038E+03</pdfrwt>
<pdfrwt beam="2">  1       21 0.17429492E-01 0.31155038E+03</pdfrwt>
<totfact> 0.48068054E+02</totfact>
</mgrwt>
</event>
<event>
12    1  0.2768653E-001  0.1869428E+03  0.7546771E-02  0.1161553E+00
         21   -1    0    0  504  503  0.00000000000E+00  0.00000000000E+00  0.47558832511E+02  0.47558832511E+02  0.00000000000E+00 0. -1.
         21   -1    0    0  502  504 -0.00000000000E+00 -0.00000000000E+00 -0.17874441589E+04  0.17874441589E+04  0.00000000000E+00 0. -1.
          6    2    1    2  502    0 -0.68356722959E+02  0.18253854987E+01 -0.15770089563E+04  0.15880506496E+04  0.17398748169E+03 0.  0.
         24    2    3    3    0    0 -0.18187127060E+02 -0.60348862057E+02 -0.71813786979E+03  0.72545905523E+03  0.81216279408E+02 0.  0.
         -6    2    1    2    0  503  0.68356722959E+02 -0.18253854987E+01 -0.16287637015E+03  0.24695234189E+03  0.17257106827E+03 0.  0.
        -24    2    5    5    0    0  0.46996606703E+02  0.49227297809E+02 -0.40478424806E+02  0.11254260242E+03  0.79970785877E+02 0.  0.
          4    1    4    4  501    0  0.18377533995E+01 -0.73953366253E+02 -0.61915623186E+03  0.62355987457E+03  0.00000000000E+00 0. -1.
         -3    1    4    4    0  501 -0.20024880460E+02  0.13604504197E+02 -0.98981637928E+02  0.10189918066E+03  0.00000000000E+00 0.  1.
          5    1    3    3  502    0 -0.50169595899E+02  0.62174247555E+02 -0.85887108648E+03  0.86259159433E+03  0.47000000000E+01 0. -1.
         11    1    6    6    0    0  0.84858594335E+01  0.40517405388E+02 -0.56406991037E+02  0.69967267973E+02  0.00000000000E+00 0. -1.
        -12    1    6    6    0    0  0.38510747270E+02  0.87098924209E+01  0.15928566231E+02  0.42575334449E+02  0.00000000000E+00 0.  1.
         -5    1    5    5    0  503  0.21360116256E+02 -0.51052683308E+02 -0.12239794534E+03  0.13440973947E+03  0.47000000000E+01 0.  1.
<mgrwt>
<rscale>  2 0.18661256E+03</rscale>
<asrwt>0</asrwt>
<pdfrwt beam="1">  1       21 0.73167451E-02 0.18694282E+03</pdfrwt>
<pdfrwt beam="2">  1       21 0.27499135E+00 0.18694282E+03</pdfrwt>
<totfact> 0.67059359E+03</totfact>
</mgrwt>
</event>
<event>
12    1  0.2768653E-001  0.2411747E+03  0.7546771E-02  0.1119180E+00
         21   -1    0    0  504  503  0.00000000000E+00  0.00000000000E+00  0.15072378449E+04  0.15072378449E+04  0.00000000000E+00 0.  1.
         21   -1    0    0  502  504 -0.00000000000E+00 -0.00000000000E+00 -0.13196030071E+03  0.13196030071E+03  0.00000000000E+00 0.  1.
          6    2    1    2  502    0  0.17668109893E+02 -0.16471195180E+03 -0.27934785371E+01  0.24018242306E+03  0.17388963066E+03 0.  0.
         24    2    3    3    0    0  0.71475206685E+02 -0.68084239781E+02  0.80227158043E+01  0.12895653374E+03  0.82590887799E+02 0.  0.
         -6    2    1    2    0  503 -0.17668109893E+02  0.16471195180E+03  0.13780710227E+04  0.13990157225E+04  0.17527994485E+03 0.  0.
        -24    2    5    5    0    0 -0.58635855710E+02  0.35018652711E+02  0.62964837380E+03  0.63832047512E+03  0.79570627206E+02 0.  0.
          4    1    4    4  501    0  0.68813386219E+02 -0.35214237526E+02 -0.26018067264E+02  0.81561415336E+02  0.00000000000E+00 0. -1.
         -3    1    4    4    0  501  0.26618204663E+01 -0.32870002254E+02  0.34040783068E+02  0.47395118401E+02  0.00000000000E+00 0.  1.
          5    1    3    3  502    0 -0.53807096793E+02 -0.96627712023E+02 -0.10816194341E+02  0.11122588932E+03  0.47000000000E+01 0. -1.
         11    1    6    6    0    0 -0.52258477022E+02  0.45546616408E+02  0.27993124442E+03  0.28838679632E+03  0.00000000000E+00 0. -1.
        -12    1    6    6    0    0 -0.63773786886E+01 -0.10527963697E+02  0.34971712938E+03  0.34993367880E+03  0.00000000000E+00 0.  1.
         -5    1    5    5    0  503  0.40967745818E+02  0.12969329909E+03  0.74842264890E+03  0.76069524739E+03  0.47000000000E+01 0.  1.
<mgrwt>
<rscale>  2 0.24092219E+03</rscale>
<asrwt>0</asrwt>
<pdfrwt beam="1">  1       21 0.23188273E+00 0.24117473E+03</pdfrwt>
<pdfrwt beam="2">  1       21 0.20301586E-01 0.24117473E+03</pdfrwt>
<totfact> 0.18205990E+03</totfact>
</mgrwt>
</event>
<event>
12    1  0.2768653E-001  0.2288474E+03  0.7546771E-02  0.1127537E+00
         21   -1    0    0  504  503  0.00000000000E+00  0.00000000000E+00  0.35649012177E+03  0.35649012177E+03  0.00000000000E+00 0. -1.
         21   -1    0    0  502  504 -0.00000000000E+00 -0.00000000000E+00 -0.22490233380E+03  0.22490233380E+03  0.00000000000E+00 0. -1.
          6    2    1    2  502    0 -0.18417248273E+02  0.14769692880E+03 -0.10577060159E+03  0.25168022162E+03  0.17321066937E+03 0.  0.
         24    2    3    3    0    0  0.12617590626E+02  0.16945151542E+03 -0.66818645803E+02  0.19712962011E+03  0.74312421761E+02 0.  0.
         -6    2    1    2    0  503  0.18417248273E+02 -0.14769692880E+03  0.23735838956E+03  0.32971223395E+03  0.17383202901E+03 0.  0.
        -24    2    5    5    0    0  0.53183313537E+02 -0.89397693092E+02  0.22350474614E+03  0.26027525811E+03  0.83477099056E+02 0.  0.
          2    1    4    4  501    0  0.76178072922E+01  0.13859280233E+03 -0.83208859880E+02  0.16183235217E+03  0.00000000000E+00 0. -1.
         -1    1    4    4    0  501  0.49997833336E+01  0.30858713086E+02  0.16390214077E+02  0.35297267942E+02  0.00000000000E+00 0.  1.
          5    1    3    3  502    0 -0.31034838899E+02 -0.21754586623E+02 -0.38951955789E+02  0.54550601504E+02  0.47000000000E+01 0. -1.
         13    1    6    6    0    0 -0.63709317678E+01 -0.70636537798E+02  0.12060647190E+03  0.13991436777E+03  0.00000000000E+00 0. -1.
        -14    1    6    6    0    0  0.59554245305E+02 -0.18761155294E+02  0.10289827424E+03  0.12036089034E+03  0.00000000000E+00 0.  1.
         -5    1    5    5    0  503 -0.34766065264E+02 -0.58299235704E+02  0.13853643423E+02  0.69436975839E+02  0.47000000000E+01 0.  1.
<mgrwt>
<rscale>  2 0.22872945E+03</rscale>
<asrwt>0</asrwt>
<pdfrwt beam="1">  1       21 0.54844634E-01 0.22884744E+03</pdfrwt>
<pdfrwt beam="2">  1       21 0.34600359E-01 0.22884744E+03</pdfrwt>
<totfact> 0.24766797E+04</totfact>
</mgrwt>
</event>
<event>
12    1  0.2768653E-001  0.2775263E+03  0.7546771E-02  0.1097219E+00
         21   -1    0    0  504  503  0.00000000000E+00  0.00000000000E+00  0.13288352644E+03  0.13288352644E+03  0.00000000000E+00 0. -1.
         21   -1    0    0  502  504 -0.00000000000E+00 -0.00000000000E+00 -0.61776019335E+03  0.61776019335E+03  0.00000000000E+00 0.  1.
          6    2    1    2  502    0 -0.13645954533E+03 -0.16742707527E+03 -0.14557202739E+03  0.31229630178E+03  0.17229257646E+03 0.  0.
         24    2    3    3    0    0 -0.85465589154E+02 -0.79526990889E+02 -0.89001784554E+01  0.14191997510E+03  0.80206963213E+02 0.  0.
         -6    2    1    2    0  503  0.13645954533E+03  0.16742707527E+03 -0.33930463952E+03  0.43834741801E+03  0.17426355738E+03 0.  0.
        -24    2    5    5    0    0  0.87034153770E+02  0.29331861753E+02 -0.11094433651E+03  0.16690004684E+03  0.84330764220E+02 0.  0.
          2    1    4    4  501    0 -0.55375774545E+02 -0.67970434393E+02  0.28834881056E+02  0.92292506324E+02  0.00000000000E+00 0. -1.
         -1    1    4    4    0  501 -0.30089814609E+02 -0.11556556496E+02 -0.37735059512E+02  0.49627468781E+02  0.00000000000E+00 0.  1.
          5    1    3    3  502    0 -0.50993956176E+02 -0.87900084378E+02 -0.13667184893E+03  0.17037632667E+03  0.47000000000E+01 0. -1.
         13    1    6    6    0    0  0.91286720705E+02  0.49503884150E+02 -0.96177276701E+02  0.14154140199E+03  0.00000000000E+00 0. -1.
        -14    1    6    6    0    0 -0.42525669354E+01 -0.20172022397E+02 -0.14767059810E+02  0.25358644849E+02  0.00000000000E+00 0.  1.
         -5    1    5    5    0  503  0.49425391561E+02  0.13809521351E+03 -0.22836030301E+03  0.27144737117E+03  0.47000000000E+01 0.  1.
<mgrwt>
<rscale>  2 0.27721740E+03</rscale>
<asrwt>0</asrwt>
<pdfrwt beam="1">  1       21 0.20443619E-01 0.27752625E+03</pdfrwt>
<pdfrwt beam="2">  1       21 0.95040032E-01 0.27752625E+03</pdfrwt>
<totfact> 0.19598077E+04</totfact>
</mgrwt>
</event>
<event>
12    1  0.2768653E-001  0.1955894E+03  0.7546771E-02  0.1153917E+00
         21   -1    0    0  504  503  0.00000000000E+00  0.00000000000E+00  0.69307585444E+02  0.69307585444E+02  0.00000000000E+00 0.  1.
         21   -1    0    0  502  504 -0.00000000000E+00 -0.00000000000E+00 -0.10278830953E+04  0.10278830953E+04  0.00000000000E+00 0. -1.
          6    2    1    2  502    0  0.86356530612E+02  0.29672020971E+02 -0.85339968047E+03  0.87511598402E+03  0.17087741707E+03 0.  0.
         24    2    3    3    0    0  0.25977078903E+02  0.33863452661E+02 -0.20550174139E+03  0.22438018837E+03  0.79334489117E+02 0.  0.
         -6    2    1    2    0  503 -0.86356530612E+02 -0.29672020971E+02 -0.10517582937E+03  0.22207469670E+03  0.17296628754E+03 0.  0.
        -24    2    5    5    0    0 -0.18814406510E+02 -0.59023301300E+02 -0.14108000558E+02  0.10486174678E+03  0.83421929184E+02 0.  0.
          4    1    4    4  501    0  0.52986910775E+02  0.13169089041E+02 -0.14542615747E+03  0.15533771241E+03  0.00000000000E+00 0. -1.
         -3    1    4    4    0  501 -0.27009831872E+02  0.20694363620E+02 -0.60075583923E+02  0.69042475963E+02  0.00000000000E+00 0.  1.
          5    1    3    3  502    0  0.60379451710E+02 -0.41914316894E+01 -0.64789793907E+03  0.65073579565E+03  0.47000000000E+01 0. -1.
         13    1    6    6    0    0 -0.22748846488E+02 -0.45754437210E+02 -0.46843897112E+02  0.69320482093E+02  0.00000000000E+00 0. -1.
        -14    1    6    6    0    0  0.39344399784E+01 -0.13268864091E+02  0.32735896554E+02  0.35541264685E+02  0.00000000000E+00 0.  1.
         -5    1    5    5    0  503 -0.67542124102E+02  0.29351280329E+02 -0.91067828815E+02  0.11721294993E+03  0.47000000000E+01 0.  1.
<mgrwt>
<rscale>  2 0.19512656E+03</rscale>
<asrwt>0</asrwt>
<pdfrwt beam="1">  1       21 0.10662706E-01 0.19558941E+03</pdfrwt>
<pdfrwt beam="2">  1       21 0.15813586E+00 0.19558941E+03</pdfrwt>
<totfact> 0.18776808E+04</totfact>
</mgrwt>
</event>
<event>
12    1  0.2768653E-001  0.1760935E+03  0.7546771E-02  0.1171668E+00
         21   -1    0    0  504  503  0.00000000000E+00  0.00000000000E+00  0.14696146644E+03  0.14696146644E+03  0.00000000000E+00 0. -1.
         21   -1    0    0  502  504 -0.00000000000E+00 -0.00000000000E+00 -0.21897158562E+03  0.21897158562E+03  0.00000000000E+00 0. -1.
          6    2    1    2  502    0  0.13269883204E+02 -0.27599155519E+02 -0.77734996861E+00  0.17597774543E+03  0.17329096753E+03 0.  0.
         24    2    3    3    0    0  0.20989096999E+02  0.28526038779E+02  0.48646416396E+02  0.10064898347E+03  0.80681267735E+02 0.  0.
         -6    2    1    2    0  503 -0.13269883204E+02  0.27599155519E+02 -0.71232769203E+02  0.18995530663E+03  0.17341023016E+03 0.  0.
        -24    2    5    5    0    0 -0.13443895988E+02  0.14287650229E+02  0.29574247743E+02  0.88164486229E+02  0.80706041992E+02 0.  0.
          2    1    4    4  501    0  0.15024602350E+02  0.48273250723E+02  0.31039449281E+01  0.50652540759E+02  0.00000000000E+00 0. -1.
         -1    1    4    4    0  501  0.59644946482E+01 -0.19747211945E+02  0.45542471468E+02  0.49996442708E+02  0.00000000000E+00 0.  1.
          5    1    3    3  502    0 -0.77192137946E+01 -0.56125194297E+02 -0.49423766365E+02  0.75328761959E+02  0.47000000000E+01 0. -1.
         11    1    6    6    0    0  0.26558262525E+02 -0.12712624549E+02  0.26814102897E+02  0.39823965717E+02  0.00000000000E+00 0. -1.
        -12    1    6    6    0    0 -0.40002158513E+02  0.27000274778E+02  0.27601448460E+01  0.48340520512E+02  0.00000000000E+00 0.  1.
         -5    1    5    5    0  503  0.17401278400E+00  0.13311505290E+02 -0.10080701695E+03  0.10179082041E+03  0.47000000000E+01 0.  1.
<mgrwt>
<rscale>  2 0.17606410E+03</rscale>
<asrwt>0</asrwt>
<pdfrwt beam="1">  1       21 0.22609456E-01 0.17609347E+03</pdfrwt>
<pdfrwt beam="2">  1       21 0.33687936E-01 0.17609347E+03</pdfrwt>
<totfact> 0.15642773E+05</totfact>
</mgrwt>
</event>
<event>
12    1  0.2768653E-001  0.1895979E+03  0.7546771E-02  0.1159023E+00
         21   -1    0    0  504  503  0.00000000000E+00  0.00000000000E+00  0.20006022060E+04  0.20006022060E+04  0.00000000000E+00 0. -1.
         21   -1    0    0  502  504 -0.00000000000E+00 -0.00000000000E+00 -0.43460793834E+02  0.43460793834E+02  0.00000000000E+00 0. -1.
          6    2    1    2  502    0  0.56740434952E+02  0.48463598603E+02  0.19361537520E+03  0.27037434249E+03  0.17334120749E+03 0.  0.
         24    2    3    3    0    0  0.85809207398E+02  0.14023737320E+02  0.19072460992E+03  0.22497011250E+03  0.81705504138E+02 0.  0.
         -6    2    1    2    0  503 -0.56740434952E+02 -0.48463598603E+02  0.17635260369E+04  0.17736886573E+04  0.17429622136E+03 0.  0.
        -24    2    5    5    0    0 -0.97622126401E+02 -0.62543799686E+02  0.14703733372E+04  0.14773271211E+04  0.83999200449E+02 0.  0.
          4    1    4    4  501    0  0.77466552149E+02  0.30632116985E+02  0.90362229375E+02  0.12290128474E+03  0.00000000000E+00 0. -1.
         -3    1    4    4    0  501  0.83426552488E+01 -0.16608379665E+02  0.10036238055E+03  0.10206882776E+03  0.00000000000E+00 0.  1.
          5    1    3    3  502    0 -0.29068772446E+02  0.34439861283E+02  0.28907652748E+01  0.45404229986E+02  0.47000000000E+01 0. -1.
         13    1    6    6    0    0 -0.82223995907E+02 -0.80005569808E+02  0.10365346202E+04  0.10428641789E+04  0.00000000000E+00 0. -1.
        -14    1    6    6    0    0 -0.15398130494E+02  0.17461770122E+02  0.43383871697E+03  0.43446294224E+03  0.00000000000E+00 0.  1.
         -5    1    5    5    0  503  0.40881691449E+02  0.14080201083E+02  0.29315269979E+03  0.29636153622E+03  0.47000000000E+01 0.  1.
<mgrwt>
<rscale>  2 0.18937814E+03</rscale>
<asrwt>0</asrwt>
<pdfrwt beam="1">  1       21 0.30778488E+00 0.18959792E+03</pdfrwt>
<pdfrwt beam="2">  1       21 0.66862776E-02 0.18959792E+03</pdfrwt>
<totfact> 0.50586570E+03</totfact>
</mgrwt>
</event>
<event>
12    1  0.2768653E-001  0.2007459E+03  0.7546771E-02  0.1149701E+00
         21   -1    0    0  504  503  0.00000000000E+00  0.00000000000E+00  0.17337923976E+03  0.17337923976E+03  0.00000000000E+00 0.  1.
         21   -1    0    0  502  504 -0.00000000000E+00 -0.00000000000E+00 -0.29639575426E+03  0.29639575426E+03  0.00000000000E+00 0.  1.
          6    2    1    2  502    0 -0.50240632894E+02 -0.86853518823E+02  0.49983896977E+02  0.20687508182E+03  0.17387137371E+03 0.  0.
         24    2    3    3    0    0 -0.44416505232E+02  0.19134760357E+02  0.35425812782E+02  0.99630205015E+02  0.79575275991E+02 0.  0.
         -6    2    1    2    0  503  0.50240632894E+02  0.86853518823E+02 -0.17300041147E+03  0.26289991220E+03  0.17064456200E+03 0.  0.
        -24    2    5    5    0    0 -0.65970860022E+00  0.84829144479E+02 -0.17667652182E+03  0.21161105724E+03  0.79801173015E+02 0.  0.
          4    1    4    4  501    0 -0.11484678638E+02  0.46621974381E+02  0.78970701111E+01  0.48660765047E+02  0.00000000000E+00 0. -1.
         -3    1    4    4    0  501 -0.32931826594E+02 -0.27487214024E+02  0.27528742671E+02  0.50969439968E+02  0.00000000000E+00 0.  1.
          5    1    3    3  502    0 -0.58241276622E+01 -0.10598827918E+03  0.14558084194E+02  0.10724487681E+03  0.47000000000E+01 0. -1.
         13    1    6    6    0    0  0.43761127127E+01  0.81943005142E+02 -0.79476858923E+02  0.11423824910E+03  0.00000000000E+00 0. -1.
        -14    1    6    6    0    0 -0.50358213129E+01  0.28861393369E+01 -0.97199662898E+02  0.97372808135E+02  0.00000000000E+00 0.  1.
         -5    1    5    5    0  503  0.50900341494E+02  0.20243743447E+01  0.36761103488E+01  0.51288854959E+02  0.47000000000E+01 0.  1.
<mgrwt>
<rscale>  2 0.20004516E+03</rscale>
<asrwt>0</asrwt>
<pdfrwt beam="1">  1       21 0.26673730E-01 0.20074588E+03</pdfrwt>
<pdfrwt beam="2">  1       21 0.45599346E-01 0.20074588E+03</pdfrwt>
<totfact> 0.61464246E+04</totfact>
</mgrwt>
</event>
<event>
12    1  0.2768653E-001  0.2604434E+03  0.7546771E-02  0.1107478E+00
         21   -1    0    0  504  503  0.00000000000E+00  0.00000000000E+00  0.45915365458E+03  0.45915365458E+03  0.00000000000E+00 0.  1.
         21   -1    0    0  502  504 -0.00000000000E+00 -0.00000000000E+00 -0.16433042226E+03  0.16433042226E+03  0.00000000000E+00 0. -1.
          6    2    1    2  502    0  0.46850933578E+02  0.18378624306E+03  0.25197561373E+03  0.35953962625E+03  0.17264020335E+03 0.  0.
         24    2    3    3    0    0  0.93283502130E+02  0.16460094694E+03  0.20797617471E+03  0.29259114125E+03  0.80995081250E+02 0.  0.
         -6    2    1    2    0  503 -0.46850933578E+02 -0.18378624306E+03  0.42847618582E+02  0.26394445059E+03  0.17848910740E+03 0.  0.
        -24    2    5    5    0    0  0.23391700293E+02 -0.28919501566E+02  0.25986223052E+01  0.89130815718E+02  0.80957027239E+02 0.  0.
          4    1    4    4  501    0  0.59516389687E+02  0.15024731975E+03  0.13368576401E+03  0.20973397729E+03  0.00000000000E+00 0. -1.
         -3    1    4    4    0  501  0.33767112443E+02  0.14353627192E+02  0.74290410705E+02  0.82857163958E+02  0.00000000000E+00 0.  1.
          5    1    3    3  502    0 -0.46432568552E+02  0.19185296125E+02  0.43999439022E+02  0.66948485002E+02  0.47000000000E+01 0. -1.
         13    1    6    6    0    0  0.10772976020E+02 -0.27621088654E+02 -0.37079082389E+02  0.47474623764E+02  0.00000000000E+00 0. -1.
        -14    1    6    6    0    0  0.12618724272E+02 -0.12984129123E+01  0.39677704694E+02  0.41656191954E+02  0.00000000000E+00 0.  1.
         -5    1    5    5    0  503 -0.70242633871E+02 -0.15486674150E+03  0.40248996277E+02  0.17481363487E+03  0.47000000000E+01 0.  1.
<mgrwt>
<rscale>  2 0.25944439E+03</rscale>
<asrwt>0</asrwt>
<pdfrwt beam="1">  1       21 0.70639023E-01 0.26044338E+03</pdfrwt>
<pdfrwt beam="2">  1       21 0.25281604E-01 0.26044338E+03</pdfrwt>
<totfact> 0.26012072E+04</totfact>
</mgrwt>
</event>
<event>
12    1  0.2768653E-001  0.2587042E+03  0.7546771E-02  0.1108211E+00
         21   -1    0    0  504  503  0.00000000000E+00  0.00000000000E+00  0.84667009535E+03  0.84667009535E+03  0.00000000000E+00 0.  1.
         21   -1    0    0  502  504 -0.00000000000E+00 -0.00000000000E+00 -0.22147600881E+03  0.22147600881E+03  0.00000000000E+00 0.  1.
          6    2    1    2  502    0 -0.73060908623E+02 -0.17543438629E+03 -0.11695908159E+03  0.28219496687E+03  0.17274099772E+03 0.  0.
         24    2    3    3    0    0  0.14393354381E+02 -0.86372430616E+02 -0.13552424721E+02  0.12003669001E+03  0.80980079724E+02 0.  0.
         -6    2    1    2    0  503  0.73060908623E+02  0.17543438629E+03  0.74215316814E+03  0.78595113729E+03  0.17553559460E+03 0.  0.
        -24    2    5    5    0    0  0.64326750748E+02  0.22717789811E+02  0.25792735166E+03  0.27811713321E+03  0.78540385895E+02 0.  0.
          2    1    4    4  501    0  0.45471673412E+02 -0.28759876025E+02 -0.66809595967E+01  0.54216591307E+02  0.00000000000E+00 0. -1.
         -1    1    4    4    0  501 -0.31078319031E+02 -0.57612554592E+02 -0.68714651241E+01  0.65820098703E+02  0.00000000000E+00 0.  1.
          5    1    3    3  502    0 -0.87454263004E+02 -0.89061955679E+02 -0.10340665687E+03  0.16215827685E+03  0.47000000000E+01 0. -1.
         11    1    6    6    0    0 -0.67403065545E+01 -0.18525521200E+02  0.30647076400E+02  0.36439950056E+02  0.00000000000E+00 0. -1.
        -12    1    6    6    0    0  0.71067057303E+02  0.41243311011E+02  0.22728027526E+03  0.24167718315E+03  0.00000000000E+00 0.  1.
         -5    1    5    5    0  503  0.87341578752E+01  0.15271659648E+03  0.48422581648E+03  0.50783400408E+03  0.47000000000E+01 0.  1.
<mgrwt>
<rscale>  2 0.25823091E+03</rscale>
<asrwt>0</asrwt>
<pdfrwt beam="1">  1       21 0.13025694E+00 0.25870420E+03</pdfrwt>
<pdfrwt beam="2">  1       21 0.34073232E-01 0.25870420E+03</pdfrwt>
<totfact> 0.33940315E+03</totfact>
</mgrwt>
</event>
<event>
12    1  0.2768653E-001  0.2142125E+03  0.7546771E-02  0.1138331E+00
         21   -1    0    0  504  503  0.00000000000E+00  0.00000000000E+00  0.77983626240E+02  0.77983626240E+02  0.00000000000E+00 0.  1.
         21   -1    0    0  502  504 -0.00000000000E+00 -0.00000000000E+00 -0.62106467487E+03  0.62106467487E+03  0.00000000000E+00 0. -1.
          6    2    1    2  502    0  0.99285849903E+02  0.81757285147E+02 -0.35250159544E+03  0.41232979064E+03  0.17092848738E+03 0.  0.
         24    2    3    3    0    0  0.95560868800E+02  0.27884683564E+02 -0.32890584353E+03  0.35321141623E+03  0.81668937904E+02 0.  0.
         -6    2    1    2    0  503 -0.99285849903E+02 -0.81757285147E+02 -0.19057945319E+03  0.28671851047E+03  0.17130394800E+03 0.  0.
        -24    2    5    5    0    0 -0.33516661593E+02 -0.72062469676E+02 -0.18872084218E+03  0.22004677723E+03  0.80552230001E+02 0.  0.
          4    1    4    4  501    0  0.34858172910E+02  0.51213712346E+02 -0.18981352914E+03  0.19966750461E+03  0.00000000000E+00 0. -1.
         -3    1    4    4    0  501  0.60702695890E+02 -0.23329028782E+02 -0.13909231439E+03  0.15354391162E+03  0.00000000000E+00 0.  1.
          5    1    3    3  502    0  0.37249811031E+01  0.53872601583E+02 -0.23595751903E+02  0.59118374414E+02  0.47000000000E+01 0. -1.
         11    1    6    6    0    0 -0.58075558311E+02 -0.52317756518E+02 -0.10739430783E+03  0.13282866963E+03  0.00000000000E+00 0. -1.
        -12    1    6    6    0    0  0.24558896718E+02 -0.19744713158E+02 -0.81326534345E+02  0.87218107606E+02  0.00000000000E+00 0.  1.
         -5    1    5    5    0  503 -0.65769188310E+02 -0.96948154703E+01 -0.18586110140E+01  0.66671733237E+02  0.47000000000E+01 0.  1.
<mgrwt>
<rscale>  2 0.21413738E+03</rscale>
<asrwt>0</asrwt>
<pdfrwt beam="1">  1       21 0.11997481E-01 0.21421246E+03</pdfrwt>
<pdfrwt beam="2">  1       21 0.95548408E-01 0.21421246E+03</pdfrwt>
<totfact> 0.53083494E+04</totfact>
</mgrwt>
</event>
<event>
12    1  0.2768653E-001  0.1774012E+03  0.7546771E-02  0.1170874E+00
         21   -1    0    0  504  503  0.00000000000E+00  0.00000000000E+00  0.52358102230E+03  0.52358102230E+03  0.00000000000E+00 0.  1.
         21   -1    0    0  502  504 -0.00000000000E+00 -0.00000000000E+00 -0.81278750153E+02  0.81278750153E+02  0.00000000000E+00 0.  1.
          6    2    1    2  502    0 -0.20558616280E+02 -0.29812460199E+02  0.65166885287E+02  0.18899181515E+03  0.17366560905E+03 0.  0.
         24    2    3    3    0    0 -0.34283854626E+02 -0.80082281856E+02  0.39951773164E+02  0.13091144827E+03  0.89180202702E+02 0.  0.
         -6    2    1    2    0  503  0.20558616280E+02  0.29812460199E+02  0.37713538686E+03  0.41586795731E+03  0.17147483316E+03 0.  0.
        -24    2    5    5    0    0  0.14362574668E+02  0.87538667450E+02  0.15885100297E+03  0.18994569593E+03  0.54556616541E+02 0.  0.
          2    1    4    4  501    0  0.13870813001E+02 -0.63926917981E+02 -0.13772735655E+01  0.65428947556E+02  0.00000000000E+00 0. -1.
         -1    1    4    4    0  501 -0.48154667627E+02 -0.16155363875E+02  0.41329046729E+02  0.65482500714E+02  0.00000000000E+00 0.  1.
          5    1    3    3  502    0  0.13725238346E+02  0.50269821656E+02  0.25215112124E+02  0.58080366876E+02  0.47000000000E+01 0. -1.
         13    1    6    6    0    0 -0.17389403500E+02  0.18189138714E+02  0.22719515871E+02  0.33902986928E+02  0.00000000000E+00 0. -1.
        -14    1    6    6    0    0  0.31751978167E+02  0.69349528736E+02  0.13613148709E+03  0.15604270900E+03  0.00000000000E+00 0.  1.
         -5    1    5    5    0  503  0.61960416124E+01 -0.57726207250E+02  0.21828438389E+03  0.22592226138E+03  0.47000000000E+01 0.  1.
<mgrwt>
<rscale>  2 0.17686273E+03</rscale>
<asrwt>0</asrwt>
<pdfrwt beam="1">  1       21 0.80550924E-01 0.17740119E+03</pdfrwt>
<pdfrwt beam="2">  1       21 0.12504423E-01 0.17740119E+03</pdfrwt>
<totfact> 0.74305173E+04</totfact>
</mgrwt>
</event>
<event>
12    1  0.2768653E-001  0.2046675E+03  0.7546771E-02  0.1146244E+00
         21   -1    0    0  504  503  0.00000000000E+00  0.00000000000E+00  0.64178606360E+03  0.64178606360E+03  0.00000000000E+00 0. -1.
         21   -1    0    0  502  504 -0.00000000000E+00 -0.00000000000E+00 -0.11036138325E+03  0.11036138325E+03  0.00000000000E+00 0.  1.
          6    2    1    2  502    0 -0.14419703487E+02  0.10697078075E+03  0.24458751193E+02  0.20612375529E+03  0.17389104693E+03 0.  0.
         24    2    3    3    0    0 -0.17720647437E+02  0.10442651428E+03 -0.40733275297E+02  0.14062978732E+03  0.83057926387E+02 0.  0.
         -6    2    1    2    0  503  0.14419703487E+02 -0.10697078075E+03  0.50696592916E+03  0.54602369156E+03  0.17168792220E+03 0.  0.
        -24    2    5    5    0    0  0.95736806955E+01 -0.59178160851E+02  0.48082330182E+03  0.49113156628E+03  0.80158952912E+02 0.  0.
          2    1    4    4  501    0 -0.53125240742E+01 -0.10950668207E+02 -0.19008417865E+02  0.22571220524E+02  0.00000000000E+00 0. -1.
         -1    1    4    4    0  501 -0.12408123363E+02  0.11537718249E+03 -0.21724857433E+02  0.11805856680E+03  0.00000000000E+00 0.  1.
          5    1    3    3  502    0  0.33009439496E+01  0.25442664747E+01  0.65192026491E+02  0.65493967973E+02  0.47000000000E+01 0. -1.
         11    1    6    6    0    0  0.31977722741E+02 -0.56902835441E+02  0.22381904270E+03  0.23314259865E+03  0.00000000000E+00 0. -1.
        -12    1    6    6    0    0 -0.22404042046E+02 -0.22753254104E+01  0.25700425913E+03  0.25798896762E+03  0.00000000000E+00 0.  1.
         -5    1    5    5    0  503  0.48460227919E+01 -0.47792619902E+02  0.26142627336E+02  0.54892125283E+02  0.47000000000E+01 0.  1.
<mgrwt>
<rscale>  2 0.20419873E+03</rscale>
<asrwt>0</asrwt>
<pdfrwt beam="1">  1       21 0.98736315E-01 0.20466747E+03</pdfrwt>
<pdfrwt beam="2">  1       21 0.16978675E-01 0.20466747E+03</pdfrwt>
<totfact> 0.26268790E+04</totfact>
</mgrwt>
</event>
<event>
12    1  0.2768653E-001  0.2888263E+03  0.7546771E-02  0.1091213E+00
         21   -1    0    0  504  503  0.00000000000E+00  0.00000000000E+00  0.28320864774E+03  0.28320864774E+03  0.00000000000E+00 0. -1.
         21   -1    0    0  502  504 -0.00000000000E+00 -0.00000000000E+00 -0.34003793255E+03  0.34003793255E+03  0.00000000000E+00 0.  1.
          6    2    1    2  502    0 -0.17145382418E+03 -0.15105505074E+03 -0.14469908152E+03  0.32134965435E+03  0.17353309189E+03 0.  0.
         24    2    3    3    0    0 -0.11863427494E+03 -0.40368300946E+02 -0.29044264542E+02  0.15270924386E+03  0.82297344703E+02 0.  0.
         -6    2    1    2    0  503  0.17145382418E+03  0.15105505074E+03  0.87869796714E+02  0.30189692593E+03  0.17665392872E+03 0.  0.
        -24    2    5    5    0    0  0.63431188336E+02  0.88913837552E+02 -0.16068276103E+02  0.13955274460E+03  0.85367399322E+02 0.  0.
          4    1    4    4  501    0 -0.74803739095E+02  0.23029582578E+01  0.16263608921E+02  0.76585951548E+02  0.00000000000E+00 0. -1.
         -3    1    4    4    0  501 -0.43830535848E+02 -0.42671259204E+02 -0.45307873463E+02  0.76123292312E+02  0.00000000000E+00 0.  1.
          5    1    3    3  502    0 -0.52819549237E+02 -0.11068674979E+03 -0.11565481698E+03  0.16864041049E+03  0.47000000000E+01 0. -1.
         11    1    6    6    0    0  0.21031157416E+02  0.53069101671E+02  0.32585361253E+02  0.65730091301E+02  0.00000000000E+00 0. -1.
        -12    1    6    6    0    0  0.42400030920E+02  0.35844735881E+02 -0.48653637356E+02  0.73822653300E+02  0.00000000000E+00 0.  1.
         -5    1    5    5    0  503  0.10802263584E+03  0.62141213186E+02  0.10393807282E+03  0.16234418133E+03  0.47000000000E+01 0.  1.
<mgrwt>
<rscale>  2 0.28835062E+03</rscale>
<asrwt>0</asrwt>
<pdfrwt beam="1">  1       21 0.43570561E-01 0.28882634E+03</pdfrwt>
<pdfrwt beam="2">  1       21 0.52313528E-01 0.28882634E+03</pdfrwt>
<totfact> 0.16689970E+04</totfact>
</mgrwt>
</event>
<event>
12    1  0.2768653E-001  0.1780861E+03  0.7546771E-02  0.1170052E+00
         21   -1    0    0  504  503  0.00000000000E+00  0.00000000000E+00  0.61619949734E+03  0.61619949734E+03  0.00000000000E+00 0.  1.
         21   -1    0    0  502  504 -0.00000000000E+00 -0.00000000000E+00 -0.73630839316E+02  0.73630839316E+02  0.00000000000E+00 0.  1.
          6    2    1    2  502    0  0.37901225819E+02  0.17174535125E+02  0.46324346421E+03  0.49629543189E+03  0.17315652169E+03 0.  0.
         24    2    3    3    0    0  0.57256525740E+02  0.64941673476E+02  0.23515075274E+03  0.26240506833E+03  0.77876907198E+02 0.  0.
         -6    2    1    2    0  503 -0.37901225819E+02 -0.17174535125E+02  0.79325193816E+02  0.19353490477E+03  0.17155700340E+03 0.  0.
        -24    2    5    5    0    0 -0.73115779402E+02 -0.24832561320E+02  0.75878689599E+01  0.11311697190E+03  0.82312212204E+02 0.  0.
          2    1    4    4  501    0 -0.15637279520E+02  0.18697575567E+02  0.23636184723E+02  0.33952806527E+02  0.00000000000E+00 0. -1.
         -1    1    4    4    0  501  0.72893805260E+02  0.46244097909E+02  0.21151456802E+03  0.22845226180E+03  0.00000000000E+00 0.  1.
          5    1    3    3  502    0 -0.19355299921E+02 -0.47767138351E+02  0.22809271147E+03  0.23389036356E+03  0.47000000000E+01 0. -1.
         11    1    6    6    0    0 -0.65175384487E+02  0.76424728281E+01  0.30726117141E+02  0.72459177531E+02  0.00000000000E+00 0. -1.
        -12    1    6    6    0    0 -0.79403949156E+01 -0.32475034148E+02 -0.23138248181E+02  0.40657794372E+02  0.00000000000E+00 0.  1.
         -5    1    5    5    0  503  0.35214553583E+02  0.76580261952E+01  0.71737324856E+02  0.80417932868E+02  0.47000000000E+01 0.  1.
<mgrwt>
<rscale>  2 0.17769608E+03</rscale>
<asrwt>0</asrwt>
<pdfrwt beam="1">  1       21 0.94799919E-01 0.17808607E+03</pdfrwt>
<pdfrwt beam="2">  1       21 0.11327822E-01 0.17808607E+03</pdfrwt>
<totfact> 0.60967532E+04</totfact>
</mgrwt>
</event>
<event>
12    1  0.2768653E-001  0.3619410E+03  0.7546771E-02  0.1057877E+00
         21   -1    0    0  504  503  0.00000000000E+00  0.00000000000E+00  0.14741748404E+03  0.14741748404E+03  0.00000000000E+00 0.  1.
         21   -1    0    0  502  504 -0.00000000000E+00 -0.00000000000E+00 -0.12592703141E+04  0.12592703141E+04  0.00000000000E+00 0. -1.
          6    2    1    2  502    0  0.13330438339E+03  0.28844612239E+03 -0.93792986955E+03  0.10051277454E+04  0.17204104252E+03 0.  0.
         24    2    3    3    0    0  0.29298438991E+02  0.67266282946E+02 -0.39291910329E+03  0.40780322461E+03  0.80838709320E+02 0.  0.
         -6    2    1    2    0  503 -0.13330438339E+03 -0.28844612239E+03 -0.17392296048E+03  0.40156005266E+03  0.17329182197E+03 0.  0.
        -24    2    5    5    0    0 -0.10869303225E+03 -0.10781620687E+03 -0.12324413520E+03  0.21228956284E+03  0.80244824796E+02 0.  0.
          2    1    4    4  501    0  0.46645969540E+02  0.55039015895E+02 -0.36829462109E+03  0.37529464114E+03  0.00000000000E+00 0. -1.
         -1    1    4    4    0  501 -0.17347530549E+02  0.12227267052E+02 -0.24624482202E+02  0.32508583473E+02  0.00000000000E+00 0.  1.
          5    1    3    3  502    0  0.10400594440E+03  0.22117983945E+03 -0.54501076626E+03  0.59732452083E+03  0.47000000000E+01 0. -1.
         11    1    6    6    0    0 -0.10760954422E+03 -0.77773052334E+02 -0.67475638843E+02  0.14893429260E+03  0.00000000000E+00 0. -1.
        -12    1    6    6    0    0 -0.10834880293E+01 -0.30043154538E+02 -0.55768496355E+02  0.63355270235E+02  0.00000000000E+00 0.  1.
         -5    1    5    5    0  503 -0.24611351140E+02 -0.18062991552E+03 -0.50678825277E+02  0.18927048982E+03  0.47000000000E+01 0.  1.
<mgrwt>
<rscale>  2 0.36179160E+03</rscale>
<asrwt>0</asrwt>
<pdfrwt beam="1">  1       21 0.22679614E-01 0.36194099E+03</pdfrwt>
<pdfrwt beam="2">  1       21 0.19373388E+00 0.36194099E+03</pdfrwt>
<totfact> 0.23774046E+03</totfact>
</mgrwt>
</event>
<event>
12    1  0.2768653E-001  0.2540057E+03  0.7546771E-02  0.1110857E+00
         21   -1    0    0  504  503  0.00000000000E+00  0.00000000000E+00  0.15989418057E+03  0.15989418057E+03  0.00000000000E+00 0. -1.
         21   -1    0    0  502  504 -0.00000000000E+00 -0.00000000000E+00 -0.67297447568E+03  0.67297447568E+03  0.00000000000E+00 0.  1.
          6    2    1    2  502    0 -0.10756416295E+03 -0.15254203305E+03 -0.52022809606E+03  0.57876237596E+03  0.17172505613E+03 0.  0.
         24    2    3    3    0    0 -0.76849727506E+02 -0.50196268765E+02 -0.15052491603E+03  0.19389803190E+03  0.80704091666E+02 0.  0.
         -6    2    1    2    0  503  0.10756416295E+03  0.15254203305E+03  0.71478009427E+01  0.25410628029E+03  0.17227823317E+03 0.  0.
        -24    2    5    5    0    0  0.19653418111E+02  0.71470894967E+02 -0.52560824268E+02  0.12036010871E+03  0.78927624119E+02 0.  0.
          4    1    4    4  501    0 -0.14164699623E+02 -0.20070525217E+02  0.35810885819E+01  0.24825166532E+02  0.00000000000E+00 0. -1.
         -3    1    4    4    0  501 -0.62685027883E+02 -0.30125743548E+02 -0.15410600461E+03  0.16907286537E+03  0.00000000000E+00 0.  1.
          5    1    3    3  502    0 -0.30714435448E+02 -0.10234576428E+03 -0.36970318003E+03  0.38486434407E+03  0.47000000000E+01 0. -1.
         11    1    6    6    0    0  0.14933550700E+02  0.63904143884E+02  0.14263156571E+01  0.65641335441E+02  0.00000000000E+00 0. -1.
        -12    1    6    6    0    0  0.47198674110E+01  0.75667510831E+01 -0.53987139925E+02  0.54718773265E+02  0.00000000000E+00 0.  1.
         -5    1    5    5    0  503  0.87910744843E+02  0.81071138082E+02  0.59708625210E+02  0.13374617158E+03  0.47000000000E+01 0.  1.
<mgrwt>
<rscale>  2 0.25391196E+03</rscale>
<asrwt>0</asrwt>
<pdfrwt beam="1">  1       21 0.24599105E-01 0.25400573E+03</pdfrwt>
<pdfrwt beam="2">  1       21 0.10353453E+00 0.25400573E+03</pdfrwt>
<totfact> 0.11362850E+04</totfact>
</mgrwt>
</event>
<event>
12    1  0.2768653E-001  0.1847253E+03  0.7546771E-02  0.1164237E+00
         21   -1    0    0  504  503  0.00000000000E+00  0.00000000000E+00  0.19100993897E+03  0.19100993897E+03  0.00000000000E+00 0. -1.
         21   -1    0    0  502  504 -0.00000000000E+00 -0.00000000000E+00 -0.21993064232E+03  0.21993064232E+03  0.00000000000E+00 0. -1.
          6    2    1    2  502    0  0.47402486867E+02 -0.22156443429E+02 -0.10734169160E+03  0.21025856399E+03  0.17305641054E+03 0.  0.
         24    2    3    3    0    0 -0.18600056843E+02 -0.16013634291E+02 -0.11650610693E+03  0.14317543356E+03  0.79518131427E+02 0.  0.
         -6    2    1    2    0  503 -0.47402486867E+02  0.22156443429E+02  0.78420988252E+02  0.20068201730E+03  0.17715958039E+03 0.  0.
        -24    2    5    5    0    0  0.39228089854E+02 -0.11073499611E+02  0.30299530805E+02  0.96054819097E+02  0.81529143731E+02 0.  0.
          2    1    4    4  501    0  0.25815660899E+02 -0.95086930968E+01 -0.82188880110E+02  0.86671077101E+02  0.00000000000E+00 0. -1.
         -1    1    4    4    0  501 -0.44415717742E+02 -0.65049411943E+01 -0.34317226821E+02  0.56504356461E+02  0.00000000000E+00 0.  1.
          5    1    3    3  502    0  0.66002543710E+02 -0.61428091380E+01  0.91644153273E+01  0.67083130432E+02  0.47000000000E+01 0. -1.
         13    1    6    6    0    0 -0.11716661794E+02  0.25749373505E+02  0.96782017957E+01  0.29899464702E+02  0.00000000000E+00 0. -1.
        -14    1    6    6    0    0  0.50944751648E+02 -0.36822873116E+02  0.20621329009E+02  0.66155354394E+02  0.00000000000E+00 0.  1.
         -5    1    5    5    0  503 -0.86630576721E+02  0.33229943040E+02  0.48121457448E+02  0.10462719821E+03  0.47000000000E+01 0.  1.
<mgrwt>
<rscale>  2 0.18373447E+03</rscale>
<asrwt>0</asrwt>
<pdfrwt beam="1">  1       21 0.29386144E-01 0.18472526E+03</pdfrwt>
<pdfrwt beam="2">  1       21 0.33835483E-01 0.18472526E+03</pdfrwt>
<totfact> 0.93636968E+04</totfact>
</mgrwt>
</event>
<event>
12    1  0.2768653E-001  0.1902195E+03  0.7546771E-02  0.1160377E+00
         21   -1    0    0  504  503  0.00000000000E+00  0.00000000000E+00  0.11266685025E+04  0.11266685025E+04  0.00000000000E+00 0.  1.
         21   -1    0    0  502  504 -0.00000000000E+00 -0.00000000000E+00 -0.49275436327E+02  0.49275436327E+02  0.00000000000E+00 0.  1.
          6    2    1    2  502    0 -0.37223886530E+02 -0.46080565224E+02  0.18493205825E+03  0.26529854321E+03  0.18076065568E+03 0.  0.
         24    2    3    3    0    0 -0.52750385818E+02 -0.35547789089E+02  0.20952629112E+03  0.23400992158E+03  0.82541675615E+02 0.  0.
         -6    2    1    2    0  503  0.37223886530E+02  0.46080565224E+02  0.89246100796E+03  0.91064539565E+03  0.17111209682E+03 0.  0.
        -24    2    5    5    0    0 -0.24449702509E+02  0.38778934539E+02  0.27057641800E+03  0.28564981277E+03  0.79263004238E+02 0.  0.
          4    1    4    4  501    0 -0.66389712665E+02 -0.10875655758E+02  0.18424554952E+03  0.19614356057E+03  0.00000000000E+00 0. -1.
         -3    1    4    4    0  501  0.13639326847E+02 -0.24672133330E+02  0.25280741595E+02  0.37866361002E+02  0.00000000000E+00 0.  1.
          5    1    3    3  502    0  0.15526499288E+02 -0.10532776135E+02 -0.24594232869E+02  0.31288621633E+02  0.47000000000E+01 0. -1.
         13    1    6    6    0    0 -0.28786981319E+02  0.50084292775E+02  0.10676511763E+03  0.12139158545E+03  0.00000000000E+00 0. -1.
        -14    1    6    6    0    0  0.43372788101E+01 -0.11305358236E+02  0.16381130037E+03  0.16425822732E+03  0.00000000000E+00 0.  1.
         -5    1    5    5    0  503  0.61673589039E+02  0.73016306850E+01  0.62188458996E+03  0.62499558288E+03  0.47000000000E+01 0.  1.
<mgrwt>
<rscale>  2 0.18789112E+03</rscale>
<asrwt>0</asrwt>
<pdfrwt beam="1">  1       21 0.17333360E+00 0.19021948E+03</pdfrwt>
<pdfrwt beam="2">  1       21 0.75808372E-02 0.19021948E+03</pdfrwt>
<totfact> 0.26692913E+04</totfact>
</mgrwt>
</event>
<event>
12    1  0.2768653E-001  0.4561457E+03  0.7546771E-02  0.1025910E+00
         21   -1    0    0  504  503  0.00000000000E+00  0.00000000000E+00  0.19517966610E+04  0.19517966610E+04  0.00000000000E+00 0. -1.
         21   -1    0    0  502  504 -0.00000000000E+00 -0.00000000000E+00 -0.16117370372E+03  0.16117370372E+03  0.00000000000E+00 0.  1.
          6    2    1    2  502    0  0.77355195044E+02 -0.41472180341E+03  0.28052547309E+03  0.53550294552E+03  0.17346718188E+03 0.  0.
         24    2    3    3    0    0 -0.10690986007E+02 -0.24202675450E+03  0.11304319958E+03  0.27928407062E+03  0.80805816968E+02 0.  0.
         -6    2    1    2    0  503 -0.77355195044E+02  0.41472180341E+03  0.15100974842E+04  0.15774674192E+04  0.17329468090E+03 0.  0.
        -24    2    5    5    0    0  0.12702001774E+02  0.13125421627E+03  0.58968206784E+03  0.61017697661E+03  0.84864548030E+02 0.  0.
          2    1    4    4  501    0 -0.10142852686E+00 -0.10744626803E+03  0.94364891027E+02  0.14300155055E+03  0.00000000000E+00 0. -1.
         -1    1    4    4    0  501 -0.10589557480E+02 -0.13458048647E+03  0.18678308551E+02  0.13628252007E+03  0.00000000000E+00 0.  1.
          5    1    3    3  502    0  0.88046181051E+02 -0.17269504891E+03  0.16748227351E+03  0.25621887490E+03  0.47000000000E+01 0. -1.
         11    1    6    6    0    0  0.25961829416E+02  0.13724667598E+03  0.49298943561E+03  0.51239559939E+03  0.00000000000E+00 0. -1.
        -12    1    6    6    0    0 -0.13259827642E+02 -0.59924597087E+01  0.96692632239E+02  0.97781377224E+02  0.00000000000E+00 0.  1.
         -5    1    5    5    0  503 -0.90057196818E+02  0.28346758714E+03  0.92041541631E+03  0.96729044255E+03  0.47000000000E+01 0.  1.
<mgrwt>
<rscale>  2 0.45612927E+03</rscale>
<asrwt>0</asrwt>
<pdfrwt beam="1">  1       21 0.30027639E+00 0.45614566E+03</pdfrwt>
<pdfrwt beam="2">  1       21 0.24795956E-01 0.45614566E+03</pdfrwt>
<totfact> 0.41419270E+02</totfact>
</mgrwt>
</event>
<event>
12    1  0.2768653E-001  0.2086124E+03  0.7546771E-02  0.1143146E+00
         21   -1    0    0  504  503  0.00000000000E+00  0.00000000000E+00  0.37034219323E+03  0.37034219323E+03  0.00000000000E+00 0.  1.
         21   -1    0    0  502  504 -0.00000000000E+00 -0.00000000000E+00 -0.11830026314E+04  0.11830026314E+04  0.00000000000E+00 0.  1.
          6    2    1    2  502    0  0.11167124945E+03 -0.13197084611E+02 -0.11436509833E+04  0.11620982411E+04  0.17288759232E+03 0.  0.
         24    2    3    3    0    0  0.81651573534E+02  0.27285094909E+01 -0.11028998426E+04  0.11088295735E+04  0.80252950043E+02 0.  0.
         -6    2    1    2    0  503 -0.11167124945E+03  0.13197084611E+02  0.33099054509E+03  0.39124658348E+03  0.17571145991E+03 0.  0.
        -24    2    5    5    0    0 -0.13364626174E+03 -0.24965781127E+02  0.29198916073E+03  0.33223384359E+03  0.81468051044E+02 0.  0.
          2    1    4    4  501    0  0.97860776051E+02  0.41087418877E+00 -0.91540092559E+03  0.92061705115E+03  0.00000000000E+00 0. -1.
         -1    1    4    4    0  501 -0.16209202517E+02  0.23176353022E+01 -0.18749891704E+03  0.18821252235E+03  0.00000000000E+00 0.  1.
          5    1    3    3  502    0  0.30019675919E+02 -0.15925594102E+02 -0.40751140637E+02  0.53268667648E+02  0.47000000000E+01 0. -1.
         11    1    6    6    0    0 -0.69129662321E+02  0.19047838053E+02  0.86215994229E+02  0.11213798646E+03  0.00000000000E+00 0. -1.
        -12    1    6    6    0    0 -0.64516599416E+02 -0.44013619180E+02  0.20577316650E+03  0.22009585713E+03  0.00000000000E+00 0.  1.
         -5    1    5    5    0  503  0.21975012283E+02  0.38162865737E+02  0.39001384362E+02  0.59012739881E+02  0.47000000000E+01 0.  1.
<mgrwt>
<rscale>  2 0.20801667E+03</rscale>
<asrwt>0</asrwt>
<pdfrwt beam="1">  1       21 0.56975722E-01 0.20861244E+03</pdfrwt>
<pdfrwt beam="2">  1       21 0.18200040E+00 0.20861244E+03</pdfrwt>
<totfact> 0.50110721E+02</totfact>
</mgrwt>
</event>
<event>
12    1  0.2768653E-001  0.2428689E+03  0.7546771E-02  0.1118072E+00
         21   -1    0    0  504  503  0.00000000000E+00  0.00000000000E+00  0.87989445625E+03  0.87989445625E+03  0.00000000000E+00 0.  1.
         21   -1    0    0  502  504 -0.00000000000E+00 -0.00000000000E+00 -0.83487883252E+02  0.83487883252E+02  0.00000000000E+00 0.  1.
          6    2    1    2  502    0  0.12578822339E+03 -0.11570122312E+03  0.18317916530E+03  0.30420374171E+03  0.17255683033E+03 0.  0.
         24    2    3    3    0    0  0.90441589282E+02 -0.82589993596E+02  0.20432970206E+03  0.25114553529E+03  0.79515184960E+02 0.  0.
         -6    2    1    2    0  503 -0.12578822339E+03  0.11570122312E+03  0.61322740770E+03  0.65917859780E+03  0.17105297445E+03 0.  0.
        -24    2    5    5    0    0 -0.99113527876E+02  0.12401784546E+03  0.33385834447E+03  0.37837640928E+03  0.80643632901E+02 0.  0.
          4    1    4    4  501    0  0.19311886427E+02 -0.49813935819E+02  0.13982184219E+03  0.14968141071E+03  0.00000000000E+00 0. -1.
         -3    1    4    4    0  501  0.71129702855E+02 -0.32776057777E+02  0.64507859865E+02  0.10146412458E+03  0.00000000000E+00 0.  1.
          5    1    3    3  502    0  0.35346634105E+02 -0.33111229522E+02 -0.21150536757E+02  0.53058206416E+02  0.47000000000E+01 0. -1.
         11    1    6    6    0    0  0.46665991496E+01 -0.85193735004E+01  0.17039960024E+02  0.19614206843E+02  0.00000000000E+00 0. -1.
        -12    1    6    6    0    0 -0.10378012703E+03  0.13253721896E+03  0.31681838445E+03  0.35876220244E+03  0.00000000000E+00 0.  1.
         -5    1    5    5    0  503 -0.26674695511E+02 -0.83166223377E+01  0.27936906322E+03  0.28080218851E+03  0.47000000000E+01 0.  1.
<mgrwt>
<rscale>  2 0.24260193E+03</rscale>
<asrwt>0</asrwt>
<pdfrwt beam="1">  1       21 0.13536837E+00 0.24286891E+03</pdfrwt>
<pdfrwt beam="2">  1       21 0.12844290E-01 0.24286891E+03</pdfrwt>
<totfact> 0.19657982E+04</totfact>
</mgrwt>
</event>
<event>
12    1  0.2768653E-001  0.2606397E+03  0.7546771E-02  0.1107055E+00
         21   -1    0    0  504  503  0.00000000000E+00  0.00000000000E+00  0.10690415160E+03  0.10690415160E+03  0.00000000000E+00 0.  1.
         21   -1    0    0  502  504 -0.00000000000E+00 -0.00000000000E+00 -0.82268877714E+03  0.82268877714E+03  0.00000000000E+00 0. -1.
          6    2    1    2  502    0 -0.18821394959E+03 -0.46430262917E+02 -0.58140272682E+03  0.63634981219E+03  0.17126497769E+03 0.  0.
         24    2    3    3    0    0 -0.20397946401E+03 -0.22233334963E+02 -0.44199307851E+03  0.49390268933E+03  0.80498709077E+02 0.  0.
         -6    2    1    2    0  503  0.18821394959E+03  0.46430262917E+02 -0.13438189872E+03  0.29324311655E+03  0.17422046539E+03 0.  0.
        -24    2    5    5    0    0  0.18785268369E+02 -0.17911924642E+01 -0.65360038153E+02  0.10398801353E+03  0.78647807935E+02 0.  0.
          4    1    4    4  501    0 -0.48955761619E+02 -0.18654812449E+02 -0.19792449635E+03  0.20474075041E+03  0.00000000000E+00 0. -1.
         -3    1    4    4    0  501 -0.15502370239E+03 -0.35785225135E+01 -0.24406858215E+03  0.28916193892E+03  0.00000000000E+00 0.  1.
          5    1    3    3  502    0  0.15765514414E+02 -0.24196927954E+02 -0.13940964831E+03  0.14244712286E+03  0.47000000000E+01 0. -1.
         13    1    6    6    0    0  0.42241118143E+02 -0.23601968178E+02 -0.33811998905E+02  0.59030638095E+02  0.00000000000E+00 0. -1.
        -14    1    6    6    0    0 -0.23455849775E+02  0.21810775714E+02 -0.31548039248E+02  0.44957375438E+02  0.00000000000E+00 0.  1.
         -5    1    5    5    0  503  0.16942868122E+03  0.48221455381E+02 -0.69021860568E+02  0.18925510301E+03  0.47000000000E+01 0.  1.
<mgrwt>
<rscale>  2 0.26014671E+03</rscale>
<asrwt>0</asrwt>
<pdfrwt beam="1">  1       21 0.16446792E-01 0.26063966E+03</pdfrwt>
<pdfrwt beam="2">  1       21 0.12656751E+00 0.26063966E+03</pdfrwt>
<totfact> 0.14711784E+04</totfact>
</mgrwt>
</event>
<event>
12    1  0.2768653E-001  0.2043782E+03  0.7546771E-02  0.1146343E+00
         21   -1    0    0  504  503  0.00000000000E+00  0.00000000000E+00  0.45821181932E+03  0.45821181932E+03  0.00000000000E+00 0. -1.
         21   -1    0    0  502  504 -0.00000000000E+00 -0.00000000000E+00 -0.13900117970E+03  0.13900117970E+03  0.00000000000E+00 0.  1.
          6    2    1    2  502    0 -0.74148403608E+02  0.78413737809E+02 -0.16245361378E+02  0.20502284429E+03  0.17356196266E+03 0.  0.
         24    2    3    3    0    0 -0.56099576113E+02  0.27179861443E+01 -0.62427875477E+02  0.11441091570E+03  0.77705006963E+02 0.  0.
         -6    2    1    2    0  503  0.74148403608E+02 -0.78413737809E+02  0.33545600100E+03  0.39219015472E+03  0.17215019263E+03 0.  0.
        -24    2    5    5    0    0  0.19242525260E+02  0.36901536492E+00  0.25156444033E+03  0.26459210762E+03  0.79711384518E+02 0.  0.
          2    1    4    4  501    0 -0.47475958924E+02 -0.29688095064E+02 -0.18139029987E+02  0.58858933674E+02  0.00000000000E+00 0. -1.
         -1    1    4    4    0  501 -0.86236171888E+01  0.32406081209E+02 -0.44288845491E+02  0.55551982031E+02  0.00000000000E+00 0.  1.
          5    1    3    3  502    0 -0.18048827494E+02  0.75695751665E+02  0.46182514099E+02  0.90611928589E+02  0.47000000000E+01 0. -1.
         13    1    6    6    0    0  0.14059284388E+02  0.18928253218E+02  0.16592715815E+02  0.28831587981E+02  0.00000000000E+00 0. -1.
        -14    1    6    6    0    0  0.51832408725E+01 -0.18559237853E+02  0.23497172452E+03  0.23576051963E+03  0.00000000000E+00 0.  1.
         -5    1    5    5    0  503  0.54905878347E+02 -0.78782753174E+02  0.83891560664E+02  0.12759804711E+03  0.47000000000E+01 0.  1.
<mgrwt>
<rscale>  2 0.20407817E+03</rscale>
<asrwt>0</asrwt>
<pdfrwt beam="1">  1       21 0.70494126E-01 0.20437822E+03</pdfrwt>
<pdfrwt beam="2">  1       21 0.21384797E-01 0.20437822E+03</pdfrwt>
<totfact> 0.36916868E+04</totfact>
</mgrwt>
</event>
<event>
12    1  0.2768653E-001  0.1833801E+03  0.7546771E-02  0.1167493E+00
         21   -1    0    0  504  503  0.00000000000E+00  0.00000000000E+00  0.76780808919E+03  0.76780808919E+03  0.00000000000E+00 0.  1.
         21   -1    0    0  502  504 -0.00000000000E+00 -0.00000000000E+00 -0.43864541070E+02  0.43864541070E+02  0.00000000000E+00 0. -1.
          6    2    1    2  502    0 -0.62591597937E+02 -0.32949807482E+01  0.24682240369E+03  0.30052408810E+03  0.15957713977E+03 0.  0.
         24    2    3    3    0    0 -0.71750812784E+02  0.13603825038E+02  0.85124847437E+02  0.13762028044E+03  0.79748722533E+02 0.  0.
         -6    2    1    2    0  503  0.62591597937E+02  0.32949807482E+01  0.47712114444E+03  0.51114854217E+03  0.17233595289E+03 0.  0.
        -24    2    5    5    0    0  0.92554941651E+02  0.38946803882E+02  0.27545157930E+03  0.30411821114E+03  0.80814869021E+02 0.  0.
          2    1    4    4  501    0 -0.81996863869E+02  0.30114516399E+02  0.60524628732E+02  0.10627135299E+03  0.00000000000E+00 0. -1.
         -1    1    4    4    0  501  0.10246051085E+02 -0.16510691361E+02  0.24600218704E+02  0.31348927451E+02  0.00000000000E+00 0.  1.
          5    1    3    3  502    0  0.91592148467E+01 -0.16898805786E+02  0.16169755625E+03  0.16290380766E+03  0.47000000000E+01 0. -1.
         13    1    6    6    0    0  0.45634843389E+02 -0.21122402151E+02  0.13906693752E+03  0.14787936947E+03  0.00000000000E+00 0. -1.
        -14    1    6    6    0    0  0.46920098263E+02  0.60069206033E+02  0.13638464177E+03  0.15623884167E+03  0.00000000000E+00 0.  1.
         -5    1    5    5    0  503 -0.29963343714E+02 -0.35651823134E+02  0.20166956514E+03  0.20703033102E+03  0.47000000000E+01 0.  1.
<mgrwt>
<rscale>  2 0.18032061E+03</rscale>
<asrwt>0</asrwt>
<pdfrwt beam="1">  1       21 0.11812431E+00 0.18338006E+03</pdfrwt>
<pdfrwt beam="2">  1       21 0.67483915E-02 0.18338006E+03</pdfrwt>
<totfact> 0.88836938E+04</totfact>
</mgrwt>
</event>
<event>
12    1  0.2768653E-001  0.2838907E+03  0.7546771E-02  0.1094012E+00
         21   -1    0    0  504  503  0.00000000000E+00  0.00000000000E+00  0.15983685036E+04  0.15983685036E+04  0.00000000000E+00 0. -1.
         21   -1    0    0  502  504 -0.00000000000E+00 -0.00000000000E+00 -0.13137798461E+03  0.13137798461E+03  0.00000000000E+00 0. -1.
          6    2    1    2  502    0  0.17813947780E+03  0.13277476928E+03  0.50658287949E+02  0.28524279706E+03  0.17156450166E+03 0.  0.
         24    2    3    3    0    0  0.16782312023E+03  0.92595232886E+02  0.92010186960E+02  0.22648148385E+03  0.78035320134E+02 0.  0.
         -6    2    1    2    0  503 -0.17813947780E+03 -0.13277476928E+03  0.14163322311E+04  0.14445036912E+04  0.17672326424E+03 0.  0.
        -24    2    5    5    0    0 -0.15244324021E+03 -0.11307716413E+03  0.13811370144E+04  0.13964507459E+04  0.80683620266E+02 0.  0.
          4    1    4    4  501    0  0.13915204617E+03  0.63346339754E+02  0.35964937887E+02  0.15706536051E+03  0.00000000000E+00 0. -1.
         -3    1    4    4    0  501  0.28671074056E+02  0.29248893132E+02  0.56045249073E+02  0.69416123348E+02  0.00000000000E+00 0.  1.
          5    1    3    3  502    0  0.10316357575E+02  0.40179536392E+02 -0.41351899011E+02  0.58761313210E+02  0.47000000000E+01 0. -1.
         11    1    6    6    0    0 -0.69564004130E+02 -0.91695543671E+02  0.62744587206E+03  0.63791499885E+03  0.00000000000E+00 0. -1.
        -12    1    6    6    0    0 -0.82879236082E+02 -0.21381620460E+02  0.75369114233E+03  0.75853574701E+03  0.00000000000E+00 0.  1.
         -5    1    5    5    0  503 -0.25696237589E+02 -0.19697605147E+02  0.35195216668E+02  0.48052945290E+02  0.47000000000E+01 0.  1.
<mgrwt>
<rscale>  2 0.28309175E+03</rscale>
<asrwt>0</asrwt>
<pdfrwt beam="1">  1       21 0.24590283E+00 0.28389069E+03</pdfrwt>
<pdfrwt beam="2">  1       21 0.20211999E-01 0.28389069E+03</pdfrwt>
<totfact> 0.14561066E+03</totfact>
</mgrwt>
</event>
<event>
12    1  0.2768653E-001  0.1952653E+03  0.7546771E-02  0.1153966E+00
         21   -1    0    0  504  503  0.00000000000E+00  0.00000000000E+00  0.14614461392E+03  0.14614461392E+03  0.00000000000E+00 0.  1.
         21   -1    0    0  502  504 -0.00000000000E+00 -0.00000000000E+00 -0.26087999563E+03  0.26087999563E+03  0.00000000000E+00 0.  1.
          6    2    1    2  502    0  0.61159649633E+02 -0.67167600136E+02 -0.70215432575E+02  0.20750597082E+03  0.17284829101E+03 0.  0.
         24    2    3    3    0    0 -0.26041293371E+02 -0.59755886399E+02 -0.61101575799E+02  0.11939189506E+03  0.79196635802E+02 0.  0.
         -6    2    1    2    0  503 -0.61159649633E+02  0.67167600136E+02 -0.44519949134E+02  0.19951863872E+03  0.17196997434E+03 0.  0.
        -24    2    5    5    0    0 -0.98460913506E+02  0.72306719774E+02 -0.60944954044E+02  0.15817053570E+03  0.79880020824E+02 0.  0.
          4    1    4    4  501    0 -0.50135761426E+02 -0.58065363506E+02 -0.55249561172E+02  0.94539383447E+02  0.00000000000E+00 0. -1.
         -3    1    4    4    0  501  0.24094468055E+02 -0.16905228925E+01 -0.58520146271E+01  0.24852511618E+02  0.00000000000E+00 0.  1.
          5    1    3    3  502    0  0.87200943003E+02 -0.74117137375E+01 -0.91138567752E+01  0.88114075757E+02  0.47000000000E+01 0. -1.
         11    1    6    6    0    0 -0.37833838661E+01  0.25437408631E+02 -0.44300051118E+02  0.51223727709E+02  0.00000000000E+00 0. -1.
        -12    1    6    6    0    0 -0.94677529640E+02  0.46869311143E+02 -0.16644902925E+02  0.10694680799E+03  0.00000000000E+00 0.  1.
         -5    1    5    5    0  503  0.37301263873E+02 -0.51391196378E+01  0.16425004910E+02  0.41348103021E+02  0.47000000000E+01 0.  1.
<mgrwt>
<rscale>  2 0.19507070E+03</rscale>
<asrwt>0</asrwt>
<pdfrwt beam="1">  1       21 0.22483787E-01 0.19526526E+03</pdfrwt>
<pdfrwt beam="2">  1       21 0.40135384E-01 0.19526526E+03</pdfrwt>
<totfact> 0.11072982E+05</totfact>
</mgrwt>
</event>
<event>
12    1  0.2768653E-001  0.2404082E+03  0.7546771E-02  0.1122113E+00
         21   -1    0    0  504  503  0.00000000000E+00  0.00000000000E+00  0.53736449754E+02  0.53736449754E+02  0.00000000000E+00 0.  1.
         21   -1    0    0  502  504 -0.00000000000E+00 -0.00000000000E+00 -0.16055480362E+04  0.16055480362E+04  0.00000000000E+00 0.  1.
          6    2    1    2  502    0  0.30320863611E+02  0.14066197200E+03 -0.12655910709E+04  0.12854954245E+04  0.17341448179E+03 0.  0.
         24    2    3    3    0    0 -0.22510353530E+02  0.14516019468E+03 -0.10483022480E+04  0.10617815580E+04  0.82850923718E+02 0.  0.
         -6    2    1    2    0  503 -0.30320863611E+02 -0.14066197200E+03 -0.28622051554E+03  0.37378906146E+03  0.19259006676E+03 0.  0.
        -24    2    5    5    0    0 -0.83413931941E+02 -0.12217545196E+03 -0.26681509956E+03  0.31412931375E+03  0.74847867689E+02 0.  0.
          4    1    4    4  501    0 -0.12068916000E+02  0.40500131745E+02 -0.11405880961E+03  0.12163606149E+03  0.00000000000E+00 0. -1.
         -3    1    4    4    0  501 -0.10441437530E+02  0.10466006294E+03 -0.93424343839E+03  0.94014549649E+03  0.00000000000E+00 0.  1.
          5    1    3    3  502    0  0.52831217141E+02 -0.44982226766E+01 -0.21728882291E+03  0.22371386653E+03  0.47000000000E+01 0. -1.
         13    1    6    6    0    0 -0.73181822666E+02 -0.12316061919E+03 -0.26789255005E+03  0.30379357409E+03  0.00000000000E+00 0. -1.
        -14    1    6    6    0    0 -0.10232109275E+02  0.98516722907E+00  0.10774504866E+01  0.10335739656E+02  0.00000000000E+00 0.  1.
         -5    1    5    5    0  503  0.53093068330E+02 -0.18486520041E+02 -0.19405415978E+02  0.59659747713E+02  0.47000000000E+01 0.  1.
<mgrwt>
<rscale>  2 0.23654896E+03</rscale>
<asrwt>0</asrwt>
<pdfrwt beam="1">  1       21 0.82671470E-02 0.24040815E+03</pdfrwt>
<pdfrwt beam="2">  1       21 0.24700736E+00 0.24040815E+03</pdfrwt>
<totfact> 0.75194909E+03</totfact>
</mgrwt>
</event>
<event>
12    1  0.2768653E-001  0.1949466E+03  0.7546771E-02  0.1154221E+00
         21   -1    0    0  504  503  0.00000000000E+00  0.00000000000E+00  0.43581510591E+02  0.43581510591E+02  0.00000000000E+00 0.  1.
         21   -1    0    0  502  504 -0.00000000000E+00 -0.00000000000E+00 -0.87881495226E+03  0.87881495226E+03  0.00000000000E+00 0. -1.
          6    2    1    2  502    0 -0.66489294938E+02 -0.61105236504E+02 -0.46704994737E+03  0.50610257390E+03  0.17277003706E+03 0.  0.
         24    2    3    3    0    0 -0.99046655310E+01 -0.97705363237E+02 -0.29304586868E+03  0.31944540431E+03  0.80777749275E+02 0.  0.
         -6    2    1    2    0  503  0.66489294938E+02  0.61105236504E+02 -0.36818349430E+03  0.41629388894E+03  0.17200825628E+03 0.  0.
        -24    2    5    5    0    0 -0.26033846223E+02  0.25947492530E+01 -0.17110313522E+03  0.19080161257E+03  0.80277509957E+02 0.  0.
          4    1    4    4  501    0  0.16525677649E+02 -0.44677287423E+02 -0.22143606721E+03  0.22650185407E+03  0.00000000000E+00 0. -1.
         -3    1    4    4    0  501 -0.26430343180E+02 -0.53028075814E+02 -0.71609801471E+02  0.92943550244E+02  0.00000000000E+00 0.  1.
          5    1    3    3  502    0 -0.56584629407E+02  0.36600126734E+02 -0.17400407869E+03  0.18665716959E+03  0.47000000000E+01 0. -1.
         13    1    6    6    0    0 -0.18967049869E+02  0.40928106453E+02 -0.83150675023E+02  0.94598592143E+02  0.00000000000E+00 0. -1.
        -14    1    6    6    0    0 -0.70667963540E+01 -0.38333357200E+02 -0.87952460193E+02  0.96203020425E+02  0.00000000000E+00 0.  1.
         -5    1    5    5    0  503  0.92523141161E+02  0.58510487251E+02 -0.19708035908E+03  0.22549227637E+03  0.47000000000E+01 0.  1.
<mgrwt>
<rscale>  2 0.19477764E+03</rscale>
<asrwt>0</asrwt>
<pdfrwt beam="1">  1       21 0.67048481E-02 0.19494656E+03</pdfrwt>
<pdfrwt beam="2">  1       21 0.13520229E+00 0.19494656E+03</pdfrwt>
<totfact> 0.63689300E+04</totfact>
</mgrwt>
</event>
<event>
12    1  0.2768653E-001  0.1789852E+03  0.7546771E-02  0.1169272E+00
         21   -1    0    0  504  503  0.00000000000E+00  0.00000000000E+00  0.80380662786E+03  0.80380662786E+03  0.00000000000E+00 0.  1.
         21   -1    0    0  502  504 -0.00000000000E+00 -0.00000000000E+00 -0.49475701904E+02  0.49475701904E+02  0.00000000000E+00 0.  1.
          6    2    1    2  502    0  0.20548307022E+02 -0.42943593131E+02  0.18646640970E+03  0.25846747902E+03  0.17253791076E+03 0.  0.
         24    2    3    3    0    0 -0.53592130038E+02 -0.28203513200E+02  0.12351734168E+03  0.15998524951E+03  0.81677364097E+02 0.  0.
         -6    2    1    2    0  503 -0.20548307022E+02  0.42943593131E+02  0.56786451625E+03  0.59481485075E+03  0.17049402552E+03 0.  0.
        -24    2    5    5    0    0 -0.23158917576E+02  0.86608487606E+02  0.49621289786E+03  0.51073463479E+03  0.81149624665E+02 0.  0.
          2    1    4    4  501    0 -0.74213414528E+02 -0.15163924566E+02  0.80525795853E+02  0.11055306102E+03  0.00000000000E+00 0. -1.
         -1    1    4    4    0  501  0.20621284489E+02 -0.13039588635E+02  0.42991545829E+02  0.49432188486E+02  0.00000000000E+00 0.  1.
          5    1    3    3  502    0  0.74140437061E+02 -0.14740079931E+02  0.62949068022E+02  0.98482229507E+02  0.47000000000E+01 0. -1.
         11    1    6    6    0    0  0.18514601611E+02  0.12341401405E+02  0.23363534931E+03  0.23469251609E+03  0.00000000000E+00 0. -1.
        -12    1    6    6    0    0 -0.41673519187E+02  0.74267086201E+02  0.26257754855E+03  0.27604211870E+03  0.00000000000E+00 0.  1.
         -5    1    5    5    0  503  0.26106105544E+01 -0.43664894474E+02  0.71651618396E+02  0.84080215959E+02  0.47000000000E+01 0.  1.
<mgrwt>
<rscale>  2 0.17849084E+03</rscale>
<asrwt>0</asrwt>
<pdfrwt beam="1">  1       21 0.12366255E+00 0.17898524E+03</pdfrwt>
<pdfrwt beam="2">  1       21 0.76116470E-02 0.17898524E+03</pdfrwt>
<totfact> 0.64550625E+04</totfact>
</mgrwt>
</event>
<event>
12    1  0.2768653E-001  0.1776517E+03  0.7546771E-02  0.1170456E+00
         21   -1    0    0  504  503  0.00000000000E+00  0.00000000000E+00  0.16326579570E+04  0.16326579570E+04  0.00000000000E+00 0. -1.
         21   -1    0    0  502  504 -0.00000000000E+00 -0.00000000000E+00 -0.23788515688E+02  0.23788515688E+02  0.00000000000E+00 0. -1.
          6    2    1    2  502    0 -0.23651892082E+02 -0.10755739792E+02  0.43690400195E+03  0.47109288745E+03  0.17426503881E+03 0.  0.
         24    2    3    3    0    0  0.53116886199E+02  0.92261163870E+01  0.22514147282E+03  0.24491114938E+03  0.79914100652E+02 0.  0.
         -6    2    1    2    0  503  0.23651892082E+02  0.10755739792E+02  0.11719654394E+04  0.11853535852E+04  0.17574138111E+03 0.  0.
        -24    2    5    5    0    0  0.52188266205E+02 -0.39904003723E+02  0.49684050050E+03  0.50771318847E+03  0.81278866636E+02 0.  0.
          2    1    4    4  501    0  0.57551587246E+02  0.49332733143E+01  0.75108630951E+02  0.94751405390E+02  0.00000000000E+00 0. -1.
         -1    1    4    4    0  501 -0.44347010469E+01  0.42928430727E+01  0.15003284187E+03  0.15015974399E+03  0.00000000000E+00 0.  1.
          5    1    3    3  502    0 -0.76768778282E+02 -0.19981856179E+02  0.21176252913E+03  0.22618173808E+03  0.47000000000E+01 0. -1.
         13    1    6    6    0    0  0.66255448679E+02 -0.34048531645E+02  0.47655773196E+03  0.48234464740E+03  0.00000000000E+00 0. -1.
        -14    1    6    6    0    0 -0.14067182474E+02 -0.58554720773E+01  0.20282768541E+02  0.25368541063E+02  0.00000000000E+00 0.  1.
         -5    1    5    5    0  503 -0.28536374122E+02  0.50659743515E+02  0.67512493887E+03  0.67764039678E+03  0.47000000000E+01 0.  1.
<mgrwt>
<rscale>  2 0.17728550E+03</rscale>
<asrwt>0</asrwt>
<pdfrwt beam="1">  1       21 0.25117806E+00 0.17765171E+03</pdfrwt>
<pdfrwt beam="2">  1       21 0.36597729E-02 0.17765171E+03</pdfrwt>
<totfact> 0.30138424E+04</totfact>
</mgrwt>
</event>
<event>
12    1  0.2768653E-001  0.1836316E+03  0.7546771E-02  0.1164973E+00
         21   -1    0    0  504  503  0.00000000000E+00  0.00000000000E+00  0.10559464309E+03  0.10559464309E+03  0.00000000000E+00 0.  1.
         21   -1    0    0  502  504 -0.00000000000E+00 -0.00000000000E+00 -0.31581966771E+03  0.31581966771E+03  0.00000000000E+00 0.  1.
          6    2    1    2  502    0 -0.35328100122E+01  0.54181453320E+02 -0.93239622399E+02  0.20594703737E+03  0.17542076384E+03 0.  0.
         24    2    3    3    0    0 -0.66702414237E+02  0.50750829761E+02 -0.55713532503E+02  0.13224177637E+03  0.85784794266E+02 0.  0.
         -6    2    1    2    0  503  0.35328100122E+01 -0.54181453320E+02 -0.11698540222E+03  0.21546727344E+03  0.17260489843E+03 0.  0.
        -24    2    5    5    0    0 -0.29220323191E+02 -0.79913858524E+02 -0.12693455263E+03  0.17238595491E+03  0.79777720754E+02 0.  0.
          4    1    4    4  501    0 -0.32909897267E+02 -0.22087772712E+02 -0.18035689960E+02  0.43545575594E+02  0.00000000000E+00 0. -1.
         -3    1    4    4    0  501 -0.33792516970E+02  0.72838602473E+02 -0.37677842543E+02  0.88696200776E+02  0.00000000000E+00 0.  1.
          5    1    3    3  502    0  0.63169604225E+02  0.34306235590E+01 -0.37526089896E+02  0.73705260998E+02  0.47000000000E+01 0. -1.
         11    1    6    6    0    0 -0.86801994064E+00  0.13718908892E+02 -0.37103875738E+02  0.39568415619E+02  0.00000000000E+00 0. -1.
        -12    1    6    6    0    0 -0.28352303250E+02 -0.93632767416E+02 -0.89830676890E+02  0.13281753929E+03  0.00000000000E+00 0.  1.
         -5    1    5    5    0  503  0.32753133203E+02  0.25732405204E+02  0.99491504078E+01  0.43081318527E+02  0.47000000000E+01 0.  1.
<mgrwt>
<rscale>  2 0.18295584E+03</rscale>
<asrwt>0</asrwt>
<pdfrwt beam="1">  1       21 0.16245330E-01 0.18363157E+03</pdfrwt>
<pdfrwt beam="2">  1       21 0.48587642E-01 0.18363157E+03</pdfrwt>
<totfact> 0.13756375E+05</totfact>
</mgrwt>
</event>
<event>
12    1  0.2768653E-001  0.2154843E+03  0.7546771E-02  0.1137749E+00
         21   -1    0    0  504  503  0.00000000000E+00  0.00000000000E+00  0.20609472939E+03  0.20609472939E+03  0.00000000000E+00 0. -1.
         21   -1    0    0  502  504 -0.00000000000E+00 -0.00000000000E+00 -0.25327689793E+03  0.25327689793E+03  0.00000000000E+00 0. -1.
          6    2    1    2  502    0  0.81433386197E+01 -0.12557038036E+03 -0.10332137055E+03  0.23897445793E+03  0.17492641750E+03 0.  0.
         24    2    3    3    0    0 -0.37061219606E+02 -0.16843847514E+02 -0.77329494937E+02  0.11829894828E+03  0.79734190783E+02 0.  0.
         -6    2    1    2    0  503 -0.81433386197E+01  0.12557038036E+03  0.56139202009E+02  0.22039716940E+03  0.17201473160E+03 0.  0.
        -24    2    5    5    0    0  0.25412352367E+02  0.14957290822E+03  0.40216004251E+02  0.17592533597E+03  0.79464170000E+02 0.  0.
          2    1    4    4  501    0 -0.27633416744E+02 -0.11283070231E+02 -0.93849608647E+02  0.98481787341E+02  0.00000000000E+00 0. -1.
         -1    1    4    4    0  501 -0.94278028612E+01 -0.55607772829E+01  0.16520113710E+02  0.19817160941E+02  0.00000000000E+00 0.  1.
          5    1    3    3  502    0  0.45204558225E+02 -0.10872653285E+03 -0.25991875614E+02  0.12067550964E+03  0.47000000000E+01 0. -1.
         11    1    6    6    0    0 -0.17878484783E+02  0.10839684151E+03  0.37616939039E+02  0.11612299329E+03  0.00000000000E+00 0. -1.
        -12    1    6    6    0    0  0.43290837150E+02  0.41176066709E+02  0.25990652122E+01  0.59802342686E+02  0.00000000000E+00 0.  1.
         -5    1    5    5    0  503 -0.33555690987E+02 -0.24002527857E+02  0.15923197758E+02  0.44471833423E+02  0.47000000000E+01 0.  1.
<mgrwt>
<rscale>  2 0.21489265E+03</rscale>
<asrwt>0</asrwt>
<pdfrwt beam="1">  1       21 0.31706881E-01 0.21548431E+03</pdfrwt>
<pdfrwt beam="2">  1       21 0.38965677E-01 0.21548431E+03</pdfrwt>
<totfact> 0.60102149E+04</totfact>
</mgrwt>
</event>
<event>
12    1  0.2768653E-001  0.1856536E+03  0.7546771E-02  0.1163555E+00
         21   -1    0    0  504  503  0.00000000000E+00  0.00000000000E+00  0.42754392528E+02  0.42754392528E+02  0.00000000000E+00 0. -1.
         21   -1    0    0  502  504 -0.00000000000E+00 -0.00000000000E+00 -0.84903423824E+03  0.84903423824E+03  0.00000000000E+00 0. -1.
          6    2    1    2  502    0  0.30013714215E+02 -0.40293222600E+02 -0.28624201786E+03  0.34117699632E+03  0.17872572058E+03 0.  0.
         24    2    3    3    0    0  0.23419231238E+02  0.15449099018E+02 -0.26953058153E+03  0.28242279877E+03  0.79553553232E+02 0.  0.
         -6    2    1    2    0  503 -0.30013714215E+02  0.40293222600E+02 -0.52003782785E+03  0.55061163445E+03  0.17380869590E+03 0.  0.
        -24    2    5    5    0    0  0.22829650171E+00 -0.42269897047E+02 -0.30408575542E+03  0.31739792233E+03  0.80538798907E+02 0.  0.
          2    1    4    4  501    0  0.50862859450E+02  0.25254719134E+01 -0.20321287885E+03  0.20949673652E+03  0.00000000000E+00 0. -1.
         -1    1    4    4    0  501 -0.27443628213E+02  0.12923627104E+02 -0.66317702681E+02  0.72926062254E+02  0.00000000000E+00 0.  1.
          5    1    3    3  502    0  0.65944829774E+01 -0.55742321618E+02 -0.16711436328E+02  0.58754197546E+02  0.47000000000E+01 0. -1.
         13    1    6    6    0    0  0.13170279591E+02  0.18658264381E+02 -0.14070706598E+03  0.14254846723E+03  0.00000000000E+00 0. -1.
        -14    1    6    6    0    0 -0.12941983089E+02 -0.60928161429E+02 -0.16337868945E+03  0.17484945509E+03  0.00000000000E+00 0.  1.
         -5    1    5    5    0  503 -0.30242010717E+02  0.82563119648E+02 -0.21595207243E+03  0.23321371213E+03  0.47000000000E+01 0.  1.
<mgrwt>
<rscale>  2 0.18445995E+03</rscale>
<asrwt>0</asrwt>
<pdfrwt beam="1">  1       21 0.65775991E-02 0.18565358E+03</pdfrwt>
<pdfrwt beam="2">  1       21 0.13062065E+00 0.18565358E+03</pdfrwt>
<totfact> 0.72165953E+04</totfact>
</mgrwt>
</event>
<event>
12    1  0.2768653E-001  0.2180006E+03  0.7546771E-02  0.1135642E+00
         21   -1    0    0  504  503  0.00000000000E+00  0.00000000000E+00  0.32967256277E+03  0.32967256277E+03  0.00000000000E+00 0.  1.
         21   -1    0    0  502  504 -0.00000000000E+00 -0.00000000000E+00 -0.20530649145E+03  0.20530649145E+03  0.00000000000E+00 0.  1.
          6    2    1    2  502    0 -0.48952574965E+02 -0.12205658348E+03 -0.85013374309E+02  0.23271424181E+03  0.17214668269E+03 0.  0.
         24    2    3    3    0    0 -0.84439322483E+02 -0.13779003943E+03 -0.80205521486E+02  0.19331809562E+03  0.69446859327E+02 0.  0.
         -6    2    1    2    0  503  0.48952574965E+02  0.12205658348E+03  0.20937944563E+03  0.30226481241E+03  0.17386805459E+03 0.  0.
        -24    2    5    5    0    0  0.47466452187E+02  0.12014209352E+02  0.14593835043E+03  0.17514913586E+03  0.83557240008E+02 0.  0.
          4    1    4    4  501    0 -0.60537904961E+02 -0.71425890178E+02 -0.10612800532E+02  0.94229121082E+02  0.00000000000E+00 0. -1.
         -3    1    4    4    0  501 -0.23901417522E+02 -0.66364149253E+02 -0.69592720954E+02  0.99088974541E+02  0.00000000000E+00 0.  1.
          5    1    3    3  502    0  0.35486747519E+02  0.15733455948E+02 -0.48078528225E+01  0.39396146186E+02  0.47000000000E+01 0. -1.
         13    1    6    6    0    0  0.45768767418E+02  0.41798540292E+02  0.12221273568E+03  0.13703229840E+03  0.00000000000E+00 0. -1.
        -14    1    6    6    0    0  0.16976847693E+01 -0.29784330940E+02  0.23725614746E+02  0.38116837463E+02  0.00000000000E+00 0.  1.
         -5    1    5    5    0  503  0.14861227776E+01  0.11004237413E+03  0.63441095197E+02  0.12711567655E+03  0.47000000000E+01 0.  1.
<mgrwt>
<rscale>  2 0.21765720E+03</rscale>
<asrwt>0</asrwt>
<pdfrwt beam="1">  1       21 0.50718856E-01 0.21800061E+03</pdfrwt>
<pdfrwt beam="2">  1       21 0.31585614E-01 0.21800061E+03</pdfrwt>
<totfact> 0.35173045E+04</totfact>
</mgrwt>
</event>
<event>
12    1  0.2768653E-001  0.1773755E+03  0.7546771E-02  0.1172020E+00
         21   -1    0    0  504  503  0.00000000000E+00  0.00000000000E+00  0.32012406336E+02  0.32012406336E+02  0.00000000000E+00 0. -1.
         21   -1    0    0  502  504 -0.00000000000E+00 -0.00000000000E+00 -0.94677317300E+03  0.94677317300E+03  0.00000000000E+00 0. -1.
          6    2    1    2  502    0 -0.37156348744E+02  0.13052378022E+02 -0.44785827554E+03  0.47932586454E+03  0.16620857565E+03 0.  0.
         24    2    3    3    0    0  0.23577157210E+02  0.52978343024E+02 -0.26285567813E+03  0.28050259509E+03  0.78905076847E+02 0.  0.
         -6    2    1    2    0  503  0.37156348744E+02 -0.13052378022E+02 -0.46690249112E+03  0.49945971480E+03  0.17294829189E+03 0.  0.
        -24    2    5    5    0    0  0.15221325365E+02 -0.37999482227E+02 -0.45726499279E+03  0.46455305880E+03  0.71011417481E+02 0.  0.
          2    1    4    4  501    0  0.49710060648E+01  0.39062343040E+02 -0.38922604328E+02  0.55367379140E+02  0.00000000000E+00 0. -1.
         -1    1    4    4    0  501  0.18606151145E+02  0.13915999983E+02 -0.22393307380E+03  0.22513521595E+03  0.00000000000E+00 0.  1.
          5    1    3    3  502    0 -0.60733505954E+02 -0.39925965002E+02 -0.18500259741E+03  0.19882326945E+03  0.47000000000E+01 0. -1.
         13    1    6    6    0    0  0.25406293132E+02 -0.11055447431E+02 -0.39474889403E+03  0.39572009298E+03  0.00000000000E+00 0. -1.
        -14    1    6    6    0    0 -0.10184967766E+02 -0.26944034796E+02 -0.62516098759E+02  0.68832965820E+02  0.00000000000E+00 0.  1.
         -5    1    5    5    0  503  0.21935023379E+02  0.24947104205E+02 -0.96374983288E+01  0.34906655997E+02  0.47000000000E+01 0.  1.
<mgrwt>
<rscale>  2 0.17571099E+03</rscale>
<asrwt>0</asrwt>
<pdfrwt beam="1">  1       21 0.49249856E-02 0.17737551E+03</pdfrwt>
<pdfrwt beam="2">  1       21 0.14565741E+00 0.17737551E+03</pdfrwt>
<totfact> 0.89755279E+04</totfact>
</mgrwt>
</event>
<event>
12    1  0.2768653E-001  0.2125925E+03  0.7546771E-02  0.1140213E+00
         21   -1    0    0  504  503  0.00000000000E+00  0.00000000000E+00  0.56277128210E+02  0.56277128210E+02  0.00000000000E+00 0.  1.
         21   -1    0    0  502  504 -0.00000000000E+00 -0.00000000000E+00 -0.95892818815E+03  0.95892818815E+03  0.00000000000E+00 0.  1.
          6    2    1    2  502    0  0.98817232022E+02  0.60694402023E+02 -0.66130092353E+03  0.69357593260E+03  0.17401151410E+03 0.  0.
         24    2    3    3    0    0  0.36290130599E+02  0.58993279321E+02 -0.58478799190E+03  0.59463731053E+03  0.82579386166E+02 0.  0.
         -6    2    1    2    0  503 -0.98817232022E+02 -0.60694402023E+02 -0.24135013640E+03  0.32162938375E+03  0.17817664373E+03 0.  0.
        -24    2    5    5    0    0 -0.37969892325E+02 -0.10286394130E+03 -0.12526158646E+03  0.18386396639E+03  0.78056325523E+02 0.  0.
          4    1    4    4  501    0 -0.19139893144E+00  0.68710453281E+02 -0.33098674281E+03  0.33804346901E+03  0.00000000000E+00 0. -1.
         -3    1    4    4    0  501  0.36481529530E+02 -0.97171739605E+01 -0.25380124909E+03  0.25659384153E+03  0.00000000000E+00 0.  1.
          5    1    3    3  502    0  0.62527101423E+02  0.17011227017E+01 -0.76512931632E+02  0.98938622073E+02  0.47000000000E+01 0. -1.
         13    1    6    6    0    0  0.95572309496E+01 -0.65549119038E+02 -0.96231428364E+02  0.11682686110E+03  0.00000000000E+00 0. -1.
        -14    1    6    6    0    0 -0.47527123275E+02 -0.37314822260E+02 -0.29030158093E+02  0.67037105293E+02  0.00000000000E+00 0.  1.
         -5    1    5    5    0  503 -0.60847339696E+02  0.42169539276E+02 -0.11608854995E+03  0.13776541736E+03  0.47000000000E+01 0.  1.
<mgrwt>
<rscale>  2 0.21171749E+03</rscale>
<asrwt>0</asrwt>
<pdfrwt beam="1">  1       21 0.86580200E-02 0.21259250E+03</pdfrwt>
<pdfrwt beam="2">  1       21 0.14752741E+00 0.21259250E+03</pdfrwt>
<totfact> 0.32250061E+04</totfact>
</mgrwt>
</event>
<event>
12    1  0.2768653E-001  0.1818677E+03  0.7546771E-02  0.1166567E+00
         21   -1    0    0  504  503  0.00000000000E+00  0.00000000000E+00  0.18362212033E+03  0.18362212033E+03  0.00000000000E+00 0. -1.
         21   -1    0    0  502  504 -0.00000000000E+00 -0.00000000000E+00 -0.18915362183E+03  0.18915362183E+03  0.00000000000E+00 0. -1.
          6    2    1    2  502    0 -0.23304146362E+02  0.39064608151E+02 -0.48378006232E+02  0.18819217942E+03  0.17608730239E+03 0.  0.
         24    2    3    3    0    0 -0.49389933250E+01 -0.17430395662E+02 -0.84877359186E+02  0.11831187413E+03  0.80407220505E+02 0.  0.
         -6    2    1    2    0  503  0.23304146362E+02 -0.39064608151E+02  0.42846504725E+02  0.18458356274E+03  0.17368402868E+03 0.  0.
        -24    2    5    5    0    0  0.75943784279E+02 -0.13597647867E+01  0.90651850873E+01  0.11139986066E+03  0.80984220960E+02 0.  0.
          4    1    4    4  501    0 -0.17072063495E+02 -0.45108854725E+02 -0.33564380210E+02  0.58760801096E+02  0.00000000000E+00 0. -1.
         -3    1    4    4    0  501  0.12133070170E+02  0.27678459063E+02 -0.51312978977E+02  0.59551073033E+02  0.00000000000E+00 0.  1.
          5    1    3    3  502    0 -0.18365153037E+02  0.56495003813E+02  0.36499352954E+02  0.69880305294E+02  0.47000000000E+01 0. -1.
         13    1    6    6    0    0  0.25378857631E+02 -0.20453185581E+02 -0.30324805224E+02  0.44519804884E+02  0.00000000000E+00 0. -1.
        -14    1    6    6    0    0  0.50564926647E+02  0.19093420794E+02  0.39389990311E+02  0.66880055780E+02  0.00000000000E+00 0.  1.
         -5    1    5    5    0  503 -0.52639637916E+02 -0.37704843364E+02  0.33781319637E+02  0.73183702076E+02  0.47000000000E+01 0.  1.
<mgrwt>
<rscale>  2 0.18128343E+03</rscale>
<asrwt>0</asrwt>
<pdfrwt beam="1">  1       21 0.28249557E-01 0.18186771E+03</pdfrwt>
<pdfrwt beam="2">  1       21 0.29100557E-01 0.18186771E+03</pdfrwt>
<totfact> 0.13589363E+05</totfact>
</mgrwt>
</event>
<event>
12    1  0.2768653E-001  0.2322701E+03  0.7546771E-02  0.1125453E+00
         21   -1    0    0  504  503  0.00000000000E+00  0.00000000000E+00  0.10290239881E+03  0.10290239881E+03  0.00000000000E+00 0.  1.
         21   -1    0    0  502  504 -0.00000000000E+00 -0.00000000000E+00 -0.77885597520E+03  0.77885597520E+03  0.00000000000E+00 0.  1.
          6    2    1    2  502    0 -0.92196484593E+02  0.12225246989E+03 -0.59370013620E+03  0.63751803278E+03  0.17465260440E+03 0.  0.
         24    2    3    3    0    0 -0.13353684796E+03  0.94753809351E+02 -0.47797074971E+03  0.51149984809E+03  0.79785229600E+02 0.  0.
         -6    2    1    2    0  503  0.92196484593E+02 -0.12225246989E+03 -0.82253440190E+02  0.24424034123E+03  0.17158629810E+03 0.  0.
        -24    2    5    5    0    0 -0.16905261320E+02 -0.41976209436E+02 -0.23828442533E+02  0.96649557961E+02  0.82009465074E+02 0.  0.
          4    1    4    4  501    0 -0.69631190012E+02  0.43460242921E+01 -0.21934523947E+03  0.23017324915E+03  0.00000000000E+00 0. -1.
         -3    1    4    4    0  501 -0.63905657953E+02  0.90407785059E+02 -0.25862551025E+03  0.28132659894E+03  0.00000000000E+00 0.  1.
          5    1    3    3  502    0  0.41340363371E+02  0.27498660542E+02 -0.11572938649E+03  0.12601818469E+03  0.47000000000E+01 0. -1.
         13    1    6    6    0    0 -0.90731613829E+01  0.24744342139E+02 -0.90379539634E+01  0.27861969371E+02  0.00000000000E+00 0. -1.
        -14    1    6    6    0    0 -0.78320999371E+01 -0.66720551575E+02 -0.14790488570E+02  0.68787588590E+02  0.00000000000E+00 0.  1.
         -5    1    5    5    0  503  0.10910174591E+03 -0.80276260457E+02 -0.58424997657E+02  0.14759078327E+03  0.47000000000E+01 0.  1.
<mgrwt>
<rscale>  2 0.23169374E+03</rscale>
<asrwt>0</asrwt>
<pdfrwt beam="1">  1       21 0.15831138E-01 0.23227008E+03</pdfrwt>
<pdfrwt beam="2">  1       21 0.11982400E+00 0.23227008E+03</pdfrwt>
<totfact> 0.18391490E+04</totfact>
</mgrwt>
</event>
<event>
12    1  0.2768653E-001  0.2691965E+03  0.7546771E-02  0.1101760E+00
         21   -1    0    0  504  503  0.00000000000E+00  0.00000000000E+00  0.96670909481E+02  0.96670909481E+02  0.00000000000E+00 0. -1.
         21   -1    0    0  502  504 -0.00000000000E+00 -0.00000000000E+00 -0.75721895664E+03  0.75721895664E+03  0.00000000000E+00 0.  1.
          6    2    1    2  502    0  0.85368261561E+02  0.18743849294E+03 -0.28653517083E+03  0.39315284816E+03  0.17333732771E+03 0.  0.
         24    2    3    3    0    0  0.17710881917E+02  0.17688985095E+03 -0.15994901362E+03  0.24915652854E+03  0.69939931723E+02 0.  0.
         -6    2    1    2    0  503 -0.85368261561E+02 -0.18743849294E+03 -0.37401287633E+03  0.46073701796E+03  0.17312434646E+03 0.  0.
        -24    2    5    5    0    0 -0.75714378681E+02 -0.40072406994E+02 -0.22244229674E+03  0.24906346897E+03  0.72205063928E+02 0.  0.
          2    1    4    4  501    0  0.44477646696E+01  0.53435649672E+02 -0.94859807184E+02  0.10896574822E+03  0.00000000000E+00 0. -1.
         -1    1    4    4    0  501  0.13263117248E+02  0.12345420128E+03 -0.65089206435E+02  0.14019078032E+03  0.00000000000E+00 0.  1.
          5    1    3    3  502    0  0.67657379644E+02  0.10548641996E+02 -0.12658615721E+03  0.14399631962E+03  0.47000000000E+01 0. -1.
         13    1    6    6    0    0  0.10432735301E+02  0.81711017103E+01 -0.24031793281E+02  0.27443322636E+02  0.00000000000E+00 0. -1.
        -14    1    6    6    0    0 -0.86147113983E+02 -0.48243508704E+02 -0.19841050346E+03  0.22162014633E+03  0.00000000000E+00 0.  1.
         -5    1    5    5    0  503 -0.96538828795E+01 -0.14736608595E+03 -0.15157057960E+03  0.21167354899E+03  0.47000000000E+01 0.  1.
<mgrwt>
<rscale>  2 0.26916223E+03</rscale>
<asrwt>0</asrwt>
<pdfrwt beam="1">  1       21 0.14872447E-01 0.26919650E+03</pdfrwt>
<pdfrwt beam="2">  1       21 0.11649523E+00 0.26919650E+03</pdfrwt>
<totfact> 0.21707716E+04</totfact>
</mgrwt>
</event>
<event>
12    1  0.2768653E-001  0.1874347E+03  0.7546771E-02  0.1161772E+00
         21   -1    0    0  504  503  0.00000000000E+00  0.00000000000E+00  0.17985251380E+03  0.17985251380E+03  0.00000000000E+00 0.  1.
         21   -1    0    0  502  504 -0.00000000000E+00 -0.00000000000E+00 -0.40723243542E+03  0.40723243542E+03  0.00000000000E+00 0.  1.
          6    2    1    2  502    0 -0.24304694516E+02  0.56151175480E+02 -0.32698766886E+03  0.37482691482E+03  0.17271539539E+03 0.  0.
         24    2    3    3    0    0 -0.44291398193E+02  0.22238997553E+02 -0.75570665544E+02  0.12030362769E+03  0.79408666903E+02 0.  0.
         -6    2    1    2    0  503  0.24304694516E+02 -0.56151175480E+02  0.99607747235E+02  0.21225803440E+03  0.17716686252E+03 0.  0.
        -24    2    5    5    0    0  0.36759645529E+02  0.42695485990E+01  0.32059826693E+01  0.97710315459E+02  0.90374370468E+02 0.  0.
          2    1    4    4  501    0  0.10944110284E+02  0.20373042205E+02  0.39522917737E+01  0.23461777615E+02  0.00000000000E+00 0. -1.
         -1    1    4    4    0  501 -0.55235508477E+02  0.18659553485E+01 -0.79522957318E+02  0.96841850078E+02  0.00000000000E+00 0.  1.
          5    1    3    3  502    0  0.19986703677E+02  0.33912177927E+02 -0.25141700331E+03  0.25452328713E+03  0.47000000000E+01 0. -1.
         11    1    6    6    0    0  0.66580793188E+02 -0.33846018319E+01 -0.73876616856E+00  0.66670858151E+02  0.00000000000E+00 0. -1.
        -12    1    6    6    0    0 -0.29821147660E+02  0.76541504309E+01  0.39447488378E+01  0.31039457307E+02  0.00000000000E+00 0.  1.
         -5    1    5    5    0  503 -0.12454951013E+02 -0.60420724079E+02  0.96401764565E+02  0.11454771894E+03  0.47000000000E+01 0.  1.
<mgrwt>
<rscale>  2 0.18637530E+03</rscale>
<asrwt>0</asrwt>
<pdfrwt beam="1">  1       21 0.27669618E-01 0.18743471E+03</pdfrwt>
<pdfrwt beam="2">  1       21 0.62651144E-01 0.18743471E+03</pdfrwt>
<totfact> 0.29512052E+04</totfact>
</mgrwt>
</event>
<event>
12    1  0.2768653E-001  0.1944036E+03  0.7546771E-02  0.1154830E+00
         21   -1    0    0  504  503  0.00000000000E+00  0.00000000000E+00  0.11084781731E+03  0.11084781731E+03  0.00000000000E+00 0.  1.
         21   -1    0    0  502  504 -0.00000000000E+00 -0.00000000000E+00 -0.41529334123E+03  0.41529334123E+03  0.00000000000E+00 0.  1.
          6    2    1    2  502    0  0.88062401716E+02  0.68810407366E+01 -0.26478805664E+03  0.32773378897E+03  0.17173929713E+03 0.  0.
         24    2    3    3    0    0  0.87530170156E+02  0.93579622584E+01 -0.28428582453E+03  0.30751816720E+03  0.77458963204E+02 0.  0.
         -6    2    1    2    0  503 -0.88062401716E+02 -0.68810407366E+01 -0.39657467282E+02  0.19840736957E+03  0.17317746467E+03 0.  0.
        -24    2    5    5    0    0 -0.63685954589E+01 -0.43452582270E+02 -0.56637593267E+02  0.10718363193E+03  0.79698356745E+02 0.  0.
          4    1    4    4  501    0  0.76189032303E+02 -0.24766210158E+02 -0.17494174719E+03  0.19241296401E+03  0.00000000000E+00 0. -1.
         -3    1    4    4    0  501  0.11341137853E+02  0.34124172416E+02 -0.10934407735E+03  0.11510520319E+03  0.00000000000E+00 0.  1.
          5    1    3    3  502    0  0.53223156004E+00 -0.24769215218E+01  0.19497767897E+02  0.20215621772E+02  0.47000000000E+01 0. -1.
         11    1    6    6    0    0  0.28801365725E+02 -0.45740316816E+02 -0.44151665975E+02  0.69793014396E+02  0.00000000000E+00 0. -1.
        -12    1    6    6    0    0 -0.35169961183E+02  0.22877345467E+01 -0.12485927292E+02  0.37390617531E+02  0.00000000000E+00 0.  1.
         -5    1    5    5    0  503 -0.81693806258E+02  0.36571541533E+02  0.16980125986E+02  0.91223737642E+02  0.47000000000E+01 0.  1.
<mgrwt>
<rscale>  2 0.19408282E+03</rscale>
<asrwt>0</asrwt>
<pdfrwt beam="1">  1       21 0.17053510E-01 0.19440363E+03</pdfrwt>
<pdfrwt beam="2">  1       21 0.63891284E-01 0.19440363E+03</pdfrwt>
<totfact> 0.70125302E+04</totfact>
</mgrwt>
</event>
<event>
12    1  0.2768653E-001  0.1870802E+03  0.7546771E-02  0.1161700E+00
         21   -1    0    0  504  503  0.00000000000E+00  0.00000000000E+00  0.86781076106E+03  0.86781076106E+03  0.00000000000E+00 0. -1.
         21   -1    0    0  502  504 -0.00000000000E+00 -0.00000000000E+00 -0.43870989736E+02  0.43870989736E+02  0.00000000000E+00 0. -1.
          6    2    1    2  502    0  0.64247010814E+02 -0.71882303112E+01  0.54842008188E+03  0.57865007549E+03  0.17289295708E+03 0.  0.
         24    2    3    3    0    0 -0.18729450290E+02  0.20603465336E+02  0.17225855244E+03  0.19241561603E+03  0.81089242894E+02 0.  0.
         -6    2    1    2    0  503 -0.64247010814E+02  0.71882303112E+01  0.27551968944E+03  0.33303167530E+03  0.17555525748E+03 0.  0.
        -24    2    5    5    0    0 -0.65171714492E+02 -0.23469600248E+02  0.74705527400E+02  0.12983429508E+03  0.80485115698E+02 0.  0.
          4    1    4    4  501    0 -0.32556268197E+00  0.13699876615E+01 -0.90522143196E+01  0.91610829786E+01  0.00000000000E+00 0. -1.
         -3    1    4    4    0  501 -0.18403887608E+02  0.19233477674E+02  0.18131076676E+03  0.18325453305E+03  0.00000000000E+00 0.  1.
          5    1    3    3  502    0  0.82976461104E+02 -0.27791695647E+02  0.37616152944E+03  0.38623445946E+03  0.47000000000E+01 0. -1.
         13    1    6    6    0    0 -0.65644186758E+02 -0.42440743764E+02  0.78164731789E+02  0.11054456695E+03  0.00000000000E+00 0. -1.
        -14    1    6    6    0    0  0.47247226607E+00  0.18971143515E+02 -0.34592043891E+01  0.19289728130E+02  0.00000000000E+00 0.  1.
         -5    1    5    5    0  503  0.92470367819E+00  0.30657830560E+02  0.20081416204E+03  0.20319738022E+03  0.47000000000E+01 0.  1.
<mgrwt>
<rscale>  2 0.18645304E+03</rscale>
<asrwt>0</asrwt>
<pdfrwt beam="1">  1       21 0.13350933E+00 0.18708019E+03</pdfrwt>
<pdfrwt beam="2">  1       21 0.67493837E-02 0.18708019E+03</pdfrwt>
<totfact> 0.65273486E+04</totfact>
</mgrwt>
</event>
<event>
12    1  0.2768653E-001  0.1784342E+03  0.7546771E-02  0.1169716E+00
         21   -1    0    0  504  503  0.00000000000E+00  0.00000000000E+00  0.10981753124E+04  0.10981753124E+04  0.00000000000E+00 0. -1.
         21   -1    0    0  502  504 -0.00000000000E+00 -0.00000000000E+00 -0.35185570168E+02  0.35185570168E+02  0.00000000000E+00 0. -1.
          6    2    1    2  502    0  0.33886998621E+02 -0.49510128946E+01  0.29080939922E+03  0.34118741603E+03  0.17511683237E+03 0.  0.
         24    2    3    3    0    0 -0.28554971995E+02 -0.45088048759E+02  0.21143726649E+03  0.23241238766E+03  0.80383342263E+02 0.  0.
         -6    2    1    2    0  503 -0.33886998621E+02  0.49510128946E+01  0.77218034303E+03  0.79217346655E+03  0.17350353813E+03 0.  0.
        -24    2    5    5    0    0  0.10335323120E+02 -0.43837420128E+02  0.60876192274E+03  0.61592479273E+03  0.82120237478E+02 0.  0.
          2    1    4    4  501    0 -0.41528947374E+02 -0.29032936714E+02  0.55647053021E+02  0.75260609844E+02  0.00000000000E+00 0. -1.
         -1    1    4    4    0  501  0.12973975378E+02 -0.16055112045E+02  0.15579021347E+03  0.15715177782E+03  0.00000000000E+00 0.  1.
          5    1    3    3  502    0  0.62441970616E+02  0.40137035864E+02  0.79372132735E+02  0.10877502837E+03  0.47000000000E+01 0. -1.
         11    1    6    6    0    0  0.25214605220E+01 -0.41954864963E+02  0.60595558773E+03  0.60741151023E+03  0.00000000000E+00 0. -1.
        -12    1    6    6    0    0  0.78138625983E+01 -0.18825551653E+01  0.28063350138E+01  0.85132824965E+01  0.00000000000E+00 0.  1.
         -5    1    5    5    0  503 -0.44222321741E+02  0.48788433023E+02  0.16341842029E+03  0.17624867383E+03  0.47000000000E+01 0.  1.
<mgrwt>
<rscale>  2 0.17803707E+03</rscale>
<asrwt>0</asrwt>
<pdfrwt beam="1">  1       21 0.16895002E+00 0.17843415E+03</pdfrwt>
<pdfrwt beam="2">  1       21 0.54131655E-02 0.17843415E+03</pdfrwt>
<totfact> 0.51448745E+04</totfact>
</mgrwt>
</event>
<event>
12    1  0.2768653E-001  0.2344305E+03  0.7546771E-02  0.1123665E+00
         21   -1    0    0  504  503  0.00000000000E+00  0.00000000000E+00  0.57282754921E+02  0.57282754921E+02  0.00000000000E+00 0. -1.
         21   -1    0    0  502  504 -0.00000000000E+00 -0.00000000000E+00 -0.13701028014E+04  0.13701028014E+04  0.00000000000E+00 0. -1.
          6    2    1    2  502    0  0.50270462179E+02  0.14936695616E+03 -0.10477473062E+04  0.10735194808E+04  0.17271957372E+03 0.  0.
         24    2    3    3    0    0  0.10835373989E+02  0.13946630815E+02 -0.54417801786E+03  0.55054920553E+03  0.81625968632E+02 0.  0.
         -6    2    1    2    0  503 -0.50270462179E+02 -0.14936695616E+03 -0.26507274023E+03  0.35386607543E+03  0.17355124536E+03 0.  0.
        -24    2    5    5    0    0  0.18271898751E+02 -0.14091896866E+03 -0.17061721736E+03  0.23676202112E+03  0.82182734030E+02 0.  0.
          4    1    4    4  501    0  0.35194008700E+02  0.13134493676E+02 -0.48630339761E+03  0.48775211706E+03  0.00000000000E+00 0. -1.
         -3    1    4    4    0  501 -0.24358634711E+02  0.81213713970E+00 -0.57874620247E+02  0.62797088472E+02  0.00000000000E+00 0.  1.
          5    1    3    3  502    0  0.39435088190E+02  0.13542032534E+03 -0.50356928834E+03  0.52297027531E+03  0.47000000000E+01 0. -1.
         11    1    6    6    0    0 -0.11312927311E+02 -0.21243006959E+02 -0.80599269780E+02  0.84115931654E+02  0.00000000000E+00 0. -1.
        -12    1    6    6    0    0  0.29584826062E+02 -0.11967596170E+03 -0.90017947576E+02  0.15264608946E+03  0.00000000000E+00 0.  1.
         -5    1    5    5    0  503 -0.68542360931E+02 -0.84479874952E+01 -0.94455522879E+02  0.11710405431E+03  0.47000000000E+01 0.  1.
<mgrwt>
<rscale>  2 0.23427655E+03</rscale>
<asrwt>0</asrwt>
<pdfrwt beam="1">  1       21 0.88127312E-02 0.23443046E+03</pdfrwt>
<pdfrwt beam="2">  1       21 0.21078505E+00 0.23443046E+03</pdfrwt>
<totfact> 0.11249176E+04</totfact>
</mgrwt>
</event>
<event>
12    1  0.2768653E-001  0.2012310E+03  0.7546771E-02  0.1148777E+00
         21   -1    0    0  504  503  0.00000000000E+00  0.00000000000E+00  0.17981432973E+03  0.17981432973E+03  0.00000000000E+00 0. -1.
         21   -1    0    0  502  504 -0.00000000000E+00 -0.00000000000E+00 -0.47119619972E+03  0.47119619972E+03  0.00000000000E+00 0. -1.
          6    2    1    2  502    0 -0.47158545926E+02  0.91971489502E+02 -0.38100796847E+03  0.43072267334E+03  0.17225639599E+03 0.  0.
         24    2    3    3    0    0 -0.37275693260E+02  0.30969105107E+02 -0.78674196761E+02  0.12210193328E+03  0.79816602889E+02 0.  0.
         -6    2    1    2    0  503  0.47158545926E+02 -0.91971489502E+02  0.89626098477E+02  0.22028785610E+03  0.17265925600E+03 0.  0.
        -24    2    5    5    0    0  0.19614618587E+02  0.16190166359E+02  0.95479279756E+01  0.82838901495E+02  0.78257689228E+02 0.  0.
          4    1    4    4  501    0 -0.37922051149E+02 -0.17938638144E+02 -0.50515559573E+02  0.65663524584E+02  0.00000000000E+00 0. -1.
         -3    1    4    4    0  501  0.64635788912E+00  0.48907743250E+02 -0.28158637187E+02  0.56438408700E+02  0.00000000000E+00 0.  1.
          5    1    3    3  502    0 -0.98828526659E+01  0.61002384396E+02 -0.30233377171E+03  0.30862074006E+03  0.47000000000E+01 0. -1.
         13    1    6    6    0    0  0.36922727803E+02 -0.90866066820E+01  0.27868930995E+02  0.47143733032E+02  0.00000000000E+00 0. -1.
        -14    1    6    6    0    0 -0.17308109216E+02  0.25276773041E+02 -0.18321003019E+02  0.35695168463E+02  0.00000000000E+00 0.  1.
         -5    1    5    5    0  503  0.27543927339E+02 -0.10816165586E+03  0.80078170501E+02  0.13744895461E+03  0.47000000000E+01 0.  1.
<mgrwt>
<rscale>  2 0.20114452E+03</rscale>
<asrwt>0</asrwt>
<pdfrwt beam="1">  1       21 0.27663743E-01 0.20123097E+03</pdfrwt>
<pdfrwt beam="2">  1       21 0.72491723E-01 0.20123097E+03</pdfrwt>
<totfact> 0.21278236E+04</totfact>
</mgrwt>
</event>
<event>
12    1  0.2768653E-001  0.1844287E+03  0.7546771E-02  0.1163678E+00
         21   -1    0    0  504  503  0.00000000000E+00  0.00000000000E+00  0.33592875350E+03  0.33592875350E+03  0.00000000000E+00 0.  1.
         21   -1    0    0  502  504 -0.00000000000E+00 -0.00000000000E+00 -0.10385886495E+03  0.10385886495E+03  0.00000000000E+00 0.  1.
          6    2    1    2  502    0 -0.63461738829E+02  0.10462934281E+02  0.79654896601E+02  0.20052989239E+03  0.17242525888E+03 0.  0.
         24    2    3    3    0    0 -0.71942696657E+02 -0.23703232433E+02 -0.25693565025E+01  0.11096331720E+03  0.81047278427E+02 0.  0.
         -6    2    1    2    0  503  0.63461738829E+02 -0.10462934281E+02  0.15241499194E+03  0.23925772606E+03  0.17284983199E+03 0.  0.
        -24    2    5    5    0    0  0.74494458115E+02 -0.61441988003E+02  0.13597448058E+03  0.18436724212E+03  0.78598208735E+02 0.  0.
          2    1    4    4  501    0 -0.57171118554E+02 -0.12196079423E+02  0.35602829719E+02  0.68445910280E+02  0.00000000000E+00 0. -1.
         -1    1    4    4    0  501 -0.14771578103E+02 -0.11507153010E+02 -0.38172186221E+02  0.42517406917E+02  0.00000000000E+00 0.  1.
          5    1    3    3  502    0  0.84809578273E+01  0.34166166714E+02  0.82224253103E+02  0.89566575194E+02  0.47000000000E+01 0. -1.
         11    1    6    6    0    0  0.29505011025E+02 -0.63111965159E+02  0.45213111357E+02  0.83053544538E+02  0.00000000000E+00 0. -1.
        -12    1    6    6    0    0  0.44989447091E+02  0.16699771559E+01  0.90761369227E+02  0.10131369758E+03  0.00000000000E+00 0.  1.
         -5    1    5    5    0  503 -0.11032719286E+02  0.50979053722E+02  0.16440511360E+02  0.54890483938E+02  0.47000000000E+01 0.  1.
<mgrwt>
<rscale>  2 0.18432911E+03</rscale>
<asrwt>0</asrwt>
<pdfrwt beam="1">  1       21 0.51681346E-01 0.18442866E+03</pdfrwt>
<pdfrwt beam="2">  1       21 0.15978287E-01 0.18442866E+03</pdfrwt>
<totfact> 0.12465337E+05</totfact>
</mgrwt>
</event>
<event>
12    1  0.2768653E-001  0.2073941E+03  0.7546771E-02  0.1144309E+00
         21   -1    0    0  504  503  0.00000000000E+00  0.00000000000E+00  0.93396379591E+02  0.93396379591E+02  0.00000000000E+00 0. -1.
         21   -1    0    0  502  504 -0.00000000000E+00 -0.00000000000E+00 -0.83187787213E+03  0.83187787213E+03  0.00000000000E+00 0.  1.
          6    2    1    2  502    0 -0.10643103332E+03 -0.14938183196E+02 -0.67973052154E+03  0.70971919787E+03  0.17354262801E+03 0.  0.
         24    2    3    3    0    0 -0.37439359035E+02 -0.58094247216E+02 -0.52111558331E+03  0.53138500145E+03  0.77665445545E+02 0.  0.
         -6    2    1    2    0  503  0.10643103332E+03  0.14938183196E+02 -0.58750970999E+02  0.21555505386E+03  0.17737415392E+03 0.  0.
        -24    2    5    5    0    0  0.62350914152E+02 -0.50265425558E+02  0.57514615823E+01  0.11368640653E+03  0.80481489898E+02 0.  0.
          2    1    4    4  501    0 -0.57274108266E+02 -0.37823624538E+02 -0.44289458602E+03  0.44818139673E+03  0.00000000000E+00 0. -1.
         -1    1    4    4    0  501  0.19834749231E+02 -0.20270622678E+02 -0.78220997289E+02  0.83203604716E+02  0.00000000000E+00 0.  1.
          5    1    3    3  502    0 -0.68991674282E+02  0.43156064019E+02 -0.15861493823E+03  0.17833419642E+03  0.47000000000E+01 0. -1.
         13    1    6    6    0    0  0.77962662590E+01 -0.32175664604E+00  0.33720455589E+02  0.34611478154E+02  0.00000000000E+00 0. -1.
        -14    1    6    6    0    0  0.54554647893E+02 -0.49943668912E+02 -0.27968994006E+02  0.79074928371E+02  0.00000000000E+00 0.  1.
         -5    1    5    5    0  503  0.44080119165E+02  0.65203608755E+02 -0.64502432581E+02  0.10186864733E+03  0.47000000000E+01 0.  1.
<mgrwt>
<rscale>  2 0.20657239E+03</rscale>
<asrwt>0</asrwt>
<pdfrwt beam="1">  1       21 0.14368675E-01 0.20739408E+03</pdfrwt>
<pdfrwt beam="2">  1       21 0.12798120E+00 0.20739408E+03</pdfrwt>
<totfact> 0.18890853E+04</totfact>
</mgrwt>
</event>
<event>
12    1  0.2768653E-001  0.1753455E+03  0.7546771E-02  0.1172447E+00
         21   -1    0    0  504  503  0.00000000000E+00  0.00000000000E+00  0.29778159264E+03  0.29778159264E+03  0.00000000000E+00 0. -1.
         21   -1    0    0  502  504 -0.00000000000E+00 -0.00000000000E+00 -0.19245976605E+03  0.19245976605E+03  0.00000000000E+00 0. -1.
          6    2    1    2  502    0 -0.23830189695E+02 -0.16712727710E+02 -0.11433933390E+03  0.20933113151E+03  0.17291282814E+03 0.  0.
         24    2    3    3    0    0  0.20979216037E+02 -0.22906780353E+02 -0.13412264776E+03  0.15973558093E+03  0.81004463350E+02 0.  0.
         -6    2    1    2    0  503  0.23830189695E+02  0.16712727710E+02  0.21966116049E+03  0.28091022717E+03  0.17266249476E+03 0.  0.
        -24    2    5    5    0    0  0.73134236361E+01 -0.53798420258E+02  0.15818935348E+03  0.18580240097E+03  0.80937657881E+02 0.  0.
          4    1    4    4  501    0  0.54865412319E+01 -0.26866510562E+02 -0.14002927895E+03  0.14268885902E+03  0.00000000000E+00 0. -1.
         -3    1    4    4    0  501  0.15492674806E+02  0.39597302087E+01  0.59066311933E+01  0.17046721914E+02  0.00000000000E+00 0.  1.
          5    1    3    3  502    0 -0.44809405733E+02  0.61940526430E+01  0.19783313860E+02  0.49595550582E+02  0.47000000000E+01 0. -1.
         13    1    6    6    0    0  0.39609891484E+02 -0.10583911955E+02  0.48085649062E+02  0.63191711018E+02  0.00000000000E+00 0. -1.
        -14    1    6    6    0    0 -0.32296467848E+02 -0.43214508303E+02  0.11010370442E+03  0.12261068995E+03  0.00000000000E+00 0.  1.
         -5    1    5    5    0  503  0.16516766059E+02  0.70511147968E+02  0.61471807004E+02  0.95107826203E+02  0.47000000000E+01 0.  1.
<mgrwt>
<rscale>  2 0.17528374E+03</rscale>
<asrwt>0</asrwt>
<pdfrwt beam="1">  1       21 0.45812553E-01 0.17534549E+03</pdfrwt>
<pdfrwt beam="2">  1       21 0.29609195E-01 0.17534549E+03</pdfrwt>
<totfact> 0.50342081E+04</totfact>
</mgrwt>
</event>
<event>
12    1  0.2768653E-001  0.2634464E+03  0.7546771E-02  0.1105125E+00
         21   -1    0    0  504  503  0.00000000000E+00  0.00000000000E+00  0.92998768717E+02  0.92998768717E+02  0.00000000000E+00 0. -1.
         21   -1    0    0  502  504 -0.00000000000E+00 -0.00000000000E+00 -0.18880303464E+04  0.18880303464E+04  0.00000000000E+00 0. -1.
          6    2    1    2  502    0 -0.66749259018E+02 -0.18511765731E+03 -0.16678475628E+04  0.16884889357E+04  0.17480097926E+03 0.  0.
         24    2    3    3    0    0 -0.80880442705E+02 -0.59109928925E+02 -0.60551385835E+03  0.61860453645E+03  0.77388049210E+02 0.  0.
         -6    2    1    2    0  503  0.66749259018E+02  0.18511765731E+03 -0.12718401487E+03  0.29254017948E+03  0.17515699342E+03 0.  0.
        -24    2    5    5    0    0 -0.11401519907E+02  0.74057946075E+02 -0.11173222958E+03  0.15578254212E+03  0.78546389292E+02 0.  0.
          2    1    4    4  501    0  0.10250221451E+02 -0.90832944158E+01 -0.22091686252E+02  0.25992612002E+02  0.00000000000E+00 0. -1.
         -1    1    4    4    0  501 -0.91130664155E+02 -0.50026634510E+02 -0.58342217210E+03  0.59261192445E+03  0.00000000000E+00 0.  1.
          5    1    3    3  502    0  0.14131183687E+02 -0.12600772839E+03 -0.10623337045E+04  0.10698843992E+04  0.47000000000E+01 0. -1.
         13    1    6    6    0    0 -0.40690319010E+02  0.44514363659E+02 -0.38474708188E+02  0.71536940130E+02  0.00000000000E+00 0. -1.
        -14    1    6    6    0    0  0.29288799103E+02  0.29543582416E+02 -0.73257521390E+02  0.84245601992E+02  0.00000000000E+00 0.  1.
         -5    1    5    5    0  503  0.78150778925E+02  0.11105971124E+03 -0.15451785290E+02  0.13675763736E+03  0.47000000000E+01 0.  1.
<mgrwt>
<rscale>  2 0.26338719E+03</rscale>
<asrwt>0</asrwt>
<pdfrwt beam="1">  1       21 0.14307504E-01 0.26344636E+03</pdfrwt>
<pdfrwt beam="2">  1       21 0.29046619E+00 0.26344636E+03</pdfrwt>
<totfact> 0.15326035E+03</totfact>
</mgrwt>
</event>
<event>
12    1  0.2768653E-001  0.1811482E+03  0.7546771E-02  0.1166704E+00
         21   -1    0    0  504  503  0.00000000000E+00  0.00000000000E+00  0.44289908925E+03  0.44289908925E+03  0.00000000000E+00 0. -1.
         21   -1    0    0  502  504 -0.00000000000E+00 -0.00000000000E+00 -0.87803078015E+02  0.87803078015E+02  0.00000000000E+00 0. -1.
          6    2    1    2  502    0  0.42027561615E+02 -0.29941116063E+02  0.72646111233E+02  0.19517203736E+03  0.17364296797E+03 0.  0.
         24    2    3    3    0    0  0.28216608972E+02 -0.69135593389E+02  0.97386681624E+02  0.14658052279E+03  0.80160941905E+02 0.  0.
         -6    2    1    2    0  503 -0.42027561615E+02  0.29941116063E+02  0.28244990000E+03  0.33553012990E+03  0.17360799432E+03 0.  0.
        -24    2    5    5    0    0 -0.17437207908E+02 -0.49000180735E+02  0.17419882024E+03  0.19923339441E+03  0.81508542765E+02 0.  0.
          4    1    4    4  501    0  0.17555014811E+02 -0.52515521120E+02  0.91026074074E+01  0.56115202620E+02  0.00000000000E+00 0. -1.
         -3    1    4    4    0  501  0.10661594162E+02 -0.16620072269E+02  0.88284074216E+02  0.90465320165E+02  0.00000000000E+00 0.  1.
          5    1    3    3  502    0  0.13810952642E+02  0.39194477327E+02 -0.24740570390E+02  0.48591514579E+02  0.47000000000E+01 0. -1.
         11    1    6    6    0    0 -0.46121674150E+02 -0.30292582465E+02  0.14152162139E+03  0.15189871198E+03  0.00000000000E+00 0. -1.
        -12    1    6    6    0    0  0.28684466241E+02 -0.18707598269E+02  0.32677198847E+02  0.47334682433E+02  0.00000000000E+00 0.  1.
         -5    1    5    5    0  503 -0.24590353706E+02  0.78941296797E+02  0.10825107976E+03  0.13629673549E+03  0.47000000000E+01 0.  1.
<mgrwt>
<rscale>  2 0.18113981E+03</rscale>
<asrwt>0</asrwt>
<pdfrwt beam="1">  1       21 0.68138320E-01 0.18114819E+03</pdfrwt>
<pdfrwt beam="2">  1       21 0.13508166E-01 0.18114819E+03</pdfrwt>
<totfact> 0.93685830E+04</totfact>
</mgrwt>
</event>
<event>
12    1  0.2768653E-001  0.2382078E+03  0.7546771E-02  0.1121165E+00
         21   -1    0    0  504  503  0.00000000000E+00  0.00000000000E+00  0.18556202937E+03  0.18556202937E+03  0.00000000000E+00 0.  1.
         21   -1    0    0  502  504 -0.00000000000E+00 -0.00000000000E+00 -0.44638733578E+03  0.44638733578E+03  0.00000000000E+00 0.  1.
          6    2    1    2  502    0  0.15977649969E+03 -0.32949020395E+02 -0.30876147623E+03  0.38997002710E+03  0.17357651060E+03 0.  0.
         24    2    3    3    0    0  0.16868252339E+03 -0.35105876751E+02 -0.32062062901E+03  0.37426337909E+03  0.87116433034E+02 0.  0.
         -6    2    1    2    0  503 -0.15977649969E+03  0.32949020395E+02  0.47936169827E+02  0.24197933805E+03  0.17216839392E+03 0.  0.
        -24    2    5    5    0    0 -0.87814211498E+02  0.15466121943E+02 -0.40836753757E+02  0.12627737341E+03  0.79547456957E+02 0.  0.
          4    1    4    4  501    0  0.20473193533E+01 -0.11244846490E+02 -0.78781405291E+02  0.79606205216E+02  0.00000000000E+00 0. -1.
         -3    1    4    4    0  501  0.16663520403E+03 -0.23861030261E+02 -0.24183922371E+03  0.29465717387E+03  0.00000000000E+00 0.  1.
          5    1    3    3  502    0 -0.89060236937E+01  0.21568563560E+01  0.11859152771E+02  0.15706648013E+02  0.47000000000E+01 0. -1.
         13    1    6    6    0    0  0.12726711498E+01 -0.22340276218E+02 -0.11456987152E+02  0.25139017243E+02  0.00000000000E+00 0. -1.
        -14    1    6    6    0    0 -0.89086882648E+02  0.37806398161E+02 -0.29379766605E+02  0.10113835616E+03  0.00000000000E+00 0.  1.
         -5    1    5    5    0  503 -0.71962288194E+02  0.17482898453E+02  0.88772923584E+02  0.11570196464E+03  0.47000000000E+01 0.  1.
<mgrwt>
<rscale>  2 0.23795140E+03</rscale>
<asrwt>0</asrwt>
<pdfrwt beam="1">  1       21 0.28548005E-01 0.23820784E+03</pdfrwt>
<pdfrwt beam="2">  1       21 0.68674973E-01 0.23820784E+03</pdfrwt>
<totfact> 0.22114509E+04</totfact>
</mgrwt>
</event>
<event>
12    1  0.2768653E-001  0.2062546E+03  0.7546771E-02  0.1144840E+00
         21   -1    0    0  504  503  0.00000000000E+00  0.00000000000E+00  0.65149716164E+03  0.65149716164E+03  0.00000000000E+00 0.  1.
         21   -1    0    0  502  504 -0.00000000000E+00 -0.00000000000E+00 -0.83320727787E+02  0.83320727787E+02  0.00000000000E+00 0. -1.
          6    2    1    2  502    0 -0.53022499808E+02  0.99391745398E+02  0.11193029631E+03  0.23466857977E+03  0.17277397535E+03 0.  0.
         24    2    3    3    0    0 -0.37535228338E+02  0.86475120362E+02  0.14780822141E+03  0.19324382522E+03  0.81296161411E+02 0.  0.
         -6    2    1    2    0  503  0.53022499808E+02 -0.99391745398E+02  0.45624613754E+03  0.50014930966E+03  0.17116859932E+03 0.  0.
        -24    2    5    5    0    0 -0.24614630903E+02 -0.78033649567E+02  0.33257130002E+03  0.35249685367E+03  0.83398031954E+02 0.  0.
          4    1    4    4  501    0 -0.22454235627E+02  0.46904555832E+01  0.87652206048E+02  0.90604096465E+02  0.00000000000E+00 0. -1.
         -3    1    4    4    0  501 -0.15080992711E+02  0.81784664779E+02  0.60156015362E+02  0.10263972875E+03  0.00000000000E+00 0.  1.
          5    1    3    3  502    0 -0.15487271470E+02  0.12916625036E+02 -0.35877925100E+02  0.41424754548E+02  0.47000000000E+01 0. -1.
         13    1    6    6    0    0  0.61418460485E+01  0.15134170596E+02  0.77593187833E+02  0.79293557056E+02  0.00000000000E+00 0. -1.
        -14    1    6    6    0    0 -0.30756476952E+02 -0.93167820163E+02  0.25497811218E+03  0.27320329662E+03  0.00000000000E+00 0.  1.
         -5    1    5    5    0  503  0.77637130712E+02 -0.21358095831E+02  0.12367483752E+03  0.14765245599E+03  0.47000000000E+01 0.  1.
<mgrwt>
<rscale>  2 0.20591803E+03</rscale>
<asrwt>0</asrwt>
<pdfrwt beam="1">  1       21 0.10023033E+00 0.20625458E+03</pdfrwt>
<pdfrwt beam="2">  1       21 0.12818574E-01 0.20625458E+03</pdfrwt>
<totfact> 0.42259551E+04</totfact>
</mgrwt>
</event>
<event>
12    1  0.2768653E-001  0.1764691E+03  0.7546771E-02  0.1171301E+00
         21   -1    0    0  504  503  0.00000000000E+00  0.00000000000E+00  0.56348843347E+03  0.56348843347E+03  0.00000000000E+00 0.  1.
         21   -1    0    0  502  504 -0.00000000000E+00 -0.00000000000E+00 -0.72994193917E+02  0.72994193917E+02  0.00000000000E+00 0.  1.
          6    2    1    2  502    0 -0.37423825542E+02  0.51776705124E+01  0.40221292192E+03  0.43916328278E+03  0.17222602416E+03 0.  0.
         24    2    3    3    0    0 -0.40176844206E+02  0.63398684486E+02  0.19587485782E+03  0.22469941106E+03  0.80556150604E+02 0.  0.
         -6    2    1    2    0  503  0.37423825542E+02 -0.51776705124E+01  0.88281317637E+02  0.19731934460E+03  0.17237743971E+03 0.  0.
        -24    2    5    5    0    0 -0.37616661958E+02 -0.17559713589E+02  0.70161377594E+02  0.11899430402E+03  0.86681420648E+02 0.  0.
          2    1    4    4  501    0  0.14707761251E+02  0.47765533497E+02  0.11804532173E+03  0.12818955657E+03  0.00000000000E+00 0. -1.
         -1    1    4    4    0  501 -0.54884605456E+02  0.15633150988E+02  0.77829536097E+02  0.96509854497E+02  0.00000000000E+00 0.  1.
          5    1    3    3  502    0  0.27530186634E+01 -0.58221013973E+02  0.20633806409E+03  0.21446387172E+03  0.47000000000E+01 0. -1.
         11    1    6    6    0    0 -0.76619076213E+01 -0.10123553638E+02 -0.20003964463E+02  0.23692820873E+02  0.00000000000E+00 0. -1.
        -12    1    6    6    0    0 -0.29954754336E+02 -0.74361599510E+01  0.90165342057E+02  0.95301483149E+02  0.00000000000E+00 0.  1.
         -5    1    5    5    0  503  0.75040487500E+02  0.12382043077E+02  0.18119940043E+02  0.78325040582E+02  0.47000000000E+01 0.  1.
<mgrwt>
<rscale>  2 0.17643208E+03</rscale>
<asrwt>0</asrwt>
<pdfrwt beam="1">  1       21 0.86690525E-01 0.17646907E+03</pdfrwt>
<pdfrwt beam="2">  1       21 0.11229876E-01 0.17646907E+03</pdfrwt>
<totfact> 0.76196515E+04</totfact>
</mgrwt>
</event>
<event>
12    1  0.2768653E-001  0.2006637E+03  0.7546771E-02  0.1149265E+00
         21   -1    0    0  504  503  0.00000000000E+00  0.00000000000E+00  0.18555494736E+03  0.18555494736E+03  0.00000000000E+00 0. -1.
         21   -1    0    0  502  504 -0.00000000000E+00 -0.00000000000E+00 -0.28085991432E+03  0.28085991432E+03  0.00000000000E+00 0. -1.
          6    2    1    2  502    0  0.97604253411E+02  0.26406451308E+02 -0.15926772848E+03  0.25618767152E+03  0.17332634753E+03 0.  0.
         24    2    3    3    0    0  0.98023188518E+02  0.26003986071E+02 -0.18691924854E+03  0.22813354443E+03  0.82591499815E+02 0.  0.
         -6    2    1    2    0  503 -0.97604253411E+02 -0.26406451308E+02  0.63962761520E+02  0.21022719016E+03  0.17285932335E+03 0.  0.
        -24    2    5    5    0    0 -0.83521962037E+02  0.43341381043E+02  0.17915234628E+02  0.12534176279E+03  0.80840635904E+02 0.  0.
          2    1    4    4  501    0  0.77358176999E+02 -0.85555562321E+01 -0.16465182178E+03  0.18212003598E+03  0.00000000000E+00 0. -1.
         -1    1    4    4    0  501  0.20665011519E+02  0.34559542303E+02 -0.22267426761E+02  0.46013508450E+02  0.00000000000E+00 0.  1.
          5    1    3    3  502    0 -0.41893510745E+00  0.40246523676E+00  0.27651520058E+02  0.28054127083E+02  0.47000000000E+01 0. -1.
         11    1    6    6    0    0 -0.52173475722E+02  0.30088305331E+02  0.50218749819E+02  0.78417475858E+02  0.00000000000E+00 0. -1.
        -12    1    6    6    0    0 -0.31348486315E+02  0.13253075712E+02 -0.32303515190E+02  0.46924286928E+02  0.00000000000E+00 0.  1.
         -5    1    5    5    0  503 -0.14082291373E+02 -0.69747832351E+02  0.46047526892E+02  0.84885427376E+02  0.47000000000E+01 0.  1.
<mgrwt>
<rscale>  2 0.20056279E+03</rscale>
<asrwt>0</asrwt>
<pdfrwt beam="1">  1       21 0.28546915E-01 0.20066368E+03</pdfrwt>
<pdfrwt beam="2">  1       21 0.43209218E-01 0.20066368E+03</pdfrwt>
<totfact> 0.60208716E+04</totfact>
</mgrwt>
</event>
<event>
12    1  0.2768653E-001  0.1738041E+03  0.7546771E-02  0.1174347E+00
         21   -1    0    0  504  503  0.00000000000E+00  0.00000000000E+00  0.21323769420E+03  0.21323769420E+03  0.00000000000E+00 0.  1.
         21   -1    0    0  502  504 -0.00000000000E+00 -0.00000000000E+00 -0.21682998862E+03  0.21682998862E+03  0.00000000000E+00 0.  1.
          6    2    1    2  502    0 -0.37619992005E+01  0.13178990254E+02 -0.12949333609E+03  0.21545418867E+03  0.17165123041E+03 0.  0.
         24    2    3    3    0    0 -0.22681273909E+02  0.60004182368E+02 -0.34528217005E+02  0.10779267551E+03  0.79448857998E+02 0.  0.
         -6    2    1    2    0  503  0.37619992005E+01 -0.13178990254E+02  0.12590104166E+03  0.21461349415E+03  0.17326292493E+03 0.  0.
        -24    2    5    5    0    0  0.89022383726E+01  0.39863409107E+02  0.13194792924E+03  0.16077509672E+03  0.82280219123E+02 0.  0.
          4    1    4    4  501    0 -0.35292145956E+02  0.25668604106E+02  0.15067179662E+02  0.46167442055E+02  0.00000000000E+00 0. -1.
         -3    1    4    4    0  501  0.12610872047E+02  0.34335578262E+02 -0.49595396667E+02  0.61625233459E+02  0.00000000000E+00 0.  1.
          5    1    3    3  502    0  0.18919274708E+02 -0.46825192114E+02 -0.94965119085E+02  0.10766151316E+03  0.47000000000E+01 0. -1.
         13    1    6    6    0    0  0.21275102304E+02  0.39318302220E+02  0.13935094771E+03  0.14634632040E+03  0.00000000000E+00 0. -1.
        -14    1    6    6    0    0 -0.12372863932E+02  0.54510688656E+00 -0.74030184697E+01  0.14428776312E+02  0.00000000000E+00 0.  1.
         -5    1    5    5    0  503 -0.51402391721E+01 -0.53042399361E+02 -0.60468875778E+01  0.53838397433E+02  0.47000000000E+01 0.  1.
<mgrwt>
<rscale>  2 0.17340108E+03</rscale>
<asrwt>0</asrwt>
<pdfrwt beam="1">  1       21 0.32805799E-01 0.17380414E+03</pdfrwt>
<pdfrwt beam="2">  1       21 0.33358460E-01 0.17380414E+03</pdfrwt>
<totfact> 0.78010388E+04</totfact>
</mgrwt>
</event>
<event>
12    1  0.2768653E-001  0.2173598E+03  0.7546771E-02  0.1135885E+00
         21   -1    0    0  504  503  0.00000000000E+00  0.00000000000E+00  0.58646266903E+03  0.58646266903E+03  0.00000000000E+00 0.  1.
         21   -1    0    0  502  504 -0.00000000000E+00 -0.00000000000E+00 -0.80637400770E+02  0.80637400770E+02  0.00000000000E+00 0. -1.
          6    2    1    2  502    0 -0.12978095654E+03 -0.15547805762E+02  0.26542681046E+03  0.34306946377E+03  0.17366759719E+03 0.  0.
         24    2    3    3    0    0 -0.88623770081E+02 -0.24840563025E+02  0.27380064063E+03  0.29979729758E+03  0.80252119198E+02 0.  0.
         -6    2    1    2    0  503  0.12978095654E+03  0.15547805762E+02  0.24039845780E+03  0.32403060603E+03  0.17354994725E+03 0.  0.
        -24    2    5    5    0    0  0.72345811645E+02 -0.21211250754E+02  0.23057552152E+03  0.25497552525E+03  0.78508685716E+02 0.  0.
          4    1    4    4  501    0 -0.24888369219E+02 -0.41445271492E+01  0.19381592160E+03  0.19545132257E+03  0.00000000000E+00 0. -1.
         -3    1    4    4    0  501 -0.63735400862E+02 -0.20696035875E+02  0.79984719021E+02  0.10434597501E+03  0.00000000000E+00 0.  1.
          5    1    3    3  502    0 -0.41157186455E+02  0.92927572622E+01 -0.83738301686E+01  0.43272166183E+02  0.47000000000E+01 0. -1.
         11    1    6    6    0    0  0.13833972526E+01 -0.35029111516E+02  0.56604316395E+02  0.66580786088E+02  0.00000000000E+00 0. -1.
        -12    1    6    6    0    0  0.70962414393E+02  0.13817860762E+02  0.17397120512E+03  0.18839473916E+03  0.00000000000E+00 0.  1.
         -5    1    5    5    0  503  0.57435144891E+02  0.36759056516E+02  0.98229362845E+01  0.69055080782E+02  0.47000000000E+01 0.  1.
<mgrwt>
<rscale>  2 0.21733626E+03</rscale>
<asrwt>0</asrwt>
<pdfrwt beam="1">  1       21 0.90225023E-01 0.21735976E+03</pdfrwt>
<pdfrwt beam="2">  1       21 0.12405754E-01 0.21735976E+03</pdfrwt>
<totfact> 0.57071003E+04</totfact>
</mgrwt>
</event>
<event>
12    1  0.2768653E-001  0.2063914E+03  0.7546771E-02  0.1144484E+00
         21   -1    0    0  504  503  0.00000000000E+00  0.00000000000E+00  0.22600390009E+03  0.22600390009E+03  0.00000000000E+00 0. -1.
         21   -1    0    0  502  504 -0.00000000000E+00 -0.00000000000E+00 -0.18968383876E+03  0.18968383876E+03  0.00000000000E+00 0.  1.
          6    2    1    2  502    0 -0.10816633168E+03  0.28702644702E+02  0.76179791980E+00  0.20639278540E+03  0.17341742821E+03 0.  0.
         24    2    3    3    0    0 -0.66047435092E+02 -0.10852779424E+02 -0.61488058359E+02  0.12132946996E+03  0.80374202675E+02 0.  0.
         -6    2    1    2    0  503  0.10816633168E+03 -0.28702644702E+02  0.35558263411E+02  0.20929495345E+03  0.17325181188E+03 0.  0.
        -24    2    5    5    0    0  0.89015576633E+02  0.17067659075E+02  0.73188473457E+02  0.14684661612E+03  0.89399654078E+02 0.  0.
          4    1    4    4  501    0 -0.65854816413E+02  0.21833837310E+02 -0.53682238251E+02  0.87723178238E+02  0.00000000000E+00 0. -1.
         -3    1    4    4    0  501 -0.19261867846E+00 -0.32686616734E+02 -0.78058201080E+01  0.33606291718E+02  0.00000000000E+00 0.  1.
          5    1    3    3  502    0 -0.42118896587E+02  0.39555424126E+02  0.62249856278E+02  0.85063315444E+02  0.47000000000E+01 0. -1.
         13    1    6    6    0    0  0.18875563357E+02  0.42347660574E+02  0.65018174273E+01  0.46817570185E+02  0.00000000000E+00 0. -1.
        -14    1    6    6    0    0  0.70140013276E+02 -0.25280001500E+02  0.66686656029E+02  0.10002904593E+03  0.00000000000E+00 0.  1.
         -5    1    5    5    0  503  0.19150755046E+02 -0.45770303777E+02 -0.37630210046E+02  0.62448337326E+02  0.47000000000E+01 0.  1.
<mgrwt>
<rscale>  2 0.20635659E+03</rscale>
<asrwt>0</asrwt>
<pdfrwt beam="1">  1       21 0.34769831E-01 0.20639138E+03</pdfrwt>
<pdfrwt beam="2">  1       21 0.29182129E-01 0.20639138E+03</pdfrwt>
<totfact> 0.89147797E+04</totfact>
</mgrwt>
</event>
<event>
12    1  0.2768653E-001  0.1809704E+03  0.7546771E-02  0.1167030E+00
         21   -1    0    0  504  503  0.00000000000E+00  0.00000000000E+00  0.12348766206E+03  0.12348766206E+03  0.00000000000E+00 0. -1.
         21   -1    0    0  502  504 -0.00000000000E+00 -0.00000000000E+00 -0.27430143609E+03  0.27430143609E+03  0.00000000000E+00 0. -1.
          6    2    1    2  502    0  0.57221361495E+01  0.48698722674E+02 -0.11339626106E+03  0.21299092678E+03  0.17349960933E+03 0.  0.
         24    2    3    3    0    0  0.11827879549E+02 -0.75949754881E+01  0.35446662371E+01  0.82977346601E+02  0.81701242358E+02 0.  0.
         -6    2    1    2    0  503 -0.57221361495E+01 -0.48698722674E+02 -0.37417512972E+02  0.18479817137E+03  0.17420099148E+03 0.  0.
        -24    2    5    5    0    0 -0.87449752752E+01 -0.99220372630E+02 -0.14248915061E+02  0.12893719573E+03  0.80626372386E+02 0.  0.
          4    1    4    4  501    0 -0.24080672111E+02  0.17878618489E+02  0.19919535781E+02  0.36004328547E+02  0.00000000000E+00 0. -1.
         -3    1    4    4    0  501  0.35908551660E+02 -0.25473593977E+02 -0.16374869544E+02  0.46973018053E+02  0.00000000000E+00 0.  1.
          5    1    3    3  502    0 -0.61057433993E+01  0.56293698162E+02 -0.11694092730E+03  0.13001358018E+03  0.47000000000E+01 0. -1.
         11    1    6    6    0    0 -0.38848247933E+02 -0.39687706975E+02 -0.25794715300E+02  0.61234531025E+02  0.00000000000E+00 0. -1.
        -12    1    6    6    0    0  0.30103272658E+02 -0.59532665654E+02  0.11545800239E+02  0.67702664702E+02  0.00000000000E+00 0.  1.
         -5    1    5    5    0  503  0.30228391257E+01  0.50521649956E+02 -0.23168597911E+02  0.55860975643E+02  0.47000000000E+01 0.  1.
<mgrwt>
<rscale>  2 0.18080142E+03</rscale>
<asrwt>0</asrwt>
<pdfrwt beam="1">  1       21 0.18998102E-01 0.18097042E+03</pdfrwt>
<pdfrwt beam="2">  1       21 0.42200221E-01 0.18097042E+03</pdfrwt>
<totfact> 0.13780600E+05</totfact>
</mgrwt>
</event>
<event>
12    1  0.2768653E-001  0.1969254E+03  0.7546771E-02  0.1152978E+00
         21   -1    0    0  504  503  0.00000000000E+00  0.00000000000E+00  0.42709973278E+02  0.42709973278E+02  0.00000000000E+00 0. -1.
         21   -1    0    0  502  504 -0.00000000000E+00 -0.00000000000E+00 -0.91040899300E+03  0.91040899300E+03  0.00000000000E+00 0.  1.
          6    2    1    2  502    0  0.86474980148E+02 -0.12332842695E+02 -0.49298615415E+03  0.52981135399E+03  0.17330522621E+03 0.  0.
         24    2    3    3    0    0  0.89020815211E+02  0.47873990974E+02 -0.33909696073E+03  0.36447739514E+03  0.87409371583E+02 0.  0.
         -6    2    1    2    0  503 -0.86474980148E+02  0.12332842695E+02 -0.37471286557E+03  0.42330761229E+03  0.17649244119E+03 0.  0.
        -24    2    5    5    0    0 -0.61204961771E+02  0.72193114483E+02 -0.29865294257E+03  0.32316257819E+03  0.79262719564E+02 0.  0.
          4    1    4    4  501    0  0.65322862601E+02  0.90048826470E+01 -0.29049462958E+03  0.29788469935E+03  0.00000000000E+00 0. -1.
         -3    1    4    4    0  501  0.23697952610E+02  0.38869108327E+02 -0.48602331148E+02  0.66592695794E+02  0.00000000000E+00 0.  1.
          5    1    3    3  502    0 -0.25458350636E+01 -0.60206833669E+02 -0.15388919343E+03  0.16533395885E+03  0.47000000000E+01 0. -1.
         13    1    6    6    0    0 -0.11993279615E+02  0.28605316407E+02 -0.20108397342E+02  0.36965531599E+02  0.00000000000E+00 0. -1.
        -14    1    6    6    0    0 -0.49211682155E+02  0.43587798076E+02 -0.27854454523E+03  0.28619704659E+03  0.00000000000E+00 0.  1.
         -5    1    5    5    0  503 -0.25270018377E+02 -0.59860271789E+02 -0.76059923001E+02  0.10014503410E+03  0.47000000000E+01 0.  1.
<mgrwt>
<rscale>  2 0.19620863E+03</rscale>
<asrwt>0</asrwt>
<pdfrwt beam="1">  1       21 0.65707648E-02 0.19692537E+03</pdfrwt>
<pdfrwt beam="2">  1       21 0.14006293E+00 0.19692537E+03</pdfrwt>
<totfact> 0.60159828E+04</totfact>
</mgrwt>
</event>
<event>
12    1  0.2768653E-001  0.1828317E+03  0.7546771E-02  0.1165189E+00
         21   -1    0    0  504  503  0.00000000000E+00  0.00000000000E+00  0.35968077371E+03  0.35968077371E+03  0.00000000000E+00 0.  1.
         21   -1    0    0  502  504 -0.00000000000E+00 -0.00000000000E+00 -0.10177670836E+03  0.10177670836E+03  0.00000000000E+00 0.  1.
          6    2    1    2  502    0  0.37809598775E+02 -0.46563512768E+02  0.60009902327E+02  0.19203303716E+03  0.17227237881E+03 0.  0.
         24    2    3    3    0    0  0.85109242676E+02  0.30511377084E+01  0.49809017122E+02  0.12257068826E+03  0.72730618068E+02 0.  0.
         -6    2    1    2    0  503 -0.37809598775E+02  0.46563512768E+02  0.19789416302E+03  0.26942444490E+03  0.17271278260E+03 0.  0.
        -24    2    5    5    0    0 -0.68233441331E+02  0.84118534235E+02  0.13870596935E+03  0.19286517307E+03  0.78904364476E+02 0.  0.
          4    1    4    4  501    0  0.64450146125E+02  0.21630408925E+02  0.62203840978E+02  0.92146696947E+02  0.00000000000E+00 0. -1.
         -3    1    4    4    0  501  0.20659096551E+02 -0.18579271216E+02 -0.12394823856E+02  0.30423991317E+02  0.00000000000E+00 0.  1.
          5    1    3    3  502    0 -0.47299643901E+02 -0.49614650477E+02  0.10200885204E+02  0.69462348895E+02  0.47000000000E+01 0. -1.
         11    1    6    6    0    0 -0.35019484184E+02  0.51295929380E+02  0.19912869538E+02  0.65223914454E+02  0.00000000000E+00 0. -1.
        -12    1    6    6    0    0 -0.33213957147E+02  0.32822604855E+02  0.11879309981E+03  0.12764125862E+03  0.00000000000E+00 0.  1.
         -5    1    5    5    0  503  0.30423842557E+02 -0.37555021467E+02  0.59188193671E+02  0.76559271831E+02  0.47000000000E+01 0.  1.
<mgrwt>
<rscale>  2 0.18272762E+03</rscale>
<asrwt>0</asrwt>
<pdfrwt beam="1">  1       21 0.55335503E-01 0.18283170E+03</pdfrwt>
<pdfrwt beam="2">  1       21 0.15657955E-01 0.18283170E+03</pdfrwt>
<totfact> 0.11209786E+05</totfact>
</mgrwt>
</event>
<event>
12    1  0.2768653E-001  0.2183836E+03  0.7546771E-02  0.1135099E+00
         21   -1    0    0  504  503  0.00000000000E+00  0.00000000000E+00  0.87144369052E+02  0.87144369052E+02  0.00000000000E+00 0.  1.
         21   -1    0    0  502  504 -0.00000000000E+00 -0.00000000000E+00 -0.66908974083E+03  0.66908974083E+03  0.00000000000E+00 0.  1.
          6    2    1    2  502    0  0.29545370709E+01 -0.13287970791E+03 -0.12960142342E+03  0.25394473369E+03  0.17327911805E+03 0.  0.
         24    2    3    3    0    0 -0.56131202001E+02 -0.12398707179E+03 -0.93516414636E+02  0.18398459220E+03  0.81126472555E+02 0.  0.
         -6    2    1    2    0  503 -0.29545370709E+01  0.13287970791E+03 -0.45234394836E+03  0.50228937619E+03  0.17324498191E+03 0.  0.
        -24    2    5    5    0    0  0.52787765242E+02  0.33665756217E+02 -0.25498959522E+03  0.27442660350E+03  0.79814383022E+02 0.  0.
          2    1    4    4  501    0 -0.71607409511E+02 -0.11295177631E+03 -0.96263012240E+02  0.16477952662E+03  0.00000000000E+00 0. -1.
         -1    1    4    4    0  501  0.15476207510E+02 -0.11035295480E+02  0.27465976039E+01  0.19205065572E+02  0.00000000000E+00 0.  1.
          5    1    3    3  502    0  0.59085739072E+02 -0.88926361172E+01 -0.36085008782E+02  0.69960141492E+02  0.47000000000E+01 0. -1.
         11    1    6    6    0    0 -0.15548956903E+02  0.13245772645E+02 -0.19006847052E+02  0.27901268584E+02  0.00000000000E+00 0. -1.
        -12    1    6    6    0    0  0.68336722145E+02  0.20419983572E+02 -0.23598274817E+03  0.24652533491E+03  0.00000000000E+00 0.  1.
         -5    1    5    5    0  503 -0.55742302313E+02  0.99213951692E+02 -0.19735435314E+03  0.22786277270E+03  0.47000000000E+01 0.  1.
<mgrwt>
<rscale>  2 0.21837683E+03</rscale>
<asrwt>0</asrwt>
<pdfrwt beam="1">  1       21 0.13406826E-01 0.21838360E+03</pdfrwt>
<pdfrwt beam="2">  1       21 0.10293688E+00 0.21838360E+03</pdfrwt>
<totfact> 0.36335169E+04</totfact>
</mgrwt>
</event>
<event>
12    1  0.2768653E-001  0.2198059E+03  0.7546771E-02  0.1134163E+00
         21   -1    0    0  504  503  0.00000000000E+00  0.00000000000E+00  0.37890104476E+03  0.37890104476E+03  0.00000000000E+00 0. -1.
         21   -1    0    0  502  504 -0.00000000000E+00 -0.00000000000E+00 -0.12814975577E+03  0.12814975577E+03  0.00000000000E+00 0. -1.
          6    2    1    2  502    0  0.13356130689E+03  0.17842625962E+02  0.14819627549E+03  0.26449737230E+03  0.17274183595E+03 0.  0.
         24    2    3    3    0    0  0.78037615943E+02 -0.41569114852E+02  0.47102234121E+02  0.13467160289E+03  0.89999774188E+02 0.  0.
         -6    2    1    2    0  503 -0.13356130689E+03 -0.17842625962E+02  0.10255501350E+03  0.24255342824E+03  0.17365958873E+03 0.  0.
        -24    2    5    5    0    0 -0.35572962719E+02  0.44011169541E+02  0.20456155745E+02  0.10046218975E+03  0.80447365028E+02 0.  0.
          2    1    4    4  501    0  0.14736737073E+02 -0.31331816206E+02  0.59990808368E+02  0.69265801194E+02  0.00000000000E+00 0. -1.
         -1    1    4    4    0  501  0.63300878870E+02 -0.10237298646E+02 -0.12888574248E+02  0.65405801696E+02  0.00000000000E+00 0.  1.
          5    1    3    3  502    0  0.55523690945E+02  0.59411740814E+02  0.10109404137E+03  0.12982576941E+03  0.47000000000E+01 0. -1.
         13    1    6    6    0    0  0.10481414309E+02 -0.17865641383E+02  0.85741819901E+01  0.22417800622E+02  0.00000000000E+00 0. -1.
        -14    1    6    6    0    0 -0.46054377028E+02  0.61876810924E+02  0.11881973755E+02  0.78044389125E+02  0.00000000000E+00 0.  1.
         -5    1    5    5    0  503 -0.97988344169E+02 -0.61853795503E+02  0.82098857752E+02  0.14209123849E+03  0.47000000000E+01 0.  1.
<mgrwt>
<rscale>  2 0.21962459E+03</rscale>
<asrwt>0</asrwt>
<pdfrwt beam="1">  1       21 0.58292468E-01 0.21980590E+03</pdfrwt>
<pdfrwt beam="2">  1       21 0.19715347E-01 0.21980590E+03</pdfrwt>
<totfact> 0.64565793E+04</totfact>
</mgrwt>
</event>
<event>
12    1  0.2768653E-001  0.2171825E+03  0.7546771E-02  0.1136828E+00
         21   -1    0    0  504  503  0.00000000000E+00  0.00000000000E+00  0.10834632914E+03  0.10834632914E+03  0.00000000000E+00 0.  1.
         21   -1    0    0  502  504 -0.00000000000E+00 -0.00000000000E+00 -0.55739830368E+03  0.55739830368E+03  0.00000000000E+00 0. -1.
          6    2    1    2  502    0  0.12015257560E+03  0.40786360846E+02 -0.38740752169E+03  0.44413154545E+03  0.17626137734E+03 0.  0.
         24    2    3    3    0    0  0.11021446145E+03  0.93078854341E+02 -0.31013398685E+03  0.35018177069E+03  0.75055193627E+02 0.  0.
         -6    2    1    2    0  503 -0.12015257560E+03 -0.40786360846E+02 -0.61644452846E+02  0.22161308738E+03  0.17091563204E+03 0.  0.
        -24    2    5    5    0    0 -0.73918606223E+02  0.21884317305E+02 -0.84832101487E+02  0.14021928618E+03  0.80759390064E+02 0.  0.
          4    1    4    4  501    0  0.54870424951E+01  0.34570989851E+02 -0.12311739042E+03  0.12799669057E+03  0.00000000000E+00 0. -1.
         -3    1    4    4    0  501  0.10472741895E+03  0.58507864490E+02 -0.18701659643E+03  0.22218508012E+03  0.00000000000E+00 0.  1.
          5    1    3    3  502    0  0.99381141574E+01 -0.52292493495E+02 -0.77273534845E+02  0.93949774754E+02  0.47000000000E+01 0. -1.
         13    1    6    6    0    0  0.10609924392E+02  0.23066412229E+02 -0.98933758646E+01  0.27249013830E+02  0.00000000000E+00 0. -1.
        -14    1    6    6    0    0 -0.84528530614E+02 -0.11820949242E+01 -0.74938725623E+02  0.11297027235E+03  0.00000000000E+00 0.  1.
         -5    1    5    5    0  503 -0.46233969382E+02 -0.62670678150E+02  0.23187648641E+02  0.81393801202E+02  0.47000000000E+01 0.  1.
<mgrwt>
<rscale>  2 0.21609547E+03</rscale>
<asrwt>0</asrwt>
<pdfrwt beam="1">  1       21 0.16668666E-01 0.21718251E+03</pdfrwt>
<pdfrwt beam="2">  1       21 0.85753583E-01 0.21718251E+03</pdfrwt>
<totfact> 0.37498484E+04</totfact>
</mgrwt>
</event>
<event>
12    1  0.2768653E-001  0.1794762E+03  0.7546771E-02  0.1168627E+00
         21   -1    0    0  504  503  0.00000000000E+00  0.00000000000E+00  0.49312113281E+03  0.49312113281E+03  0.00000000000E+00 0. -1.
         21   -1    0    0  502  504 -0.00000000000E+00 -0.00000000000E+00 -0.72698223370E+02  0.72698223370E+02  0.00000000000E+00 0. -1.
          6    2    1    2  502    0  0.48731277638E+02  0.62940756239E+01  0.11794278551E+03  0.21476077804E+03  0.17261905550E+03 0.  0.
         24    2    3    3    0    0  0.30937704595E+02  0.14156881521E+02  0.15250281158E+03  0.17482432402E+03  0.78414780949E+02 0.  0.
         -6    2    1    2    0  503 -0.48731277638E+02 -0.62940756239E+01  0.30248012392E+03  0.35105857813E+03  0.17127039179E+03 0.  0.
        -24    2    5    5    0    0 -0.33553067201E+02  0.41547609100E+02  0.97834101942E+02  0.14029499214E+03  0.85200711118E+02 0.  0.
          4    1    4    4  501    0  0.56380728949E+02  0.21656968789E+01  0.11334130542E+03  0.12660856351E+03  0.00000000000E+00 0. -1.
         -3    1    4    4    0  501 -0.25443024354E+02  0.11991184642E+02  0.39161506161E+02  0.48215760517E+02  0.00000000000E+00 0.  1.
          5    1    3    3  502    0  0.17793573043E+02 -0.78628058971E+01 -0.34560026064E+02  0.39936454021E+02  0.47000000000E+01 0. -1.
         11    1    6    6    0    0 -0.42389622890E+02  0.27381412662E+02  0.10906422755E+03  0.12017332324E+03  0.00000000000E+00 0. -1.
        -12    1    6    6    0    0  0.88365556889E+01  0.14166196438E+02 -0.11230125606E+02  0.20121668894E+02  0.00000000000E+00 0.  1.
         -5    1    5    5    0  503 -0.15178210438E+02 -0.47841684723E+02  0.20464602198E+03  0.21076358600E+03  0.47000000000E+01 0.  1.
<mgrwt>
<rscale>  2 0.17915109E+03</rscale>
<asrwt>0</asrwt>
<pdfrwt beam="1">  1       21 0.75864788E-01 0.17947616E+03</pdfrwt>
<pdfrwt beam="2">  1       21 0.11184342E-01 0.17947616E+03</pdfrwt>
<totfact> 0.10363916E+05</totfact>
</mgrwt>
</event>
<event>
12    1  0.2768653E-001  0.1785897E+03  0.7546771E-02  0.1170051E+00
         21   -1    0    0  504  503  0.00000000000E+00  0.00000000000E+00  0.14640771558E+03  0.14640771558E+03  0.00000000000E+00 0. -1.
         21   -1    0    0  502  504 -0.00000000000E+00 -0.00000000000E+00 -0.37327833230E+03  0.37327833230E+03  0.00000000000E+00 0. -1.
          6    2    1    2  502    0 -0.41528287055E+02  0.18430249330E+01 -0.28405961615E+03  0.33553563181E+03  0.17368448208E+03 0.  0.
         24    2    3    3    0    0  0.17520713061E+02 -0.52098397306E+02 -0.17716973858E+03  0.20195420580E+03  0.79844640280E+02 0.  0.
         -6    2    1    2    0  503  0.41528287055E+02 -0.18430249330E+01  0.57188999431E+02  0.18415041607E+03  0.17003763912E+03 0.  0.
        -24    2    5    5    0    0  0.85820427689E+02 -0.21937735402E+01  0.71753113124E+02  0.13728763602E+03  0.79557697991E+02 0.  0.
          4    1    4    4  501    0  0.28075713754E+02 -0.49323400327E+02 -0.18153498994E+03  0.19019988458E+03  0.00000000000E+00 0. -1.
         -3    1    4    4    0  501 -0.10555000693E+02 -0.27749969796E+01  0.43652513555E+01  0.11754321216E+02  0.00000000000E+00 0.  1.
          5    1    3    3  502    0 -0.59049000116E+02  0.53941422239E+02 -0.10688987757E+03  0.13358142601E+03  0.47000000000E+01 0. -1.
         11    1    6    6    0    0  0.12557784549E+02 -0.14377482176E+02  0.58898200351E+02  0.61914521327E+02  0.00000000000E+00 0. -1.
        -12    1    6    6    0    0  0.73262643140E+02  0.12183708635E+02  0.12854912773E+02  0.75373114692E+02  0.00000000000E+00 0.  1.
         -5    1    5    5    0  503 -0.44292140634E+02  0.35074860717E+00 -0.14564113693E+02  0.46862780052E+02  0.47000000000E+01 0.  1.
<mgrwt>
<rscale>  2 0.17769691E+03</rscale>
<asrwt>0</asrwt>
<pdfrwt beam="1">  1       21 0.22524264E-01 0.17858974E+03</pdfrwt>
<pdfrwt beam="2">  1       21 0.57427436E-01 0.17858974E+03</pdfrwt>
<totfact> 0.52893271E+04</totfact>
</mgrwt>
</event>
<event>
12    1  0.2768653E-001  0.1809037E+03  0.7546771E-02  0.1168164E+00
         21   -1    0    0  504  503  0.00000000000E+00  0.00000000000E+00  0.98723617293E+03  0.98723617293E+03  0.00000000000E+00 0.  1.
         21   -1    0    0  502  504 -0.00000000000E+00 -0.00000000000E+00 -0.32275655105E+02  0.32275655105E+02  0.00000000000E+00 0. -1.
          6    2    1    2  502    0  0.13851952963E+02  0.52381396660E+02  0.46512118099E+03  0.49906299341E+03  0.17259916301E+03 0.  0.
         24    2    3    3    0    0  0.29562946263E+02 -0.34693935566E+02  0.24490246099E+03  0.26168708177E+03  0.80157821864E+02 0.  0.
         -6    2    1    2    0  503 -0.13851952963E+02 -0.52381396660E+02  0.48983933684E+03  0.52044883462E+03  0.16729831509E+03 0.  0.
        -24    2    5    5    0    0  0.48599582588E+02 -0.59698476819E+02  0.24983047583E+03  0.27229550034E+03  0.76182316120E+02 0.  0.
          4    1    4    4  501    0  0.34541412953E+02  0.18173827916E+02  0.10912892510E+03  0.11589874686E+03  0.00000000000E+00 0. -1.
         -3    1    4    4    0  501 -0.49784666907E+01 -0.52867763482E+02  0.13577353590E+03  0.14578833491E+03  0.00000000000E+00 0.  1.
          5    1    3    3  502    0 -0.15710993300E+02  0.87075332227E+02  0.22021871999E+03  0.23737591164E+03  0.47000000000E+01 0. -1.
         13    1    6    6    0    0 -0.14416267415E+02 -0.26399167700E+02  0.36069073782E+02  0.46965124347E+02  0.00000000000E+00 0. -1.
        -14    1    6    6    0    0  0.63015850003E+02 -0.33299309119E+02  0.21376140204E+03  0.22533037599E+03  0.00000000000E+00 0.  1.
         -5    1    5    5    0  503 -0.62451535551E+02  0.73170801584E+01  0.24000886101E+03  0.24815333429E+03  0.47000000000E+01 0.  1.
<mgrwt>
<rscale>  2 0.17962770E+03</rscale>
<asrwt>0</asrwt>
<pdfrwt beam="1">  1       21 0.15188246E+00 0.18090373E+03</pdfrwt>
<pdfrwt beam="2">  1       21 0.49654862E-02 0.18090373E+03</pdfrwt>
<totfact> 0.79190602E+04</totfact>
</mgrwt>
</event>
<event>
12    1  0.2768653E-001  0.2124011E+03  0.7546771E-02  0.1140015E+00
         21   -1    0    0  504  503  0.00000000000E+00  0.00000000000E+00  0.23147236436E+04  0.23147236436E+04  0.00000000000E+00 0.  1.
         21   -1    0    0  502  504 -0.00000000000E+00 -0.00000000000E+00 -0.34092027242E+02  0.34092027242E+02  0.00000000000E+00 0. -1.
          6    2    1    2  502    0  0.10671268532E+03  0.53282752277E+02  0.37022052374E+03  0.42682253633E+03  0.17574866264E+03 0.  0.
         24    2    3    3    0    0  0.12036257591E+03  0.40220048932E+02  0.17435886847E+03  0.22999562826E+03  0.79951059968E+02 0.  0.
         -6    2    1    2    0  503 -0.10671268532E+03 -0.53282752277E+02  0.19104110926E+04  0.19219931345E+04  0.17366754859E+03 0.  0.
        -24    2    5    5    0    0 -0.51914550766E+02 -0.96649713007E+02  0.10855674890E+04  0.10941812059E+04  0.82094155886E+02 0.  0.
          2    1    4    4  501    0  0.12707680291E+03  0.51003398175E+02  0.15476953784E+03  0.20664818002E+03  0.00000000000E+00 0. -1.
         -1    1    4    4    0  501 -0.67142269926E+01 -0.10783349244E+02  0.19589330629E+02  0.23347448244E+02  0.00000000000E+00 0.  1.
          5    1    3    3  502    0 -0.13649890591E+02  0.13062703345E+02  0.19586165527E+03  0.19682690807E+03  0.47000000000E+01 0. -1.
         11    1    6    6    0    0  0.20374326845E+02 -0.18701449407E+02  0.33231719684E+03  0.33346600535E+03  0.00000000000E+00 0. -1.
        -12    1    6    6    0    0 -0.72288877611E+02 -0.77948263600E+02  0.75325029219E+03  0.76071520052E+03  0.00000000000E+00 0.  1.
         -5    1    5    5    0  503 -0.54798134556E+02  0.43366960730E+02  0.82484360361E+03  0.82781192867E+03  0.47000000000E+01 0.  1.
<mgrwt>
<rscale>  2 0.21197014E+03</rscale>
<asrwt>0</asrwt>
<pdfrwt beam="1">  1       21 0.35611120E+00 0.21240113E+03</pdfrwt>
<pdfrwt beam="2">  1       21 0.52449291E-02 0.21240113E+03</pdfrwt>
<totfact> 0.38929854E+03</totfact>
</mgrwt>
</event>
<event>
12    1  0.2768653E-001  0.1825874E+03  0.7546771E-02  0.1167819E+00
         21   -1    0    0  504  503  0.00000000000E+00  0.00000000000E+00  0.93416483715E+03  0.93416483715E+03  0.00000000000E+00 0.  1.
         21   -1    0    0  502  504 -0.00000000000E+00 -0.00000000000E+00 -0.61953976075E+02  0.61953976075E+02  0.00000000000E+00 0.  1.
          6    2    1    2  502    0  0.56471777272E+02 -0.43458372196E+01  0.10678909156E+03  0.21152324392E+03  0.17358060005E+03 0.  0.
         24    2    3    3    0    0 -0.14177994027E+02  0.12541787451E+02  0.14399027096E+02  0.93902684223E+02  0.90840905851E+02 0.  0.
         -6    2    1    2    0  503 -0.56471777272E+02  0.43458372196E+01  0.76542176951E+03  0.78459556930E+03  0.16282436611E+03 0.  0.
        -24    2    5    5    0    0  0.26332116168E+02 -0.16739932797E+02  0.46509037293E+03  0.47231023145E+03  0.76120260424E+02 0.  0.
          4    1    4    4  501    0 -0.34587349267E+00  0.51342422487E+02  0.45198457566E+01  0.51542147617E+02  0.00000000000E+00 0. -1.
         -3    1    4    4    0  501 -0.13832120534E+02 -0.38800635036E+02  0.98791813397E+01  0.42360536606E+02  0.00000000000E+00 0.  1.
          5    1    3    3  502    0  0.70649771299E+02 -0.16887624671E+02  0.92390064467E+02  0.11762055970E+03  0.47000000000E+01 0. -1.
         11    1    6    6    0    0  0.48946445233E+02 -0.37760341283E+01  0.19981528875E+03  0.20575753340E+03  0.00000000000E+00 0. -1.
        -12    1    6    6    0    0 -0.22614329064E+02 -0.12963898669E+02  0.26527508419E+03  0.26655269805E+03  0.00000000000E+00 0.  1.
         -5    1    5    5    0  503 -0.82803893441E+02  0.21085770016E+02  0.30033139657E+03  0.31228533785E+03  0.47000000000E+01 0.  1.
<mgrwt>
<rscale>  2 0.17998394E+03</rscale>
<asrwt>0</asrwt>
<pdfrwt beam="1">  1       21 0.14371766E+00 0.18258744E+03</pdfrwt>
<pdfrwt beam="2">  1       21 0.95313816E-02 0.18258744E+03</pdfrwt>
<totfact> 0.29707880E+04</totfact>
</mgrwt>
</event>
<event>
12    1  0.2768653E-001  0.1884481E+03  0.7546771E-02  0.1162198E+00
         21   -1    0    0  504  503  0.00000000000E+00  0.00000000000E+00  0.28014026245E+02  0.28014026245E+02  0.00000000000E+00 0. -1.
         21   -1    0    0  502  504 -0.00000000000E+00 -0.00000000000E+00 -0.12699424545E+04  0.12699424545E+04  0.00000000000E+00 0. -1.
          6    2    1    2  502    0  0.90041206524E+01  0.46025688735E+02 -0.48653342736E+03  0.52175421286E+03  0.18251916196E+03 0.  0.
         24    2    3    3    0    0 -0.52029010820E+02  0.79608920362E+01 -0.40084731890E+03  0.40978023790E+03  0.66864613470E+02 0.  0.
         -6    2    1    2    0  503 -0.90041206524E+01 -0.46025688735E+02 -0.75539500085E+03  0.77620226784E+03  0.17224666929E+03 0.  0.
        -24    2    5    5    0    0  0.12359585590E+02  0.65034067382E+00 -0.16343945276E+03  0.18200657569E+03  0.79124942809E+02 0.  0.
          4    1    4    4  501    0 -0.43725092118E+02  0.92776521527E+01 -0.39857140533E+03  0.40106997352E+03  0.00000000000E+00 0. -1.
         -3    1    4    4    0  501 -0.83039187014E+01 -0.13167601164E+01 -0.22759135679E+01  0.87102643802E+01  0.00000000000E+00 0.  1.
          5    1    3    3  502    0  0.61033131472E+02  0.38064796699E+02 -0.85686108462E+02  0.11197397496E+03  0.47000000000E+01 0. -1.
         13    1    6    6    0    0 -0.29707311778E+02  0.17777740566E+02 -0.73785972750E+02  0.81504246560E+02  0.00000000000E+00 0. -1.
        -14    1    6    6    0    0  0.42066897368E+02 -0.17127399892E+02 -0.89653480015E+02  0.10050232913E+03  0.00000000000E+00 0.  1.
         -5    1    5    5    0  503 -0.21363706242E+02 -0.46676029409E+02 -0.59195554808E+03  0.59419569215E+03  0.47000000000E+01 0.  1.
<mgrwt>
<rscale>  2 0.18591471E+03</rscale>
<asrwt>0</asrwt>
<pdfrwt beam="1">  1       21 0.43098516E-02 0.18844809E+03</pdfrwt>
<pdfrwt beam="2">  1       21 0.19537570E+00 0.18844809E+03</pdfrwt>
<totfact> 0.49856703E+04</totfact>
</mgrwt>
</event>
<event>
12    1  0.2768653E-001  0.2328671E+03  0.7546771E-02  0.1124705E+00
         21   -1    0    0  504  503  0.00000000000E+00  0.00000000000E+00  0.69354037706E+03  0.69354037706E+03  0.00000000000E+00 0.  1.
         21   -1    0    0  502  504 -0.00000000000E+00 -0.00000000000E+00 -0.14199993677E+03  0.14199993677E+03  0.00000000000E+00 0.  1.
          6    2    1    2  502    0 -0.19864114373E+01  0.15594501577E+03 -0.46943535968E+01  0.23252767619E+03  0.17240733588E+03 0.  0.
         24    2    3    3    0    0 -0.17724495442E+02  0.17626539867E+03  0.21255708759E+02  0.19570239974E+03  0.80398853241E+02 0.  0.
         -6    2    1    2    0  503  0.19864114373E+01 -0.15594501577E+03  0.55623479389E+03  0.60301263764E+03  0.17292860217E+03 0.  0.
        -24    2    5    5    0    0  0.15033933769E+02 -0.94544457825E+02  0.16841575521E+03  0.21011829674E+03  0.81370500486E+02 0.  0.
          4    1    4    4  501    0 -0.45703699561E+02  0.12979718604E+03  0.45506184715E+00  0.13760939190E+03  0.00000000000E+00 0. -1.
         -3    1    4    4    0  501  0.27979204119E+02  0.46468212630E+02  0.20800646911E+02  0.58093007842E+02  0.00000000000E+00 0.  1.
          5    1    3    3  502    0  0.15738084004E+02 -0.20320382903E+02 -0.25950062355E+02  0.36825276451E+02  0.47000000000E+01 0. -1.
         11    1    6    6    0    0 -0.22651738507E+02 -0.34649697698E+02  0.20604869578E+02  0.46241360904E+02  0.00000000000E+00 0. -1.
        -12    1    6    6    0    0  0.37685672276E+02 -0.59894760127E+02  0.14781088563E+03  0.16387693583E+03  0.00000000000E+00 0.  1.
         -5    1    5    5    0  503 -0.13047522332E+02 -0.61400557944E+02  0.38781903868E+03  0.39289434091E+03  0.47000000000E+01 0.  1.
<mgrwt>
<rscale>  2 0.23277035E+03</rscale>
<asrwt>0</asrwt>
<pdfrwt beam="1">  1       21 0.10669852E+00 0.23286712E+03</pdfrwt>
<pdfrwt beam="2">  1       21 0.21846144E-01 0.23286712E+03</pdfrwt>
<totfact> 0.13402545E+04</totfact>
</mgrwt>
</event>
<event>
12    1  0.2768653E-001  0.2454660E+03  0.7546771E-02  0.1116604E+00
         21   -1    0    0  504  503  0.00000000000E+00  0.00000000000E+00  0.48720418127E+03  0.48720418127E+03  0.00000000000E+00 0. -1.
         21   -1    0    0  502  504 -0.00000000000E+00 -0.00000000000E+00 -0.15801375111E+03  0.15801375111E+03  0.00000000000E+00 0.  1.
          6    2    1    2  502    0 -0.16460251443E+03 -0.46800210257E+02  0.10876298289E+02  0.24325095680E+03  0.17253546501E+03 0.  0.
         24    2    3    3    0    0 -0.56765314254E+02 -0.13483941696E+02 -0.53253795556E+02  0.11335255639E+03  0.81294020160E+02 0.  0.
         -6    2    1    2    0  503  0.16460251443E+03  0.46800210257E+02  0.31831413188E+03  0.40196697558E+03  0.17598100883E+03 0.  0.
        -24    2    5    5    0    0  0.19310429261E+03  0.44120712426E+02  0.25760789355E+03  0.33468496878E+03  0.80101787845E+02 0.  0.
          2    1    4    4  501    0 -0.89663805684E+00 -0.28077876088E+02  0.79632162303E+01  0.29199039336E+02  0.00000000000E+00 0. -1.
         -1    1    4    4    0  501 -0.55868676197E+02  0.14593934392E+02 -0.61217011786E+02  0.84153517057E+02  0.00000000000E+00 0.  1.
          5    1    3    3  502    0 -0.10783720017E+03 -0.33316268561E+02  0.64130093845E+02  0.12989840041E+03  0.47000000000E+01 0. -1.
         11    1    6    6    0    0  0.40526435122E+02  0.41246329461E+02  0.46534574132E+02  0.74223434489E+02  0.00000000000E+00 0. -1.
        -12    1    6    6    0    0  0.15257785749E+03  0.28743829650E+01  0.21107331942E+03  0.26046153429E+03  0.00000000000E+00 0.  1.
         -5    1    5    5    0  503 -0.28501778181E+02  0.26794978313E+01  0.60706238322E+02  0.67282006802E+02  0.47000000000E+01 0.  1.
<mgrwt>
<rscale>  2 0.24484911E+03</rscale>
<asrwt>0</asrwt>
<pdfrwt beam="1">  1       21 0.74954489E-01 0.24546601E+03</pdfrwt>
<pdfrwt beam="2">  1       21 0.24309808E-01 0.24546601E+03</pdfrwt>
<totfact> 0.24730730E+04</totfact>
</mgrwt>
</event>
<event>
12    1  0.2768653E-001  0.1895151E+03  0.7546771E-02  0.1159257E+00
         21   -1    0    0  504  503  0.00000000000E+00  0.00000000000E+00  0.21235849655E+03  0.21235849655E+03  0.00000000000E+00 0. -1.
         21   -1    0    0  502  504 -0.00000000000E+00 -0.00000000000E+00 -0.18918205282E+03  0.18918205282E+03  0.00000000000E+00 0. -1.
          6    2    1    2  502    0 -0.15376008355E+02  0.70992256998E+02 -0.55977405410E+02  0.19760927942E+03  0.17504180989E+03 0.  0.
         24    2    3    3    0    0 -0.61213518406E+02  0.24255446612E+01 -0.61649737852E+01  0.10114249907E+03  0.80242258897E+02 0.  0.
         -6    2    1    2    0  503  0.15376008355E+02 -0.70992256998E+02  0.79153849140E+02  0.20393126995E+03  0.17333871132E+03 0.  0.
        -24    2    5    5    0    0  0.67803334037E+02 -0.77727976835E+01  0.53285375744E+02  0.11769559038E+03  0.79719585026E+02 0.  0.
          2    1    4    4  501    0 -0.12509693645E+02 -0.22332439180E+02  0.27019079862E+02  0.37219093909E+02  0.00000000000E+00 0. -1.
         -1    1    4    4    0  501 -0.48703824761E+02  0.24757983841E+02 -0.33184053648E+02  0.63923405156E+02  0.00000000000E+00 0.  1.
          5    1    3    3  502    0  0.45837510051E+02  0.68566712337E+02 -0.49812431625E+02  0.96466780358E+02  0.47000000000E+01 0. -1.
         13    1    6    6    0    0 -0.13683707070E+02 -0.10923181984E+02  0.26689955498E+02  0.31920424000E+02  0.00000000000E+00 0. -1.
        -14    1    6    6    0    0  0.81487041108E+02  0.31503843005E+01  0.26595420245E+02  0.85775166381E+02  0.00000000000E+00 0.  1.
         -5    1    5    5    0  503 -0.52427325683E+02 -0.63219459314E+02  0.25868473396E+02  0.86235679565E+02  0.47000000000E+01 0.  1.
<mgrwt>
<rscale>  2 0.18912086E+03</rscale>
<asrwt>0</asrwt>
<pdfrwt beam="1">  1       21 0.32670538E-01 0.18951506E+03</pdfrwt>
<pdfrwt beam="2">  1       21 0.29104931E-01 0.18951506E+03</pdfrwt>
<totfact> 0.10204153E+05</totfact>
</mgrwt>
</event>
<event>
12    1  0.2768653E-001  0.1853215E+03  0.7546771E-02  0.1162893E+00
         21   -1    0    0  504  503  0.00000000000E+00  0.00000000000E+00  0.16462359947E+03  0.16462359947E+03  0.00000000000E+00 0.  1.
         21   -1    0    0  502  504 -0.00000000000E+00 -0.00000000000E+00 -0.26306820576E+03  0.26306820576E+03  0.00000000000E+00 0.  1.
          6    2    1    2  502    0  0.40827155426E+02  0.52942276538E+02  0.48615109586E+02  0.19159201670E+03  0.17284192408E+03 0.  0.
         24    2    3    3    0    0  0.31732703273E+02 -0.37900267172E+02  0.23111715189E+02  0.96683692868E+02  0.79813472415E+02 0.  0.
         -6    2    1    2    0  503 -0.40827155426E+02 -0.52942276538E+02 -0.14705971588E+03  0.23609978852E+03  0.17218248703E+03 0.  0.
        -24    2    5    5    0    0  0.20912687209E+02  0.17271624327E+02 -0.39217574185E+02  0.93292864432E+02  0.80186600724E+02 0.  0.
          4    1    4    4  501    0  0.21987382110E+02 -0.41993851133E+02 -0.20620139799E+02  0.51692539794E+02  0.00000000000E+00 0. -1.
         -3    1    4    4    0  501  0.97453211628E+01  0.40935839615E+01  0.43731854988E+02  0.44991153074E+02  0.00000000000E+00 0.  1.
          5    1    3    3  502    0  0.90944521533E+01  0.90842543710E+02  0.25503394397E+02  0.94908323837E+02  0.47000000000E+01 0. -1.
         11    1    6    6    0    0  0.24075105105E+02 -0.19807562919E+02  0.89396324974E+01  0.32432503200E+02  0.00000000000E+00 0. -1.
        -12    1    6    6    0    0 -0.31624178959E+01  0.37079187247E+02 -0.48157206683E+02  0.60860361232E+02  0.00000000000E+00 0.  1.
         -5    1    5    5    0  503 -0.61739842636E+02 -0.70213900866E+02 -0.10784214169E+03  0.14280692409E+03  0.47000000000E+01 0.  1.
<mgrwt>
<rscale>  2 0.18516763E+03</rscale>
<asrwt>0</asrwt>
<pdfrwt beam="1">  1       21 0.25326708E-01 0.18532154E+03</pdfrwt>
<pdfrwt beam="2">  1       21 0.40472031E-01 0.18532154E+03</pdfrwt>
<totfact> 0.87165540E+04</totfact>
</mgrwt>
</event>
<event>
12    1  0.2768653E-001  0.2256843E+03  0.7546771E-02  0.1129772E+00
         21   -1    0    0  504  503  0.00000000000E+00  0.00000000000E+00  0.13456641068E+03  0.13456641068E+03  0.00000000000E+00 0.  1.
         21   -1    0    0  502  504 -0.00000000000E+00 -0.00000000000E+00 -0.37806453077E+03  0.37806453077E+03  0.00000000000E+00 0. -1.
          6    2    1    2  502    0  0.30945950014E+01  0.14498777057E+03 -0.12585624714E+03  0.25840511632E+03  0.17292304376E+03 0.  0.
         24    2    3    3    0    0 -0.12142788353E+02  0.10029555705E+03 -0.37052634596E+01  0.12736113663E+03  0.77462791540E+02 0.  0.
         -6    2    1    2    0  503 -0.30945950014E+01 -0.14498777057E+03 -0.11764187295E+03  0.25422582512E+03  0.17251124529E+03 0.  0.
        -24    2    5    5    0    0 -0.47493018822E+02 -0.53233641606E+02 -0.10524379249E+03  0.15143554046E+03  0.82262139666E+02 0.  0.
          2    1    4    4  501    0  0.40329304036E+01  0.10479871541E+03  0.10455506187E+02  0.10539617113E+03  0.00000000000E+00 0. -1.
         -1    1    4    4    0  501 -0.16175718756E+02 -0.45031583588E+01 -0.14160769646E+02  0.21964965501E+02  0.00000000000E+00 0.  1.
          5    1    3    3  502    0  0.15237383354E+02  0.44692213527E+02 -0.12215098368E+03  0.13104397970E+03  0.47000000000E+01 0. -1.
         11    1    6    6    0    0 -0.19178360866E+02 -0.67318463970E+02 -0.44477615550E+02  0.82932764344E+02  0.00000000000E+00 0. -1.
        -12    1    6    6    0    0 -0.28314657956E+02  0.14084822364E+02 -0.60766176940E+02  0.68502776120E+02  0.00000000000E+00 0.  1.
         -5    1    5    5    0  503  0.44398423821E+02 -0.91754128967E+02 -0.12398080461E+02  0.10279028465E+03  0.47000000000E+01 0.  1.
<mgrwt>
<rscale>  2 0.22560543E+03</rscale>
<asrwt>0</asrwt>
<pdfrwt beam="1">  1       21 0.20702525E-01 0.22568431E+03</pdfrwt>
<pdfrwt beam="2">  1       21 0.58163772E-01 0.22568431E+03</pdfrwt>
<totfact> 0.59043447E+04</totfact>
</mgrwt>
</event>
<event>
12    1  0.2768653E-001  0.2205367E+03  0.7546771E-02  0.1133868E+00
         21   -1    0    0  504  503  0.00000000000E+00  0.00000000000E+00  0.68703696745E+03  0.68703696745E+03  0.00000000000E+00 0. -1.
         21   -1    0    0  502  504 -0.00000000000E+00 -0.00000000000E+00 -0.10133748631E+03  0.10133748631E+03  0.00000000000E+00 0.  1.
          6    2    1    2  502    0 -0.13511621389E+03 -0.16728335349E+02  0.51253586653E+03  0.55796902829E+03  0.17349407365E+03 0.  0.
         24    2    3    3    0    0 -0.73058509839E+02 -0.55141092030E+02  0.39913565379E+03  0.42303053580E+03  0.10614837821E+03 0.  0.
         -6    2    1    2    0  503  0.13511621389E+03  0.16728335349E+02  0.73163614605E+02  0.23040542547E+03  0.17087280979E+03 0.  0.
        -24    2    5    5    0    0  0.20849552817E+01  0.21762879941E+02  0.15894781162E+02  0.85407247240E+02  0.81017182320E+02 0.  0.
          4    1    4    4  501    0 -0.94840209474E+02 -0.66272511920E+02  0.32906350077E+03  0.34881155186E+03  0.00000000000E+00 0. -1.
         -3    1    4    4    0  501  0.21781699635E+02  0.11131419891E+02  0.70072153019E+02  0.74218983936E+02  0.00000000000E+00 0.  1.
          5    1    3    3  502    0 -0.62057704054E+02  0.38412756681E+02  0.11340021273E+03  0.13493849249E+03  0.47000000000E+01 0. -1.
         11    1    6    6    0    0  0.34729191623E+02  0.26430272324E+02  0.26144960298E+02  0.50874698966E+02  0.00000000000E+00 0. -1.
        -12    1    6    6    0    0 -0.32644236341E+02 -0.46673923838E+01 -0.10250179136E+02  0.34532548274E+02  0.00000000000E+00 0.  1.
         -5    1    5    5    0  503  0.13303125861E+03 -0.50345445912E+01  0.57268833443E+02  0.14499817823E+03  0.47000000000E+01 0.  1.
<mgrwt>
<rscale>  2 0.22002083E+03</rscale>
<asrwt>0</asrwt>
<pdfrwt beam="1">  1       21 0.10569799E+00 0.22053667E+03</pdfrwt>
<pdfrwt beam="2">  1       21 0.15590383E-01 0.22053667E+03</pdfrwt>
<totfact> 0.25870993E+04</totfact>
</mgrwt>
</event>
<event>
12    1  0.2768653E-001  0.2190664E+03  0.7546771E-02  0.1134696E+00
         21   -1    0    0  504  503  0.00000000000E+00  0.00000000000E+00  0.11079875694E+03  0.11079875694E+03  0.00000000000E+00 0.  1.
         21   -1    0    0  502  504 -0.00000000000E+00 -0.00000000000E+00 -0.43272530793E+03  0.43272530793E+03  0.00000000000E+00 0. -1.
          6    2    1    2  502    0 -0.97560288465E+02  0.90902695862E+02 -0.17248627282E+03  0.27834016050E+03  0.17303300446E+03 0.  0.
         24    2    3    3    0    0 -0.21937680919E+02  0.66579417935E+01 -0.16216219422E+02  0.85315869409E+02  0.80562036764E+02 0.  0.
         -6    2    1    2    0  503  0.97560288465E+02 -0.90902695862E+02 -0.14944027817E+03  0.26518390438E+03  0.17380677893E+03 0.  0.
        -24    2    5    5    0    0  0.44710519700E+02 -0.24409746464E+02 -0.34257023725E+01  0.96196458920E+02  0.81530098600E+02 0.  0.
          2    1    4    4  501    0 -0.43829447845E+02 -0.23667340069E+01 -0.34148964476E+02  0.55612711704E+02  0.00000000000E+00 0. -1.
         -1    1    4    4    0  501  0.21891766927E+02  0.90246758004E+01  0.17932745054E+02  0.29703157705E+02  0.00000000000E+00 0.  1.
          5    1    3    3  502    0 -0.75622607546E+02  0.84244754068E+02 -0.15627005340E+03  0.19302429109E+03  0.47000000000E+01 0. -1.
         11    1    6    6    0    0  0.32822324103E+02 -0.18910821757E+02 -0.41347539225E+02  0.56076226147E+02  0.00000000000E+00 0. -1.
        -12    1    6    6    0    0  0.11888195598E+02 -0.54989247078E+01  0.37921836852E+02  0.40120232773E+02  0.00000000000E+00 0.  1.
         -5    1    5    5    0  503  0.52849768764E+02 -0.66492949397E+02 -0.14601457580E+03  0.16898744546E+03  0.47000000000E+01 0.  1.
<mgrwt>
<rscale>  2 0.21891293E+03</rscale>
<asrwt>0</asrwt>
<pdfrwt beam="1">  1       21 0.17045963E-01 0.21906644E+03</pdfrwt>
<pdfrwt beam="2">  1       21 0.66573123E-01 0.21906644E+03</pdfrwt>
<totfact> 0.63454918E+04</totfact>
</mgrwt>
</event>
<event>
12    1  0.2768653E-001  0.2345450E+03  0.7546771E-02  0.1123618E+00
         21   -1    0    0  504  503  0.00000000000E+00  0.00000000000E+00  0.87403116169E+02  0.87403116169E+02  0.00000000000E+00 0.  1.
         21   -1    0    0  502  504 -0.00000000000E+00 -0.00000000000E+00 -0.70596937216E+03  0.70596937216E+03  0.00000000000E+00 0. -1.
          6    2    1    2  502    0  0.15762656141E+03 -0.28209509809E+01 -0.17636060533E+03  0.29281561516E+03  0.17257992567E+03 0.  0.
         24    2    3    3    0    0  0.25787318862E+02  0.93934292955E+01 -0.12421171239E+03  0.15043452795E+03  0.80304267497E+02 0.  0.
         -6    2    1    2    0  503 -0.15762656141E+03  0.28209509809E+01 -0.44220565066E+03  0.50055687316E+03  0.17365844399E+03 0.  0.
        -24    2    5    5    0    0 -0.17404342160E+03 -0.29482571997E+02 -0.31709201781E+03  0.37021677181E+03  0.73162666139E+02 0.  0.
          2    1    4    4  501    0  0.76667497609E+01  0.44086758702E+02 -0.77510335132E+02  0.89500130710E+02  0.00000000000E+00 0. -1.
         -1    1    4    4    0  501  0.18120569101E+02 -0.34693329406E+02 -0.46701377253E+02  0.60934397241E+02  0.00000000000E+00 0.  1.
          5    1    3    3  502    0  0.13183924255E+03 -0.12214380276E+02 -0.52148892945E+02  0.14238108721E+03  0.47000000000E+01 0. -1.
         11    1    6    6    0    0 -0.13377501003E+03  0.94764344694E+01 -0.20623862943E+03  0.24600798440E+03  0.00000000000E+00 0. -1.
        -12    1    6    6    0    0 -0.40268411578E+02 -0.38959006466E+02 -0.11085338838E+03  0.12420878741E+03  0.00000000000E+00 0.  1.
         -5    1    5    5    0  503  0.16416860197E+02  0.32303522978E+02 -0.12511363285E+03  0.13034010135E+03  0.47000000000E+01 0.  1.
<mgrwt>
<rscale>  2 0.23434537E+03</rscale>
<asrwt>0</asrwt>
<pdfrwt beam="1">  1       21 0.13446634E-01 0.23454498E+03</pdfrwt>
<pdfrwt beam="2">  1       21 0.10861067E+00 0.23454498E+03</pdfrwt>
<totfact> 0.31489212E+04</totfact>
</mgrwt>
</event>
<event>
12    1  0.2768653E-001  0.2022438E+03  0.7546771E-02  0.1148523E+00
         21   -1    0    0  504  503  0.00000000000E+00  0.00000000000E+00  0.26205152976E+03  0.26205152976E+03  0.00000000000E+00 0.  1.
         21   -1    0    0  502  504 -0.00000000000E+00 -0.00000000000E+00 -0.22616420051E+03  0.22616420051E+03  0.00000000000E+00 0.  1.
          6    2    1    2  502    0  0.74774695821E+02  0.63317436688E+02 -0.12036795171E+03  0.23264135707E+03  0.17330090679E+03 0.  0.
         24    2    3    3    0    0  0.21877301333E+01 -0.11395727843E+02 -0.95633925817E+02  0.12547426054E+03  0.80394611225E+02 0.  0.
         -6    2    1    2    0  503 -0.74774695821E+02 -0.63317436688E+02  0.15625528096E+03  0.25557437321E+03  0.17692426201E+03 0.  0.
        -24    2    5    5    0    0  0.10446667561E+02 -0.81699691403E+02  0.88608728572E+02  0.14512649358E+03  0.80163707000E+02 0.  0.
          2    1    4    4  501    0 -0.19934597511E+02 -0.40221826326E+02 -0.52651517983E+02  0.69190793006E+02  0.00000000000E+00 0. -1.
         -1    1    4    4    0  501  0.22122327644E+02  0.28826098483E+02 -0.42982407834E+02  0.56283467532E+02  0.00000000000E+00 0.  1.
          5    1    3    3  502    0  0.72586965688E+02  0.74713164531E+02 -0.24734025893E+02  0.10716709653E+03  0.47000000000E+01 0. -1.
         13    1    6    6    0    0  0.33431262414E+02 -0.22718780128E+02  0.57078838437E+01  0.40821222606E+02  0.00000000000E+00 0. -1.
        -14    1    6    6    0    0 -0.22984594853E+02 -0.58980911275E+02  0.82900844729E+02  0.10430527097E+03  0.00000000000E+00 0.  1.
         -5    1    5    5    0  503 -0.85221363382E+02  0.18382254715E+02  0.67646552385E+02  0.11044787963E+03  0.47000000000E+01 0.  1.
<mgrwt>
<rscale>  2 0.20144861E+03</rscale>
<asrwt>0</asrwt>
<pdfrwt beam="1">  1       21 0.40315620E-01 0.20224378E+03</pdfrwt>
<pdfrwt beam="2">  1       21 0.34794492E-01 0.20224378E+03</pdfrwt>
<totfact> 0.46978817E+04</totfact>
</mgrwt>
</event>
<event>
12    1  0.2768653E-001  0.2370439E+03  0.7546771E-02  0.1121784E+00
         21   -1    0    0  504  503  0.00000000000E+00  0.00000000000E+00  0.72647945774E+03  0.72647945774E+03  0.00000000000E+00 0.  1.
         21   -1    0    0  502  504 -0.00000000000E+00 -0.00000000000E+00 -0.17419538651E+03  0.17419538651E+03  0.00000000000E+00 0. -1.
          6    2    1    2  502    0  0.14736775895E+03 -0.66898744550E+02 -0.59681601105E+02  0.24440370092E+03  0.17314322717E+03 0.  0.
         24    2    3    3    0    0  0.15069294762E+03 -0.47169612038E+02 -0.96712648075E+02  0.20205179437E+03  0.80859474062E+02 0.  0.
         -6    2    1    2    0  503 -0.14736775895E+03  0.66898744550E+02  0.61196567233E+03  0.65627114333E+03  0.17319679862E+03 0.  0.
        -24    2    5    5    0    0 -0.53927522648E+02 -0.11189538557E+02  0.41642961408E+03  0.42586867417E+03  0.70122183953E+02 0.  0.
          2    1    4    4  501    0  0.15468861914E+03 -0.56781675464E+02 -0.82073686070E+02  0.18408915640E+03  0.00000000000E+00 0. -1.
         -1    1    4    4    0  501 -0.39956715118E+01  0.96120634267E+01 -0.14638962005E+02  0.17962637967E+02  0.00000000000E+00 0.  1.
          5    1    3    3  502    0 -0.33251886729E+01 -0.19729132512E+02  0.37031046970E+02  0.42351906558E+02  0.47000000000E+01 0. -1.
         13    1    6    6    0    0  0.15223759203E+02  0.47417575075E+01  0.12046319019E+03  0.12151389756E+03  0.00000000000E+00 0. -1.
        -14    1    6    6    0    0 -0.69151281851E+02 -0.15931296065E+02  0.29596642389E+03  0.30435477661E+03  0.00000000000E+00 0.  1.
         -5    1    5    5    0  503 -0.93440236303E+02  0.78088283107E+02  0.19553605825E+03  0.23040246916E+03  0.47000000000E+01 0.  1.
<mgrwt>
<rscale>  2 0.23703415E+03</rscale>
<asrwt>0</asrwt>
<pdfrwt beam="1">  1       21 0.11176607E+00 0.23704394E+03</pdfrwt>
<pdfrwt beam="2">  1       21 0.26799291E-01 0.23704394E+03</pdfrwt>
<totfact> 0.80799727E+03</totfact>
</mgrwt>
</event>
<event>
12    1  0.2768653E-001  0.1759707E+03  0.7546771E-02  0.1172300E+00
         21   -1    0    0  504  503  0.00000000000E+00  0.00000000000E+00  0.76118086659E+02  0.76118086659E+02  0.00000000000E+00 0. -1.
         21   -1    0    0  502  504 -0.00000000000E+00 -0.00000000000E+00 -0.44602978233E+03  0.44602978233E+03  0.00000000000E+00 0. -1.
          6    2    1    2  502    0 -0.84744908576E+01 -0.28152925914E+02 -0.26608831853E+03  0.31783197148E+03  0.17131772997E+03 0.  0.
         24    2    3    3    0    0 -0.48166964220E+02  0.15124365393E+02 -0.86644410228E+02  0.12896529202E+03  0.81092477151E+02 0.  0.
         -6    2    1    2    0  503  0.84744908576E+01  0.28152925914E+02 -0.10382337714E+03  0.20431589751E+03  0.17349722794E+03 0.  0.
        -24    2    5    5    0    0 -0.24834884597E+02  0.30067712185E+02  0.40252893925E+01  0.91326491934E+02  0.82483248998E+02 0.  0.
          4    1    4    4  501    0 -0.56540538989E+02  0.45491498635E+00 -0.19626908514E+02  0.59851942614E+02  0.00000000000E+00 0. -1.
         -3    1    4    4    0  501  0.83735747694E+01  0.14669450407E+02 -0.67017501715E+02  0.69113349403E+02  0.00000000000E+00 0.  1.
          5    1    3    3  502    0  0.39692473362E+02 -0.43277291308E+02 -0.17944390830E+03  0.18886667946E+03  0.47000000000E+01 0. -1.
         13    1    6    6    0    0 -0.24637360741E+02  0.31627829268E+01 -0.35612572131E+02  0.43419558195E+02  0.00000000000E+00 0. -1.
        -14    1    6    6    0    0 -0.19752385660E+00  0.26904929258E+02  0.39637861523E+02  0.47906933738E+02  0.00000000000E+00 0.  1.
         -5    1    5    5    0  503  0.33309375455E+02 -0.19147862706E+01 -0.10784866654E+03  0.11298940558E+03  0.47000000000E+01 0.  1.
<mgrwt>
<rscale>  2 0.17543112E+03</rscale>
<asrwt>0</asrwt>
<pdfrwt beam="1">  1       21 0.11710475E-01 0.17597071E+03</pdfrwt>
<pdfrwt beam="2">  1       21 0.68619967E-01 0.17597071E+03</pdfrwt>
<totfact> 0.11940162E+05</totfact>
</mgrwt>
</event>
<event>
12    1  0.2768653E-001  0.1767591E+03  0.7546771E-02  0.1171234E+00
         21   -1    0    0  504  503  0.00000000000E+00  0.00000000000E+00  0.90290483040E+03  0.90290483040E+03  0.00000000000E+00 0.  1.
         21   -1    0    0  502  504 -0.00000000000E+00 -0.00000000000E+00 -0.34459052929E+02  0.34459052929E+02  0.00000000000E+00 0.  1.
          6    2    1    2  502    0 -0.34189400797E+02 -0.85433774995E+01  0.45215339763E+03  0.48509944832E+03  0.17215363879E+03 0.  0.
         24    2    3    3    0    0 -0.68858679777E+02 -0.57849609469E+02  0.25880842803E+03  0.28252247361E+03  0.68913355578E+02 0.  0.
         -6    2    1    2    0  503  0.34189400797E+02  0.85433774995E+01  0.41629237984E+03  0.45226443500E+03  0.17321047668E+03 0.  0.
        -24    2    5    5    0    0  0.10520031694E+02  0.57481385041E+02  0.36195099703E+03  0.37525636074E+03  0.79962687129E+02 0.  0.
          4    1    4    4  501    0 -0.58887714282E+02 -0.57000395074E+02  0.25984367518E+03  0.27246200371E+03  0.00000000000E+00 0. -1.
         -3    1    4    4    0  501 -0.99709654946E+01 -0.84921439509E+00 -0.10352471494E+01  0.10060469902E+02  0.00000000000E+00 0.  1.
          5    1    3    3  502    0  0.34669278980E+02  0.49306231970E+02  0.19334496960E+03  0.20257697472E+03  0.47000000000E+01 0. -1.
         13    1    6    6    0    0 -0.11936418672E+02  0.69218170621E+02  0.21633186049E+03  0.22744913079E+03  0.00000000000E+00 0. -1.
        -14    1    6    6    0    0  0.22456450366E+02 -0.11736785580E+02  0.14561913654E+03  0.14780722995E+03  0.00000000000E+00 0.  1.
         -5    1    5    5    0  503  0.23669369102E+02 -0.48938007541E+02  0.54341382803E+02  0.77008074257E+02  0.47000000000E+01 0.  1.
<mgrwt>
<rscale>  2 0.17649964E+03</rscale>
<asrwt>0</asrwt>
<pdfrwt beam="1">  1       21 0.13890842E+00 0.17675908E+03</pdfrwt>
<pdfrwt beam="2">  1       21 0.53013934E-02 0.17675908E+03</pdfrwt>
<totfact> 0.89600180E+04</totfact>
</mgrwt>
</event>
<event>
12    1  0.2768653E-001  0.1781932E+03  0.7546771E-02  0.1170315E+00
         21   -1    0    0  504  503  0.00000000000E+00  0.00000000000E+00  0.50485539525E+03  0.50485539525E+03  0.00000000000E+00 0.  1.
         21   -1    0    0  502  504 -0.00000000000E+00 -0.00000000000E+00 -0.16401878419E+03  0.16401878419E+03  0.00000000000E+00 0.  1.
          6    2    1    2  502    0 -0.19293314765E+02  0.20124304878E+02 -0.94112208147E+02  0.19883877519E+03  0.17292348352E+03 0.  0.
         24    2    3    3    0    0 -0.13897544037E+02 -0.53645028190E+02 -0.75342610763E+02  0.12238345079E+03  0.78932054643E+02 0.  0.
         -6    2    1    2    0  503  0.19293314765E+02 -0.20124304878E+02  0.43494881920E+03  0.47003540426E+03  0.17599882467E+03 0.  0.
        -24    2    5    5    0    0 -0.23890118016E+02 -0.41589643168E+02  0.39868779198E+03  0.40951663271E+03  0.80321110737E+02 0.  0.
          2    1    4    4  501    0 -0.18093893955E+02 -0.20430781398E+02  0.11269423182E+02  0.29526356461E+02  0.00000000000E+00 0. -1.
         -1    1    4    4    0  501  0.41963499181E+01 -0.33214246792E+02 -0.86612033945E+02  0.92857094326E+02  0.00000000000E+00 0.  1.
          5    1    3    3  502    0 -0.53957707284E+01  0.73769333067E+02 -0.18769597384E+02  0.76455324399E+02  0.47000000000E+01 0. -1.
         11    1    6    6    0    0 -0.16759587232E+01 -0.11478771575E+01 -0.38446488056E+01  0.43483081824E+01  0.00000000000E+00 0. -1.
        -12    1    6    6    0    0 -0.22214159293E+02 -0.40441766011E+02  0.40253244079E+03  0.40516832452E+03  0.00000000000E+00 0.  1.
         -5    1    5    5    0  503  0.43183432781E+02  0.21465338291E+02  0.36261027221E+02  0.60518771549E+02  0.47000000000E+01 0.  1.
<mgrwt>
<rscale>  2 0.17742907E+03</rscale>
<asrwt>0</asrwt>
<pdfrwt beam="1">  1       21 0.77670060E-01 0.17819317E+03</pdfrwt>
<pdfrwt beam="2">  1       21 0.25233659E-01 0.17819317E+03</pdfrwt>
<totfact> 0.22063475E+04</totfact>
</mgrwt>
</event>
<event>
12    1  0.2768653E-001  0.2236400E+03  0.7546771E-02  0.1131518E+00
         21   -1    0    0  504  503  0.00000000000E+00  0.00000000000E+00  0.17829344389E+04  0.17829344389E+04  0.00000000000E+00 0. -1.
         21   -1    0    0  502  504 -0.00000000000E+00 -0.00000000000E+00 -0.35619265613E+02  0.35619265613E+02  0.00000000000E+00 0. -1.
          6    2    1    2  502    0  0.12778614768E+03 -0.59569579796E+02  0.13014426083E+04  0.13205179664E+04  0.17360012179E+03 0.  0.
         24    2    3    3    0    0  0.31918459811E+02 -0.69341642373E+02  0.94196208118E+03  0.94831580866E+03  0.78633702249E+02 0.  0.
         -6    2    1    2    0  503 -0.12778614768E+03  0.59569579796E+02  0.44587256494E+03  0.49803573815E+03  0.17134590142E+03 0.  0.
        -24    2    5    5    0    0 -0.22073784689E+02 -0.14985579096E+02  0.10270887072E+03  0.13127016393E+03  0.77271755907E+02 0.  0.
          4    1    4    4  501    0  0.47300089550E+02 -0.25514810610E+02  0.69135686516E+03  0.69344258525E+03  0.00000000000E+00 0. -1.
         -3    1    4    4    0  501 -0.15381629739E+02 -0.43826831762E+02  0.25060521602E+03  0.25487322341E+03  0.00000000000E+00 0.  1.
          5    1    3    3  502    0  0.95867687872E+02  0.97720625764E+01  0.35948052716E+03  0.37220215769E+03  0.47000000000E+01 0. -1.
         13    1    6    6    0    0  0.70591361386E+01 -0.35940043918E+02  0.82070466994E+02  0.89872574863E+02  0.00000000000E+00 0. -1.
        -14    1    6    6    0    0 -0.29132920828E+02  0.20954464821E+02  0.20638403729E+02  0.41397589065E+02  0.00000000000E+00 0.  1.
         -5    1    5    5    0  503 -0.10571236299E+03  0.74555158893E+02  0.34316369422E+03  0.36676557423E+03  0.47000000000E+01 0.  1.
<mgrwt>
<rscale>  2 0.22320237E+03</rscale>
<asrwt>0</asrwt>
<pdfrwt beam="1">  1       21 0.27429754E+00 0.22363997E+03</pdfrwt>
<pdfrwt beam="2">  1       21 0.54798884E-02 0.22363997E+03</pdfrwt>
<totfact> 0.10729835E+04</totfact>
</mgrwt>
</event>
<event>
12    1  0.2768653E-001  0.1881775E+03  0.7546771E-02  0.1160316E+00
         21   -1    0    0  504  503  0.00000000000E+00  0.00000000000E+00  0.16176173235E+03  0.16176173235E+03  0.00000000000E+00 0. -1.
         21   -1    0    0  502  504 -0.00000000000E+00 -0.00000000000E+00 -0.24621734805E+03  0.24621734805E+03  0.00000000000E+00 0. -1.
          6    2    1    2  502    0  0.69798114075E+02  0.14148642206E+02 -0.11151047062E+03  0.21873580946E+03  0.17418039063E+03 0.  0.
         24    2    3    3    0    0  0.41844262364E+02  0.45018852150E+01  0.12474138093E+02  0.91186795577E+02  0.79926330475E+02 0.  0.
         -6    2    1    2    0  503 -0.69798114075E+02 -0.14148642206E+02  0.27054854906E+02  0.18924327094E+03  0.17323131824E+03 0.  0.
        -24    2    5    5    0    0 -0.72188080800E+02  0.52785656780E+02  0.20044969885E+02  0.12173667267E+03  0.80128472370E+02 0.  0.
          4    1    4    4  501    0  0.25510989516E+02  0.37008881201E+02 -0.12980256483E+02  0.46786268629E+02  0.00000000000E+00 0. -1.
         -3    1    4    4    0  501  0.16333272847E+02 -0.32506995986E+02  0.25454394576E+02  0.44400526947E+02  0.00000000000E+00 0.  1.
          5    1    3    3  502    0  0.27953851711E+02  0.96467569908E+01 -0.12398460871E+03  0.12754901388E+03  0.47000000000E+01 0. -1.
         11    1    6    6    0    0  0.97400301537E+00 -0.17373399551E+02  0.94972986970E+01  0.19823783100E+02  0.00000000000E+00 0. -1.
        -12    1    6    6    0    0 -0.73162083816E+02  0.70159056332E+02  0.10547671188E+02  0.10191288957E+03  0.00000000000E+00 0.  1.
         -5    1    5    5    0  503  0.23899667255E+01 -0.66934298986E+02  0.70098850214E+01  0.67506598268E+02  0.47000000000E+01 0.  1.
<mgrwt>
<rscale>  2 0.18795758E+03</rscale>
<asrwt>0</asrwt>
<pdfrwt beam="1">  1       21 0.24886421E-01 0.18817749E+03</pdfrwt>
<pdfrwt beam="2">  1       21 0.37879592E-01 0.18817749E+03</pdfrwt>
<totfact> 0.10286523E+05</totfact>
</mgrwt>
</event>
<event>
12    1  0.2768653E-001  0.1968346E+03  0.7546771E-02  0.1152610E+00
         21   -1    0    0  504  503  0.00000000000E+00  0.00000000000E+00  0.33235870013E+03  0.33235870013E+03  0.00000000000E+00 0. -1.
         21   -1    0    0  502  504 -0.00000000000E+00 -0.00000000000E+00 -0.15011003820E+03  0.15011003820E+03  0.00000000000E+00 0. -1.
          6    2    1    2  502    0  0.70213936638E+02 -0.61562323353E+02 -0.23557703864E+02  0.19823933616E+03  0.17327421169E+03 0.  0.
         24    2    3    3    0    0 -0.26082964869E+02 -0.40341261547E+02 -0.34792204794E+02  0.98882752508E+02  0.79117398779E+02 0.  0.
         -6    2    1    2    0  503 -0.70213936638E+02  0.61562323353E+02  0.20580636579E+03  0.28422940218E+03  0.17236640133E+03 0.  0.
        -24    2    5    5    0    0  0.39657194471E+01  0.85890444019E+02  0.11301583166E+03  0.16287598419E+03  0.79769121318E+02 0.  0.
          4    1    4    4  501    0 -0.29012108237E+02 -0.60665235867E+02 -0.12182403170E+02  0.68340209351E+02  0.00000000000E+00 0. -1.
         -3    1    4    4    0  501  0.29291433684E+01  0.20323974320E+02 -0.22609801624E+02  0.30542543157E+02  0.00000000000E+00 0.  1.
          5    1    3    3  502    0  0.96296901507E+02 -0.21221061806E+02  0.11234500930E+02  0.99356583653E+02  0.47000000000E+01 0. -1.
         13    1    6    6    0    0 -0.23551257209E+02  0.82163337922E+02  0.10181141979E+03  0.13293246787E+03  0.00000000000E+00 0. -1.
        -14    1    6    6    0    0  0.27516976656E+02  0.37271060967E+01  0.11204411864E+02  0.29943516316E+02  0.00000000000E+00 0.  1.
         -5    1    5    5    0  503 -0.74179656085E+02 -0.24328120666E+02  0.92790534137E+02  0.12135341799E+03  0.47000000000E+01 0.  1.
<mgrwt>
<rscale>  2 0.19663465E+03</rscale>
<asrwt>0</asrwt>
<pdfrwt beam="1">  1       21 0.51132108E-01 0.19683462E+03</pdfrwt>
<pdfrwt beam="2">  1       21 0.23093852E-01 0.19683462E+03</pdfrwt>
<totfact> 0.63922196E+04</totfact>
</mgrwt>
</event>
<event>
12    1  0.2768653E-001  0.2649740E+03  0.7546771E-02  0.1104213E+00
         21   -1    0    0  504  503  0.00000000000E+00  0.00000000000E+00  0.16442836917E+04  0.16442836917E+04  0.00000000000E+00 0.  1.
         21   -1    0    0  502  504 -0.00000000000E+00 -0.00000000000E+00 -0.32010295192E+03  0.32010295192E+03  0.00000000000E+00 0. -1.
          6    2    1    2  502    0 -0.19421036602E+03  0.49354191100E+02 -0.25231284396E+03  0.36577998043E+03  0.17314652873E+03 0.  0.
         24    2    3    3    0    0 -0.13596777034E+03 -0.57764874438E+01 -0.79252998264E+02  0.17498325126E+03  0.76272525276E+02 0.  0.
         -6    2    1    2    0  503  0.19421036602E+03 -0.49354191100E+02  0.15764935837E+04  0.15986066632E+04  0.17337168616E+03 0.  0.
        -24    2    5    5    0    0  0.11578088689E+03 -0.71024645736E+02  0.66106494628E+03  0.67955689735E+03  0.79630392855E+02 0.  0.
          4    1    4    4  501    0 -0.12793857833E+02  0.25556342221E+02 -0.10244202947E+02  0.30360387349E+02  0.00000000000E+00 0. -1.
         -3    1    4    4    0  501 -0.12317391250E+03 -0.31332829665E+02 -0.69008795317E+02  0.14462286392E+03  0.00000000000E+00 0.  1.
          5    1    3    3  502    0 -0.58242595682E+02  0.55130678543E+02 -0.17305984570E+03  0.19079672917E+03  0.47000000000E+01 0. -1.
         13    1    6    6    0    0  0.10588550646E+03 -0.45534107330E+02  0.61717835252E+03  0.62784887850E+03  0.00000000000E+00 0. -1.
        -14    1    6    6    0    0  0.98953804374E+01 -0.25490538405E+02  0.43886593756E+02  0.51708018853E+02  0.00000000000E+00 0.  1.
         -5    1    5    5    0  503  0.78429479126E+02  0.21670454636E+02  0.91542863745E+03  0.91904976583E+03  0.47000000000E+01 0.  1.
<mgrwt>
<rscale>  2 0.26493722E+03</rscale>
<asrwt>0</asrwt>
<pdfrwt beam="1">  1       21 0.25296672E+00 0.26497404E+03</pdfrwt>
<pdfrwt beam="2">  1       21 0.49246609E-01 0.26497404E+03</pdfrwt>
<totfact> 0.23008363E+02</totfact>
</mgrwt>
</event>
<event>
12    1  0.2768653E-001  0.1924034E+03  0.7546771E-02  0.1156453E+00
         21   -1    0    0  504  503  0.00000000000E+00  0.00000000000E+00  0.22843575013E+03  0.22843575013E+03  0.00000000000E+00 0. -1.
         21   -1    0    0  502  504 -0.00000000000E+00 -0.00000000000E+00 -0.21018583884E+03  0.21018583884E+03  0.00000000000E+00 0. -1.
          6    2    1    2  502    0  0.53407728875E+02  0.64531684127E+02 -0.96394015416E+02  0.21519961421E+03  0.17321184714E+03 0.  0.
         24    2    3    3    0    0  0.21830223143E+02  0.34310243879E+01 -0.94332369657E+02  0.14623027413E+03  0.10952792582E+03 0.  0.
         -6    2    1    2    0  503 -0.53407728875E+02 -0.64531684127E+02  0.11464392670E+03  0.22342197475E+03  0.17250340610E+03 0.  0.
        -24    2    5    5    0    0  0.24633612152E+02  0.26147825603E+01  0.70196481399E+02  0.11118666707E+03  0.82591022499E+02 0.  0.
          2    1    4    4  501    0  0.23572808195E+02 -0.37336546748E+02 -0.95707635686E+02  0.10540230803E+03  0.00000000000E+00 0. -1.
         -1    1    4    4    0  501 -0.17425850521E+01  0.40767571136E+02  0.13752660287E+01  0.40827966097E+02  0.00000000000E+00 0.  1.
          5    1    3    3  502    0  0.31577505732E+02  0.61100659739E+02 -0.20616457591E+01  0.68969340087E+02  0.47000000000E+01 0. -1.
         13    1    6    6    0    0  0.64084141479E+01 -0.39110092291E+02  0.24044898997E+02  0.46355412399E+02  0.00000000000E+00 0. -1.
        -14    1    6    6    0    0  0.18225198004E+02  0.41724874852E+02  0.46151582402E+02  0.64831254669E+02  0.00000000000E+00 0.  1.
         -5    1    5    5    0  503 -0.78041341027E+02 -0.67146466687E+02  0.44447445301E+02  0.11223530769E+03  0.47000000000E+01 0.  1.
<mgrwt>
<rscale>  2 0.19224382E+03</rscale>
<asrwt>0</asrwt>
<pdfrwt beam="1">  1       21 0.35143962E-01 0.19240340E+03</pdfrwt>
<pdfrwt beam="2">  1       21 0.32336283E-01 0.19240340E+03</pdfrwt>
<totfact> 0.71833008E+04</totfact>
</mgrwt>
</event>
<event>
12    1  0.2768653E-001  0.2063137E+03  0.7546771E-02  0.1144789E+00
         21   -1    0    0  504  503  0.00000000000E+00  0.00000000000E+00  0.33571062855E+02  0.33571062855E+02  0.00000000000E+00 0.  1.
         21   -1    0    0  502  504 -0.00000000000E+00 -0.00000000000E+00 -0.13218297957E+04  0.13218297957E+04  0.00000000000E+00 0. -1.
          6    2    1    2  502    0 -0.11150629347E+03 -0.10754349482E+02 -0.79295476947E+03  0.81935500586E+03  0.17325140600E+03 0.  0.
         24    2    3    3    0    0 -0.10847111761E+03 -0.67830944347E+02 -0.58291171121E+03  0.60162322982E+03  0.76140838080E+02 0.  0.
         -6    2    1    2    0  503  0.11150629347E+03  0.10754349482E+02 -0.49530396342E+03  0.53604585274E+03  0.17166779123E+03 0.  0.
        -24    2    5    5    0    0  0.84029240673E+02 -0.15424120053E+02 -0.15921937009E+03  0.19779262723E+03  0.80450598547E+02 0.  0.
          2    1    4    4  501    0 -0.43358742923E+02 -0.67014102193E+02 -0.38790060934E+03  0.39602746522E+03  0.00000000000E+00 0. -1.
         -1    1    4    4    0  501 -0.65112374689E+02 -0.81684215374E+00 -0.19501110186E+03  0.20559576459E+03  0.00000000000E+00 0.  1.
          5    1    3    3  502    0 -0.30351758621E+01  0.57076594866E+02 -0.21004305827E+03  0.21773177605E+03  0.47000000000E+01 0. -1.
         11    1    6    6    0    0  0.25197714881E+02  0.30748389914E+02 -0.76942924196E+02  0.86606015388E+02  0.00000000000E+00 0. -1.
        -12    1    6    6    0    0  0.58831525793E+02 -0.46172509967E+02 -0.82276445898E+02  0.11118661184E+03  0.00000000000E+00 0.  1.
         -5    1    5    5    0  503  0.27477052801E+02  0.26178469534E+02 -0.33608459333E+03  0.33825322551E+03  0.47000000000E+01 0.  1.
<mgrwt>
<rscale>  2 0.20598093E+03</rscale>
<asrwt>0</asrwt>
<pdfrwt beam="1">  1       21 0.51647794E-02 0.20631374E+03</pdfrwt>
<pdfrwt beam="2">  1       21 0.20335841E+00 0.20631374E+03</pdfrwt>
<totfact> 0.32223327E+04</totfact>
</mgrwt>
</event>
<event>
12    1  0.2768653E-001  0.2054916E+03  0.7546771E-02  0.1148871E+00
         21   -1    0    0  504  503  0.00000000000E+00  0.00000000000E+00  0.10827487427E+03  0.10827487427E+03  0.00000000000E+00 0. -1.
         21   -1    0    0  502  504 -0.00000000000E+00 -0.00000000000E+00 -0.39186533364E+03  0.39186533364E+03  0.00000000000E+00 0. -1.
          6    2    1    2  502    0 -0.71400372949E+02 -0.13500801268E+02 -0.73938959147E+02  0.21838905988E+03  0.19221479367E+03 0.  0.
         24    2    3    3    0    0 -0.69849070343E+02 -0.60628875824E+02 -0.10524354402E+03  0.16159531916E+03  0.80511430279E+02 0.  0.
         -6    2    1    2    0  503  0.71400372949E+02  0.13500801268E+02 -0.20965150022E+03  0.28175114803E+03  0.17363661186E+03 0.  0.
        -24    2    5    5    0    0  0.16457298172E+02  0.47794804358E+02 -0.19181831840E+03  0.21440924066E+03  0.81374868479E+02 0.  0.
          2    1    4    4  501    0 -0.61929123354E+02 -0.78790099394E+02 -0.73906365190E+02  0.12452006624E+03  0.00000000000E+00 0. -1.
         -1    1    4    4    0  501 -0.79199469892E+01  0.18161223570E+02 -0.31337178828E+02  0.37075252916E+02  0.00000000000E+00 0.  1.
          5    1    3    3  502    0 -0.15513026060E+01  0.47128074556E+02  0.31304584871E+02  0.56793740721E+02  0.47000000000E+01 0. -1.
         13    1    6    6    0    0  0.47347386395E+02  0.24723560992E+02 -0.13983136667E+03  0.14968580618E+03  0.00000000000E+00 0. -1.
        -14    1    6    6    0    0 -0.30890088224E+02  0.23071243366E+02 -0.51986951731E+02  0.64723434483E+02  0.00000000000E+00 0.  1.
         -5    1    5    5    0  503  0.54943074777E+02 -0.34294003090E+02 -0.17833181824E+02  0.67341907368E+02  0.47000000000E+01 0.  1.
<mgrwt>
<rscale>  2 0.20103281E+03</rscale>
<asrwt>0</asrwt>
<pdfrwt beam="1">  1       21 0.16657673E-01 0.20549163E+03</pdfrwt>
<pdfrwt beam="2">  1       21 0.60286975E-01 0.20549163E+03</pdfrwt>
<totfact> 0.82604072E+04</totfact>
</mgrwt>
</event>
<event>
12    1  0.2768653E-001  0.3039077E+03  0.7546771E-02  0.1083345E+00
         21   -1    0    0  504  503  0.00000000000E+00  0.00000000000E+00  0.39143788132E+03  0.39143788132E+03  0.00000000000E+00 0. -1.
         21   -1    0    0  502  504 -0.00000000000E+00 -0.00000000000E+00 -0.37780020561E+03  0.37780020561E+03  0.00000000000E+00 0. -1.
          6    2    1    2  502    0  0.24303143716E+03 -0.53984025220E+02 -0.22907810216E+03  0.38030252917E+03  0.17370861341E+03 0.  0.
         24    2    3    3    0    0  0.14268788002E+03 -0.30730251059E+02 -0.49355203317E+02  0.17310219654E+03  0.78893947269E+02 0.  0.
         -6    2    1    2    0  503 -0.24303143716E+03  0.53984025220E+02  0.24271577787E+03  0.38893555777E+03  0.17430250957E+03 0.  0.
        -24    2    5    5    0    0 -0.25160224068E+03  0.54464406917E+02  0.17698803768E+03  0.32248320439E+03  0.80003703006E+02 0.  0.
          4    1    4    4  501    0  0.13017716775E+03  0.26709032436E+01 -0.37076396830E+02  0.13538053010E+03  0.00000000000E+00 0. -1.
         -3    1    4    4    0  501  0.12510712276E+02 -0.33401154303E+02 -0.12278806487E+02  0.37721666442E+02  0.00000000000E+00 0.  1.
          5    1    3    3  502    0  0.10034355714E+03 -0.23253774161E+02 -0.17972289885E+03  0.20720033263E+03  0.47000000000E+01 0. -1.
         13    1    6    6    0    0 -0.12312582435E+03  0.10038790780E+02  0.12825042344E+03  0.17806997798E+03  0.00000000000E+00 0. -1.
        -14    1    6    6    0    0 -0.12847641632E+03  0.44425616137E+02  0.48737614236E+02  0.14441322641E+03  0.00000000000E+00 0.  1.
         -5    1    5    5    0  503  0.85708035144E+01 -0.48038169704E+00  0.65727740194E+02  0.66452353386E+02  0.47000000000E+01 0.  1.
<mgrwt>
<rscale>  2 0.30382265E+03</rscale>
<asrwt>0</asrwt>
<pdfrwt beam="1">  1       21 0.60221212E-01 0.30390775E+03</pdfrwt>
<pdfrwt beam="2">  1       21 0.58123109E-01 0.30390775E+03</pdfrwt>
<totfact> 0.66713907E+03</totfact>
</mgrwt>
</event>
<event>
12    1  0.2768653E-001  0.2115664E+03  0.7546771E-02  0.1140625E+00
         21   -1    0    0  504  503  0.00000000000E+00  0.00000000000E+00  0.59152823314E+03  0.59152823314E+03  0.00000000000E+00 0. -1.
         21   -1    0    0  502  504 -0.00000000000E+00 -0.00000000000E+00 -0.93899694195E+02  0.93899694195E+02  0.00000000000E+00 0. -1.
          6    2    1    2  502    0  0.55299011564E+02 -0.10574285711E+03  0.94912598120E+02  0.23052084763E+03  0.17289282056E+03 0.  0.
         24    2    3    3    0    0  0.90857834417E+02 -0.64556897785E+02  0.10724764952E+03  0.17453016429E+03  0.80845412939E+02 0.  0.
         -6    2    1    2    0  503 -0.55299011564E+02  0.10574285711E+03  0.40271594083E+03  0.45490707971E+03  0.17470200245E+03 0.  0.
        -24    2    5    5    0    0 -0.93614208840E+02  0.33926853971E+02  0.20885930229E+03  0.24460235090E+03  0.79331269996E+02 0.  0.
          2    1    4    4  501    0  0.10415652252E+03 -0.67110111637E+02  0.99636862433E+02  0.15899639185E+03  0.00000000000E+00 0. -1.
         -1    1    4    4    0  501 -0.13298688098E+02  0.25532138526E+01  0.76107870841E+01  0.15533772437E+02  0.00000000000E+00 0.  1.
          5    1    3    3  502    0 -0.35558822854E+02 -0.41185959327E+02 -0.12335051397E+02  0.55990683345E+02  0.47000000000E+01 0. -1.
         11    1    6    6    0    0 -0.48134268400E+02 -0.20747325571E+02  0.60290456226E+02  0.79889288547E+02  0.00000000000E+00 0. -1.
        -12    1    6    6    0    0 -0.45479940440E+02  0.54674179543E+02  0.14856884606E+03  0.16471306236E+03  0.00000000000E+00 0.  1.
         -5    1    5    5    0  503  0.38315197276E+02  0.71816003141E+02  0.19385663854E+03  0.21030472880E+03  0.47000000000E+01 0.  1.
<mgrwt>
<rscale>  2 0.21119250E+03</rscale>
<asrwt>0</asrwt>
<pdfrwt beam="1">  1       21 0.91004341E-01 0.21156635E+03</pdfrwt>
<pdfrwt beam="2">  1       21 0.14446107E-01 0.21156635E+03</pdfrwt>
<totfact> 0.42590410E+04</totfact>
</mgrwt>
</event>
<event>
12    1  0.2768653E-001  0.1781946E+03  0.7546771E-02  0.1170238E+00
         21   -1    0    0  504  503  0.00000000000E+00  0.00000000000E+00  0.24845916847E+03  0.24845916847E+03  0.00000000000E+00 0. -1.
         21   -1    0    0  502  504 -0.00000000000E+00 -0.00000000000E+00 -0.12753553773E+03  0.12753553773E+03  0.00000000000E+00 0. -1.
          6    2    1    2  502    0 -0.27810706809E+02 -0.18438152153E+02  0.39294660200E+02  0.18247573732E+03  0.17504263344E+03 0.  0.
         24    2    3    3    0    0 -0.23662924348E+02  0.97420324253E+01  0.90835222245E+02  0.12340081507E+03  0.79510265852E+02 0.  0.
         -6    2    1    2    0  503  0.27810706809E+02  0.18438152153E+02  0.81628970537E+02  0.19351896888E+03  0.17225824108E+03 0.  0.
        -24    2    5    5    0    0  0.56309904523E+02  0.19225755669E+01 -0.67665561553E+01  0.99068835589E+02  0.81205580219E+02 0.  0.
          2    1    4    4  501    0 -0.39987412596E+02 -0.25749753423E+01  0.94482444057E+02  0.10262824124E+03  0.00000000000E+00 0. -1.
         -1    1    4    4    0  501  0.16324488247E+02  0.12317007768E+02 -0.36472218121E+01  0.20772573837E+02  0.00000000000E+00 0.  1.
          5    1    3    3  502    0 -0.41477824605E+01 -0.28180184578E+02 -0.51540562045E+02  0.59074922244E+02  0.47000000000E+01 0. -1.
         13    1    6    6    0    0  0.53852715702E+02  0.29624503927E+02  0.15563196225E+02  0.63402991240E+02  0.00000000000E+00 0. -1.
        -14    1    6    6    0    0  0.24571888203E+01 -0.27701928360E+02 -0.22329752381E+02  0.35665844349E+02  0.00000000000E+00 0.  1.
         -5    1    5    5    0  503 -0.28499197714E+02  0.16515576586E+02  0.88395526693E+02  0.94450133296E+02  0.47000000000E+01 0.  1.
<mgrwt>
<rscale>  2 0.17750706E+03</rscale>
<asrwt>0</asrwt>
<pdfrwt beam="1">  1       21 0.38224487E-01 0.17819463E+03</pdfrwt>
<pdfrwt beam="2">  1       21 0.19620852E-01 0.17819463E+03</pdfrwt>
<totfact> 0.15861299E+05</totfact>
</mgrwt>
</event>
<event>
12    1  0.2768653E-001  0.2172173E+03  0.7546771E-02  0.1135988E+00
         21   -1    0    0  504  503  0.00000000000E+00  0.00000000000E+00  0.17772211259E+03  0.17772211259E+03  0.00000000000E+00 0. -1.
         21   -1    0    0  502  504 -0.00000000000E+00 -0.00000000000E+00 -0.37282067369E+03  0.37282067369E+03  0.00000000000E+00 0.  1.
          6    2    1    2  502    0  0.12486992380E+03  0.41656938893E+02 -0.24529612059E+03  0.32760079944E+03  0.17269712965E+03 0.  0.
         24    2    3    3    0    0  0.13244110315E+03  0.28803738666E+02 -0.11167517377E+03  0.19306762530E+03  0.80208866960E+02 0.  0.
         -6    2    1    2    0  503 -0.12486992380E+03 -0.41656938893E+02  0.50197559491E+02  0.22294198684E+03  0.17278754610E+03 0.  0.
        -24    2    5    5    0    0 -0.14707908378E+03 -0.36381031701E+02  0.65882709577E+02  0.19484935583E+03  0.10329522590E+03 0.  0.
          2    1    4    4  501    0  0.11484858056E+03  0.53575286822E+02 -0.95209316611E+02  0.15850968987E+03  0.00000000000E+00 0. -1.
         -1    1    4    4    0  501  0.17592522594E+02 -0.24771548156E+02 -0.16465857157E+02  0.34557935430E+02  0.00000000000E+00 0.  1.
          5    1    3    3  502    0 -0.75711793546E+01  0.12853200228E+02 -0.13362094682E+03  0.13453317414E+03  0.47000000000E+01 0. -1.
         13    1    6    6    0    0 -0.53144141490E+02 -0.63474003498E+02  0.47269650829E+02  0.95329265098E+02  0.00000000000E+00 0. -1.
        -14    1    6    6    0    0 -0.93934942287E+02  0.27092971796E+02  0.18613058748E+02  0.99520090731E+02  0.00000000000E+00 0.  1.
         -5    1    5    5    0  503  0.22209159979E+02 -0.52759071921E+01 -0.15685150086E+02  0.28092631007E+02  0.47000000000E+01 0.  1.
<mgrwt>
<rscale>  2 0.21719927E+03</rscale>
<asrwt>0</asrwt>
<pdfrwt beam="1">  1       21 0.27341864E-01 0.21721725E+03</pdfrwt>
<pdfrwt beam="2">  1       21 0.57357026E-01 0.21721725E+03</pdfrwt>
<totfact> 0.35938507E+04</totfact>
</mgrwt>
</event>
<event>
12    1  0.2768653E-001  0.2023197E+03  0.7546771E-02  0.1148084E+00
         21   -1    0    0  504  503  0.00000000000E+00  0.00000000000E+00  0.76992685984E+03  0.76992685984E+03  0.00000000000E+00 0.  1.
         21   -1    0    0  502  504 -0.00000000000E+00 -0.00000000000E+00 -0.52866874487E+02  0.52866874487E+02  0.00000000000E+00 0.  1.
          6    2    1    2  502    0  0.65322417809E+02 -0.78018723071E+02  0.37155577787E+03  0.42241088901E+03  0.17327239730E+03 0.  0.
         24    2    3    3    0    0  0.60677622680E+02 -0.10644715524E+03  0.36442256962E+03  0.39236554765E+03  0.78320769765E+02 0.  0.
         -6    2    1    2    0  503 -0.65322417809E+02  0.78018723071E+02  0.34550420749E+03  0.40038284533E+03  0.17486945422E+03 0.  0.
        -24    2    5    5    0    0 -0.45922167226E+00  0.50260858156E+02  0.30381327466E+03  0.31829778482E+03  0.80527071312E+02 0.  0.
          4    1    4    4  501    0  0.24357491986E+02 -0.66625758962E+02  0.30047001083E+03  0.30873047563E+03  0.00000000000E+00 0. -1.
         -3    1    4    4    0  501  0.36320130694E+02 -0.39821396282E+02  0.63952558788E+02  0.83635072015E+02  0.00000000000E+00 0.  1.
          5    1    3    3  502    0  0.46447951296E+01  0.28428432173E+02  0.71332082453E+01  0.30045341360E+02  0.47000000000E+01 0. -1.
         11    1    6    6    0    0  0.25364708123E+02 -0.20414497159E+01  0.35263346700E+02  0.43486084621E+02  0.00000000000E+00 0. -1.
        -12    1    6    6    0    0 -0.25823929796E+02  0.52302307872E+02  0.26854992796E+03  0.27481170020E+03  0.00000000000E+00 0.  1.
         -5    1    5    5    0  503 -0.64863196137E+02  0.27757864914E+02  0.41690932827E+02  0.82085060503E+02  0.47000000000E+01 0.  1.
<mgrwt>
<rscale>  2 0.20197413E+03</rscale>
<asrwt>0</asrwt>
<pdfrwt beam="1">  1       21 0.11845028E+00 0.20231971E+03</pdfrwt>
<pdfrwt beam="2">  1       21 0.81333659E-02 0.20231971E+03</pdfrwt>
<totfact> 0.63280428E+04</totfact>
</mgrwt>
</event>
<event>
12    1  0.2768653E-001  0.2042172E+03  0.7546771E-02  0.1146428E+00
         21   -1    0    0  504  503  0.00000000000E+00  0.00000000000E+00  0.20217158350E+04  0.20217158350E+04  0.00000000000E+00 0.  1.
         21   -1    0    0  502  504 -0.00000000000E+00 -0.00000000000E+00 -0.23680224399E+02  0.23680224399E+02  0.00000000000E+00 0.  1.
          6    2    1    2  502    0  0.49676465976E+02  0.95677320725E+02  0.13699265280E+04  0.13849222121E+04  0.17230478946E+03 0.  0.
         24    2    3    3    0    0 -0.19983082343E+01  0.18444609088E+02  0.31247477822E+03  0.32338489898E+03  0.81197961935E+02 0.  0.
         -6    2    1    2    0  503 -0.49676465976E+02 -0.95677320725E+02  0.62810908261E+03  0.66047384731E+03  0.17344388819E+03 0.  0.
        -24    2    5    5    0    0 -0.54404813719E+02 -0.17329057111E+01  0.43478620712E+03  0.44543028295E+03  0.80038767794E+02 0.  0.
          4    1    4    4  501    0 -0.24840179676E+02  0.43427686303E+01  0.28139554316E+02  0.37785297178E+02  0.00000000000E+00 0. -1.
         -3    1    4    4    0  501  0.22841871442E+02  0.14101840458E+02  0.28433522391E+03  0.28559960180E+03  0.00000000000E+00 0.  1.
          5    1    3    3  502    0  0.51674774210E+02  0.77232711637E+02  0.10574517498E+04  0.10615373131E+04  0.47000000000E+01 0. -1.
         13    1    6    6    0    0  0.17519527359E+02 -0.14985217780E+02  0.12689215714E+03  0.12896941550E+03  0.00000000000E+00 0. -1.
        -14    1    6    6    0    0 -0.71924341078E+02  0.13252312069E+02  0.30789404999E+03  0.31646086746E+03  0.00000000000E+00 0.  1.
         -5    1    5    5    0  503  0.47283477430E+01 -0.93944415014E+02  0.19332287549E+03  0.21504356436E+03  0.47000000000E+01 0.  1.
<mgrwt>
<rscale>  2 0.20397518E+03</rscale>
<asrwt>0</asrwt>
<pdfrwt beam="1">  1       21 0.31103307E+00 0.20421725E+03</pdfrwt>
<pdfrwt beam="2">  1       21 0.36431131E-02 0.20421725E+03</pdfrwt>
<totfact> 0.13347866E+04</totfact>
</mgrwt>
</event>
<event>
12    1  0.2768653E-001  0.3076108E+03  0.7546771E-02  0.1081507E+00
         21   -1    0    0  504  503  0.00000000000E+00  0.00000000000E+00  0.32650181816E+03  0.32650181816E+03  0.00000000000E+00 0.  1.
         21   -1    0    0  502  504 -0.00000000000E+00 -0.00000000000E+00 -0.30087304907E+03  0.30087304907E+03  0.00000000000E+00 0.  1.
          6    2    1    2  502    0 -0.13283302385E+03  0.21678949657E+03 -0.47541981988E+02  0.31118132257E+03  0.17300658199E+03 0.  0.
         24    2    3    3    0    0 -0.12627080223E+03  0.14629871311E+03  0.23949286338E+02  0.21045841180E+03  0.79821963325E+02 0.  0.
         -6    2    1    2    0  503  0.13283302385E+03 -0.21678949657E+03  0.73170751071E+02  0.31619354466E+03  0.17315340257E+03 0.  0.
        -24    2    5    5    0    0  0.14983335834E+03 -0.18581298902E+03  0.10016780365E+03  0.27147792948E+03  0.81793490865E+02 0.  0.
          2    1    4    4  501    0 -0.80150343200E+02  0.13465963073E+03  0.37236630746E+02  0.16107097917E+03  0.00000000000E+00 0. -1.
         -1    1    4    4    0  501 -0.46120459034E+02  0.11639082377E+02 -0.13287344409E+02  0.49387432628E+02  0.00000000000E+00 0.  1.
          5    1    3    3  502    0 -0.65622216206E+01  0.70490783468E+02 -0.71491268326E+02  0.10072291077E+03  0.47000000000E+01 0. -1.
         13    1    6    6    0    0  0.78365843435E+01 -0.10780766525E+02  0.34092249401E+02  0.36604896534E+02  0.00000000000E+00 0. -1.
        -14    1    6    6    0    0  0.14199677400E+03 -0.17503222250E+03  0.66075554249E+02  0.23487303295E+03  0.00000000000E+00 0.  1.
         -5    1    5    5    0  503 -0.17000334484E+02 -0.30976507553E+02 -0.26997052580E+02  0.44715615178E+02  0.47000000000E+01 0.  1.
<mgrwt>
<rscale>  2 0.30759013E+03</rscale>
<asrwt>0</asrwt>
<pdfrwt beam="1">  1       21 0.50231049E-01 0.30761079E+03</pdfrwt>
<pdfrwt beam="2">  1       21 0.46288161E-01 0.30761079E+03</pdfrwt>
<totfact> 0.15917356E+04</totfact>
</mgrwt>
</event>
<event>
12    1  0.2768653E-001  0.3293680E+03  0.7546771E-02  0.1071511E+00
         21   -1    0    0  504  503  0.00000000000E+00  0.00000000000E+00  0.40314291314E+03  0.40314291314E+03  0.00000000000E+00 0. -1.
         21   -1    0    0  502  504 -0.00000000000E+00 -0.00000000000E+00 -0.41596733264E+03  0.41596733264E+03  0.00000000000E+00 0.  1.
          6    2    1    2  502    0  0.27748463266E+03 -0.37882307447E+02 -0.25034191784E+03  0.41303412782E+03  0.17173620567E+03 0.  0.
         24    2    3    3    0    0  0.13380429871E+03  0.40666809743E+02 -0.10812426648E+03  0.19609645812E+03  0.84885712101E+02 0.  0.
         -6    2    1    2    0  503 -0.27748463266E+03  0.37882307447E+02  0.23751749833E+03  0.40607611796E+03  0.17335068786E+03 0.  0.
        -24    2    5    5    0    0 -0.12788326529E+03  0.73700849207E+02  0.16789145254E+03  0.23715775511E+03  0.79185328562E+02 0.  0.
          2    1    4    4  501    0  0.12576292963E+02 -0.54700504052E+01  0.12801704717E+02  0.18760816608E+02  0.00000000000E+00 0. -1.
         -1    1    4    4    0  501  0.12122800574E+03  0.46136860148E+02 -0.12092597120E+03  0.17733564151E+03  0.00000000000E+00 0.  1.
          5    1    3    3  502    0  0.14368033396E+03 -0.78549117190E+02 -0.14221765136E+03  0.21693766970E+03  0.47000000000E+01 0. -1.
         11    1    6    6    0    0 -0.11865729232E+03  0.69321919147E+02  0.10370033900E+03  0.17215935004E+03  0.00000000000E+00 0. -1.
        -12    1    6    6    0    0 -0.92259729682E+01  0.43789300599E+01  0.64191113534E+02  0.64998405076E+02  0.00000000000E+00 0.  1.
         -5    1    5    5    0  503 -0.14960136737E+03 -0.35818541760E+02  0.69626045796E+02  0.16891836285E+03  0.47000000000E+01 0.  1.
<mgrwt>
<rscale>  2 0.32915604E+03</rscale>
<asrwt>0</asrwt>
<pdfrwt beam="1">  1       21 0.62021987E-01 0.32936796E+03</pdfrwt>
<pdfrwt beam="2">  1       21 0.63994974E-01 0.32936796E+03</pdfrwt>
<totfact> 0.50119516E+03</totfact>
</mgrwt>
</event>
<event>
12    1  0.2768653E-001  0.1743783E+03  0.7546771E-02  0.1173572E+00
         21   -1    0    0  504  503  0.00000000000E+00  0.00000000000E+00  0.68609921820E+02  0.68609921820E+02  0.00000000000E+00 0. -1.
         21   -1    0    0  502  504 -0.00000000000E+00 -0.00000000000E+00 -0.15227959965E+04  0.15227959965E+04  0.00000000000E+00 0. -1.
          6    2    1    2  502    0  0.37706490126E+01  0.11406684191E+02 -0.13982524530E+04  0.14090839998E+04  0.17396397922E+03 0.  0.
         24    2    3    3    0    0 -0.59258435161E+02  0.78318044592E+01 -0.96081823785E+03  0.96709279201E+03  0.92324876843E+02 0.  0.
         -6    2    1    2    0  503 -0.37706490126E+01 -0.11406684191E+02 -0.55933621680E+02  0.18232191847E+03  0.17311378248E+03 0.  0.
        -24    2    5    5    0    0  0.88455629794E+01 -0.58416528527E+02  0.10558338070E+02  0.99784866304E+02  0.79717038649E+02 0.  0.
          2    1    4    4  501    0 -0.63614154486E+02  0.39780076634E+02 -0.76101598522E+03  0.76470552823E+03  0.00000000000E+00 0. -1.
         -1    1    4    4    0  501  0.43557193242E+01 -0.31948272175E+02 -0.19980225263E+03  0.20238726378E+03  0.00000000000E+00 0.  1.
          5    1    3    3  502    0  0.63029084174E+02  0.35748797316E+01 -0.43743421515E+03  0.44199120783E+03  0.47000000000E+01 0. -1.
         11    1    6    6    0    0 -0.33905106462E+02 -0.13305840442E+02 -0.15971476334E+01  0.36457544002E+02  0.00000000000E+00 0. -1.
        -12    1    6    6    0    0  0.42750669442E+02 -0.45110688085E+02  0.12155485703E+02  0.63327322302E+02  0.00000000000E+00 0.  1.
         -5    1    5    5    0  503 -0.12616211992E+02  0.47009844336E+02 -0.66491959750E+02  0.82537052170E+02  0.47000000000E+01 0.  1.
<mgrwt>
<rscale>  2 0.17416588E+03</rscale>
<asrwt>0</asrwt>
<pdfrwt beam="1">  1       21 0.10555373E-01 0.17437831E+03</pdfrwt>
<pdfrwt beam="2">  1       21 0.23427630E+00 0.17437831E+03</pdfrwt>
<totfact> 0.61918634E+03</totfact>
</mgrwt>
</event>
<event>
12    1  0.2768653E-001  0.1826759E+03  0.7546771E-02  0.1165370E+00
         21   -1    0    0  504  503  0.00000000000E+00  0.00000000000E+00  0.27731077919E+02  0.27731077919E+02  0.00000000000E+00 0. -1.
         21   -1    0    0  502  504 -0.00000000000E+00 -0.00000000000E+00 -0.13653928078E+04  0.13653928078E+04  0.00000000000E+00 0. -1.
          6    2    1    2  502    0 -0.33705839902E+02  0.47149247339E+02 -0.91057496801E+03  0.92860953796E+03  0.17265505045E+03 0.  0.
         24    2    3    3    0    0 -0.88580999185E+02  0.30765974650E+02 -0.56534768913E+03  0.57863288329E+03  0.80030402992E+02 0.  0.
         -6    2    1    2    0  503  0.33705839902E+02 -0.47149247339E+02 -0.42708676187E+03  0.46451434777E+03  0.17323781904E+03 0.  0.
        -24    2    5    5    0    0  0.55518714032E+02  0.25885266807E+02 -0.18862174020E+03  0.21411966273E+03  0.80726045639E+02 0.  0.
          4    1    4    4  501    0 -0.39841104355E+02 -0.90264421565E+00 -0.42303427355E+03  0.42490719570E+03  0.00000000000E+00 0. -1.
         -3    1    4    4    0  501 -0.48739894830E+02  0.31668618866E+02 -0.14231341559E+03  0.15372568759E+03  0.00000000000E+00 0.  1.
          5    1    3    3  502    0  0.54875159283E+02  0.16383272688E+02 -0.34522727888E+03  0.34997665467E+03  0.47000000000E+01 0. -1.
         13    1    6    6    0    0  0.17257878404E+02 -0.24434054607E+02 -0.25963959539E+02  0.39610410077E+02  0.00000000000E+00 0. -1.
        -14    1    6    6    0    0  0.38260835629E+02  0.50319321414E+02 -0.16265778066E+03  0.17450925265E+03  0.00000000000E+00 0.  1.
         -5    1    5    5    0  503 -0.21812874131E+02 -0.73034514146E+02 -0.23846502167E+03  0.25039468504E+03  0.47000000000E+01 0.  1.
<mgrwt>
<rscale>  2 0.18253758E+03</rscale>
<asrwt>0</asrwt>
<pdfrwt beam="1">  1       21 0.42663203E-02 0.18267588E+03</pdfrwt>
<pdfrwt beam="2">  1       21 0.21006040E+00 0.18267588E+03</pdfrwt>
<totfact> 0.41058263E+04</totfact>
</mgrwt>
</event>
<event>
12    1  0.2768653E-001  0.1829209E+03  0.7546771E-02  0.1165035E+00
         21   -1    0    0  504  503  0.00000000000E+00  0.00000000000E+00  0.32437265944E+03  0.32437265944E+03  0.00000000000E+00 0.  1.
         21   -1    0    0  502  504 -0.00000000000E+00 -0.00000000000E+00 -0.13798151296E+03  0.13798151296E+03  0.00000000000E+00 0.  1.
          6    2    1    2  502    0 -0.31639850731E+02  0.50299076062E+02 -0.23091301888E+02  0.18424814865E+03  0.17286727525E+03 0.  0.
         24    2    3    3    0    0 -0.23554028597E+02  0.10598823187E+03 -0.33772365009E+02  0.12677782845E+03  0.56069132241E+02 0.  0.
         -6    2    1    2    0  503  0.31639850731E+02 -0.50299076062E+02  0.20948244837E+03  0.27810602374E+03  0.17299996260E+03 0.  0.
        -24    2    5    5    0    0  0.37838411350E+02 -0.83988836130E+02  0.84464125444E+02  0.14839444695E+03  0.80005333761E+02 0.  0.
          2    1    4    4  501    0  0.80388105849E+01  0.39228834983E+02 -0.34591339410E+02  0.52915826857E+02  0.00000000000E+00 0. -1.
         -1    1    4    4    0  501 -0.31592839182E+02  0.66759396890E+02  0.81897440161E+00  0.73862001596E+02  0.00000000000E+00 0.  1.
          5    1    3    3  502    0 -0.80858221340E+01 -0.55689155810E+02  0.10681063121E+02  0.57470320200E+02  0.47000000000E+01 0. -1.
         11    1    6    6    0    0 -0.33397905507E+01  0.84398408103E+01  0.34252411666E+02  0.35434627397E+02  0.00000000000E+00 0. -1.
        -12    1    6    6    0    0  0.41178201901E+02 -0.92428676940E+02  0.50211713778E+02  0.11295981955E+03  0.00000000000E+00 0.  1.
         -5    1    5    5    0  503 -0.61985606185E+01  0.33689760067E+02  0.12501832292E+03  0.12971157679E+03  0.47000000000E+01 0.  1.
<mgrwt>
<rscale>  2 0.18288954E+03</rscale>
<asrwt>0</asrwt>
<pdfrwt beam="1">  1       21 0.49903486E-01 0.18292092E+03</pdfrwt>
<pdfrwt beam="2">  1       21 0.21227925E-01 0.18292092E+03</pdfrwt>
<totfact> 0.79299126E+04</totfact>
</mgrwt>
</event>
<event>
12    1  0.2768653E-001  0.2407294E+03  0.7546771E-02  0.1119332E+00
         21   -1    0    0  504  503  0.00000000000E+00  0.00000000000E+00  0.89677696159E+03  0.89677696159E+03  0.00000000000E+00 0.  1.
         21   -1    0    0  502  504 -0.00000000000E+00 -0.00000000000E+00 -0.86905288482E+02  0.86905288482E+02  0.00000000000E+00 0.  1.
          6    2    1    2  502    0  0.11693961727E+03  0.11960527771E+03  0.15574881080E+03  0.28671994449E+03  0.17311943264E+03 0.  0.
         24    2    3    3    0    0  0.12394146610E+03  0.40044345539E+02  0.13571233453E+03  0.20424256459E+03  0.79574812708E+02 0.  0.
         -6    2    1    2    0  503 -0.11693961727E+03 -0.11960527771E+03  0.65412286231E+03  0.69696230558E+03  0.17291454497E+03 0.  0.
        -24    2    5    5    0    0  0.64007887757E+01 -0.25075935885E+02  0.25960745985E+03  0.27291850477E+03  0.80116817074E+02 0.  0.
          4    1    4    4  501    0  0.46120100137E+02  0.47405844667E+02  0.95964412273E+02  0.11654847132E+03  0.00000000000E+00 0. -1.
         -3    1    4    4    0  501  0.77821365959E+02 -0.73614991275E+01  0.39747922255E+02  0.87694093260E+02  0.00000000000E+00 0.  1.
          5    1    3    3  502    0 -0.70018488225E+01  0.79560932171E+02  0.20036476273E+02  0.82477379907E+02  0.47000000000E+01 0. -1.
         13    1    6    6    0    0 -0.50261331004E+01  0.26562194927E+02  0.13280963036E+03  0.13553305918E+03  0.00000000000E+00 0. -1.
        -14    1    6    6    0    0  0.11426921876E+02 -0.51638130812E+02  0.12679782948E+03  0.13738544559E+03  0.00000000000E+00 0.  1.
         -5    1    5    5    0  503 -0.12334040605E+03 -0.94529341826E+02  0.39451540246E+03  0.42404380081E+03  0.47000000000E+01 0.  1.
<mgrwt>
<rscale>  2 0.24069255E+03</rscale>
<asrwt>0</asrwt>
<pdfrwt beam="1">  1       21 0.13796568E+00 0.24072938E+03</pdfrwt>
<pdfrwt beam="2">  1       21 0.13370045E-01 0.24072938E+03</pdfrwt>
<totfact> 0.17425858E+04</totfact>
</mgrwt>
</event>
<event>
12    1  0.2768653E-001  0.2158930E+03  0.7546771E-02  0.1137113E+00
         21   -1    0    0  504  503  0.00000000000E+00  0.00000000000E+00  0.32437610945E+02  0.32437610945E+02  0.00000000000E+00 0. -1.
         21   -1    0    0  502  504 -0.00000000000E+00 -0.00000000000E+00 -0.14576842525E+04  0.14576842525E+04  0.00000000000E+00 0.  1.
          6    2    1    2  502    0 -0.11499558142E+03  0.56109517755E+02 -0.61334475722E+03  0.65000611946E+03  0.17304306516E+03 0.  0.
         24    2    3    3    0    0 -0.49876591253E+02  0.42511700378E+02 -0.54486008471E+03  0.55441519999E+03  0.78795831375E+02 0.  0.
         -6    2    1    2    0  503  0.11499558142E+03 -0.56109517755E+02 -0.81190188433E+03  0.84011574398E+03  0.17388942399E+03 0.  0.
        -24    2    5    5    0    0  0.55168789817E+02 -0.98244162760E+02 -0.44935421358E+03  0.47022727853E+03  0.80616210090E+02 0.  0.
          2    1    4    4  501    0 -0.42356994414E+02 -0.10989155947E+02 -0.32896969864E+03  0.33186735173E+03  0.00000000000E+00 0. -1.
         -1    1    4    4    0  501 -0.75195968390E+01  0.53500856325E+02 -0.21589038607E+03  0.22254784825E+03  0.00000000000E+00 0.  1.
          5    1    3    3  502    0 -0.65118990162E+02  0.13597817377E+02 -0.68484672506E+02  0.95590919472E+02  0.47000000000E+01 0. -1.
         11    1    6    6    0    0 -0.14964183920E+02 -0.30055532853E+01 -0.10553880766E+03  0.10663676698E+03  0.00000000000E+00 0. -1.
        -12    1    6    6    0    0  0.70132973738E+02 -0.95238609474E+02 -0.34381540592E+03  0.36359051155E+03  0.00000000000E+00 0.  1.
         -5    1    5    5    0  503  0.59826791598E+02  0.42134645005E+02 -0.36254767075E+03  0.36988846545E+03  0.47000000000E+01 0.  1.
<mgrwt>
<rscale>  2 0.21572253E+03</rscale>
<asrwt>0</asrwt>
<pdfrwt beam="1">  1       21 0.49904014E-02 0.21589301E+03</pdfrwt>
<pdfrwt beam="2">  1       21 0.22425913E+00 0.21589301E+03</pdfrwt>
<totfact> 0.25119638E+04</totfact>
</mgrwt>
</event>
<event>
12    1  0.2768653E-001  0.1939637E+03  0.7546771E-02  0.1157471E+00
         21   -1    0    0  504  503  0.00000000000E+00  0.00000000000E+00  0.29991699755E+03  0.29991699755E+03  0.00000000000E+00 0.  1.
         21   -1    0    0  502  504 -0.00000000000E+00 -0.00000000000E+00 -0.11896115991E+03  0.11896115991E+03  0.00000000000E+00 0.  1.
          6    2    1    2  502    0 -0.17048785029E+02  0.65120947622E+02  0.77617547050E+02  0.20891721119E+03  0.18190799496E+03 0.  0.
         24    2    3    3    0    0  0.36721002445E+02 -0.21948919098E+02  0.22963808546E+02  0.92807466257E+02  0.79092997288E+02 0.  0.
         -6    2    1    2    0  503  0.17048785029E+02 -0.65120947622E+02  0.10333829059E+03  0.20996094627E+03  0.16992174012E+03 0.  0.
        -24    2    5    5    0    0  0.47896292876E+02 -0.69183731612E+02  0.24929031571E+02  0.12547321429E+03  0.89675120843E+02 0.  0.
          2    1    4    4  501    0  0.58528344092E+02 -0.22093799866E+02  0.20516345639E+01  0.62593228540E+02  0.00000000000E+00 0. -1.
         -1    1    4    4    0  501 -0.21807341647E+02  0.14488076840E+00  0.20912173982E+02  0.30214237717E+02  0.00000000000E+00 0.  1.
          5    1    3    3  502    0 -0.53769787474E+02  0.87069866720E+02  0.54653738504E+02  0.11610974493E+03  0.47000000000E+01 0. -1.
         13    1    6    6    0    0  0.35634922873E+02 -0.55817736873E+00  0.40597837618E+02  0.54021696655E+02  0.00000000000E+00 0. -1.
        -14    1    6    6    0    0  0.12261370003E+02 -0.68625554243E+02 -0.15668806047E+02  0.71451517636E+02  0.00000000000E+00 0.  1.
         -5    1    5    5    0  503 -0.30847507847E+02  0.40627839890E+01  0.78409259021E+02  0.84487731976E+02  0.47000000000E+01 0.  1.
<mgrwt>
<rscale>  2 0.19110254E+03</rscale>
<asrwt>0</asrwt>
<pdfrwt beam="1">  1       21 0.46141076E-01 0.19396370E+03</pdfrwt>
<pdfrwt beam="2">  1       21 0.18301717E-01 0.19396370E+03</pdfrwt>
<totfact> 0.12248061E+05</totfact>
</mgrwt>
</event>
<event>
12    1  0.2768653E-001  0.2196669E+03  0.7546771E-02  0.1134528E+00
         21   -1    0    0  504  503  0.00000000000E+00  0.00000000000E+00  0.27134511176E+03  0.27134511176E+03  0.00000000000E+00 0. -1.
         21   -1    0    0  502  504 -0.00000000000E+00 -0.00000000000E+00 -0.47667186493E+03  0.47667186493E+03  0.00000000000E+00 0. -1.
          6    2    1    2  502    0  0.12349404071E+03  0.56225229835E+02 -0.39982493084E+03  0.45619458729E+03  0.17274684250E+03 0.  0.
         24    2    3    3    0    0  0.96623868595E+02 -0.42907938618E+01 -0.35314635889E+03  0.37504550009E+03  0.81192323833E+02 0.  0.
         -6    2    1    2    0  503 -0.12349404071E+03 -0.56225229835E+02  0.19449817767E+03  0.29182238941E+03  0.17005502429E+03 0.  0.
        -24    2    5    5    0    0 -0.12413393463E+03 -0.86969270955E+02  0.11472667108E+03  0.20620002789E+03  0.79895898695E+02 0.  0.
          2    1    4    4  501    0  0.76407519499E+02  0.20579483260E+02 -0.15202295520E+03  0.17138437231E+03  0.00000000000E+00 0. -1.
         -1    1    4    4    0  501  0.20216349097E+02 -0.24870277122E+02 -0.20112340369E+03  0.20366112778E+03  0.00000000000E+00 0.  1.
          5    1    3    3  502    0  0.26870172110E+02  0.60516023697E+02 -0.46678571945E+02  0.81149087192E+02  0.47000000000E+01 0. -1.
         11    1    6    6    0    0 -0.11440649857E+03 -0.39209880776E+02  0.68327304231E+02  0.13890601920E+03  0.00000000000E+00 0. -1.
        -12    1    6    6    0    0 -0.97274360639E+01 -0.47759390180E+02  0.46399366845E+02  0.67294008696E+02  0.00000000000E+00 0.  1.
         -5    1    5    5    0  503  0.63989392912E+00  0.30744041121E+02  0.79771506590E+02  0.85622361520E+02  0.47000000000E+01 0.  1.
<mgrwt>
<rscale>  2 0.21913732E+03</rscale>
<asrwt>0</asrwt>
<pdfrwt beam="1">  1       21 0.41745403E-01 0.21966685E+03</pdfrwt>
<pdfrwt beam="2">  1       21 0.73334132E-01 0.21966685E+03</pdfrwt>
<totfact> 0.90652374E+03</totfact>
</mgrwt>
</event>
<event>
12    1  0.2768653E-001  0.1773480E+03  0.7546771E-02  0.1170868E+00
         21   -1    0    0  504  503  0.00000000000E+00  0.00000000000E+00  0.17426225874E+03  0.17426225874E+03  0.00000000000E+00 0. -1.
         21   -1    0    0  502  504 -0.00000000000E+00 -0.00000000000E+00 -0.19879130968E+03  0.19879130968E+03  0.00000000000E+00 0. -1.
          6    2    1    2  502    0  0.30105769151E+02  0.45487652798E-01 -0.71841944115E+02  0.19134679024E+03  0.17477405356E+03 0.  0.
         24    2    3    3    0    0  0.89630063684E+01 -0.68114289033E+02 -0.44318284707E+02  0.11471511662E+03  0.80470837993E+02 0.  0.
         -6    2    1    2    0  503 -0.30105769151E+02 -0.45487652798E-01  0.47312893176E+02  0.18170677818E+03  0.17283658169E+03 0.  0.
        -24    2    5    5    0    0 -0.53339033252E+00  0.27565759312E+02  0.90520534258E+02  0.12232751584E+03  0.77523534605E+02 0.  0.
          4    1    4    4  501    0  0.29316210837E+02 -0.74699556738E+02 -0.47249097692E+02  0.93123258251E+02  0.00000000000E+00 0. -1.
         -3    1    4    4    0  501 -0.20353204469E+02  0.65852677046E+01  0.29308129853E+01  0.21591858365E+02  0.00000000000E+00 0.  1.
          5    1    3    3  502    0  0.21142762782E+02  0.68159776686E+02 -0.27523659408E+02  0.76631673629E+02  0.47000000000E+01 0. -1.
         11    1    6    6    0    0 -0.25749071319E+02  0.25916302348E+02  0.89911915568E+02  0.97050615465E+02  0.00000000000E+00 0. -1.
        -12    1    6    6    0    0  0.25215680986E+02  0.16494569640E+01  0.60861869031E+00  0.25276900375E+02  0.00000000000E+00 0.  1.
         -5    1    5    5    0  503 -0.29572378818E+02 -0.27611246965E+02 -0.43207641082E+02  0.59379262338E+02  0.47000000000E+01 0.  1.
<mgrwt>
<rscale>  2 0.17686885E+03</rscale>
<asrwt>0</asrwt>
<pdfrwt beam="1">  1       21 0.26809578E-01 0.17734805E+03</pdfrwt>
<pdfrwt beam="2">  1       21 0.30583278E-01 0.17734805E+03</pdfrwt>
<totfact> 0.13667046E+05</totfact>
</mgrwt>
</event>
<event>
12    1  0.2768653E-001  0.2321060E+03  0.7546771E-02  0.1125607E+00
         21   -1    0    0  504  503  0.00000000000E+00  0.00000000000E+00  0.59194658888E+03  0.59194658888E+03  0.00000000000E+00 0.  1.
         21   -1    0    0  502  504 -0.00000000000E+00 -0.00000000000E+00 -0.29340878344E+03  0.29340878344E+03  0.00000000000E+00 0. -1.
          6    2    1    2  502    0 -0.45290344328E+02  0.14484285542E+03 -0.21954005019E+03  0.31766016152E+03  0.17227732445E+03 0.  0.
         24    2    3    3    0    0 -0.16071805532E+02  0.15510513240E+03 -0.22560584166E+03  0.28575528471E+03  0.80263204005E+02 0.  0.
         -6    2    1    2    0  503  0.45290344328E+02 -0.14484285542E+03  0.51807785563E+03  0.56769521080E+03  0.17562038554E+03 0.  0.
        -24    2    5    5    0    0  0.19888863179E+02 -0.26077170126E+02  0.82343234840E+02  0.11532669620E+03  0.73785180437E+02 0.  0.
          4    1    4    4  501    0 -0.27938857464E+02  0.11390152832E+03 -0.10377622659E+03  0.15660026537E+03  0.00000000000E+00 0. -1.
         -3    1    4    4    0  501  0.11867051933E+02  0.41203604077E+02 -0.12182961507E+03  0.12915501933E+03  0.00000000000E+00 0.  1.
          5    1    3    3  502    0 -0.29218538796E+02 -0.10262276976E+02  0.60657914686E+01  0.31904876810E+02  0.47000000000E+01 0. -1.
         13    1    6    6    0    0 -0.16087266848E+02 -0.38877709761E+02  0.36837342949E+02  0.55921966225E+02  0.00000000000E+00 0. -1.
        -14    1    6    6    0    0  0.35976130027E+02  0.12800539635E+02  0.45505891891E+02  0.59404729975E+02  0.00000000000E+00 0.  1.
         -5    1    5    5    0  503  0.25401481149E+02 -0.11876568529E+03  0.43573462079E+03  0.45236851460E+03  0.47000000000E+01 0.  1.
<mgrwt>
<rscale>  2 0.23147363E+03</rscale>
<asrwt>0</asrwt>
<pdfrwt beam="1">  1       21 0.91068706E-01 0.23210598E+03</pdfrwt>
<pdfrwt beam="2">  1       21 0.45139813E-01 0.23210598E+03</pdfrwt>
<totfact> 0.46733142E+03</totfact>
</mgrwt>
</event>
<event>
12    1  0.2768653E-001  0.1915328E+03  0.7546771E-02  0.1157677E+00
         21   -1    0    0  504  503  0.00000000000E+00  0.00000000000E+00  0.15920927319E+03  0.15920927319E+03  0.00000000000E+00 0. -1.
         21   -1    0    0  502  504 -0.00000000000E+00 -0.00000000000E+00 -0.29888444555E+03  0.29888444555E+03  0.00000000000E+00 0. -1.
          6    2    1    2  502    0  0.78141904793E+02 -0.24960136931E+02  0.42648191969E+02  0.19365727700E+03  0.17016200204E+03 0.  0.
         24    2    3    3    0    0  0.61211445012E+02 -0.26430752511E+02 -0.43012890726E+02  0.10620034894E+03  0.70590223592E+02 0.  0.
         -6    2    1    2    0  503 -0.78141904793E+02  0.24960136931E+02 -0.18232336433E+03  0.26443644173E+03  0.17307702567E+03 0.  0.
        -24    2    5    5    0    0 -0.10091548780E+03 -0.39852068116E+01 -0.71957341661E+02  0.14799238663E+03  0.80771714926E+02 0.  0.
          4    1    4    4  501    0  0.62119283021E+02 -0.10441353006E+02 -0.29553543970E+01  0.63059981725E+02  0.00000000000E+00 0. -1.
         -3    1    4    4    0  501 -0.90783800834E+00 -0.15989399504E+02 -0.40057536329E+02  0.43140367211E+02  0.00000000000E+00 0.  1.
          5    1    3    3  502    0  0.16930459781E+02  0.14706155794E+01  0.85661082694E+02  0.87456928067E+02  0.47000000000E+01 0. -1.
         11    1    6    6    0    0 -0.10347969884E+03  0.38832996845E+01 -0.33771939307E+02  0.10892048464E+03  0.00000000000E+00 0. -1.
        -12    1    6    6    0    0  0.25642110458E+01 -0.78685064961E+01 -0.38185402354E+02  0.39071901997E+02  0.00000000000E+00 0.  1.
         -5    1    5    5    0  503  0.22773583003E+02  0.28945343743E+02 -0.11036602267E+03  0.11644405510E+03  0.47000000000E+01 0.  1.
<mgrwt>
<rscale>  2 0.19087191E+03</rscale>
<asrwt>0</asrwt>
<pdfrwt beam="1">  1       21 0.24493734E-01 0.19153282E+03</pdfrwt>
<pdfrwt beam="2">  1       21 0.45982222E-01 0.19153282E+03</pdfrwt>
<totfact> 0.71426086E+04</totfact>
</mgrwt>
</event>
<event>
12    1  0.2768653E-001  0.2303416E+03  0.7546771E-02  0.1127890E+00
         21   -1    0    0  504  503  0.00000000000E+00  0.00000000000E+00  0.53291791586E+03  0.53291791586E+03  0.00000000000E+00 0. -1.
         21   -1    0    0  502  504 -0.00000000000E+00 -0.00000000000E+00 -0.10113111904E+03  0.10113111904E+03  0.00000000000E+00 0. -1.
          6    2    1    2  502    0  0.10967563387E+03 -0.10202437464E+03  0.14069799153E+03  0.26284836726E+03  0.16387684907E+03 0.  0.
         24    2    3    3    0    0  0.71924033990E+02 -0.70123586677E+02  0.16375239421E+03  0.20810862804E+03  0.80024811039E+02 0.  0.
         -6    2    1    2    0  503 -0.10967563387E+03  0.10202437464E+03  0.29108880529E+03  0.37120066764E+03  0.17498435761E+03 0.  0.
        -24    2    5    5    0    0 -0.69694923377E+02  0.13485664746E+03  0.18253761700E+03  0.25086004346E+03  0.81037534991E+02 0.  0.
          2    1    4    4  501    0  0.40136066659E+02  0.24822518192E+01  0.95092427404E+02  0.10324550920E+03  0.00000000000E+00 0. -1.
         -1    1    4    4    0  501  0.31787967330E+02 -0.72605838496E+02  0.68659966810E+02  0.10486311884E+03  0.00000000000E+00 0.  1.
          5    1    3    3  502    0  0.37751599878E+02 -0.31900787966E+02 -0.23054402680E+02  0.54739739214E+02  0.47000000000E+01 0. -1.
         11    1    6    6    0    0 -0.68331083099E+02  0.10373368842E+03  0.18118658860E+03  0.21967793453E+03  0.00000000000E+00 0. -1.
        -12    1    6    6    0    0 -0.13638402772E+01  0.31122959033E+02  0.13510283943E+01  0.31182108925E+02  0.00000000000E+00 0.  1.
         -5    1    5    5    0  503 -0.39980710492E+02 -0.32832272815E+02  0.10855118829E+03  0.12034062418E+03  0.47000000000E+01 0.  1.
<mgrwt>
<rscale>  2 0.22823266E+03</rscale>
<asrwt>0</asrwt>
<pdfrwt beam="1">  1       21 0.81987370E-01 0.23034158E+03</pdfrwt>
<pdfrwt beam="2">  1       21 0.15558634E-01 0.23034158E+03</pdfrwt>
<totfact> 0.46881332E+04</totfact>
</mgrwt>
</event>
<event>
12    1  0.2768653E-001  0.2026432E+03  0.7546771E-02  0.1147778E+00
         21   -1    0    0  504  503  0.00000000000E+00  0.00000000000E+00  0.19137302653E+03  0.19137302653E+03  0.00000000000E+00 0. -1.
         21   -1    0    0  502  504 -0.00000000000E+00 -0.00000000000E+00 -0.27812288609E+03  0.27812288609E+03  0.00000000000E+00 0. -1.
          6    2    1    2  502    0 -0.98134563085E+02  0.32002501133E+02 -0.15679734409E+03  0.25622191008E+03  0.17438379380E+03 0.  0.
         24    2    3    3    0    0 -0.11959363722E+03 -0.18991958495E+02 -0.89264508994E+02  0.16879365040E+03  0.76549404296E+02 0.  0.
         -6    2    1    2    0  503  0.98134563085E+02 -0.32002501133E+02  0.70047484541E+02  0.21327400254E+03  0.17298727559E+03 0.  0.
        -24    2    5    5    0    0  0.12549037062E+03 -0.57642214067E+02  0.37462430651E+02  0.16337800247E+03  0.78857339669E+02 0.  0.
          4    1    4    4  501    0 -0.55746418049E+02 -0.44730919831E+02 -0.62457738880E+02  0.94918319940E+02  0.00000000000E+00 0. -1.
         -3    1    4    4    0  501 -0.63847219169E+02  0.25738961336E+02 -0.26806770114E+02  0.73875330457E+02  0.00000000000E+00 0.  1.
          5    1    3    3  502    0  0.21459074132E+02  0.50994459628E+02 -0.67532835098E+02  0.87428259686E+02  0.47000000000E+01 0. -1.
         11    1    6    6    0    0  0.10335616354E+03 -0.14736542502E+02  0.46452727878E+02  0.11426949791E+03  0.00000000000E+00 0. -1.
        -12    1    6    6    0    0  0.22134207087E+02 -0.42905671565E+02 -0.89902972270E+01  0.49108504559E+02  0.00000000000E+00 0.  1.
         -5    1    5    5    0  503 -0.27355807538E+02  0.25639712934E+02  0.32585053890E+02  0.49896000064E+02  0.47000000000E+01 0.  1.
<mgrwt>
<rscale>  2 0.20234239E+03</rscale>
<asrwt>0</asrwt>
<pdfrwt beam="1">  1       21 0.29442004E-01 0.20264318E+03</pdfrwt>
<pdfrwt beam="2">  1       21 0.42788136E-01 0.20264318E+03</pdfrwt>
<totfact> 0.57794448E+04</totfact>
</mgrwt>
</event>
<event>
12    1  0.2768653E-001  0.1953325E+03  0.7546771E-02  0.1154869E+00
         21   -1    0    0  504  503  0.00000000000E+00  0.00000000000E+00  0.48859744589E+03  0.48859744589E+03  0.00000000000E+00 0. -1.
         21   -1    0    0  502  504 -0.00000000000E+00 -0.00000000000E+00 -0.85570645091E+02  0.85570645091E+02  0.00000000000E+00 0.  1.
          6    2    1    2  502    0  0.65562148933E+02  0.44996765695E+02  0.10816744997E+03  0.22328231926E+03  0.17841438441E+03 0.  0.
         24    2    3    3    0    0  0.94473716890E+02  0.27960361598E+02  0.19599886835E+02  0.12845394236E+03  0.80057446493E+02 0.  0.
         -6    2    1    2    0  503 -0.65562148933E+02 -0.44996765695E+02  0.29485935083E+03  0.35088577172E+03  0.17278797334E+03 0.  0.
        -24    2    5    5    0    0  0.29986193931E+02 -0.11395680755E+02  0.10208801777E+03  0.13307531380E+03  0.79107789776E+02 0.  0.
          4    1    4    4  501    0  0.19253777847E+02  0.40354993401E+02  0.26386752965E+02  0.51918148906E+02  0.00000000000E+00 0. -1.
         -3    1    4    4    0  501  0.75219939043E+02 -0.12394631802E+02 -0.67868661301E+01  0.76535793450E+02  0.00000000000E+00 0.  1.
          5    1    3    3  502    0 -0.28911567957E+02  0.17036404097E+02  0.88567563134E+02  0.94828376901E+02  0.47000000000E+01 0. -1.
         11    1    6    6    0    0 -0.54602864934E+00 -0.31694449075E+02  0.88446910373E+02  0.93955799203E+02  0.00000000000E+00 0. -1.
        -12    1    6    6    0    0  0.30532222580E+02  0.20298768319E+02  0.13641107400E+02  0.39119514594E+02  0.00000000000E+00 0.  1.
         -5    1    5    5    0  503 -0.95548342864E+02 -0.33601084940E+02  0.19277133306E+03  0.21781045793E+03  0.47000000000E+01 0.  1.
<mgrwt>
<rscale>  2 0.19403840E+03</rscale>
<asrwt>0</asrwt>
<pdfrwt beam="1">  1       21 0.75168836E-01 0.19533253E+03</pdfrwt>
<pdfrwt beam="2">  1       21 0.13164715E-01 0.19533253E+03</pdfrwt>
<totfact> 0.78518716E+04</totfact>
</mgrwt>
</event>
<event>
12    1  0.2768653E-001  0.1852713E+03  0.7546771E-02  0.1162957E+00
         21   -1    0    0  504  503  0.00000000000E+00  0.00000000000E+00  0.52388538578E+02  0.52388538578E+02  0.00000000000E+00 0. -1.
         21   -1    0    0  502  504 -0.00000000000E+00 -0.00000000000E+00 -0.66648601180E+03  0.66648601180E+03  0.00000000000E+00 0.  1.
          6    2    1    2  502    0 -0.57840217752E+01  0.64686085406E+02 -0.25607580063E+03  0.31607004103E+03  0.17351573593E+03 0.  0.
         24    2    3    3    0    0  0.55517726058E+02  0.27257870800E+02 -0.19944488664E+03  0.22448442013E+03  0.82400137425E+02 0.  0.
         -6    2    1    2    0  503  0.57840217752E+01 -0.64686085406E+02 -0.35802167259E+03  0.40280450935E+03  0.17278370916E+03 0.  0.
        -24    2    5    5    0    0 -0.31102596345E+02  0.22500724360E+02 -0.17245455662E+03  0.19443126989E+03  0.81174444958E+02 0.  0.
          2    1    4    4  501    0  0.14660332634E+02  0.35143852633E+02 -0.16817801855E+03  0.17243509404E+03  0.00000000000E+00 0. -1.
         -1    1    4    4    0  501  0.40857393424E+02 -0.78859818328E+01 -0.31266868084E+02  0.52049326093E+02  0.00000000000E+00 0.  1.
          5    1    3    3  502    0 -0.61301747833E+02  0.37428214606E+02 -0.56630913991E+02  0.91585620899E+02  0.47000000000E+01 0. -1.
         11    1    6    6    0    0 -0.57085672508E+02  0.32270172886E+01 -0.11718151908E+03  0.13038671735E+03  0.00000000000E+00 0. -1.
        -12    1    6    6    0    0  0.25983076163E+02  0.19273707072E+02 -0.55273037540E+02  0.64044552540E+02  0.00000000000E+00 0.  1.
         -5    1    5    5    0  503  0.36886618121E+02 -0.87186809767E+02 -0.18556711597E+03  0.20837323946E+03  0.47000000000E+01 0.  1.
<mgrwt>
<rscale>  2 0.18509971E+03</rscale>
<asrwt>0</asrwt>
<pdfrwt beam="1">  1       21 0.80597750E-02 0.18527130E+03</pdfrwt>
<pdfrwt beam="2">  1       21 0.10253631E+00 0.18527130E+03</pdfrwt>
<totfact> 0.91897730E+04</totfact>
</mgrwt>
</event>
<event>
12    1  0.2768653E-001  0.1990665E+03  0.7546771E-02  0.1150640E+00
         21   -1    0    0  504  503  0.00000000000E+00  0.00000000000E+00  0.28309309463E+03  0.28309309463E+03  0.00000000000E+00 0. -1.
         21   -1    0    0  502  504 -0.00000000000E+00 -0.00000000000E+00 -0.14326389335E+03  0.14326389335E+03  0.00000000000E+00 0. -1.
          6    2    1    2  502    0  0.43411394540E+02  0.89223534040E+02  0.35792243987E+02  0.20174364362E+03  0.17197099991E+03 0.  0.
         24    2    3    3    0    0  0.17253524939E+02  0.15069436834E+02  0.76468416277E+02  0.11308866482E+03  0.80105276810E+02 0.  0.
         -6    2    1    2    0  503 -0.43411394540E+02 -0.89223534040E+02  0.10403695730E+03  0.22461334436E+03  0.17257484688E+03 0.  0.
        -24    2    5    5    0    0  0.37916799681E+01 -0.10327312044E+03  0.11342599709E+03  0.17425696254E+03  0.82585216211E+02 0.  0.
          2    1    4    4  501    0 -0.11833850568E+02 -0.27416257364E+02  0.16750036995E+02  0.34238208576E+02  0.00000000000E+00 0. -1.
         -1    1    4    4    0  501  0.29087375507E+02  0.42485694198E+02  0.59718379282E+02  0.78850456242E+02  0.00000000000E+00 0.  1.
          5    1    3    3  502    0  0.26157869601E+02  0.74154097206E+02 -0.40676172290E+02  0.88654978804E+02  0.47000000000E+01 0. -1.
         13    1    6    6    0    0  0.96811389573E+01 -0.40292978195E+01  0.60937919798E+02  0.61833565009E+02  0.00000000000E+00 0. -1.
        -14    1    6    6    0    0 -0.58894589892E+01 -0.99243822619E+02  0.52488077294E+02  0.11242339753E+03  0.00000000000E+00 0.  1.
         -5    1    5    5    0  503 -0.47203074508E+02  0.14049586398E+02 -0.93890397953E+01  0.50356381812E+02  0.47000000000E+01 0.  1.
<mgrwt>
<rscale>  2 0.19893554E+03</rscale>
<asrwt>0</asrwt>
<pdfrwt beam="1">  1       21 0.43552784E-01 0.19906649E+03</pdfrwt>
<pdfrwt beam="2">  1       21 0.22040599E-01 0.19906649E+03</pdfrwt>
<totfact> 0.97214191E+04</totfact>
</mgrwt>
</event>
<event>
12    1  0.2768653E-001  0.2299254E+03  0.7546771E-02  0.1126838E+00
         21   -1    0    0  504  503  0.00000000000E+00  0.00000000000E+00  0.16057366109E+03  0.16057366109E+03  0.00000000000E+00 0. -1.
         21   -1    0    0  502  504 -0.00000000000E+00 -0.00000000000E+00 -0.43764272024E+03  0.43764272024E+03  0.00000000000E+00 0.  1.
          6    2    1    2  502    0 -0.14356589138E+03 -0.27708110271E+02 -0.28840347580E+03  0.36883909078E+03  0.17744521827E+03 0.  0.
         24    2    3    3    0    0 -0.94981918374E+02 -0.39876150062E+02 -0.29053203684E+03  0.31848946915E+03  0.80093728650E+02 0.  0.
         -6    2    1    2    0  503  0.14356589138E+03  0.27708110271E+02  0.11334416648E+02  0.22937729056E+03  0.17637054141E+03 0.  0.
        -24    2    5    5    0    0  0.44223841596E+02 -0.40633385807E+02 -0.22921452107E+02  0.10393823170E+03  0.81675839971E+02 0.  0.
          2    1    4    4  501    0 -0.19832996558E+02  0.12370270453E+02 -0.14281746022E+03  0.14471765023E+03  0.00000000000E+00 0. -1.
         -1    1    4    4    0  501 -0.75148921816E+02 -0.52246420515E+02 -0.14771457662E+03  0.17377181893E+03  0.00000000000E+00 0.  1.
          5    1    3    3  502    0 -0.48583973008E+02  0.12168039791E+02  0.21285610382E+01  0.50349621624E+02  0.47000000000E+01 0. -1.
         13    1    6    6    0    0  0.62149143336E+02 -0.33011816080E+02  0.42563595291E+01  0.70501153287E+02  0.00000000000E+00 0. -1.
        -14    1    6    6    0    0 -0.17925301740E+02 -0.76215697271E+01 -0.27177811636E+02  0.33437078415E+02  0.00000000000E+00 0.  1.
         -5    1    5    5    0  503  0.99342049786E+02  0.68341496078E+02  0.34255868755E+02  0.12543905885E+03  0.47000000000E+01 0.  1.
<mgrwt>
<rscale>  2 0.22971807E+03</rscale>
<asrwt>0</asrwt>
<pdfrwt beam="1">  1       21 0.24703640E-01 0.22992544E+03</pdfrwt>
<pdfrwt beam="2">  1       21 0.67329649E-01 0.22992544E+03</pdfrwt>
<totfact> 0.30667197E+04</totfact>
</mgrwt>
</event>
<event>
12    1  0.2768653E-001  0.2261896E+03  0.7546771E-02  0.1129369E+00
         21   -1    0    0  504  503  0.00000000000E+00  0.00000000000E+00  0.70398544862E+03  0.70398544862E+03  0.00000000000E+00 0.  1.
         21   -1    0    0  502  504 -0.00000000000E+00 -0.00000000000E+00 -0.74789511882E+02  0.74789511882E+02  0.00000000000E+00 0.  1.
          6    2    1    2  502    0 -0.20718233490E+02 -0.14406267061E+03  0.24854395362E+03  0.33599096219E+03  0.17301020644E+03 0.  0.
         24    2    3    3    0    0 -0.34403027273E+02 -0.14827528605E+03  0.26214485984E+03  0.31569085481E+03  0.88157016352E+02 0.  0.
         -6    2    1    2    0  503  0.20718233490E+02  0.14406267061E+03  0.38065198312E+03  0.44278399831E+03  0.17314282730E+03 0.  0.
        -24    2    5    5    0    0  0.76041235409E+02  0.60152012305E+02  0.21173197267E+03  0.24616840115E+03  0.79799244387E+02 0.  0.
          2    1    4    4  501    0 -0.27421175656E+02 -0.65404130918E+02  0.19903176030E+03  0.21128952370E+03  0.00000000000E+00 0. -1.
         -1    1    4    4    0  501 -0.69818516169E+01 -0.82871155131E+02  0.63113099536E+02  0.10440133111E+03  0.00000000000E+00 0.  1.
          5    1    3    3  502    0  0.13684793782E+02  0.42126154428E+01 -0.13600906220E+02  0.20300107383E+02  0.47000000000E+01 0. -1.
         13    1    6    6    0    0  0.46281055698E+02  0.35744416064E+02  0.41669647537E+02  0.71805006246E+02  0.00000000000E+00 0. -1.
        -14    1    6    6    0    0  0.29760179711E+02  0.24407596241E+02  0.17006232514E+03  0.17436339490E+03  0.00000000000E+00 0.  1.
         -5    1    5    5    0  503 -0.55323001919E+02  0.83910658301E+02  0.16892001045E+03  0.19661559716E+03  0.47000000000E+01 0.  1.
<mgrwt>
<rscale>  2 0.22616422E+03</rscale>
<asrwt>0</asrwt>
<pdfrwt beam="1">  1       21 0.10830545E+00 0.22618960E+03</pdfrwt>
<pdfrwt beam="2">  1       21 0.11506079E-01 0.22618960E+03</pdfrwt>
<totfact> 0.42154596E+04</totfact>
</mgrwt>
</event>
<event>
12    1  0.2768653E-001  0.2206243E+03  0.7546771E-02  0.1133649E+00
         21   -1    0    0  504  503  0.00000000000E+00  0.00000000000E+00  0.48650215150E+03  0.48650215150E+03  0.00000000000E+00 0. -1.
         21   -1    0    0  502  504 -0.00000000000E+00 -0.00000000000E+00 -0.11231326551E+03  0.11231326551E+03  0.00000000000E+00 0. -1.
          6    2    1    2  502    0 -0.12562138206E+03 -0.54709593585E+02  0.85464674741E+02  0.23544681484E+03  0.17133919787E+03 0.  0.
         24    2    3    3    0    0 -0.60421127447E+02 -0.79232370499E+02  0.17054334000E+01  0.12640489492E+03  0.77761222856E+02 0.  0.
         -6    2    1    2    0  503  0.12562138206E+03  0.54709593585E+02  0.28872421125E+03  0.36336860217E+03  0.17291963342E+03 0.  0.
        -24    2    5    5    0    0  0.63680129544E+02  0.33151510702E+02  0.57938458277E+02  0.12339855513E+03  0.81952162269E+02 0.  0.
          4    1    4    4  501    0 -0.32910171293E+02 -0.47688774586E+02  0.39407253928E+02  0.70073035172E+02  0.00000000000E+00 0. -1.
         -3    1    4    4    0  501 -0.27510956154E+02 -0.31543595913E+02 -0.37701820528E+02  0.56331859749E+02  0.00000000000E+00 0.  1.
          5    1    3    3  502    0 -0.65200254610E+02  0.24522776914E+02  0.83759241341E+02  0.10904191991E+03  0.47000000000E+01 0. -1.
         11    1    6    6    0    0  0.52273601382E+02 -0.17838005257E+02  0.39842132134E+02  0.68103739441E+02  0.00000000000E+00 0. -1.
        -12    1    6    6    0    0  0.11406528163E+02  0.50989515958E+02  0.18096326143E+02  0.55294815690E+02  0.00000000000E+00 0.  1.
         -5    1    5    5    0  503  0.61941252513E+02  0.21558082884E+02  0.23078575297E+03  0.23997004704E+03  0.47000000000E+01 0.  1.
<mgrwt>
<rscale>  2 0.22031450E+03</rscale>
<asrwt>0</asrwt>
<pdfrwt beam="1">  1       21 0.74846484E-01 0.22062428E+03</pdfrwt>
<pdfrwt beam="2">  1       21 0.17278964E-01 0.22062428E+03</pdfrwt>
<totfact> 0.47702289E+04</totfact>
</mgrwt>
</event>
<event>
12    1  0.2768653E-001  0.2123161E+03  0.7546771E-02  0.1139790E+00
         21   -1    0    0  504  503  0.00000000000E+00  0.00000000000E+00  0.42676777063E+03  0.42676777063E+03  0.00000000000E+00 0. -1.
         21   -1    0    0  502  504 -0.00000000000E+00 -0.00000000000E+00 -0.12695416058E+03  0.12695416058E+03  0.00000000000E+00 0.  1.
          6    2    1    2  502    0  0.12151265908E+03  0.23350996904E+02  0.36058463431E+02  0.21512941127E+03  0.17224939894E+03 0.  0.
         24    2    3    3    0    0  0.95209471685E+02 -0.12084912257E+02  0.82869775331E+02  0.15062398323E+03  0.81297577192E+02 0.  0.
         -6    2    1    2    0  503 -0.12151265908E+03 -0.23350996904E+02  0.26375514662E+03  0.33859251994E+03  0.17253266885E+03 0.  0.
        -24    2    5    5    0    0 -0.77828992392E+02  0.34518188002E+02  0.23107008071E+03  0.25892126521E+03  0.79987386633E+02 0.  0.
          2    1    4    4  501    0  0.79051017462E+02  0.19713208389E+02  0.81032742099E+02  0.11490856904E+03  0.00000000000E+00 0. -1.
         -1    1    4    4    0  501  0.16158454223E+02 -0.31798120647E+02  0.18370332322E+01  0.35715414188E+02  0.00000000000E+00 0.  1.
          5    1    3    3  502    0  0.26303187398E+02  0.35435909161E+02 -0.46811311899E+02  0.64505428044E+02  0.47000000000E+01 0. -1.
         13    1    6    6    0    0  0.96018888073E+01 -0.52584167713E+01  0.74026050883E+02  0.74831166134E+02  0.00000000000E+00 0. -1.
        -14    1    6    6    0    0 -0.87430881200E+02  0.39776604773E+02  0.15704402982E+03  0.18409009908E+03  0.00000000000E+00 0.  1.
         -5    1    5    5    0  503 -0.43683666691E+02 -0.57869184905E+02  0.32685065914E+02  0.79671254734E+02  0.47000000000E+01 0.  1.
<mgrwt>
<rscale>  2 0.21225852E+03</rscale>
<asrwt>0</asrwt>
<pdfrwt beam="1">  1       21 0.65656579E-01 0.21231608E+03</pdfrwt>
<pdfrwt beam="2">  1       21 0.19531410E-01 0.21231608E+03</pdfrwt>
<totfact> 0.50958745E+04</totfact>
</mgrwt>
</event>
<event>
12    1  0.2768653E-001  0.2045948E+03  0.7546771E-02  0.1146929E+00
         21   -1    0    0  504  503  0.00000000000E+00  0.00000000000E+00  0.31969415114E+03  0.31969415114E+03  0.00000000000E+00 0. -1.
         21   -1    0    0  502  504 -0.00000000000E+00 -0.00000000000E+00 -0.24706877708E+03  0.24706877708E+03  0.00000000000E+00 0. -1.
          6    2    1    2  502    0 -0.85213636215E+01 -0.11170647457E+03 -0.16076479200E+03  0.25639221216E+03  0.16535022834E+03 0.  0.
         24    2    3    3    0    0  0.38946189281E+02 -0.28484624760E+02 -0.12056738811E+03  0.15238756735E+03  0.79732653898E+02 0.  0.
         -6    2    1    2    0  503  0.85213636215E+01  0.11170647457E+03  0.23339016606E+03  0.31037071606E+03  0.17119597447E+03 0.  0.
        -24    2    5    5    0    0 -0.36309110413E+02  0.10856437502E+03  0.22394401821E+03  0.26420835151E+03  0.80935497116E+02 0.  0.
          2    1    4    4  501    0 -0.10296807629E+02  0.10000963965E+01 -0.83332571373E+02  0.83972268588E+02  0.00000000000E+00 0. -1.
         -1    1    4    4    0  501  0.49242996910E+02 -0.29484721157E+02 -0.37234816740E+02  0.68415298757E+02  0.00000000000E+00 0.  1.
          5    1    3    3  502    0 -0.47467552903E+02 -0.83221849814E+02 -0.40197403884E+02  0.10400464482E+03  0.47000000000E+01 0. -1.
         11    1    6    6    0    0  0.15495733300E+02  0.69749241851E+02  0.85834235682E+02  0.11168075261E+03  0.00000000000E+00 0. -1.
        -12    1    6    6    0    0 -0.51804843714E+02  0.38815133165E+02  0.13810978253E+03  0.15252759889E+03  0.00000000000E+00 0.  1.
         -5    1    5    5    0  503  0.44830474035E+02  0.31420995589E+01  0.94461478524E+01  0.46162364552E+02  0.47000000000E+01 0.  1.
<mgrwt>
<rscale>  2 0.20336729E+03</rscale>
<asrwt>0</asrwt>
<pdfrwt beam="1">  1       21 0.49183715E-01 0.20459475E+03</pdfrwt>
<pdfrwt beam="2">  1       21 0.38010581E-01 0.20459475E+03</pdfrwt>
<totfact> 0.26143530E+04</totfact>
</mgrwt>
</event>
<event>
12    1  0.2768653E-001  0.1888625E+03  0.7546771E-02  0.1159797E+00
         21   -1    0    0  504  503  0.00000000000E+00  0.00000000000E+00  0.12056550681E+03  0.12056550681E+03  0.00000000000E+00 0.  1.
         21   -1    0    0  502  504 -0.00000000000E+00 -0.00000000000E+00 -0.43227274601E+03  0.43227274601E+03  0.00000000000E+00 0.  1.
          6    2    1    2  502    0  0.72504028400E+02  0.11015615563E+02 -0.31270301515E+03  0.36531114835E+03  0.17404275769E+03 0.  0.
         24    2    3    3    0    0  0.71808593122E+02 -0.39721837362E+02 -0.28443163954E+03  0.30703479432E+03  0.81453722724E+02 0.  0.
         -6    2    1    2    0  503 -0.72504028400E+02 -0.11015615563E+02  0.99577594553E+00  0.18752710448E+03  0.17258981842E+03 0.  0.
        -24    2    5    5    0    0 -0.24234622418E+02  0.47741111083E+02 -0.35781226977E+02  0.10292848496E+03  0.80295991188E+02 0.  0.
          2    1    4    4  501    0  0.85783587678E+01 -0.39101991732E+02 -0.18438276074E+03  0.18867844725E+03  0.00000000000E+00 0. -1.
         -1    1    4    4    0  501  0.63230234354E+02 -0.61984563005E+00 -0.10004887879E+03  0.11835634707E+03  0.00000000000E+00 0.  1.
          5    1    3    3  502    0  0.69543527867E+00  0.50737452925E+02 -0.28271375613E+02  0.58276354026E+02  0.47000000000E+01 0. -1.
         13    1    6    6    0    0 -0.41383941864E+02  0.38025119256E+02  0.62084673878E+01  0.56542775011E+02  0.00000000000E+00 0. -1.
        -14    1    6    6    0    0  0.17149319446E+02  0.97159918272E+01 -0.41989694364E+02  0.46385709949E+02  0.00000000000E+00 0.  1.
         -5    1    5    5    0  503 -0.48269405982E+02 -0.58756726646E+02  0.36777002922E+02  0.84598619516E+02  0.47000000000E+01 0.  1.
<mgrwt>
<rscale>  2 0.18852713E+03</rscale>
<asrwt>0</asrwt>
<pdfrwt beam="1">  1       21 0.18548540E-01 0.18886254E+03</pdfrwt>
<pdfrwt beam="2">  1       21 0.66503499E-01 0.18886254E+03</pdfrwt>
<totfact> 0.55164278E+04</totfact>
</mgrwt>
</event>
<event>
12    1  0.2768653E-001  0.1978012E+03  0.7546771E-02  0.1151680E+00
         21   -1    0    0  504  503  0.00000000000E+00  0.00000000000E+00  0.21461794050E+03  0.21461794050E+03  0.00000000000E+00 0.  1.
         21   -1    0    0  502  504 -0.00000000000E+00 -0.00000000000E+00 -0.57289898824E+03  0.57289898824E+03  0.00000000000E+00 0. -1.
          6    2    1    2  502    0  0.83806685629E+02 -0.42445809889E+02 -0.50444781331E+03  0.54184215231E+03  0.17406928027E+03 0.  0.
         24    2    3    3    0    0  0.96976690094E+02 -0.32527276307E+02 -0.50794588511E+03  0.52434492874E+03  0.80411939223E+02 0.  0.
         -6    2    1    2    0  503 -0.83806685629E+02  0.42445809889E+02  0.14616676556E+03  0.24567477643E+03  0.17368409567E+03 0.  0.
        -24    2    5    5    0    0 -0.27252813853E+02  0.67607021316E+02  0.28075638251E+02  0.11226176611E+03  0.80629011365E+02 0.  0.
          2    1    4    4  501    0  0.92958253721E+02 -0.50901710465E+02 -0.36209825009E+03  0.37728949598E+03  0.00000000000E+00 0. -1.
         -1    1    4    4    0  501  0.40184363730E+01  0.18374434157E+02 -0.14584763503E+03  0.14705543276E+03  0.00000000000E+00 0.  1.
          5    1    3    3  502    0 -0.13170004465E+02 -0.99185335816E+01  0.34980718075E+01  0.17497223562E+02  0.47000000000E+01 0. -1.
         13    1    6    6    0    0 -0.60796899111E+01 -0.16447161529E+02 -0.68293424440E+01  0.18817855085E+02  0.00000000000E+00 0. -1.
        -14    1    6    6    0    0 -0.21173123942E+02  0.84054182845E+02  0.34904980695E+02  0.93443911030E+02  0.00000000000E+00 0.  1.
         -5    1    5    5    0  503 -0.56553871775E+02 -0.25161211427E+02  0.11809112731E+03  0.13341301032E+03  0.47000000000E+01 0.  1.
<mgrwt>
<rscale>  2 0.19771644E+03</rscale>
<asrwt>0</asrwt>
<pdfrwt beam="1">  1       21 0.33018145E-01 0.19780122E+03</pdfrwt>
<pdfrwt beam="2">  1       21 0.88138305E-01 0.19780122E+03</pdfrwt>
<totfact> 0.97014430E+03</totfact>
</mgrwt>
</event>
<event>
12    1  0.2768653E-001  0.2954318E+03  0.7546771E-02  0.1087847E+00
         21   -1    0    0  504  503  0.00000000000E+00  0.00000000000E+00  0.12482317978E+04  0.12482317978E+04  0.00000000000E+00 0. -1.
         21   -1    0    0  502  504 -0.00000000000E+00 -0.00000000000E+00 -0.10137917035E+03  0.10137917035E+03  0.00000000000E+00 0.  1.
          6    2    1    2  502    0  0.23409715084E+03 -0.34197460082E+02  0.19267667748E+03  0.35074576892E+03  0.17299523133E+03 0.  0.
         24    2    3    3    0    0  0.55006408211E+02 -0.56640962971E+02  0.71037102680E+02  0.13304073665E+03  0.80122805872E+02 0.  0.
         -6    2    1    2    0  503 -0.23409715084E+03  0.34197460082E+02  0.95417594995E+03  0.99886519921E+03  0.17694349504E+03 0.  0.
        -24    2    5    5    0    0 -0.13632956752E+03 -0.50059574264E+02  0.58112183588E+03  0.60408778066E+03  0.78279924880E+02 0.  0.
          2    1    4    4  501    0  0.44170193741E+02 -0.50512093132E+02  0.88830017368E+02  0.11132497273E+03  0.00000000000E+00 0. -1.
         -1    1    4    4    0  501  0.10836214470E+02 -0.61288698388E+01 -0.17792914688E+02  0.21715763920E+02  0.00000000000E+00 0.  1.
          5    1    3    3  502    0  0.17909074263E+03  0.22443502888E+02  0.12163957480E+03  0.21770503227E+03  0.47000000000E+01 0. -1.
         13    1    6    6    0    0 -0.31956542566E+02 -0.51394579095E+02  0.22253262106E+03  0.23061524409E+03  0.00000000000E+00 0. -1.
        -14    1    6    6    0    0 -0.10437302496E+03  0.13350048315E+01  0.35858921483E+03  0.37347253656E+03  0.00000000000E+00 0.  1.
         -5    1    5    5    0  503 -0.97767583314E+02  0.84257034346E+02  0.37305411406E+03  0.39477741856E+03  0.47000000000E+01 0.  1.
<mgrwt>
<rscale>  2 0.29484311E+03</rscale>
<asrwt>0</asrwt>
<pdfrwt beam="1">  1       21 0.19203565E+00 0.29543179E+03</pdfrwt>
<pdfrwt beam="2">  1       21 0.15596796E-01 0.29543179E+03</pdfrwt>
<totfact> 0.51208773E+03</totfact>
</mgrwt>
</event>
<event>
12    1  0.2768653E-001  0.1766064E+03  0.7546771E-02  0.1171155E+00
         21   -1    0    0  504  503  0.00000000000E+00  0.00000000000E+00  0.19142253253E+04  0.19142253253E+04  0.00000000000E+00 0.  1.
         21   -1    0    0  502  504 -0.00000000000E+00 -0.00000000000E+00 -0.25381132377E+02  0.25381132377E+02  0.00000000000E+00 0.  1.
          6    2    1    2  502    0 -0.18260721336E+02  0.27036464498E+02  0.36399777342E+03  0.40457903139E+03  0.17356667085E+03 0.  0.
         24    2    3    3    0    0  0.13184037945E+02  0.77256951703E+02  0.21161420783E+03  0.24101341372E+03  0.84642998499E+02 0.  0.
         -6    2    1    2    0  503  0.18260721336E+02 -0.27036464498E+02  0.15248464195E+04  0.15350274263E+04  0.17345942474E+03 0.  0.
        -24    2    5    5    0    0 -0.52108573223E+02 -0.25542593183E+02  0.51862921919E+03  0.52634055046E+03  0.68486353297E+02 0.  0.
          4    1    4    4  501    0 -0.21541399993E+02  0.74439280074E+02  0.16936771255E+03  0.18625428958E+03  0.00000000000E+00 0. -1.
         -3    1    4    4    0  501  0.34725437939E+02  0.28176716297E+01  0.42246495273E+02  0.54759124137E+02  0.00000000000E+00 0.  1.
          5    1    3    3  502    0 -0.31444759281E+02 -0.50220487205E+02  0.15238356559E+03  0.16356561767E+03  0.47000000000E+01 0. -1.
         13    1    6    6    0    0 -0.39285660448E+02  0.21956139428E+01  0.44338860926E+03  0.44513103987E+03  0.00000000000E+00 0. -1.
        -14    1    6    6    0    0 -0.12822912775E+02 -0.27738207126E+02  0.75240609932E+02  0.81209510586E+02  0.00000000000E+00 0.  1.
         -5    1    5    5    0  503  0.70369294559E+02 -0.14938713152E+01  0.10062172003E+04  0.10086868758E+04  0.47000000000E+01 0.  1.
<mgrwt>
<rscale>  2 0.17658002E+03</rscale>
<asrwt>0</asrwt>
<pdfrwt beam="1">  1       21 0.29449609E+00 0.17660638E+03</pdfrwt>
<pdfrwt beam="2">  1       21 0.39047911E-02 0.17660638E+03</pdfrwt>
<totfact> 0.15236447E+04</totfact>
</mgrwt>
</event>
<event>
12    1  0.2768653E-001  0.1741451E+03  0.7546771E-02  0.1173679E+00
         21   -1    0    0  504  503  0.00000000000E+00  0.00000000000E+00  0.56835188277E+02  0.56835188277E+02  0.00000000000E+00 0. -1.
         21   -1    0    0  502  504 -0.00000000000E+00 -0.00000000000E+00 -0.12146045247E+04  0.12146045247E+04  0.00000000000E+00 0. -1.
          6    2    1    2  502    0  0.12270990486E+02  0.19062183442E+01 -0.10555176204E+04  0.10697868830E+04  0.17370180527E+03 0.  0.
         24    2    3    3    0    0  0.29711635150E+02  0.20430161473E+02 -0.27335399450E+03  0.28719545686E+03  0.80365735068E+02 0.  0.
         -6    2    1    2    0  503 -0.12270990486E+02 -0.19062183442E+01 -0.10225171597E+03  0.20165282994E+03  0.17336158608E+03 0.  0.
        -24    2    5    5    0    0  0.45496730511E+02 -0.83278351486E+01  0.10156594401E+02  0.75019244378E+02  0.58184407635E+02 0.  0.
          2    1    4    4  501    0  0.18372834665E+02  0.51656432218E+02 -0.16618245595E+03  0.17499301903E+03  0.00000000000E+00 0. -1.
         -1    1    4    4    0  501  0.11338800485E+02 -0.31226270745E+02 -0.10717153855E+03  0.11220243784E+03  0.00000000000E+00 0.  1.
          5    1    3    3  502    0 -0.17440644664E+02 -0.18523943129E+02 -0.78216362592E+03  0.78259142614E+03  0.47000000000E+01 0. -1.
         13    1    6    6    0    0  0.42216694300E+02 -0.25785142569E+02  0.21505174526E+02  0.53940665423E+02  0.00000000000E+00 0. -1.
        -14    1    6    6    0    0  0.32800362117E+01  0.17457307420E+02 -0.11348580126E+02  0.21078578955E+02  0.00000000000E+00 0.  1.
         -5    1    5    5    0  503 -0.57767720997E+02  0.64216168044E+01 -0.11240831037E+03  0.12663358556E+03  0.47000000000E+01 0.  1.
<mgrwt>
<rscale>  2 0.17406024E+03</rscale>
<asrwt>0</asrwt>
<pdfrwt beam="1">  1       21 0.87438760E-02 0.17414513E+03</pdfrwt>
<pdfrwt beam="2">  1       21 0.18686222E+00 0.17414513E+03</pdfrwt>
<totfact> 0.17053895E+04</totfact>
</mgrwt>
</event>
<event>
12    1  0.2768653E-001  0.1764031E+03  0.7546771E-02  0.1171566E+00
         21   -1    0    0  504  503  0.00000000000E+00  0.00000000000E+00  0.18702737513E+03  0.18702737513E+03  0.00000000000E+00 0.  1.
         21   -1    0    0  502  504 -0.00000000000E+00 -0.00000000000E+00 -0.25311375989E+03  0.25311375989E+03  0.00000000000E+00 0.  1.
          6    2    1    2  502    0 -0.24068908767E+02  0.21914522913E+02 -0.16246782282E+03  0.23912516680E+03  0.17241082699E+03 0.  0.
         24    2    3    3    0    0 -0.18260856731E+02 -0.44081727748E+02 -0.43334417948E+02  0.10272833134E+03  0.79991128699E+02 0.  0.
         -6    2    1    2    0  503  0.24068908767E+02 -0.21914522913E+02  0.96381438062E+02  0.20101596822E+03  0.17337381346E+03 0.  0.
        -24    2    5    5    0    0  0.62167493731E+02 -0.23556507700E+00  0.69789283481E+01  0.10133458514E+03  0.79719131564E+02 0.  0.
          2    1    4    4  501    0 -0.72459058231E+01 -0.49756428896E+02  0.71126503441E+01  0.50781838905E+02  0.00000000000E+00 0. -1.
         -1    1    4    4    0  501 -0.11014950907E+02  0.56747011480E+01 -0.50447068292E+02  0.51946492431E+02  0.00000000000E+00 0.  1.
          5    1    3    3  502    0 -0.58080520368E+01  0.65996250661E+02 -0.11913340487E+03  0.13639683547E+03  0.47000000000E+01 0. -1.
         11    1    6    6    0    0  0.50504155320E+02 -0.36263467424E+02  0.11390946804E+02  0.63209670489E+02  0.00000000000E+00 0. -1.
        -12    1    6    6    0    0  0.11663338410E+02  0.36027902347E+02 -0.44120184556E+01  0.38124914653E+02  0.00000000000E+00 0.  1.
         -5    1    5    5    0  503 -0.38098584963E+02 -0.21678957836E+02  0.89402509713E+02  0.99681383077E+02  0.47000000000E+01 0.  1.
<mgrwt>
<rscale>  2 0.17616599E+03</rscale>
<asrwt>0</asrwt>
<pdfrwt beam="1">  1       21 0.28773442E-01 0.17640306E+03</pdfrwt>
<pdfrwt beam="2">  1       21 0.38940578E-01 0.17640306E+03</pdfrwt>
<totfact> 0.73989175E+04</totfact>
</mgrwt>
</event>
<event>
12    1  0.2768653E-001  0.2147777E+03  0.7546771E-02  0.1139033E+00
         21   -1    0    0  504  503  0.00000000000E+00  0.00000000000E+00  0.23219648815E+02  0.23219648815E+02  0.00000000000E+00 0.  1.
         21   -1    0    0  502  504 -0.00000000000E+00 -0.00000000000E+00 -0.19305081263E+04  0.19305081263E+04  0.00000000000E+00 0. -1.
          6    2    1    2  502    0  0.11390297917E+03 -0.46612883122E+02 -0.96084281421E+03  0.98455490604E+03  0.17601931668E+03 0.  0.
         24    2    3    3    0    0  0.62365936127E+02  0.30469557524E+02 -0.69169468966E+03  0.69984352163E+03  0.80755848944E+02 0.  0.
         -6    2    1    2    0  503 -0.11390297917E+03  0.46612883122E+02 -0.94644566330E+03  0.96917286911E+03  0.16849334436E+03 0.  0.
        -24    2    5    5    0    0  0.87762465402E+01  0.22524265915E+02 -0.35805080982E+03  0.36762399537E+03  0.79766249096E+02 0.  0.
          4    1    4    4  501    0  0.79416982196E+02  0.12409849234E+02 -0.47814509837E+03  0.48485440754E+03  0.00000000000E+00 0. -1.
         -3    1    4    4    0  501 -0.17051046068E+02  0.18059708290E+02 -0.21354959129E+03  0.21498911409E+03  0.00000000000E+00 0.  1.
          5    1    3    3  502    0  0.51537043042E+02 -0.77082440647E+02 -0.26914812455E+03  0.28471138441E+03  0.47000000000E+01 0. -1.
         11    1    6    6    0    0 -0.12413678332E+02 -0.26805704325E+02 -0.13665668229E+03  0.13981306809E+03  0.00000000000E+00 0. -1.
        -12    1    6    6    0    0  0.21189924872E+02  0.49329970240E+02 -0.22139412753E+03  0.22781092727E+03  0.00000000000E+00 0.  1.
         -5    1    5    5    0  503 -0.12267922571E+03  0.24088617208E+02 -0.58839485348E+03  0.60154887374E+03  0.47000000000E+01 0.  1.
<mgrwt>
<rscale>  2 0.21323021E+03</rscale>
<asrwt>0</asrwt>
<pdfrwt beam="1">  1       21 0.35722535E-02 0.21477767E+03</pdfrwt>
<pdfrwt beam="2">  1       21 0.29700127E+00 0.21477767E+03</pdfrwt>
<totfact> 0.16458428E+04</totfact>
</mgrwt>
</event>
<event>
12    1  0.2768653E-001  0.2025270E+03  0.7546771E-02  0.1147861E+00
         21   -1    0    0  504  503  0.00000000000E+00  0.00000000000E+00  0.17125880020E+03  0.17125880020E+03  0.00000000000E+00 0.  1.
         21   -1    0    0  502  504 -0.00000000000E+00 -0.00000000000E+00 -0.25264760493E+03  0.25264760493E+03  0.00000000000E+00 0.  1.
          6    2    1    2  502    0 -0.52997422988E+02  0.89899533172E+02  0.10171184872E+02  0.20164431850E+03  0.17223915140E+03 0.  0.
         24    2    3    3    0    0 -0.32793103232E+02 -0.19289921219E+02 -0.29937395392E+01  0.89724897838E+02  0.81204101715E+02 0.  0.
         -6    2    1    2    0  503  0.52997422988E+02 -0.89899533172E+02 -0.91559989595E+02  0.22226208663E+03  0.17357001627E+03 0.  0.
        -24    2    5    5    0    0  0.49089156813E+02 -0.62215141421E+02  0.14959424938E+02  0.11203425093E+03  0.77765158313E+02 0.  0.
          4    1    4    4  501    0  0.12894023890E+02 -0.37687605219E+02  0.37701928079E+01  0.40010321082E+02  0.00000000000E+00 0. -1.
         -3    1    4    4    0  501 -0.45687127122E+02  0.18397684001E+02 -0.67639323471E+01  0.49714576756E+02  0.00000000000E+00 0.  1.
          5    1    3    3  502    0 -0.20204319756E+02  0.10918945439E+03  0.13164924411E+02  0.11191942066E+03  0.47000000000E+01 0. -1.
         11    1    6    6    0    0 -0.18227251102E+02 -0.32650701139E+02  0.74552630650E+01  0.38129803501E+02  0.00000000000E+00 0. -1.
        -12    1    6    6    0    0  0.67316407916E+02 -0.29564440282E+02  0.75041618726E+01  0.73904447425E+02  0.00000000000E+00 0.  1.
         -5    1    5    5    0  503  0.39082661748E+01 -0.27684391750E+02 -0.10651941453E+03  0.11022783570E+03  0.47000000000E+01 0.  1.
<mgrwt>
<rscale>  2 0.20224159E+03</rscale>
<asrwt>0</asrwt>
<pdfrwt beam="1">  1       21 0.26347508E-01 0.20252704E+03</pdfrwt>
<pdfrwt beam="2">  1       21 0.38868862E-01 0.20252704E+03</pdfrwt>
<totfact> 0.87064045E+04</totfact>
</mgrwt>
</event>
<event>
12    1  0.2768653E-001  0.2006833E+03  0.7546771E-02  0.1149432E+00
         21   -1    0    0  504  503  0.00000000000E+00  0.00000000000E+00  0.32422737673E+02  0.32422737673E+02  0.00000000000E+00 0.  1.
         21   -1    0    0  502  504 -0.00000000000E+00 -0.00000000000E+00 -0.13837895742E+04  0.13837895742E+04  0.00000000000E+00 0.  1.
          6    2    1    2  502    0 -0.86744864175E+01 -0.10132377309E+03 -0.44101709699E+03  0.48400501176E+03  0.17153139031E+03 0.  0.
         24    2    3    3    0    0  0.16959834061E+02 -0.13107566143E+03 -0.32077663007E+03  0.35742636770E+03  0.85950549385E+02 0.  0.
         -6    2    1    2    0  503  0.86744864175E+01  0.10132377309E+03 -0.91034973949E+03  0.93220730007E+03  0.17300881018E+03 0.  0.
        -24    2    5    5    0    0  0.69381386201E+02  0.56759070281E+02 -0.65464263068E+03  0.66559980596E+03  0.80192013201E+02 0.  0.
          2    1    4    4  501    0  0.72769751958E+01 -0.10722358025E+03 -0.31237847094E+03  0.33034854266E+03  0.00000000000E+00 0. -1.
         -1    1    4    4    0  501  0.96828588650E+01 -0.23852081180E+02 -0.83981591312E+01  0.27077825045E+02  0.00000000000E+00 0.  1.
          5    1    3    3  502    0 -0.25634320478E+02  0.29751888339E+02 -0.12024046692E+03  0.12657864406E+03  0.47000000000E+01 0. -1.
         13    1    6    6    0    0  0.54908278715E+02  0.75274974056E+02 -0.44537115245E+03  0.45501286161E+03  0.00000000000E+00 0. -1.
        -14    1    6    6    0    0  0.14473107486E+02 -0.18515903775E+02 -0.20927147823E+03  0.21058694436E+03  0.00000000000E+00 0.  1.
         -5    1    5    5    0  503 -0.60706899784E+02  0.44564702807E+02 -0.25570710881E+03  0.26660749411E+03  0.47000000000E+01 0.  1.
<mgrwt>
<rscale>  2 0.20036451E+03</rscale>
<asrwt>0</asrwt>
<pdfrwt beam="1">  1       21 0.49881131E-02 0.20068334E+03</pdfrwt>
<pdfrwt beam="2">  1       21 0.21289072E+00 0.20068334E+03</pdfrwt>
<totfact> 0.29885002E+04</totfact>
</mgrwt>
</event>
<event>
12    1  0.2768653E-001  0.2882807E+03  0.7546771E-02  0.1091264E+00
         21   -1    0    0  504  503  0.00000000000E+00  0.00000000000E+00  0.12042884375E+03  0.12042884375E+03  0.00000000000E+00 0. -1.
         21   -1    0    0  502  504 -0.00000000000E+00 -0.00000000000E+00 -0.78348462044E+03  0.78348462044E+03  0.00000000000E+00 0. -1.
          6    2    1    2  502    0  0.49960592370E+02  0.22468604056E+03 -0.17521218252E+03  0.33725915105E+03  0.17339131597E+03 0.  0.
         24    2    3    3    0    0  0.20353639416E+02  0.66824297385E+02 -0.13513376596E+03  0.17165338094E+03  0.79523525614E+02 0.  0.
         -6    2    1    2    0  503 -0.49960592370E+02 -0.22468604056E+03 -0.48784359417E+03  0.56665431314E+03  0.17356802878E+03 0.  0.
        -24    2    5    5    0    0 -0.62909018962E+02 -0.23003043412E+03 -0.36793777780E+03  0.44584156922E+03  0.80777170212E+02 0.  0.
          4    1    4    4  501    0  0.35863061789E+02  0.23670206602E+02 -0.11267882930E+03  0.12059418084E+03  0.00000000000E+00 0. -1.
         -3    1    4    4    0  501 -0.15509422374E+02  0.43154090783E+02 -0.22454936663E+02  0.51059200094E+02  0.00000000000E+00 0.  1.
          5    1    3    3  502    0  0.29606952955E+02  0.15786174317E+03 -0.40078416558E+02  0.16560577011E+03  0.47000000000E+01 0. -1.
         11    1    6    6    0    0 -0.55391770577E+02 -0.12691788568E+03 -0.14724299114E+03  0.20213088926E+03  0.00000000000E+00 0. -1.
        -12    1    6    6    0    0 -0.75172483855E+01 -0.10311254843E+03 -0.22069478666E+03  0.24371067996E+03  0.00000000000E+00 0.  1.
         -5    1    5    5    0  503  0.12948426592E+02  0.53443935583E+01 -0.11990581636E+03  0.12081274391E+03  0.47000000000E+01 0.  1.
<mgrwt>
<rscale>  2 0.28825406E+03</rscale>
<asrwt>0</asrwt>
<pdfrwt beam="1">  1       21 0.18527514E-01 0.28828066E+03</pdfrwt>
<pdfrwt beam="2">  1       21 0.12053610E+00 0.28828066E+03</pdfrwt>
<totfact> 0.13154191E+04</totfact>
</mgrwt>
</event>
<event>
12    1  0.2768653E-001  0.2182669E+03  0.7546771E-02  0.1137821E+00
         21   -1    0    0  504  503  0.00000000000E+00  0.00000000000E+00  0.26271527203E+03  0.26271527203E+03  0.00000000000E+00 0.  1.
         21   -1    0    0  502  504 -0.00000000000E+00 -0.00000000000E+00 -0.26703464981E+03  0.26703464981E+03  0.00000000000E+00 0. -1.
          6    2    1    2  502    0  0.65700098944E+02 -0.89650261487E+02 -0.16160697822E+03  0.27158290055E+03  0.18784776836E+03 0.  0.
         24    2    3    3    0    0  0.10687514846E+03 -0.10987441373E+03 -0.12534682563E+03  0.21292039377E+03  0.78285268335E+02 0.  0.
         -6    2    1    2    0  503 -0.65700098944E+02  0.89650261487E+02  0.15728760043E+03  0.25816702129E+03  0.17192192776E+03 0.  0.
        -24    2    5    5    0    0 -0.66293636707E+02  0.60576589983E+02  0.18287006586E+03  0.21915185502E+03  0.80757074297E+02 0.  0.
          4    1    4    4  501    0  0.32315705986E+02 -0.82198185468E+02 -0.42283445895E+02  0.97922093240E+02  0.00000000000E+00 0. -1.
         -3    1    4    4    0  501  0.74559442471E+02 -0.27676228263E+02 -0.83063379737E+02  0.11499830053E+03  0.00000000000E+00 0.  1.
          5    1    3    3  502    0 -0.41175049513E+02  0.20224152244E+02 -0.36260152584E+02  0.58662506781E+02  0.47000000000E+01 0. -1.
         13    1    6    6    0    0  0.13258740366E+02 -0.96443153840E+00  0.38957435612E+01  0.13852838777E+02  0.00000000000E+00 0. -1.
        -14    1    6    6    0    0 -0.79552377073E+02  0.61541021521E+02  0.17897432229E+03  0.20529901624E+03  0.00000000000E+00 0.  1.
         -5    1    5    5    0  503  0.59353776352E+00  0.29073671505E+02 -0.25582465427E+02  0.39015166271E+02  0.47000000000E+01 0.  1.
<mgrwt>
<rscale>  2 0.21479875E+03</rscale>
<asrwt>0</asrwt>
<pdfrwt beam="1">  1       21 0.40417734E-01 0.21826694E+03</pdfrwt>
<pdfrwt beam="2">  1       21 0.41082254E-01 0.21826694E+03</pdfrwt>
<totfact> 0.33211322E+04</totfact>
</mgrwt>
</event>
<event>
12    1  0.2768653E-001  0.2539110E+03  0.7546771E-02  0.1111178E+00
         21   -1    0    0  504  503  0.00000000000E+00  0.00000000000E+00  0.34489204448E+03  0.34489204448E+03  0.00000000000E+00 0. -1.
         21   -1    0    0  502  504 -0.00000000000E+00 -0.00000000000E+00 -0.19665123055E+03  0.19665123055E+03  0.00000000000E+00 0. -1.
          6    2    1    2  502    0  0.83355827082E+02  0.16316586245E+03  0.13912299025E+03  0.28952718491E+03  0.17578251281E+03 0.  0.
         24    2    3    3    0    0  0.28117101599E+02  0.17559721364E+03  0.11898952983E+03  0.22925031112E+03  0.82293645554E+02 0.  0.
         -6    2    1    2    0  503 -0.83355827082E+02 -0.16316586245E+03  0.91178236854E+01  0.25201609012E+03  0.17279375681E+03 0.  0.
        -24    2    5    5    0    0 -0.19051779351E+02 -0.76159353606E+02  0.64664338616E+02  0.13030886578E+03  0.81459845162E+02 0.  0.
          4    1    4    4  501    0  0.53202148696E+02  0.12391189470E+03  0.62325188415E+02  0.14855657301E+03  0.00000000000E+00 0. -1.
         -3    1    4    4    0  501 -0.25085047097E+02  0.51685318939E+02  0.56664341412E+02  0.80693738104E+02  0.00000000000E+00 0.  1.
          5    1    3    3  502    0  0.55238725483E+02 -0.12431351193E+02  0.20133460420E+02  0.60276873790E+02  0.47000000000E+01 0. -1.
         13    1    6    6    0    0 -0.10040062804E+02 -0.19550734792E+02 -0.18891251968E+02  0.28981261065E+02  0.00000000000E+00 0. -1.
        -14    1    6    6    0    0 -0.90117165475E+01 -0.56608618813E+02  0.83555590584E+02  0.10132760471E+03  0.00000000000E+00 0.  1.
         -5    1    5    5    0  503 -0.64304047731E+02 -0.87006508840E+02 -0.55546514930E+02  0.12170722434E+03  0.47000000000E+01 0.  1.
<mgrwt>
<rscale>  2 0.25339443E+03</rscale>
<asrwt>0</asrwt>
<pdfrwt beam="1">  1       21 0.53060314E-01 0.25391098E+03</pdfrwt>
<pdfrwt beam="2">  1       21 0.30254036E-01 0.25391098E+03</pdfrwt>
<totfact> 0.34242398E+04</totfact>
</mgrwt>
</event>
<event>
12    1  0.2768653E-001  0.2251608E+03  0.7546771E-02  0.1131519E+00
         21   -1    0    0  504  503  0.00000000000E+00  0.00000000000E+00  0.71641626947E+03  0.71641626947E+03  0.00000000000E+00 0. -1.
         21   -1    0    0  502  504 -0.00000000000E+00 -0.00000000000E+00 -0.74380172932E+02  0.74380172932E+02  0.00000000000E+00 0.  1.
          6    2    1    2  502    0  0.27816730914E+02 -0.14141846719E+03  0.20333620003E+03  0.29768895815E+03  0.16278867336E+03 0.  0.
         24    2    3    3    0    0 -0.21677475263E+02 -0.75611497366E+02  0.17950164643E+03  0.21183786806E+03  0.80420332056E+02 0.  0.
         -6    2    1    2    0  503 -0.27816730914E+02  0.14141846719E+03  0.43869989651E+03  0.49310748426E+03  0.17298681584E+03 0.  0.
        -24    2    5    5    0    0 -0.16372231548E+02  0.37250278901E+02  0.33072928196E+03  0.34256934416E+03  0.79474929190E+02 0.  0.
          2    1    4    4  501    0  0.66817128363E+01  0.26787557138E+01  0.87319250971E+02  0.87615481559E+02  0.00000000000E+00 0. -1.
         -1    1    4    4    0  501 -0.28359188099E+02 -0.78290253080E+02  0.92182395454E+02  0.12422238650E+03  0.00000000000E+00 0.  1.
          5    1    3    3  502    0  0.49494206176E+02 -0.65806969828E+02  0.23834553610E+02  0.85851090085E+02  0.47000000000E+01 0. -1.
         13    1    6    6    0    0 -0.40123173365E+02  0.45705128896E+02  0.18687156655E+03  0.19651923629E+03  0.00000000000E+00 0. -1.
        -14    1    6    6    0    0  0.23750941817E+02 -0.84548499944E+01  0.14385771541E+03  0.14605010787E+03  0.00000000000E+00 0.  1.
         -5    1    5    5    0  503 -0.11444499366E+02  0.10416818829E+03  0.10797061455E+03  0.15053814010E+03  0.47000000000E+01 0.  1.
<mgrwt>
<rscale>  2 0.22320112E+03</rscale>
<asrwt>0</asrwt>
<pdfrwt beam="1">  1       21 0.11021788E+00 0.22516081E+03</pdfrwt>
<pdfrwt beam="2">  1       21 0.11443104E-01 0.22516081E+03</pdfrwt>
<totfact> 0.40819005E+04</totfact>
</mgrwt>
</event>
<event>
12    1  0.2768653E-001  0.1884302E+03  0.7546771E-02  0.1160634E+00
         21   -1    0    0  504  503  0.00000000000E+00  0.00000000000E+00  0.60376491524E+03  0.60376491524E+03  0.00000000000E+00 0. -1.
         21   -1    0    0  502  504 -0.00000000000E+00 -0.00000000000E+00 -0.57878177865E+02  0.57878177865E+02  0.00000000000E+00 0.  1.
          6    2    1    2  502    0  0.68294700142E+02 -0.89523294840E+01  0.28775999461E+03  0.34396478029E+03  0.17538998065E+03 0.  0.
         24    2    3    3    0    0  0.43569549244E+02 -0.29858246834E+02  0.58810621457E+02  0.11268941210E+03  0.80314344154E+02 0.  0.
         -6    2    1    2    0  503 -0.68294700142E+02  0.89523294840E+01  0.25812674277E+03  0.31767831281E+03  0.17188887349E+03 0.  0.
        -24    2    5    5    0    0 -0.11159450364E+02  0.29869731910E+02  0.23816742066E+03  0.25347209014E+03  0.80669982019E+02 0.  0.
          4    1    4    4  501    0  0.56376983466E+02 -0.28837034252E+02  0.70890208325E+02  0.95054513020E+02  0.00000000000E+00 0. -1.
         -3    1    4    4    0  501 -0.12807434222E+02 -0.10212125829E+01 -0.12079586868E+02  0.17634899075E+02  0.00000000000E+00 0.  1.
          5    1    3    3  502    0  0.24725150898E+02  0.20905917351E+02  0.22894937315E+03  0.23127536820E+03  0.47000000000E+01 0. -1.
         11    1    6    6    0    0  0.11098121864E+02 -0.18287176187E+02  0.21215230088E+02  0.30127646929E+02  0.00000000000E+00 0. -1.
        -12    1    6    6    0    0 -0.22257572228E+02  0.48156908097E+02  0.21695219057E+03  0.22334444321E+03  0.00000000000E+00 0.  1.
         -5    1    5    5    0  503 -0.57135249778E+02 -0.20917402426E+02  0.19959322110E+02  0.64206222678E+02  0.47000000000E+01 0.  1.
<mgrwt>
<rscale>  2 0.18761132E+03</rscale>
<asrwt>0</asrwt>
<pdfrwt beam="1">  1       21 0.92886906E-01 0.18843024E+03</pdfrwt>
<pdfrwt beam="2">  1       21 0.89043355E-02 0.18843024E+03</pdfrwt>
<totfact> 0.97340806E+04</totfact>
</mgrwt>
</event>
<event>
12    1  0.2768653E-001  0.1799083E+03  0.7546771E-02  0.1168891E+00
         21   -1    0    0  504  503  0.00000000000E+00  0.00000000000E+00  0.26917019685E+03  0.26917019685E+03  0.00000000000E+00 0. -1.
         21   -1    0    0  502  504 -0.00000000000E+00 -0.00000000000E+00 -0.20500429599E+03  0.20500429599E+03  0.00000000000E+00 0. -1.
          6    2    1    2  502    0  0.21375497486E+02 -0.25687302535E+02 -0.12256303558E+03  0.21768942182E+03  0.17677736642E+03 0.  0.
         24    2    3    3    0    0 -0.27535490413E+02 -0.61565755861E+02 -0.11647077983E+03  0.15654407261E+03  0.79950350761E+02 0.  0.
         -6    2    1    2    0  503 -0.21375497486E+02  0.25687302535E+02  0.18672893645E+03  0.25648507102E+03  0.17262718947E+03 0.  0.
        -24    2    5    5    0    0 -0.54081362961E+02 -0.39325679433E+02  0.11252424254E+03  0.15244282931E+03  0.78139670896E+02 0.  0.
          2    1    4    4  501    0 -0.32941603773E+02 -0.50887957515E+02 -0.12692163804E+03  0.14065502366E+03  0.00000000000E+00 0. -1.
         -1    1    4    4    0  501  0.54061133598E+01 -0.10677798347E+02  0.10450858205E+02  0.15889048946E+02  0.00000000000E+00 0.  1.
          5    1    3    3  502    0  0.48910987899E+02  0.35878453327E+02 -0.60922557496E+01  0.61145349214E+02  0.47000000000E+01 0. -1.
         13    1    6    6    0    0 -0.60393686857E+02 -0.17057871139E+02  0.35683500464E+02  0.72191970366E+02  0.00000000000E+00 0. -1.
        -14    1    6    6    0    0  0.63123238961E+01 -0.22267808294E+02  0.76840742077E+02  0.80250858949E+02  0.00000000000E+00 0.  1.
         -5    1    5    5    0  503  0.32705865474E+02  0.65012981967E+02  0.74204693909E+02  0.10404224170E+03  0.47000000000E+01 0.  1.
<mgrwt>
<rscale>  2 0.17888043E+03</rscale>
<asrwt>0</asrwt>
<pdfrwt beam="1">  1       21 0.41410800E-01 0.17990827E+03</pdfrwt>
<pdfrwt beam="2">  1       21 0.31539122E-01 0.17990827E+03</pdfrwt>
<totfact> 0.54579317E+04</totfact>
</mgrwt>
</event>
<event>
12    1  0.2768653E-001  0.2097495E+03  0.7546771E-02  0.1142061E+00
         21   -1    0    0  504  503  0.00000000000E+00  0.00000000000E+00  0.76601215768E+02  0.76601215768E+02  0.00000000000E+00 0.  1.
         21   -1    0    0  502  504 -0.00000000000E+00 -0.00000000000E+00 -0.85205293473E+03  0.85205293473E+03  0.00000000000E+00 0. -1.
          6    2    1    2  502    0 -0.32120023759E+02 -0.11246882349E+03 -0.65567836469E+03  0.68841045332E+03  0.17410888011E+03 0.  0.
         24    2    3    3    0    0  0.38246068796E+02 -0.88407587984E+02 -0.31571742927E+03  0.34037905007E+03  0.83076706668E+02 0.  0.
         -6    2    1    2    0  503  0.32120023759E+02  0.11246882349E+03 -0.11977335427E+03  0.24024369717E+03  0.17230915662E+03 0.  0.
        -24    2    5    5    0    0  0.57210760522E+01  0.14236517084E+03 -0.11517119529E+03  0.19982135320E+03  0.79772152983E+02 0.  0.
          2    1    4    4  501    0  0.42854256950E+02 -0.71916309711E+02 -0.31176023669E+03  0.32280472134E+03  0.00000000000E+00 0. -1.
         -1    1    4    4    0  501 -0.46081881537E+01 -0.16491278274E+02 -0.39571925832E+01  0.17574328730E+02  0.00000000000E+00 0.  1.
          5    1    3    3  502    0 -0.70366092555E+02 -0.24061235501E+02 -0.33996093542E+03  0.34803140325E+03  0.47000000000E+01 0. -1.
         13    1    6    6    0    0 -0.32746398602E+02  0.38812023066E+02 -0.51467151038E+02  0.72301918314E+02  0.00000000000E+00 0. -1.
        -14    1    6    6    0    0  0.38467474655E+02  0.10355314777E+03 -0.63704044252E+02  0.12751943489E+03  0.00000000000E+00 0.  1.
         -5    1    5    5    0  503  0.26398947707E+02 -0.29896347352E+02 -0.46021589750E+01  0.40422343972E+02  0.47000000000E+01 0.  1.
<mgrwt>
<rscale>  2 0.20937558E+03</rscale>
<asrwt>0</asrwt>
<pdfrwt beam="1">  1       21 0.11784802E-01 0.20974946E+03</pdfrwt>
<pdfrwt beam="2">  1       21 0.13108507E+00 0.20974946E+03</pdfrwt>
<totfact> 0.25386789E+04</totfact>
</mgrwt>
</event>
<event>
12    1  0.2768653E-001  0.2464665E+03  0.7546771E-02  0.1115819E+00
         21   -1    0    0  504  503  0.00000000000E+00  0.00000000000E+00  0.23240053255E+03  0.23240053255E+03  0.00000000000E+00 0.  1.
         21   -1    0    0  502  504 -0.00000000000E+00 -0.00000000000E+00 -0.26536911570E+03  0.26536911570E+03  0.00000000000E+00 0. -1.
          6    2    1    2  502    0  0.13885036331E+03 -0.10714860156E+03 -0.52999762018E+02  0.25210064279E+03  0.17316325567E+03 0.  0.
         24    2    3    3    0    0  0.10583093404E+03 -0.75358832363E+02 -0.97263861658E+02  0.18820797770E+03  0.95303955173E+02 0.  0.
         -6    2    1    2    0  503 -0.13885036331E+03  0.10714860156E+03  0.20031178868E+02  0.24566900547E+03  0.17085598003E+03 0.  0.
        -24    2    5    5    0    0 -0.41371853046E+02  0.95676246824E+02  0.53042790068E+02  0.14200835063E+03  0.80543526368E+02 0.  0.
          4    1    4    4  501    0  0.91254004383E+01 -0.41517629444E+02 -0.70483812291E+02  0.82310110454E+02  0.00000000000E+00 0. -1.
         -3    1    4    4    0  501  0.96705533598E+02 -0.33841202919E+02 -0.26780049367E+02  0.10589786725E+03  0.00000000000E+00 0.  1.
          5    1    3    3  502    0  0.33019429276E+02 -0.31789769198E+02  0.44264099640E+02  0.63892665090E+02  0.47000000000E+01 0. -1.
         11    1    6    6    0    0 -0.12711895681E+02  0.62106856171E+02 -0.10885574450E+02  0.64322232598E+02  0.00000000000E+00 0. -1.
        -12    1    6    6    0    0 -0.28659957365E+02  0.33569390653E+02  0.63928364518E+02  0.77686118032E+02  0.00000000000E+00 0.  1.
         -5    1    5    5    0  503 -0.97478510267E+02  0.11472354737E+02 -0.33011611200E+02  0.10366065484E+03  0.47000000000E+01 0.  1.
<mgrwt>
<rscale>  2 0.24606166E+03</rscale>
<asrwt>0</asrwt>
<pdfrwt beam="1">  1       21 0.35753928E-01 0.24646655E+03</pdfrwt>
<pdfrwt beam="2">  1       21 0.40826018E-01 0.24646655E+03</pdfrwt>
<totfact> 0.42517732E+04</totfact>
</mgrwt>
</event>
<event>
12    1  0.2768653E-001  0.2089324E+03  0.7546771E-02  0.1144556E+00
         21   -1    0    0  504  503  0.00000000000E+00  0.00000000000E+00  0.87294135937E+03  0.87294135937E+03  0.00000000000E+00 0.  1.
         21   -1    0    0  502  504 -0.00000000000E+00 -0.00000000000E+00 -0.62698307339E+02  0.62698307339E+02  0.00000000000E+00 0. -1.
          6    2    1    2  502    0  0.75883369463E+02 -0.36996699360E+02  0.16723099426E+03  0.25953519641E+03  0.17962536349E+03 0.  0.
         24    2    3    3    0    0 -0.20617594560E+02  0.17549994657E+02  0.94301411118E+02  0.12676248844E+03  0.80267582606E+02 0.  0.
         -6    2    1    2    0  503 -0.75883369463E+02  0.36996699360E+02  0.64301205777E+03  0.67610447030E+03  0.19111699767E+03 0.  0.
        -24    2    5    5    0    0 -0.67828321200E+02  0.36509337680E+02  0.19513310380E+03  0.22812816654E+03  0.89620975638E+02 0.  0.
          2    1    4    4  501    0 -0.19891218879E+02  0.36786439930E+02  0.98543822680E+02  0.10705039813E+03  0.00000000000E+00 0. -1.
         -1    1    4    4    0  501 -0.72637568172E+00 -0.19236445273E+02 -0.42424115617E+01  0.19712090306E+02  0.00000000000E+00 0.  1.
          5    1    3    3  502    0  0.96500964023E+02 -0.54546694017E+02  0.72929583143E+02  0.13277270797E+03  0.47000000000E+01 0. -1.
         11    1    6    6    0    0  0.47943804392E+01  0.41160975109E+02  0.44316061754E+02  0.60672277731E+02  0.00000000000E+00 0. -1.
        -12    1    6    6    0    0 -0.72622701639E+02 -0.46516374295E+01  0.15081704205E+03  0.16745588881E+03  0.00000000000E+00 0.  1.
         -5    1    5    5    0  503 -0.80550482630E+01  0.48736168086E+00  0.44787895397E+03  0.44797630376E+03  0.47000000000E+01 0.  1.
<mgrwt>
<rscale>  2 0.20626749E+03</rscale>
<asrwt>0</asrwt>
<pdfrwt beam="1">  1       21 0.13429866E+00 0.20893240E+03</pdfrwt>
<pdfrwt beam="2">  1       21 0.96458941E-02 0.20893240E+03</pdfrwt>
<totfact> 0.34096443E+04</totfact>
</mgrwt>
</event>
<event>
12    1  0.2768653E-001  0.2536486E+03  0.7546771E-02  0.1111075E+00
         21   -1    0    0  504  503  0.00000000000E+00  0.00000000000E+00  0.35995757531E+03  0.35995757531E+03  0.00000000000E+00 0.  1.
         21   -1    0    0  502  504 -0.00000000000E+00 -0.00000000000E+00 -0.33610675478E+03  0.33610675478E+03  0.00000000000E+00 0.  1.
          6    2    1    2  502    0  0.13435651638E+03  0.12757228833E+03 -0.22640194590E+03  0.33999334827E+03  0.17323762154E+03 0.  0.
         24    2    3    3    0    0  0.13170766207E+03  0.43105513369E+02 -0.10468934964E+03  0.19174457563E+03  0.81247331183E+02 0.  0.
         -6    2    1    2    0  503 -0.13435651638E+03 -0.12757228833E+03  0.25025276643E+03  0.35607098183E+03  0.17272444746E+03 0.  0.
        -24    2    5    5    0    0 -0.15450987327E+02 -0.96254380134E+02  0.15899147223E+03  0.20287160182E+03  0.79843345878E+02 0.  0.
          4    1    4    4  501    0  0.27698015488E+02  0.37112934633E+02 -0.33904409808E+01  0.46433232378E+02  0.00000000000E+00 0. -1.
         -3    1    4    4    0  501  0.10400964658E+03  0.59925787360E+01 -0.10129890866E+03  0.14531134325E+03  0.00000000000E+00 0.  1.
          5    1    3    3  502    0  0.26488543132E+01  0.84466774958E+02 -0.12171259626E+03  0.14824877264E+03  0.47000000000E+01 0. -1.
         13    1    6    6    0    0 -0.15308402739E+02 -0.97435721561E+02  0.88938724114E+02  0.13280874850E+03  0.00000000000E+00 0. -1.
        -14    1    6    6    0    0 -0.14258458774E+00  0.11813414270E+01  0.70052748112E+02  0.70062853325E+02  0.00000000000E+00 0.  1.
         -5    1    5    5    0  503 -0.11890552905E+03 -0.31317908193E+02  0.91261294205E+02  0.15319938000E+03  0.47000000000E+01 0.  1.
<mgrwt>
<rscale>  2 0.25356105E+03</rscale>
<asrwt>0</asrwt>
<pdfrwt beam="1">  1       21 0.55378089E-01 0.25364865E+03</pdfrwt>
<pdfrwt beam="2">  1       21 0.51708731E-01 0.25364865E+03</pdfrwt>
<totfact> 0.10519649E+04</totfact>
</mgrwt>
</event>
<event>
12    1  0.2768653E-001  0.1981786E+03  0.7546771E-02  0.1151319E+00
         21   -1    0    0  504  503  0.00000000000E+00  0.00000000000E+00  0.30169375201E+02  0.30169375201E+02  0.00000000000E+00 0.  1.
         21   -1    0    0  502  504 -0.00000000000E+00 -0.00000000000E+00 -0.15720168622E+04  0.15720168622E+04  0.00000000000E+00 0.  1.
          6    2    1    2  502    0 -0.34790367731E+02  0.87174471540E+02 -0.11039509316E+04  0.11215981554E+04  0.17454227151E+03 0.  0.
         24    2    3    3    0    0 -0.25394222493E+01  0.11993289444E+03 -0.95508032699E+03  0.96572068850E+03  0.77766762601E+02 0.  0.
         -6    2    1    2    0  503  0.34790367731E+02 -0.87174471540E+02 -0.43789655533E+03  0.48058808198E+03  0.17436098530E+03 0.  0.
        -24    2    5    5    0    0 -0.36019861118E+02 -0.83060762038E+02 -0.21217946838E+03  0.24394213450E+03  0.79316565722E+02 0.  0.
          2    1    4    4  501    0  0.32770095099E+02  0.84025403456E+02 -0.69317115123E+03  0.69901387143E+03  0.00000000000E+00 0. -1.
         -1    1    4    4    0  501 -0.35309517349E+02  0.35907490988E+02 -0.26190917576E+03  0.26670681707E+03  0.00000000000E+00 0.  1.
          5    1    3    3  502    0 -0.32250945482E+02 -0.32758422905E+02 -0.14887060464E+03  0.15587746688E+03  0.47000000000E+01 0. -1.
         11    1    6    6    0    0 -0.20651236101E+01  0.14012338591E+02 -0.49465275188E+02  0.51453122527E+02  0.00000000000E+00 0. -1.
        -12    1    6    6    0    0 -0.33954737508E+02 -0.97073100629E+02 -0.16271419319E+03  0.19248901198E+03  0.00000000000E+00 0.  1.
         -5    1    5    5    0  503  0.70810228849E+02 -0.41137095019E+01 -0.22571708695E+03  0.23664594747E+03  0.47000000000E+01 0.  1.
<mgrwt>
<rscale>  2 0.19813869E+03</rscale>
<asrwt>0</asrwt>
<pdfrwt beam="1">  1       21 0.46414422E-02 0.19817861E+03</pdfrwt>
<pdfrwt beam="2">  1       21 0.24184875E+00 0.19817861E+03</pdfrwt>
<totfact> 0.22559016E+04</totfact>
</mgrwt>
</event>
<event>
12    1  0.2768653E-001  0.2831853E+03  0.7546771E-02  0.1094197E+00
         21   -1    0    0  504  503  0.00000000000E+00  0.00000000000E+00  0.22078042000E+03  0.22078042000E+03  0.00000000000E+00 0. -1.
         21   -1    0    0  502  504 -0.00000000000E+00 -0.00000000000E+00 -0.36563089647E+03  0.36563089647E+03  0.00000000000E+00 0.  1.
          6    2    1    2  502    0  0.15997240204E+03 -0.15472856235E+03 -0.10563692431E+03  0.30224671285E+03  0.17510516334E+03 0.  0.
         24    2    3    3    0    0  0.11808898872E+03 -0.23176352827E+02 -0.65349212006E+02  0.15835302325E+03  0.79517343247E+02 0.  0.
         -6    2    1    2    0  503 -0.15997240204E+03  0.15472856235E+03 -0.39213552161E+02  0.28416460363E+03  0.17227803650E+03 0.  0.
        -24    2    5    5    0    0 -0.28706796415E+02  0.96570613486E+01 -0.74596842045E+01  0.85905183285E+02  0.80041955452E+02 0.  0.
          2    1    4    4  501    0  0.12304241212E+03 -0.26898629384E+02 -0.75218688401E+02  0.14669977004E+03  0.00000000000E+00 0. -1.
         -1    1    4    4    0  501 -0.49534234065E+01  0.37222765565E+01  0.98694763957E+01  0.11653253217E+02  0.00000000000E+00 0.  1.
          5    1    3    3  502    0  0.41883413319E+02 -0.13155220953E+03 -0.40287712301E+02  0.14389368959E+03  0.47000000000E+01 0. -1.
         11    1    6    6    0    0 -0.85925502483E+01  0.16692236702E+02 -0.41611544469E+02  0.45650666140E+02  0.00000000000E+00 0. -1.
        -12    1    6    6    0    0 -0.20114246166E+02 -0.70351753533E+01  0.34151860265E+02  0.40254517146E+02  0.00000000000E+00 0.  1.
         -5    1    5    5    0  503 -0.13126560562E+03  0.14507150101E+03 -0.31753867957E+02  0.19825942034E+03  0.47000000000E+01 0.  1.
<mgrwt>
<rscale>  2 0.28274946E+03</rscale>
<asrwt>0</asrwt>
<pdfrwt beam="1">  1       21 0.33966218E-01 0.28318530E+03</pdfrwt>
<pdfrwt beam="2">  1       21 0.56250907E-01 0.28318530E+03</pdfrwt>
<totfact> 0.23753038E+04</totfact>
</mgrwt>
</event>
<event>
12    1  0.2768653E-001  0.2598584E+03  0.7546771E-02  0.1107315E+00
         21   -1    0    0  504  503  0.00000000000E+00  0.00000000000E+00  0.48541286494E+03  0.48541286494E+03  0.00000000000E+00 0. -1.
         21   -1    0    0  502  504 -0.00000000000E+00 -0.00000000000E+00 -0.46708510309E+03  0.46708510309E+03  0.00000000000E+00 0. -1.
          6    2    1    2  502    0 -0.18461026122E+03  0.57084084679E+02 -0.39009728825E+03  0.46872411343E+03  0.17374365871E+03 0.  0.
         24    2    3    3    0    0 -0.18568305335E+02  0.55955245508E+01 -0.16079411635E+03  0.18093419425E+03  0.80661905129E+02 0.  0.
         -6    2    1    2    0  503  0.18461026122E+03 -0.57084084679E+02  0.40842505010E+03  0.48377385459E+03  0.17287735412E+03 0.  0.
        -24    2    5    5    0    0  0.16459441312E+03 -0.71059579639E+02  0.41354990006E+03  0.45839073576E+03  0.83413200972E+02 0.  0.
          2    1    4    4  501    0 -0.45715664715E+01  0.42803882423E+02 -0.77984308834E+02  0.89076506413E+02  0.00000000000E+00 0. -1.
         -1    1    4    4    0  501 -0.13996738863E+02 -0.37208357872E+02 -0.82809807518E+02  0.91857687841E+02  0.00000000000E+00 0.  1.
          5    1    3    3  502    0 -0.16604195589E+03  0.51488560128E+02 -0.22930317189E+03  0.28778991918E+03  0.47000000000E+01 0. -1.
         11    1    6    6    0    0  0.13497151022E+03 -0.52663145209E+02  0.23200309550E+03  0.27352541337E+03  0.00000000000E+00 0. -1.
        -12    1    6    6    0    0  0.29622902895E+02 -0.18396434430E+02  0.18154680456E+03  0.18486532239E+03  0.00000000000E+00 0.  1.
         -5    1    5    5    0  503  0.20015848107E+02  0.13975494960E+02 -0.51248499633E+01  0.25383118838E+02  0.47000000000E+01 0.  1.
<mgrwt>
<rscale>  2 0.25971370E+03</rscale>
<asrwt>0</asrwt>
<pdfrwt beam="1">  1       21 0.74678903E-01 0.25985842E+03</pdfrwt>
<pdfrwt beam="2">  1       21 0.71859246E-01 0.25985842E+03</pdfrwt>
<totfact> 0.26673215E+03</totfact>
</mgrwt>
</event>
<event>
12    1  0.2768653E-001  0.2866463E+03  0.7546771E-02  0.1092172E+00
         21   -1    0    0  504  503  0.00000000000E+00  0.00000000000E+00  0.25374527970E+03  0.25374527970E+03  0.00000000000E+00 0.  1.
         21   -1    0    0  502  504 -0.00000000000E+00 -0.00000000000E+00 -0.32574718593E+03  0.32574718593E+03  0.00000000000E+00 0. -1.
          6    2    1    2  502    0  0.21938367427E+03 -0.66231301109E+02 -0.61041847796E+02  0.29263669785E+03  0.17144779954E+03 0.  0.
         24    2    3    3    0    0  0.69909496826E+02 -0.75123017909E+02 -0.47904308354E+02  0.14224960635E+03  0.86077419690E+02 0.  0.
         -6    2    1    2    0  503 -0.21938367427E+03  0.66231301109E+02 -0.10960058432E+02  0.28685576778E+03  0.17219270266E+03 0.  0.
        -24    2    5    5    0    0 -0.64472031741E+02  0.67256265478E+02 -0.38889138029E+02  0.12937309880E+03  0.80901084756E+02 0.  0.
          4    1    4    4  501    0  0.16277025759E+02 -0.78463051938E+02 -0.30937103448E+02  0.85898174932E+02  0.00000000000E+00 0. -1.
         -3    1    4    4    0  501  0.53632471067E+02  0.33400340289E+01 -0.16967204907E+02  0.56351431414E+02  0.00000000000E+00 0.  1.
          5    1    3    3  502    0  0.14947417744E+03  0.88917168005E+01 -0.13137539442E+02  0.15038709151E+03  0.47000000000E+01 0. -1.
         11    1    6    6    0    0 -0.76345389462E+02  0.67528952840E+02 -0.15440404117E+02  0.10308823426E+03  0.00000000000E+00 0. -1.
        -12    1    6    6    0    0  0.11873357721E+02 -0.27268736192E+00 -0.23448733913E+02  0.26284864543E+02  0.00000000000E+00 0.  1.
         -5    1    5    5    0  503 -0.15491164252E+03 -0.10249643697E+01  0.27929079598E+02  0.15748266898E+03  0.47000000000E+01 0.  1.
<mgrwt>
<rscale>  2 0.28653453E+03</rscale>
<asrwt>0</asrwt>
<pdfrwt beam="1">  1       21 0.39037736E-01 0.28664631E+03</pdfrwt>
<pdfrwt beam="2">  1       21 0.50114951E-01 0.28664631E+03</pdfrwt>
<totfact> 0.22908425E+04</totfact>
</mgrwt>
</event>
<event>
12    1  0.2768653E-001  0.2009820E+03  0.7546771E-02  0.1149032E+00
         21   -1    0    0  504  503  0.00000000000E+00  0.00000000000E+00  0.24241108487E+02  0.24241108487E+02  0.00000000000E+00 0. -1.
         21   -1    0    0  502  504 -0.00000000000E+00 -0.00000000000E+00 -0.23081323922E+04  0.23081323922E+04  0.00000000000E+00 0. -1.
          6    2    1    2  502    0  0.62668243100E+02  0.83477655085E+02 -0.17602899376E+04  0.17717264031E+04  0.17174968818E+03 0.  0.
         24    2    3    3    0    0  0.33481333347E+02 -0.31251744427E+00 -0.45612107753E+03  0.46453430769E+03  0.81391573869E+02 0.  0.
         -6    2    1    2    0  503 -0.62668243100E+02 -0.83477655085E+02 -0.52360134615E+03  0.56064709763E+03  0.17108761149E+03 0.  0.
        -24    2    5    5    0    0 -0.16327116180E+02  0.42881522737E+01 -0.11821447561E+03  0.14326125481E+03  0.79146458630E+02 0.  0.
          4    1    4    4  501    0 -0.15968225022E+02 -0.23813910011E+02 -0.93320527878E+02  0.97625854382E+02  0.00000000000E+00 0. -1.
         -3    1    4    4    0  501  0.49449558369E+02  0.23501392567E+02 -0.36280054966E+03  0.36690845330E+03  0.00000000000E+00 0.  1.
          5    1    3    3  502    0  0.29186909753E+02  0.83790172529E+02 -0.13041688600E+04  0.13071920954E+04  0.47000000000E+01 0. -1.
         13    1    6    6    0    0  0.16367636065E+02 -0.19567047165E+02 -0.94390521548E+01  0.27200451296E+02  0.00000000000E+00 0. -1.
        -14    1    6    6    0    0 -0.32694752245E+02  0.23855199439E+02 -0.10877542346E+03  0.11606080352E+03  0.00000000000E+00 0.  1.
         -5    1    5    5    0  503 -0.46341126921E+02 -0.87765807359E+02 -0.40538687053E+03  0.41738584282E+03  0.47000000000E+01 0.  1.
<mgrwt>
<rscale>  2 0.20084053E+03</rscale>
<asrwt>0</asrwt>
<pdfrwt beam="1">  1       21 0.37294012E-02 0.20098205E+03</pdfrwt>
<pdfrwt beam="2">  1       21 0.35509730E+00 0.20098205E+03</pdfrwt>
<totfact> 0.71155030E+03</totfact>
</mgrwt>
</event>
<event>
12    1  0.2768653E-001  0.2211619E+03  0.7546771E-02  0.1134773E+00
         21   -1    0    0  504  503  0.00000000000E+00  0.00000000000E+00  0.13407830900E+03  0.13407830900E+03  0.00000000000E+00 0.  1.
         21   -1    0    0  502  504 -0.00000000000E+00 -0.00000000000E+00 -0.35305613081E+03  0.35305613081E+03  0.00000000000E+00 0.  1.
          6    2    1    2  502    0  0.12276088850E+03  0.10057402055E+02 -0.13555840640E+03  0.25940057039E+03  0.18368774399E+03 0.  0.
         24    2    3    3    0    0  0.56974381007E+02 -0.25622540427E+02  0.25194106501E+01  0.10227483595E+03  0.80939483373E+02 0.  0.
         -6    2    1    2    0  503 -0.12276088850E+03 -0.10057402055E+02 -0.83419415401E+02  0.22773386942E+03  0.17243123073E+03 0.  0.
        -24    2    5    5    0    0 -0.12655970994E+03  0.44751818992E+02 -0.59243585204E+02  0.16752554340E+03  0.80838850938E+02 0.  0.
          4    1    4    4  501    0  0.31082345603E+02 -0.51921895396E+02  0.16638682573E+02  0.62760187918E+02  0.00000000000E+00 0. -1.
         -3    1    4    4    0  501  0.25892035404E+02  0.26299354969E+02 -0.14119271923E+02  0.39514648028E+02  0.00000000000E+00 0.  1.
          5    1    3    3  502    0  0.65786507496E+02  0.35679942482E+02 -0.13807781705E+03  0.15712573445E+03  0.47000000000E+01 0. -1.
         13    1    6    6    0    0 -0.26668166996E+01  0.27888579935E+02 -0.25821812144E+02  0.38100535226E+02  0.00000000000E+00 0. -1.
        -14    1    6    6    0    0 -0.12389289324E+03  0.16863239058E+02 -0.33421773060E+02  0.12942500817E+03  0.00000000000E+00 0.  1.
         -5    1    5    5    0  503  0.37988214343E+01 -0.54809221047E+02 -0.24175830197E+02  0.60208326017E+02  0.47000000000E+01 0.  1.
<mgrwt>
<rscale>  2 0.21881053E+03</rscale>
<asrwt>0</asrwt>
<pdfrwt beam="1">  1       21 0.20627433E-01 0.22116187E+03</pdfrwt>
<pdfrwt beam="2">  1       21 0.54316327E-01 0.22116187E+03</pdfrwt>
<totfact> 0.68913805E+04</totfact>
</mgrwt>
</event>
<event>
12    1  0.2768653E-001  0.1733400E+03  0.7546771E-02  0.1177745E+00
         21   -1    0    0  504  503  0.00000000000E+00  0.00000000000E+00  0.19574858297E+03  0.19574858297E+03  0.00000000000E+00 0.  1.
         21   -1    0    0  502  504 -0.00000000000E+00 -0.00000000000E+00 -0.14803062232E+03  0.14803062232E+03  0.00000000000E+00 0.  1.
          6    2    1    2  502    0 -0.10148807247E+02 -0.43410940275E+01 -0.10104521856E+02  0.16104938722E+03  0.16035261263E+03 0.  0.
         24    2    3    3    0    0  0.16370367733E+02 -0.39276779419E+02 -0.48160383255E+02  0.10279041931E+03  0.80223397118E+02 0.  0.
         -6    2    1    2    0  503  0.10148807247E+02  0.43410940275E+01  0.57822482510E+02  0.18272981807E+03  0.17298816012E+03 0.  0.
        -24    2    5    5    0    0  0.75671408758E+01  0.66125473273E+02  0.60478851020E+02  0.12065630670E+03  0.80438877972E+02 0.  0.
          2    1    4    4  501    0  0.36701367260E+02  0.62587987586E+01 -0.35266078149E+02  0.51282152730E+02  0.00000000000E+00 0. -1.
         -1    1    4    4    0  501 -0.20330999527E+02 -0.45535578177E+02 -0.12894305106E+02  0.51508266578E+02  0.00000000000E+00 0.  1.
          5    1    3    3  502    0 -0.26519174981E+02  0.34935685391E+02  0.38055861399E+02  0.58258967913E+02  0.47000000000E+01 0. -1.
         11    1    6    6    0    0 -0.32182705001E+02  0.92145489065E+01  0.29578269225E+02  0.44671113968E+02  0.00000000000E+00 0. -1.
        -12    1    6    6    0    0  0.39749845877E+02  0.56910924366E+02  0.30900581794E+02  0.75985192733E+02  0.00000000000E+00 0.  1.
         -5    1    5    5    0  503  0.25816663717E+01 -0.61784379245E+02 -0.26563685096E+01  0.62073511369E+02  0.47000000000E+01 0.  1.
<mgrwt>
<rscale>  2 0.17009819E+03</rscale>
<asrwt>0</asrwt>
<pdfrwt beam="1">  1       21 0.30115167E-01 0.17333997E+03</pdfrwt>
<pdfrwt beam="2">  1       21 0.22773942E-01 0.17333997E+03</pdfrwt>
<totfact> 0.19234286E+05</totfact>
</mgrwt>
</event>
<event>
12    1  0.2768653E-001  0.2018718E+03  0.7546771E-02  0.1148453E+00
         21   -1    0    0  504  503  0.00000000000E+00  0.00000000000E+00  0.39719613738E+03  0.39719613738E+03  0.00000000000E+00 0.  1.
         21   -1    0    0  502  504 -0.00000000000E+00 -0.00000000000E+00 -0.13490608900E+03  0.13490608900E+03  0.00000000000E+00 0.  1.
          6    2    1    2  502    0  0.58527940786E+02 -0.85027519280E+02 -0.95224309967E-01  0.20187181159E+03  0.17348492834E+03 0.  0.
         24    2    3    3    0    0 -0.11253792822E+02 -0.10115498405E+03 -0.15452972163E+02  0.12847197587E+03  0.76858802904E+02 0.  0.
         -6    2    1    2    0  503 -0.58527940786E+02  0.85027519280E+02  0.26238527269E+03  0.33023041479E+03  0.17190374236E+03 0.  0.
        -24    2    5    5    0    0  0.27001264126E+02  0.81177233880E+00  0.11903239133E+03  0.14320187280E+03  0.74888843943E+02 0.  0.
          2    1    4    4  501    0 -0.19433136632E+02 -0.10326018595E+03  0.61741974624E+01  0.10525413776E+03  0.00000000000E+00 0. -1.
         -1    1    4    4    0  501  0.81793438103E+01  0.21052019019E+01 -0.21627169626E+02  0.23217838104E+02  0.00000000000E+00 0.  1.
          5    1    3    3  502    0  0.69781733608E+02  0.16127464768E+02  0.15357747853E+02  0.73399835724E+02  0.47000000000E+01 0. -1.
         13    1    6    6    0    0  0.81852745745E+01 -0.36415077919E+02  0.47671860470E+02  0.60544718188E+02  0.00000000000E+00 0. -1.
        -14    1    6    6    0    0  0.18815989552E+02  0.37226850258E+02  0.71360530863E+02  0.82657154609E+02  0.00000000000E+00 0.  1.
         -5    1    5    5    0  503 -0.85529204912E+02  0.84215746941E+02  0.14335288135E+03  0.18702854199E+03  0.47000000000E+01 0.  1.
<mgrwt>
<rscale>  2 0.20153163E+03</rscale>
<asrwt>0</asrwt>
<pdfrwt beam="1">  1       21 0.61107097E-01 0.20187179E+03</pdfrwt>
<pdfrwt beam="2">  1       21 0.20754783E-01 0.20187179E+03</pdfrwt>
<totfact> 0.53416718E+04</totfact>
</mgrwt>
</event>
<event>
12    1  0.2768653E-001  0.2221813E+03  0.7546771E-02  0.1132861E+00
         21   -1    0    0  504  503  0.00000000000E+00  0.00000000000E+00  0.67307028784E+03  0.67307028784E+03  0.00000000000E+00 0.  1.
         21   -1    0    0  502  504 -0.00000000000E+00 -0.00000000000E+00 -0.78471788452E+02  0.78471788452E+02  0.00000000000E+00 0.  1.
          6    2    1    2  502    0 -0.52943561866E+02 -0.12959328400E+03  0.19381311915E+03  0.29483563757E+03  0.17253141172E+03 0.  0.
         24    2    3    3    0    0  0.10295776703E+02 -0.13643625191E+03  0.13325490825E+03  0.20688436095E+03  0.79519899266E+02 0.  0.
         -6    2    1    2    0  503  0.52943561866E+02  0.12959328400E+03  0.40078538024E+03  0.45670643872E+03  0.16838767815E+03 0.  0.
        -24    2    5    5    0    0 -0.31854801765E+02  0.30930710793E+02  0.16977383878E+03  0.19153953257E+03  0.76764568255E+02 0.  0.
          2    1    4    4  501    0  0.29006638800E+02 -0.46329929167E+02  0.89763075266E+02  0.10509641817E+03  0.00000000000E+00 0. -1.
         -1    1    4    4    0  501 -0.18710862097E+02 -0.90106322747E+02  0.43491832989E+02  0.10178794278E+03  0.00000000000E+00 0.  1.
          5    1    3    3  502    0 -0.63239338569E+02  0.68429679174E+01  0.60558210891E+02  0.87951276619E+02  0.47000000000E+01 0. -1.
         11    1    6    6    0    0  0.10367463356E+02 -0.19814461187E+02  0.50144712048E+02  0.54905275838E+02  0.00000000000E+00 0. -1.
        -12    1    6    6    0    0 -0.42222265121E+02  0.50745171979E+02  0.11962912673E+03  0.13663425673E+03  0.00000000000E+00 0.  1.
         -5    1    5    5    0  503  0.84798363631E+02  0.98662573203E+02  0.23101154147E+03  0.26516690615E+03  0.47000000000E+01 0.  1.
<mgrwt>
<rscale>  2 0.22137639E+03</rscale>
<asrwt>0</asrwt>
<pdfrwt beam="1">  1       21 0.10354927E+00 0.22218130E+03</pdfrwt>
<pdfrwt beam="2">  1       21 0.12072583E-01 0.22218130E+03</pdfrwt>
<totfact> 0.43189916E+04</totfact>
</mgrwt>
</event>
<event>
12    1  0.2768653E-001  0.1778981E+03  0.7546771E-02  0.1170211E+00
         21   -1    0    0  504  503  0.00000000000E+00  0.00000000000E+00  0.42021579258E+03  0.42021579258E+03  0.00000000000E+00 0. -1.
         21   -1    0    0  502  504 -0.00000000000E+00 -0.00000000000E+00 -0.20012186573E+03  0.20012186573E+03  0.00000000000E+00 0. -1.
          6    2    1    2  502    0 -0.15401827294E+02  0.36173256209E+02 -0.13533271515E+03  0.22352329486E+03  0.17349927610E+03 0.  0.
         24    2    3    3    0    0  0.40813996932E+02  0.31830607326E+01 -0.79090336448E+02  0.13730341866E+03  0.10450374746E+03 0.  0.
         -6    2    1    2    0  503  0.15401827294E+02 -0.36173256209E+02  0.35542664200E+03  0.39681436345E+03  0.17201110560E+03 0.  0.
        -24    2    5    5    0    0 -0.46327349424E+02 -0.51573218860E+02  0.16916182065E+03  0.19992778752E+03  0.80928230241E+02 0.  0.
          4    1    4    4  501    0  0.23408057216E+02  0.51722525080E+02 -0.23401239524E+02  0.61406634451E+02  0.00000000000E+00 0. -1.
         -3    1    4    4    0  501  0.17405939716E+02 -0.48539464347E+02 -0.55689096924E+02  0.75896784206E+02  0.00000000000E+00 0.  1.
          5    1    3    3  502    0 -0.56215824227E+02  0.32990195477E+02 -0.56242378699E+02  0.86219876205E+02  0.47000000000E+01 0. -1.
         13    1    6    6    0    0 -0.57794406851E+02 -0.36579392855E+02  0.16756178188E+03  0.18098396667E+03  0.00000000000E+00 0. -1.
        -14    1    6    6    0    0  0.11467057427E+02 -0.14993826004E+02  0.16000387654E+01  0.18943820848E+02  0.00000000000E+00 0.  1.
         -5    1    5    5    0  503  0.61729176718E+02  0.15399962650E+02  0.18626482135E+03  0.19688657593E+03  0.47000000000E+01 0.  1.
<mgrwt>
<rscale>  2 0.17753418E+03</rscale>
<asrwt>0</asrwt>
<pdfrwt beam="1">  1       21 0.64648583E-01 0.17789806E+03</pdfrwt>
<pdfrwt beam="2">  1       21 0.30787979E-01 0.17789806E+03</pdfrwt>
<totfact> 0.22534804E+04</totfact>
</mgrwt>
</event>
<event>
12    1  0.2768653E-001  0.1842565E+03  0.7546771E-02  0.1163998E+00
         21   -1    0    0  504  503  0.00000000000E+00  0.00000000000E+00  0.71741229940E+02  0.71741229940E+02  0.00000000000E+00 0.  1.
         21   -1    0    0  502  504 -0.00000000000E+00 -0.00000000000E+00 -0.60644575348E+03  0.60644575348E+03  0.00000000000E+00 0.  1.
          6    2    1    2  502    0 -0.38212227838E+02  0.44669109202E+02 -0.42851239369E+03  0.46644757981E+03  0.17462808906E+03 0.  0.
         24    2    3    3    0    0 -0.42989637671E+02 -0.30702621514E+02 -0.31933216758E+03  0.33360883091E+03  0.80814967003E+02 0.  0.
         -6    2    1    2    0  503  0.38212227838E+02 -0.44669109202E+02 -0.10619212985E+03  0.21173940362E+03  0.17349727066E+03 0.  0.
        -24    2    5    5    0    0  0.24307514702E+02 -0.69735983203E+02 -0.75222598385E+01  0.10888259797E+03  0.79654711870E+02 0.  0.
          4    1    4    4  501    0 -0.59080159502E+02 -0.17096623992E+02 -0.29534319756E+03  0.30167924049E+03  0.00000000000E+00 0. -1.
         -3    1    4    4    0  501  0.16090521831E+02 -0.13605997523E+02 -0.23988970023E+02  0.31929590416E+02  0.00000000000E+00 0.  1.
          5    1    3    3  502    0  0.47774098329E+01  0.75371730717E+02 -0.10918022611E+03  0.13283874890E+03  0.47000000000E+01 0. -1.
         11    1    6    6    0    0  0.36277082866E+02 -0.25793309045E+00  0.68809939079E+01  0.36924806674E+02  0.00000000000E+00 0. -1.
        -12    1    6    6    0    0 -0.11969568164E+02 -0.69478050113E+02 -0.14403253746E+02  0.71957791295E+02  0.00000000000E+00 0.  1.
         -5    1    5    5    0  503  0.13904713135E+02  0.25066874001E+02 -0.98669870013E+02  0.10285680565E+03  0.47000000000E+01 0.  1.
<mgrwt>
<rscale>  2 0.18398811E+03</rscale>
<asrwt>0</asrwt>
<pdfrwt beam="1">  1       21 0.11037112E-01 0.18425654E+03</pdfrwt>
<pdfrwt beam="2">  1       21 0.93299348E-01 0.18425654E+03</pdfrwt>
<totfact> 0.66079167E+04</totfact>
</mgrwt>
</event>
<event>
12    1  0.2768653E-001  0.1849086E+03  0.7546771E-02  0.1163370E+00
         21   -1    0    0  504  503  0.00000000000E+00  0.00000000000E+00  0.78418064931E+02  0.78418064931E+02  0.00000000000E+00 0. -1.
         21   -1    0    0  502  504 -0.00000000000E+00 -0.00000000000E+00 -0.43393836731E+03  0.43393836731E+03  0.00000000000E+00 0. -1.
          6    2    1    2  502    0 -0.18057062030E+01 -0.62936282323E+02 -0.18480462431E+03  0.26142672343E+03  0.17385898409E+03 0.  0.
         24    2    3    3    0    0  0.11048373821E+01 -0.64361261260E+02 -0.39956764127E+02  0.11646640324E+03  0.88455002507E+02 0.  0.
         -6    2    1    2    0  503  0.18057062030E+01  0.62936282323E+02 -0.17071567807E+03  0.25092970881E+03  0.17279363362E+03 0.  0.
        -24    2    5    5    0    0  0.59462549510E+02  0.72030585044E+02 -0.13080003912E+03  0.18006105456E+03  0.81173475724E+02 0.  0.
          4    1    4    4  501    0 -0.14940344664E+02 -0.56774709237E+02  0.13415151685E+02  0.60220825321E+02  0.00000000000E+00 0. -1.
         -3    1    4    4    0  501  0.16045182046E+02 -0.75865520229E+01 -0.53371915812E+02  0.56245577923E+02  0.00000000000E+00 0.  1.
          5    1    3    3  502    0 -0.29105435851E+01  0.14249789369E+01 -0.14484786018E+03  0.14496032018E+03  0.47000000000E+01 0. -1.
         13    1    6    6    0    0  0.24610028390E+02  0.50367560359E+02 -0.12703294021E+03  0.13885212469E+03  0.00000000000E+00 0. -1.
        -14    1    6    6    0    0  0.34852521120E+02  0.21663024685E+02 -0.37670989107E+01  0.41208929871E+02  0.00000000000E+00 0.  1.
         -5    1    5    5    0  503 -0.57656843307E+02 -0.90943027213E+01 -0.39915638958E+02  0.70868654253E+02  0.47000000000E+01 0.  1.
<mgrwt>
<rscale>  2 0.18465774E+03</rscale>
<asrwt>0</asrwt>
<pdfrwt beam="1">  1       21 0.12064318E-01 0.18490858E+03</pdfrwt>
<pdfrwt beam="2">  1       21 0.66759749E-01 0.18490858E+03</pdfrwt>
<totfact> 0.11984315E+05</totfact>
</mgrwt>
</event>
<event>
12    1  0.2768653E-001  0.1861580E+03  0.7546771E-02  0.1162073E+00
         21   -1    0    0  504  503  0.00000000000E+00  0.00000000000E+00  0.12362395176E+04  0.12362395176E+04  0.00000000000E+00 0. -1.
         21   -1    0    0  502  504 -0.00000000000E+00 -0.00000000000E+00 -0.28209002063E+02  0.28209002063E+02  0.00000000000E+00 0. -1.
          6    2    1    2  502    0  0.67580654226E+02  0.45353224119E+01  0.66179294577E+03  0.68736075306E+03  0.17293694746E+03 0.  0.
         24    2    3    3    0    0 -0.13927889245E+02  0.39322697871E+01  0.16840831921E+03  0.18726627593E+03  0.80609225747E+02 0.  0.
         -6    2    1    2    0  503 -0.67580654226E+02 -0.45353224119E+01  0.54623756981E+03  0.57708776665E+03  0.17339865562E+03 0.  0.
        -24    2    5    5    0    0 -0.16730353355E+02 -0.38632876517E+02  0.46244829380E+03  0.47320740725E+03  0.91073717214E+02 0.  0.
          4    1    4    4  501    0  0.33710754790E+01  0.20484380095E+02  0.40224517862E+01  0.21146018447E+02  0.00000000000E+00 0. -1.
         -3    1    4    4    0  501 -0.17298964724E+02 -0.16552110308E+02  0.16438586743E+03  0.16612025748E+03  0.00000000000E+00 0.  1.
          5    1    3    3  502    0  0.81508543471E+02  0.60305262481E+00  0.49338462655E+03  0.50009447713E+03  0.47000000000E+01 0. -1.
         13    1    6    6    0    0 -0.51695953596E+02 -0.65755318454E+01  0.21242413483E+03  0.21872293500E+03  0.00000000000E+00 0. -1.
        -14    1    6    6    0    0  0.34965600241E+02 -0.32057344671E+02  0.25002415897E+03  0.25448447225E+03  0.00000000000E+00 0.  1.
         -5    1    5    5    0  503 -0.50850300871E+02  0.34097554105E+02  0.83789276009E+02  0.10388035940E+03  0.47000000000E+01 0.  1.
<mgrwt>
<rscale>  2 0.18605043E+03</rscale>
<asrwt>0</asrwt>
<pdfrwt beam="1">  1       21 0.19019065E+00 0.18615802E+03</pdfrwt>
<pdfrwt beam="2">  1       21 0.43398474E-02 0.18615802E+03</pdfrwt>
<totfact> 0.53355200E+04</totfact>
</mgrwt>
</event>
<event>
12    1  0.2768653E-001  0.3011314E+03  0.7546771E-02  0.1084786E+00
         21   -1    0    0  504  503  0.00000000000E+00  0.00000000000E+00  0.13361334704E+04  0.13361334704E+04  0.00000000000E+00 0.  1.
         21   -1    0    0  502  504 -0.00000000000E+00 -0.00000000000E+00 -0.83763878264E+02  0.83763878264E+02  0.00000000000E+00 0. -1.
          6    2    1    2  502    0 -0.24486423629E+03 -0.29636918949E+02  0.31423879118E+03  0.43462099569E+03  0.17120908514E+03 0.  0.
         24    2    3    3    0    0 -0.13970870950E+03 -0.40285341729E+02  0.90082704492E+02  0.18675184690E+03  0.74966168392E+02 0.  0.
         -6    2    1    2    0  503  0.24486423629E+03  0.29636918949E+02  0.93813080094E+03  0.98527635295E+03  0.17275199231E+03 0.  0.
        -24    2    5    5    0    0  0.11971643311E+03  0.55617900343E+02  0.33895496965E+03  0.37260127526E+03  0.80720899878E+02 0.  0.
          4    1    4    4  501    0 -0.49902997794E+02  0.20190020372E+02  0.18344960329E+02  0.56872521317E+02  0.00000000000E+00 0. -1.
         -3    1    4    4    0  501 -0.89805711710E+02 -0.60475362101E+02  0.71737744164E+02  0.12987932559E+03  0.00000000000E+00 0.  1.
          5    1    3    3  502    0 -0.10515552679E+03  0.10648422779E+02  0.22415608669E+03  0.24786914878E+03  0.47000000000E+01 0. -1.
         11    1    6    6    0    0  0.31137132117E+02  0.24362516199E+01  0.19418748746E+02  0.36776950951E+02  0.00000000000E+00 0. -1.
        -12    1    6    6    0    0  0.88579300997E+02  0.53181648723E+02  0.31953622090E+03  0.33582432431E+03  0.00000000000E+00 0.  1.
         -5    1    5    5    0  503  0.12514780318E+03 -0.25980981393E+02  0.59917583129E+03  0.61267507770E+03  0.47000000000E+01 0.  1.
<mgrwt>
<rscale>  2 0.30091049E+03</rscale>
<asrwt>0</asrwt>
<pdfrwt beam="1">  1       21 0.20555898E+00 0.30113135E+03</pdfrwt>
<pdfrwt beam="2">  1       21 0.12886752E-01 0.30113135E+03</pdfrwt>
<totfact> 0.58984313E+03</totfact>
</mgrwt>
</event>
<event>
12    1  0.2768653E-001  0.3789543E+03  0.7546771E-02  0.1051385E+00
         21   -1    0    0  504  503  0.00000000000E+00  0.00000000000E+00  0.11314835532E+03  0.11314835532E+03  0.00000000000E+00 0.  1.
         21   -1    0    0  502  504 -0.00000000000E+00 -0.00000000000E+00 -0.12708298953E+04  0.12708298953E+04  0.00000000000E+00 0. -1.
          6    2    1    2  502    0 -0.20021032184E+03  0.27077826672E+03 -0.61788939953E+03  0.72484044844E+03  0.17378527823E+03 0.  0.
         24    2    3    3    0    0 -0.20717482075E+03  0.25172469919E+03 -0.61877338418E+03  0.70399784521E+03  0.80285332124E+02 0.  0.
         -6    2    1    2    0  503  0.20021032184E+03 -0.27077826672E+03 -0.53979214047E+03  0.65913780222E+03  0.17228477792E+03 0.  0.
        -24    2    5    5    0    0  0.10838393333E+03 -0.10675855137E+03 -0.36150952193E+03  0.40002135209E+03  0.78635121863E+02 0.  0.
          2    1    4    4  501    0 -0.13300192028E+03  0.98443388767E+02 -0.30591960796E+03  0.34780370631E+03  0.00000000000E+00 0. -1.
         -1    1    4    4    0  501 -0.74172900468E+02  0.15328131043E+03 -0.31285377621E+03  0.35619413889E+03  0.00000000000E+00 0.  1.
          5    1    3    3  502    0  0.69644989061E+01  0.19053567528E+02  0.88398464057E+00  0.20842603230E+02  0.47000000000E+01 0. -1.
         13    1    6    6    0    0  0.11576099445E+03 -0.77911970461E+02 -0.27224487239E+03  0.30592180948E+03  0.00000000000E+00 0. -1.
        -14    1    6    6    0    0 -0.73770611256E+01 -0.28846580906E+02 -0.89264649546E+02  0.94099542610E+02  0.00000000000E+00 0.  1.
         -5    1    5    5    0  503  0.91826388513E+02 -0.16401971536E+03 -0.17828261854E+03  0.25911645012E+03  0.47000000000E+01 0.  1.
<mgrwt>
<rscale>  2 0.37878275E+03</rscale>
<asrwt>0</asrwt>
<pdfrwt beam="1">  1       21 0.17407440E-01 0.37895431E+03</pdfrwt>
<pdfrwt beam="2">  1       21 0.19551229E+00 0.37895431E+03</pdfrwt>
<totfact> 0.37857909E+03</totfact>
</mgrwt>
</event>
<event>
12    1  0.2768653E-001  0.2906127E+03  0.7546771E-02  0.1090635E+00
         21   -1    0    0  504  503  0.00000000000E+00  0.00000000000E+00  0.20689092428E+04  0.20689092428E+04  0.00000000000E+00 0. -1.
         21   -1    0    0  502  504 -0.00000000000E+00 -0.00000000000E+00 -0.75080266406E+02  0.75080266406E+02  0.00000000000E+00 0. -1.
          6    2    1    2  502    0 -0.23156511884E+03  0.22984830086E+02  0.26174747155E+03  0.38769736999E+03  0.16627328456E+03 0.  0.
         24    2    3    3    0    0 -0.19503635268E+03 -0.36261462816E+02  0.17509895739E+03  0.27645650976E+03  0.80090476061E+02 0.  0.
         -6    2    1    2    0  503  0.23156511884E+03 -0.22984830086E+02  0.17320815049E+04  0.17562921393E+04  0.17408340578E+03 0.  0.
        -24    2    5    5    0    0  0.15343710459E+03 -0.19146878271E+02  0.15248151689E+04  0.15347066241E+04  0.79709314373E+02 0.  0.
          4    1    4    4  501    0 -0.13070030873E+03  0.26334730863E+01  0.14565640548E+03  0.19571738384E+03  0.00000000000E+00 0. -1.
         -3    1    4    4    0  501 -0.64336043948E+02 -0.38894935902E+02  0.29442551914E+02  0.80739125912E+02  0.00000000000E+00 0.  1.
          5    1    3    3  502    0 -0.36528766162E+02  0.59246292902E+02  0.86648514154E+02  0.11124086023E+03  0.47000000000E+01 0. -1.
         13    1    6    6    0    0  0.78723902451E+02 -0.20994530267E+02  0.45148367653E+03  0.45877634344E+03  0.00000000000E+00 0. -1.
        -14    1    6    6    0    0  0.74713202138E+02  0.18476519954E+01  0.10733314924E+04  0.10759302807E+04  0.00000000000E+00 0.  1.
         -5    1    5    5    0  503  0.78128014249E+02 -0.38379518144E+01  0.20726633596E+03  0.22158551511E+03  0.47000000000E+01 0.  1.
<mgrwt>
<rscale>  2 0.28945326E+03</rscale>
<asrwt>0</asrwt>
<pdfrwt beam="1">  1       21 0.31829369E+00 0.29061270E+03</pdfrwt>
<pdfrwt beam="2">  1       21 0.11550812E-01 0.29061270E+03</pdfrwt>
<totfact> 0.15128996E+03</totfact>
</mgrwt>
</event>
<event>
12    1  0.2768653E-001  0.2052433E+03  0.7546771E-02  0.1145606E+00
         21   -1    0    0  504  503  0.00000000000E+00  0.00000000000E+00  0.84108699723E+03  0.84108699723E+03  0.00000000000E+00 0.  1.
         21   -1    0    0  502  504 -0.00000000000E+00 -0.00000000000E+00 -0.62864857554E+02  0.62864857554E+02  0.00000000000E+00 0.  1.
          6    2    1    2  502    0 -0.10704013227E+03  0.10199364753E+02  0.18406488691E+03  0.27568951956E+03  0.17482337270E+03 0.  0.
         24    2    3    3    0    0 -0.89660377088E+02  0.58302884545E+02  0.65454919527E+02  0.14643620676E+03  0.75637335984E+02 0.  0.
         -6    2    1    2    0  503  0.10704013227E+03 -0.10199364753E+02  0.59415725277E+03  0.62826233523E+03  0.17357737147E+03 0.  0.
        -24    2    5    5    0    0  0.28005721859E+02 -0.65422099452E+02  0.29134945776E+03  0.31044062550E+03  0.80153002867E+02 0.  0.
          2    1    4    4  501    0 -0.12262321570E+02  0.16864642675E+02  0.54016511707E+02  0.57901331935E+02  0.00000000000E+00 0. -1.
         -1    1    4    4    0  501 -0.77398055518E+02  0.41438241870E+02  0.11438407820E+02  0.88534874828E+02  0.00000000000E+00 0.  1.
          5    1    3    3  502    0 -0.17379755182E+02 -0.48103519792E+02  0.11860996738E+03  0.12925331279E+03  0.47000000000E+01 0. -1.
         13    1    6    6    0    0 -0.45051659130E+01 -0.23227878863E+02  0.12913412645E+02  0.26955279678E+02  0.00000000000E+00 0. -1.
        -14    1    6    6    0    0  0.32510887772E+02 -0.42194220589E+02  0.27843604512E+03  0.28348534582E+03  0.00000000000E+00 0.  1.
         -5    1    5    5    0  503  0.79034410411E+02  0.55222734699E+02  0.30280779501E+03  0.31782170973E+03  0.47000000000E+01 0.  1.
<mgrwt>
<rscale>  2 0.20497775E+03</rscale>
<asrwt>0</asrwt>
<pdfrwt beam="1">  1       21 0.12939799E+00 0.20524334E+03</pdfrwt>
<pdfrwt beam="2">  1       21 0.96715172E-02 0.20524334E+03</pdfrwt>
<totfact> 0.37371765E+04</totfact>
</mgrwt>
</event>
<event>
12    1  0.2768653E-001  0.1773008E+03  0.7546771E-02  0.1172644E+00
         21   -1    0    0  504  503  0.00000000000E+00  0.00000000000E+00  0.22317948185E+03  0.22317948185E+03  0.00000000000E+00 0. -1.
         21   -1    0    0  502  504 -0.00000000000E+00 -0.00000000000E+00 -0.14267218585E+03  0.14267218585E+03  0.00000000000E+00 0. -1.
          6    2    1    2  502    0  0.13687510012E+02  0.33960570760E+02 -0.56900026487E+01  0.16870820464E+03  0.16458862016E+03 0.  0.
         24    2    3    3    0    0  0.69574164763E+02  0.15462742549E+02  0.10523403907E+02  0.10746726751E+03  0.79742151634E+02 0.  0.
         -6    2    1    2    0  503 -0.13687510012E+02 -0.33960570760E+02  0.86197298647E+02  0.19714346305E+03  0.17347882417E+03 0.  0.
        -24    2    5    5    0    0  0.27397621944E+02 -0.94938252798E+01  0.11526311363E+03  0.14098724076E+03  0.75835705882E+02 0.  0.
          4    1    4    4  501    0  0.75437267469E+02 -0.33366108142E+01  0.28590650801E+02  0.80742427559E+02  0.00000000000E+00 0. -1.
         -3    1    4    4    0  501 -0.58631027054E+01  0.18799353363E+02 -0.18067246895E+02  0.26724839954E+02  0.00000000000E+00 0.  1.
          5    1    3    3  502    0 -0.55886654751E+02  0.18497828211E+02 -0.16213406555E+02  0.61240937125E+02  0.47000000000E+01 0. -1.
         13    1    6    6    0    0 -0.18850995380E+02  0.15631299268E+02  0.59324220648E+02  0.64179908843E+02  0.00000000000E+00 0. -1.
        -14    1    6    6    0    0  0.46248617324E+02 -0.25125124548E+02  0.55938892979E+02  0.76807331914E+02  0.00000000000E+00 0.  1.
         -5    1    5    5    0  503 -0.41085131956E+02 -0.24466745480E+02 -0.29065814980E+02  0.56156222297E+02  0.47000000000E+01 0.  1.
<mgrwt>
<rscale>  2 0.17508755E+03</rscale>
<asrwt>0</asrwt>
<pdfrwt beam="1">  1       21 0.34335305E-01 0.17730079E+03</pdfrwt>
<pdfrwt beam="2">  1       21 0.21949567E-01 0.17730079E+03</pdfrwt>
<totfact> 0.15924038E+05</totfact>
</mgrwt>
</event>
<event>
12    1  0.2768653E-001  0.2867058E+03  0.7546771E-02  0.1092115E+00
         21   -1    0    0  504  503  0.00000000000E+00  0.00000000000E+00  0.26302124954E+03  0.26302124954E+03  0.00000000000E+00 0.  1.
         21   -1    0    0  502  504 -0.00000000000E+00 -0.00000000000E+00 -0.35821128761E+03  0.35821128761E+03  0.00000000000E+00 0.  1.
          6    2    1    2  502    0  0.47666387341E+02 -0.22352638114E+03  0.63688669280E+02  0.29344808868E+03  0.17268296560E+03 0.  0.
         24    2    3    3    0    0  0.20989451735E+02 -0.20486942756E+03  0.10172232892E+03  0.24316498937E+03  0.79810653563E+02 0.  0.
         -6    2    1    2    0  503 -0.47666387341E+02  0.22352638114E+03 -0.15887870735E+03  0.32778444846E+03  0.17310133869E+03 0.  0.
        -24    2    5    5    0    0 -0.67878660619E+02  0.21390012265E+03 -0.18046486022E+03  0.29633205842E+03  0.69888110862E+02 0.  0.
          4    1    4    4  501    0  0.43477454992E+02 -0.14702231674E+03  0.95875376285E+02  0.18082571302E+03  0.00000000000E+00 0. -1.
         -3    1    4    4    0  501 -0.22488003257E+02 -0.57847110823E+02  0.58469526381E+01  0.62339276353E+02  0.00000000000E+00 0.  1.
          5    1    3    3  502    0  0.26676935606E+02 -0.18656953578E+02 -0.38033659642E+02  0.50283099307E+02  0.47000000000E+01 0. -1.
         13    1    6    6    0    0 -0.34484562097E+02  0.19193376702E+03 -0.14712179482E+03  0.24427971356E+03  0.00000000000E+00 0. -1.
        -14    1    6    6    0    0 -0.33394098523E+02  0.21966355627E+02 -0.33343065401E+02  0.52052344865E+02  0.00000000000E+00 0.  1.
         -5    1    5    5    0  503  0.20212273278E+02  0.96262584914E+01  0.21586152867E+02  0.31452390039E+02  0.47000000000E+01 0.  1.
<mgrwt>
<rscale>  2 0.28664265E+03</rscale>
<asrwt>0</asrwt>
<pdfrwt beam="1">  1       21 0.40464808E-01 0.28670577E+03</pdfrwt>
<pdfrwt beam="2">  1       21 0.55109429E-01 0.28670577E+03</pdfrwt>
<totfact> 0.17405064E+04</totfact>
</mgrwt>
</event>
<event>
12    1  0.2768653E-001  0.3053130E+03  0.7546771E-02  0.1082645E+00
         21   -1    0    0  504  503  0.00000000000E+00  0.00000000000E+00  0.20801635222E+03  0.20801635222E+03  0.00000000000E+00 0. -1.
         21   -1    0    0  502  504 -0.00000000000E+00 -0.00000000000E+00 -0.45142881935E+03  0.45142881935E+03  0.00000000000E+00 0.  1.
          6    2    1    2  502    0 -0.23814037553E+03  0.80239071855E+02 -0.91988659056E+02  0.31886977487E+03  0.17339801851E+03 0.  0.
         24    2    3    3    0    0 -0.11091815907E+03  0.10851848909E+03 -0.51364216672E+02  0.18227675485E+03  0.80668656363E+02 0.  0.
         -6    2    1    2    0  503  0.23814037553E+03 -0.80239071855E+02 -0.15142380807E+03  0.34057539671E+03  0.17295457230E+03 0.  0.
        -24    2    5    5    0    0  0.20634204121E+03 -0.20639228313E+02 -0.65425646348E+02  0.23111741739E+03  0.78305361922E+02 0.  0.
          2    1    4    4  501    0 -0.10047706701E+03  0.90101998971E+02 -0.94138545454E+01  0.13528721991E+03  0.00000000000E+00 0. -1.
         -1    1    4    4    0  501 -0.10441092063E+02  0.18416490119E+02 -0.41950362127E+02  0.46989534945E+02  0.00000000000E+00 0.  1.
          5    1    3    3  502    0 -0.12722221646E+03 -0.28279417234E+02 -0.40624442383E+02  0.13659302002E+03  0.47000000000E+01 0. -1.
         13    1    6    6    0    0  0.13234896523E+03 -0.69797371769E+00 -0.77751677797E+02  0.15349937839E+03  0.00000000000E+00 0. -1.
        -14    1    6    6    0    0  0.73993075977E+02 -0.19941254595E+02  0.12326031448E+02  0.77618039003E+02  0.00000000000E+00 0.  1.
         -5    1    5    5    0  503  0.31798334320E+02 -0.59599843542E+02 -0.85998161725E+02  0.10945797932E+03  0.47000000000E+01 0.  1.
<mgrwt>
<rscale>  2 0.30525006E+03</rscale>
<asrwt>0</asrwt>
<pdfrwt beam="1">  1       21 0.32002516E-01 0.30531299E+03</pdfrwt>
<pdfrwt beam="2">  1       21 0.69450587E-01 0.30531299E+03</pdfrwt>
<totfact> 0.16719532E+04</totfact>
</mgrwt>
</event>
<event>
12    1  0.2768653E-001  0.1969830E+03  0.7546771E-02  0.1152472E+00
         21   -1    0    0  504  503  0.00000000000E+00  0.00000000000E+00  0.66701434622E+02  0.66701434622E+02  0.00000000000E+00 0. -1.
         21   -1    0    0  502  504 -0.00000000000E+00 -0.00000000000E+00 -0.57973986125E+03  0.57973986125E+03  0.00000000000E+00 0. -1.
          6    2    1    2  502    0  0.60627814788E+02  0.71151225477E+02 -0.25049677190E+03  0.31867058295E+03  0.17338996190E+03 0.  0.
         24    2    3    3    0    0 -0.74477246556E+01  0.31730037445E+02 -0.21626945087E+03  0.23275254851E+03  0.79617897362E+02 0.  0.
         -6    2    1    2    0  503 -0.60627814788E+02 -0.71151225477E+02 -0.26254165472E+03  0.32777071292E+03  0.17253199985E+03 0.  0.
        -24    2    5    5    0    0 -0.25014177308E+02  0.28904354137E+02 -0.12593857019E+03  0.15467552844E+03  0.81257768140E+02 0.  0.
          4    1    4    4  501    0 -0.17218595437E+02  0.55996512729E+02 -0.12970548333E+03  0.14232217632E+03  0.00000000000E+00 0. -1.
         -3    1    4    4    0  501  0.97708707819E+01 -0.24266475284E+02 -0.86563967533E+02  0.90430372185E+02  0.00000000000E+00 0.  1.
          5    1    3    3  502    0  0.68075539444E+02  0.39421188032E+02 -0.34227321038E+02  0.85918034439E+02  0.47000000000E+01 0. -1.
         11    1    6    6    0    0  0.38851813773E+01 -0.26653972118E+02 -0.43184368704E+02  0.50896154711E+02  0.00000000000E+00 0. -1.
        -12    1    6    6    0    0 -0.28899358685E+02  0.55558326254E+02 -0.82754201484E+02  0.10377937373E+03  0.00000000000E+00 0.  1.
         -5    1    5    5    0  503 -0.35613637480E+02 -0.10005557961E+03 -0.13660308453E+03  0.17309518448E+03  0.47000000000E+01 0.  1.
<mgrwt>
<rscale>  2 0.19679405E+03</rscale>
<asrwt>0</asrwt>
<pdfrwt beam="1">  1       21 0.10261759E-01 0.19698301E+03</pdfrwt>
<pdfrwt beam="2">  1       21 0.89190750E-01 0.19698301E+03</pdfrwt>
<totfact> 0.83002345E+04</totfact>
</mgrwt>
</event>
<event>
12    1  0.2768653E-001  0.2141217E+03  0.7546771E-02  0.1138438E+00
         21   -1    0    0  504  503  0.00000000000E+00  0.00000000000E+00  0.18167282713E+03  0.18167282713E+03  0.00000000000E+00 0.  1.
         21   -1    0    0  502  504 -0.00000000000E+00 -0.00000000000E+00 -0.30704061255E+03  0.30704061255E+03  0.00000000000E+00 0. -1.
          6    2    1    2  502    0 -0.62788277851E+02  0.11031680630E+03 -0.16628538582E+03  0.27071717533E+03  0.17182780303E+03 0.  0.
         24    2    3    3    0    0  0.11509292324E+02  0.30051228090E+02 -0.12875975372E+03  0.15498923988E+03  0.80044051506E+02 0.  0.
         -6    2    1    2    0  503  0.62788277851E+02 -0.11031680630E+03  0.40917600402E+02  0.21799626436E+03  0.17244116581E+03 0.  0.
        -24    2    5    5    0    0  0.87635151175E+02 -0.73353606362E+02 -0.20951029294E+02  0.14161915651E+03  0.80971405899E+02 0.  0.
          2    1    4    4  501    0 -0.80985009561E+01 -0.21921869798E+02 -0.13368087821E+02  0.26923221671E+02  0.00000000000E+00 0. -1.
         -1    1    4    4    0  501  0.19607793281E+02  0.51973097888E+02 -0.11539166589E+03  0.12806601821E+03  0.00000000000E+00 0.  1.
          5    1    3    3  502    0 -0.74297570176E+02  0.80265578206E+02 -0.37525632106E+02  0.11572793545E+03  0.47000000000E+01 0. -1.
         11    1    6    6    0    0  0.74841408775E+02 -0.19170487393E+02 -0.34046058024E+02  0.84426761878E+02  0.00000000000E+00 0. -1.
        -12    1    6    6    0    0  0.12793742400E+02 -0.54183118969E+02  0.13095028730E+02  0.57192394628E+02  0.00000000000E+00 0.  1.
         -5    1    5    5    0  503 -0.24846873323E+02 -0.36963199934E+02  0.61868629697E+02  0.76377107852E+02  0.47000000000E+01 0.  1.
<mgrwt>
<rscale>  2 0.21399822E+03</rscale>
<asrwt>0</asrwt>
<pdfrwt beam="1">  1       21 0.27949666E-01 0.21412174E+03</pdfrwt>
<pdfrwt beam="2">  1       21 0.47237017E-01 0.21412174E+03</pdfrwt>
<totfact> 0.51890535E+04</totfact>
</mgrwt>
</event>
<event>
12    1  0.2768653E-001  0.1837059E+03  0.7546771E-02  0.1164288E+00
         21   -1    0    0  504  503  0.00000000000E+00  0.00000000000E+00  0.13422802715E+03  0.13422802715E+03  0.00000000000E+00 0. -1.
         21   -1    0    0  502  504 -0.00000000000E+00 -0.00000000000E+00 -0.26412307039E+03  0.26412307039E+03  0.00000000000E+00 0. -1.
          6    2    1    2  502    0 -0.16220351008E+02 -0.58993863324E+02 -0.10887842148E+03  0.21354713915E+03  0.17321805414E+03 0.  0.
         24    2    3    3    0    0 -0.71330620745E+02 -0.63467148227E+02 -0.56530415860E+02  0.13726112601E+03  0.80800943293E+02 0.  0.
         -6    2    1    2    0  503  0.16220351008E+02  0.58993863324E+02 -0.21016621762E+02  0.18480395839E+03  0.17311103069E+03 0.  0.
        -24    2    5    5    0    0  0.23107684828E+02  0.16320808711E+01 -0.70768247872E+02  0.10841597665E+03  0.78798796309E+02 0.  0.
          2    1    4    4  501    0 -0.66355821162E+02 -0.53472458743E+02 -0.76411307649E+02  0.11445997896E+03  0.00000000000E+00 0. -1.
         -1    1    4    4    0  501 -0.49747995836E+01 -0.99946894847E+01  0.19880891789E+02  0.22801147057E+02  0.00000000000E+00 0.  1.
          5    1    3    3  502    0  0.55110269738E+02  0.44732849040E+01 -0.52348005619E+02  0.76286013139E+02  0.47000000000E+01 0. -1.
         11    1    6    6    0    0 -0.28597863416E+02  0.88152934996E+01 -0.26390341713E+02  0.39899841192E+02  0.00000000000E+00 0. -1.
        -12    1    6    6    0    0  0.51705548244E+02 -0.71832126285E+01 -0.44377906159E+02  0.68516135457E+02  0.00000000000E+00 0.  1.
         -5    1    5    5    0  503 -0.68873338202E+01  0.57361782452E+02  0.49751626110E+02  0.76387981737E+02  0.47000000000E+01 0.  1.
<mgrwt>
<rscale>  2 0.18368070E+03</rscale>
<asrwt>0</asrwt>
<pdfrwt beam="1">  1       21 0.20650466E-01 0.18370593E+03</pdfrwt>
<pdfrwt beam="2">  1       21 0.40634318E-01 0.18370593E+03</pdfrwt>
<totfact> 0.12724834E+05</totfact>
</mgrwt>
</event>
<event>
12    1  0.2768653E-001  0.2699011E+03  0.7546771E-02  0.1101359E+00
         21   -1    0    0  504  503  0.00000000000E+00  0.00000000000E+00  0.36678923715E+02  0.36678923715E+02  0.00000000000E+00 0.  1.
         21   -1    0    0  502  504 -0.00000000000E+00 -0.00000000000E+00 -0.23858807327E+04  0.23858807327E+04  0.00000000000E+00 0. -1.
          6    2    1    2  502    0  0.18556956061E+03  0.92316128155E+02 -0.16708993668E+04  0.16925316946E+04  0.17262825367E+03 0.  0.
         24    2    3    3    0    0  0.13595714807E+03  0.20172810091E+02 -0.71438412544E+03  0.73200603292E+03  0.81221088235E+02 0.  0.
         -6    2    1    2    0  503 -0.18556956061E+03 -0.92316128155E+02 -0.67830244226E+03  0.73002796187E+03  0.17288230852E+03 0.  0.
        -24    2    5    5    0    0 -0.74466000517E+02 -0.72755756147E+02 -0.51347838477E+03  0.53023890025E+03  0.81576065269E+02 0.  0.
          2    1    4    4  501    0  0.44720990184E+02  0.19600934761E+02 -0.10461620293E+03  0.11545004774E+03  0.00000000000E+00 0. -1.
         -1    1    4    4    0  501  0.91236157890E+02  0.57187532966E+00 -0.60976792251E+03  0.61655598518E+03  0.00000000000E+00 0.  1.
          5    1    3    3  502    0  0.49612412534E+02  0.72143318064E+02 -0.95651524132E+03  0.96052566165E+03  0.47000000000E+01 0. -1.
         11    1    6    6    0    0  0.54659535802E+01 -0.21224726927E+02 -0.23396534884E+03  0.23498968092E+03  0.00000000000E+00 0. -1.
        -12    1    6    6    0    0 -0.79931954097E+02 -0.51531029220E+02 -0.27951303593E+03  0.29524921933E+03  0.00000000000E+00 0.  1.
         -5    1    5    5    0  503 -0.11110356009E+03 -0.19560372008E+02 -0.16482405749E+03  0.19978906162E+03  0.47000000000E+01 0.  1.
<mgrwt>
<rscale>  2 0.26986046E+03</rscale>
<asrwt>0</asrwt>
<pdfrwt beam="1">  1       21 0.56429087E-02 0.26990113E+03</pdfrwt>
<pdfrwt beam="2">  1       21 0.36705874E+00 0.26990113E+03</pdfrwt>
<totfact> 0.27732278E+03</totfact>
</mgrwt>
</event>
<event>
12    1  0.2768653E-001  0.2301552E+03  0.7546771E-02  0.1126788E+00
         21   -1    0    0  504  503  0.00000000000E+00  0.00000000000E+00  0.53544028890E+03  0.53544028890E+03  0.00000000000E+00 0.  1.
         21   -1    0    0  502  504 -0.00000000000E+00 -0.00000000000E+00 -0.33985078117E+03  0.33985078117E+03  0.00000000000E+00 0.  1.
          6    2    1    2  502    0  0.14536013363E+03 -0.50239466161E+02 -0.27125464807E+03  0.35479623058E+03  0.16925634027E+03 0.  0.
         24    2    3    3    0    0  0.13886211699E+03  0.12171256203E+02 -0.15883244457E+03  0.22596236731E+03  0.80002618564E+02 0.  0.
         -6    2    1    2    0  503 -0.14536013363E+03  0.50239466161E+02  0.46684415580E+03  0.52049483950E+03  0.17122453017E+03 0.  0.
        -24    2    5    5    0    0 -0.13580915641E+03  0.65601079074E+02  0.24760233189E+03  0.30045787063E+03  0.78869441017E+02 0.  0.
          4    1    4    4  501    0  0.52072180971E+02 -0.11728235462E+01 -0.98214093045E+01  0.53003279397E+02  0.00000000000E+00 0. -1.
         -3    1    4    4    0  501  0.86789936022E+02  0.13344079749E+02 -0.14901103527E+03  0.17295908791E+03  0.00000000000E+00 0.  1.
          5    1    3    3  502    0  0.64980166398E+01 -0.62410722364E+02 -0.11242220349E+03  0.12883386327E+03  0.47000000000E+01 0. -1.
         13    1    6    6    0    0 -0.85214140507E+02  0.43882483570E+02  0.21755371246E+03  0.23773249654E+03  0.00000000000E+00 0. -1.
        -14    1    6    6    0    0 -0.50595015905E+02  0.21718595504E+02  0.30048619429E+02  0.62725374090E+02  0.00000000000E+00 0.  1.
         -5    1    5    5    0  503 -0.95509772205E+01 -0.15361612914E+02  0.21924182391E+03  0.22003696886E+03  0.47000000000E+01 0.  1.
<mgrwt>
<rscale>  2 0.22978920E+03</rscale>
<asrwt>0</asrwt>
<pdfrwt beam="1">  1       21 0.82375429E-01 0.23015519E+03</pdfrwt>
<pdfrwt beam="2">  1       21 0.52284736E-01 0.23015519E+03</pdfrwt>
<totfact> 0.43418631E+03</totfact>
</mgrwt>
</event>
<event>
12    1  0.2768653E-001  0.2163065E+03  0.7546771E-02  0.1136701E+00
         21   -1    0    0  504  503  0.00000000000E+00  0.00000000000E+00  0.50901923470E+02  0.50901923470E+02  0.00000000000E+00 0. -1.
         21   -1    0    0  502  504 -0.00000000000E+00 -0.00000000000E+00 -0.93216560944E+03  0.93216560944E+03  0.00000000000E+00 0. -1.
          6    2    1    2  502    0  0.10338533899E+03  0.77484185000E+02 -0.50046218071E+03  0.54520721352E+03  0.17348251817E+03 0.  0.
         24    2    3    3    0    0  0.81676459689E+02  0.89671777155E+02 -0.49899736800E+03  0.51982910250E+03  0.80696039813E+02 0.  0.
         -6    2    1    2    0  503 -0.10338533899E+03 -0.77484185000E+02 -0.38080150526E+03  0.43786031939E+03  0.17326149498E+03 0.  0.
        -24    2    5    5    0    0 -0.12331152554E+03 -0.20753772218E+02 -0.31560546005E+03  0.34904586698E+03  0.81177333361E+02 0.  0.
          4    1    4    4  501    0  0.97886206467E+02  0.81080748309E+02 -0.44524412406E+03  0.46303145376E+03  0.00000000000E+00 0. -1.
         -3    1    4    4    0  501 -0.16209746778E+02  0.85910288459E+01 -0.53753243944E+02  0.56797648735E+02  0.00000000000E+00 0.  1.
          5    1    3    3  502    0  0.21708879300E+02 -0.12187592154E+02 -0.14648127060E+01  0.25378111026E+02  0.47000000000E+01 0. -1.
         13    1    6    6    0    0 -0.34150342546E+02  0.40192867283E+01 -0.21099367931E+02  0.40343325209E+02  0.00000000000E+00 0. -1.
        -14    1    6    6    0    0 -0.89161182997E+02 -0.24773058947E+02 -0.29450609211E+03  0.30870254177E+03  0.00000000000E+00 0.  1.
         -5    1    5    5    0  503  0.19926186554E+02 -0.56730412782E+02 -0.65196045214E+02  0.88814452408E+02  0.47000000000E+01 0.  1.
<mgrwt>
<rscale>  2 0.21626220E+03</rscale>
<asrwt>0</asrwt>
<pdfrwt beam="1">  1       21 0.78310650E-02 0.21630652E+03</pdfrwt>
<pdfrwt beam="2">  1       21 0.14341010E+00 0.21630652E+03</pdfrwt>
<totfact> 0.41310066E+04</totfact>
</mgrwt>
</event>
<event>
12    1  0.2768653E-001  0.1872968E+03  0.7546771E-02  0.1161063E+00
         21   -1    0    0  504  503  0.00000000000E+00  0.00000000000E+00  0.38291643221E+03  0.38291643221E+03  0.00000000000E+00 0.  1.
         21   -1    0    0  502  504 -0.00000000000E+00 -0.00000000000E+00 -0.28288085400E+03  0.28288085400E+03  0.00000000000E+00 0.  1.
          6    2    1    2  502    0 -0.52801292942E+02 -0.50199084906E+02 -0.22395747107E+03  0.29156263943E+03  0.17188338839E+03 0.  0.
         24    2    3    3    0    0 -0.98548300849E+01 -0.71154007689E+02 -0.66819558466E+02  0.12725219838E+03  0.81044790788E+02 0.  0.
         -6    2    1    2    0  503  0.52801292942E+02  0.50199084906E+02  0.32399304928E+03  0.37423464679E+03  0.17254608142E+03 0.  0.
        -24    2    5    5    0    0 -0.14510579193E+02 -0.39003131809E+02  0.91052300360E+02  0.11583300959E+03  0.58266315410E+02 0.  0.
          2    1    4    4  501    0  0.17395697222E+02 -0.52644868951E+02 -0.31121010448E+01  0.55531771821E+02  0.00000000000E+00 0. -1.
         -1    1    4    4    0  501 -0.27250527307E+02 -0.18509138737E+02 -0.63707457421E+02  0.71720426562E+02  0.00000000000E+00 0.  1.
          5    1    3    3  502    0 -0.42946462857E+02  0.20954922782E+02 -0.15713791260E+03  0.16431044105E+03  0.47000000000E+01 0. -1.
         11    1    6    6    0    0 -0.16374787023E+02 -0.45726691074E+02  0.95789434382E+02  0.10739962600E+03  0.00000000000E+00 0. -1.
        -12    1    6    6    0    0  0.18642078295E+01  0.67235592653E+01 -0.47371340224E+01  0.84333835898E+01  0.00000000000E+00 0.  1.
         -5    1    5    5    0  503  0.67311872135E+02  0.89202216715E+02  0.23294074892E+03  0.25840163719E+03  0.47000000000E+01 0.  1.
<mgrwt>
<rscale>  2 0.18714399E+03</rscale>
<asrwt>0</asrwt>
<pdfrwt beam="1">  1       21 0.58910221E-01 0.18729676E+03</pdfrwt>
<pdfrwt beam="2">  1       21 0.43520131E-01 0.18729676E+03</pdfrwt>
<totfact> 0.13723813E+04</totfact>
</mgrwt>
</event>
<event>
12    1  0.2768653E-001  0.1960102E+03  0.7546771E-02  0.1153402E+00
         21   -1    0    0  504  503  0.00000000000E+00  0.00000000000E+00  0.19029888399E+03  0.19029888399E+03  0.00000000000E+00 0.  1.
         21   -1    0    0  502  504 -0.00000000000E+00 -0.00000000000E+00 -0.20640183217E+03  0.20640183217E+03  0.00000000000E+00 0.  1.
          6    2    1    2  502    0 -0.25666359885E+02 -0.90201559106E+02 -0.41042397298E+02  0.20026102763E+03  0.17211890517E+03 0.  0.
         24    2    3    3    0    0 -0.62444176908E+02 -0.24104091965E+02 -0.62749558833E+02  0.12142719068E+03  0.79541014720E+02 0.  0.
         -6    2    1    2    0  503  0.25666359885E+02  0.90201559106E+02  0.24939449127E+02  0.19643968853E+03  0.17079663876E+03 0.  0.
        -24    2    5    5    0    0 -0.23193541588E+02  0.90969903774E+02 -0.25921624184E+02  0.12575150632E+03  0.79549022478E+02 0.  0.
          4    1    4    4  501    0  0.14943371004E+02 -0.20864716510E+02 -0.22539214100E+02  0.34156359646E+02  0.00000000000E+00 0. -1.
         -3    1    4    4    0  501 -0.77387547913E+02 -0.32393754549E+01 -0.40210344733E+02  0.87270831031E+02  0.00000000000E+00 0.  1.
          5    1    3    3  502    0  0.36777817023E+02 -0.66097467141E+02  0.21707161536E+02  0.78833836957E+02  0.47000000000E+01 0. -1.
         13    1    6    6    0    0 -0.26122022551E+01 -0.13787436053E+02 -0.11255271304E+02  0.17988833360E+02  0.00000000000E+00 0. -1.
        -14    1    6    6    0    0 -0.20581339333E+02  0.10475733983E+03 -0.14666352880E+02  0.10776267296E+03  0.00000000000E+00 0.  1.
         -5    1    5    5    0  503  0.48859901473E+02 -0.76834466771E+00  0.50861073310E+02  0.70688182207E+02  0.47000000000E+01 0.  1.
<mgrwt>
<rscale>  2 0.19571954E+03</rscale>
<asrwt>0</asrwt>
<pdfrwt beam="1">  1       21 0.29276752E-01 0.19601021E+03</pdfrwt>
<pdfrwt beam="2">  1       21 0.31754128E-01 0.19601021E+03</pdfrwt>
<totfact> 0.10641824E+05</totfact>
</mgrwt>
</event>
<event>
12    1  0.2768653E-001  0.2078178E+03  0.7546771E-02  0.1143719E+00
         21   -1    0    0  504  503  0.00000000000E+00  0.00000000000E+00  0.87153925975E+03  0.87153925975E+03  0.00000000000E+00 0.  1.
         21   -1    0    0  502  504 -0.00000000000E+00 -0.00000000000E+00 -0.55432527882E+02  0.55432527882E+02  0.00000000000E+00 0.  1.
          6    2    1    2  502    0  0.82995379582E+02  0.64314598041E+02  0.24919524930E+03  0.32316977131E+03  0.17696278779E+03 0.  0.
         24    2    3    3    0    0  0.11129104895E+03  0.41468492885E+01  0.15976360675E+03  0.21163093689E+03  0.82827226628E+02 0.  0.
         -6    2    1    2    0  503 -0.82995379582E+02 -0.64314598041E+02  0.56691148257E+03  0.60380201632E+03  0.17934225740E+03 0.  0.
        -24    2    5    5    0    0 -0.74059288758E+01  0.21143319692E+02  0.15832112210E+03  0.17955563339E+03  0.81686963641E+02 0.  0.
          2    1    4    4  501    0  0.27996128278E+02  0.17063900132E+02  0.10764823890E+03  0.11253045466E+03  0.00000000000E+00 0. -1.
         -1    1    4    4    0  501  0.83294920675E+02 -0.12917050844E+02  0.52115367843E+02  0.99100482230E+02  0.00000000000E+00 0.  1.
          5    1    3    3  502    0 -0.28295669372E+02  0.60167748753E+02  0.89431642551E+02  0.11153883442E+03  0.47000000000E+01 0. -1.
         13    1    6    6    0    0 -0.14479271014E+02  0.93571501718E+00 -0.46097239889E+01  0.15224138956E+02  0.00000000000E+00 0. -1.
        -14    1    6    6    0    0  0.70733421385E+01  0.20207604675E+02  0.16293084609E+03  0.16433149443E+03  0.00000000000E+00 0.  1.
         -5    1    5    5    0  503 -0.75589450706E+02 -0.85457917733E+02  0.40859036047E+03  0.42424638293E+03  0.47000000000E+01 0.  1.
<mgrwt>
<rscale>  2 0.20730343E+03</rscale>
<asrwt>0</asrwt>
<pdfrwt beam="1">  1       21 0.13408295E+00 0.20781782E+03</pdfrwt>
<pdfrwt beam="2">  1       21 0.85280819E-02 0.20781782E+03</pdfrwt>
<totfact> 0.42540827E+04</totfact>
</mgrwt>
</event>
<event>
12    1  0.2768653E-001  0.1821785E+03  0.7546771E-02  0.1166398E+00
         21   -1    0    0  504  503  0.00000000000E+00  0.00000000000E+00  0.21050519085E+03  0.21050519085E+03  0.00000000000E+00 0.  1.
         21   -1    0    0  502  504 -0.00000000000E+00 -0.00000000000E+00 -0.31910069068E+03  0.31910069068E+03  0.00000000000E+00 0.  1.
          6    2    1    2  502    0  0.32519040253E+02 -0.46281427814E+02 -0.24386652728E+03  0.30269788476E+03  0.17016364997E+03 0.  0.
         24    2    3    3    0    0  0.39124420291E+02  0.23369954850E+02 -0.78721706960E+02  0.12328259046E+03  0.83214271072E+02 0.  0.
         -6    2    1    2    0  503 -0.32519040253E+02  0.46281427814E+02  0.13527102745E+03  0.22690799677E+03  0.17317485265E+03 0.  0.
        -24    2    5    5    0    0  0.48411035113E+02  0.22182517292E+02  0.90249995700E+02  0.13109871806E+03  0.78778929659E+02 0.  0.
          4    1    4    4  501    0  0.13708961092E+02  0.20669510939E+02  0.13044488069E+02  0.28023614429E+02  0.00000000000E+00 0. -1.
         -3    1    4    4    0  501  0.25415459199E+02  0.27004439117E+01 -0.91766195030E+02  0.95258976028E+02  0.00000000000E+00 0.  1.
          5    1    3    3  502    0 -0.66053800383E+01 -0.69651382664E+02 -0.16514482032E+03  0.17941529430E+03  0.47000000000E+01 0. -1.
         11    1    6    6    0    0  0.19797114194E+02 -0.28575950270E+02  0.21073437512E+02  0.40652188537E+02  0.00000000000E+00 0. -1.
        -12    1    6    6    0    0  0.28613920919E+02  0.50758467562E+02  0.69176558188E+02  0.90446529520E+02  0.00000000000E+00 0.  1.
         -5    1    5    5    0  503 -0.80930075366E+02  0.24098910522E+02  0.45021031745E+02  0.95809278708E+02  0.47000000000E+01 0.  1.
<mgrwt>
<rscale>  2 0.18145922E+03</rscale>
<asrwt>0</asrwt>
<pdfrwt beam="1">  1       21 0.32385414E-01 0.18217845E+03</pdfrwt>
<pdfrwt beam="2">  1       21 0.49092414E-01 0.18217845E+03</pdfrwt>
<totfact> 0.36510781E+04</totfact>
</mgrwt>
</event>
<event>
12    1  0.2768653E-001  0.1912767E+03  0.7546771E-02  0.1157364E+00
         21   -1    0    0  504  503  0.00000000000E+00  0.00000000000E+00  0.16973877312E+03  0.16973877312E+03  0.00000000000E+00 0. -1.
         21   -1    0    0  502  504 -0.00000000000E+00 -0.00000000000E+00 -0.33701734182E+03  0.33701734182E+03  0.00000000000E+00 0. -1.
          6    2    1    2  502    0  0.54475074686E+02 -0.61577405654E+02 -0.23588148607E+03  0.30354895367E+03  0.17246037560E+03 0.  0.
         24    2    3    3    0    0  0.10456108064E-02 -0.21471500612E+01 -0.32411553471E+02  0.84639203778E+02  0.78158017908E+02 0.  0.
         -6    2    1    2    0  503 -0.54475074686E+02  0.61577405654E+02  0.68602917370E+02  0.20320716128E+03  0.17270633884E+03 0.  0.
        -24    2    5    5    0    0 -0.88820332964E+02  0.61544242369E+01  0.67453354871E+02  0.13782585562E+03  0.80740837931E+02 0.  0.
          2    1    4    4  501    0  0.32950177885E+02 -0.16918316278E+02 -0.31332227974E+02  0.48514453086E+02  0.00000000000E+00 0. -1.
         -1    1    4    4    0  501 -0.32949132275E+02  0.14771166217E+02 -0.10793254964E+01  0.36124750692E+02  0.00000000000E+00 0.  1.
          5    1    3    3  502    0  0.54474029076E+02 -0.59430255593E+02 -0.20346993260E+03  0.21890974989E+03  0.47000000000E+01 0. -1.
         13    1    6    6    0    0 -0.59903163149E+02  0.19597823424E+02 -0.20622210267E+00  0.63027820570E+02  0.00000000000E+00 0. -1.
        -14    1    6    6    0    0 -0.28917169815E+02 -0.13443399187E+02  0.67659576974E+02  0.74798035055E+02  0.00000000000E+00 0.  1.
         -5    1    5    5    0  503  0.34345258278E+02  0.55422981417E+02  0.11495624988E+01  0.65381305656E+02  0.47000000000E+01 0.  1.
<mgrwt>
<rscale>  2 0.19122120E+03</rscale>
<asrwt>0</asrwt>
<pdfrwt beam="1">  1       21 0.26113657E-01 0.19127674E+03</pdfrwt>
<pdfrwt beam="2">  1       21 0.51848822E-01 0.19127674E+03</pdfrwt>
<totfact> 0.49249955E+04</totfact>
</mgrwt>
</event>
<event>
12    1  0.2768653E-001  0.1913428E+03  0.7546771E-02  0.1157947E+00
         21   -1    0    0  504  503  0.00000000000E+00  0.00000000000E+00  0.14329454340E+03  0.14329454340E+03  0.00000000000E+00 0.  1.
         21   -1    0    0  502  504 -0.00000000000E+00 -0.00000000000E+00 -0.29963974727E+03  0.29963974727E+03  0.00000000000E+00 0.  1.
          6    2    1    2  502    0  0.20853852549E+02  0.72053424812E+02 -0.16648041989E+03  0.25132324342E+03  0.17268776240E+03 0.  0.
         24    2    3    3    0    0 -0.39056829677E+02  0.40002990111E+02 -0.35522515243E+02  0.10371368073E+03  0.79806035601E+02 0.  0.
         -6    2    1    2    0  503 -0.20853852549E+02 -0.72053424812E+02  0.10135216013E+02  0.19161104725E+03  0.17602696279E+03 0.  0.
        -24    2    5    5    0    0 -0.92798243548E+01 -0.11771577062E+03  0.68275749016E+01  0.14415540014E+03  0.82407801919E+02 0.  0.
          4    1    4    4  501    0  0.84991071183E+01  0.45615743998E+02 -0.30584454731E+02  0.55573732945E+02  0.00000000000E+00 0. -1.
         -3    1    4    4    0  501 -0.47555936796E+02 -0.56127538868E+01 -0.49380605117E+01  0.48139947781E+02  0.00000000000E+00 0.  1.
          5    1    3    3  502    0  0.59910682226E+02  0.32050434701E+02 -0.13095790464E+03  0.14760956269E+03  0.47000000000E+01 0. -1.
         11    1    6    6    0    0 -0.10344306093E+02 -0.15058014330E+02  0.33434748777E+02  0.38100274145E+02  0.00000000000E+00 0. -1.
        -12    1    6    6    0    0  0.10644817386E+01 -0.10265775629E+03 -0.26607173875E+02  0.10605512599E+03  0.00000000000E+00 0.  1.
         -5    1    5    5    0  503 -0.11574028194E+02  0.45662345806E+02  0.33076411112E+01  0.47455647112E+02  0.47000000000E+01 0.  1.
<mgrwt>
<rscale>  2 0.19057131E+03</rscale>
<asrwt>0</asrwt>
<pdfrwt beam="1">  1       21 0.22045314E-01 0.19134281E+03</pdfrwt>
<pdfrwt beam="2">  1       21 0.46098423E-01 0.19134281E+03</pdfrwt>
<totfact> 0.86755369E+04</totfact>
</mgrwt>
</event>
<event>
12    1  0.2768653E-001  0.1964237E+03  0.7546771E-02  0.1154260E+00
         21   -1    0    0  504  503  0.00000000000E+00  0.00000000000E+00  0.18010975411E+03  0.18010975411E+03  0.00000000000E+00 0. -1.
         21   -1    0    0  502  504 -0.00000000000E+00 -0.00000000000E+00 -0.21905524526E+03  0.21905524526E+03  0.00000000000E+00 0. -1.
          6    2    1    2  502    0  0.86836865201E+02  0.28684995168E+02 -0.66605393890E+02  0.20740913654E+03  0.17383555827E+03 0.  0.
         24    2    3    3    0    0  0.26010742901E+02 -0.27609720332E+02  0.12771328082E+02  0.92554157813E+02  0.83452440973E+02 0.  0.
         -6    2    1    2    0  503 -0.86836865201E+02 -0.28684995168E+02  0.27659902747E+02  0.19175586283E+03  0.16625814447E+03 0.  0.
        -24    2    5    5    0    0 -0.22378393083E+02  0.24380106466E+02  0.55153332472E+02  0.10372871749E+03  0.81379202998E+02 0.  0.
          2    1    4    4  501    0  0.30873815500E+02  0.24421692869E+02  0.69312686110E+01  0.39970664876E+02  0.00000000000E+00 0. -1.
         -1    1    4    4    0  501 -0.48630725989E+01 -0.52031413201E+02  0.58400594708E+01  0.52583492936E+02  0.00000000000E+00 0.  1.
          5    1    3    3  502    0  0.60826122300E+02  0.56294715500E+02 -0.79376721972E+02  0.11485497873E+03  0.47000000000E+01 0. -1.
         11    1    6    6    0    0  0.66623823016E+01 -0.16372775660E+02  0.50461158187E+02  0.53467593983E+02  0.00000000000E+00 0. -1.
        -12    1    6    6    0    0 -0.29040775384E+02  0.40752882125E+02  0.46921742852E+01  0.50261123505E+02  0.00000000000E+00 0.  1.
         -5    1    5    5    0  503 -0.64458472118E+02 -0.53065101634E+02 -0.27493429725E+02  0.88027145343E+02  0.47000000000E+01 0.  1.
<mgrwt>
<rscale>  2 0.19473371E+03</rscale>
<asrwt>0</asrwt>
<pdfrwt beam="1">  1       21 0.27709193E-01 0.19642370E+03</pdfrwt>
<pdfrwt beam="2">  1       21 0.33700807E-01 0.19642370E+03</pdfrwt>
<totfact> 0.10528688E+05</totfact>
</mgrwt>
</event>
<event>
12    1  0.2768653E-001  0.2073332E+03  0.7546771E-02  0.1143841E+00
         21   -1    0    0  504  503  0.00000000000E+00  0.00000000000E+00  0.38467384991E+03  0.38467384991E+03  0.00000000000E+00 0.  1.
         21   -1    0    0  502  504 -0.00000000000E+00 -0.00000000000E+00 -0.27413599546E+03  0.27413599546E+03  0.00000000000E+00 0.  1.
          6    2    1    2  502    0  0.34899002628E+02 -0.10925355929E+03 -0.19852100205E+03  0.28704988832E+03  0.17272165333E+03 0.  0.
         24    2    3    3    0    0 -0.14058030925E+02 -0.56932501712E+02 -0.28496460328E+02  0.10248358862E+03  0.79068955346E+02 0.  0.
         -6    2    1    2    0  503 -0.34899002628E+02  0.10925355929E+03  0.30905885650E+03  0.37175995704E+03  0.17185403189E+03 0.  0.
        -24    2    5    5    0    0 -0.11791373937E+02  0.80006587654E+02  0.78979047968E+02  0.13863304708E+03  0.80257966321E+02 0.  0.
          4    1    4    4  501    0 -0.16613085171E+02  0.12517692791E+02  0.99525626142E+01  0.23059504208E+02  0.00000000000E+00 0. -1.
         -3    1    4    4    0  501  0.25550542457E+01 -0.69450194504E+02 -0.38449022942E+02  0.79424084408E+02  0.00000000000E+00 0.  1.
          5    1    3    3  502    0  0.48957033553E+02 -0.52321057574E+02 -0.17002454172E+03  0.18456629971E+03  0.47000000000E+01 0. -1.
         11    1    6    6    0    0 -0.29727862607E+02  0.77917761294E+02  0.85497245680E+02  0.11943492939E+03  0.00000000000E+00 0. -1.
        -12    1    6    6    0    0  0.17936488670E+02  0.20888263595E+01 -0.65181977121E+01  0.19198117689E+02  0.00000000000E+00 0.  1.
         -5    1    5    5    0  503 -0.23107628691E+02  0.29246971632E+02  0.23007980853E+03  0.23312690996E+03  0.47000000000E+01 0.  1.
<mgrwt>
<rscale>  2 0.20715239E+03</rscale>
<asrwt>0</asrwt>
<pdfrwt beam="1">  1       21 0.59180592E-01 0.20733319E+03</pdfrwt>
<pdfrwt beam="2">  1       21 0.42174768E-01 0.20733319E+03</pdfrwt>
<totfact> 0.14303972E+04</totfact>
</mgrwt>
</event>
<event>
12    1  0.2768653E-001  0.1824602E+03  0.7546771E-02  0.1165509E+00
         21   -1    0    0  504  503  0.00000000000E+00  0.00000000000E+00  0.41320447505E+02  0.41320447505E+02  0.00000000000E+00 0. -1.
         21   -1    0    0  502  504 -0.00000000000E+00 -0.00000000000E+00 -0.83266751060E+03  0.83266751060E+03  0.00000000000E+00 0. -1.
          6    2    1    2  502    0 -0.11224915490E+02 -0.57681919098E+02 -0.47636116243E+03  0.51010947423E+03  0.17273828791E+03 0.  0.
         24    2    3    3    0    0 -0.52128420933E+02  0.71840749604E+01 -0.17730445850E+03  0.20134144462E+03  0.79577151973E+02 0.  0.
         -6    2    1    2    0  503  0.11224915490E+02  0.57681919098E+02 -0.31498590066E+03  0.36387848387E+03  0.17244776279E+03 0.  0.
        -24    2    5    5    0    0  0.65533170105E+01  0.94000595978E+02 -0.14931063656E+03  0.19413970440E+03  0.80731038796E+02 0.  0.
          4    1    4    4  501    0 -0.22310876985E+01 -0.20593827113E+02 -0.72378418014E+01  0.21942420591E+02  0.00000000000E+00 0. -1.
         -3    1    4    4    0  501 -0.49897333235E+02  0.27777902073E+02 -0.17006661670E+03  0.17939902403E+03  0.00000000000E+00 0.  1.
          5    1    3    3  502    0  0.40903505443E+02 -0.64865994058E+02 -0.29905670393E+03  0.30876802961E+03  0.47000000000E+01 0. -1.
         11    1    6    6    0    0 -0.32100490531E+02  0.71511591843E+02 -0.83049753567E+02  0.11419987228E+03  0.00000000000E+00 0. -1.
        -12    1    6    6    0    0  0.38653807542E+02  0.22489004135E+02 -0.66260882995E+02  0.79939832122E+02  0.00000000000E+00 0.  1.
         -5    1    5    5    0  503  0.46715984794E+01 -0.36318676880E+02 -0.16567526410E+03  0.16973877948E+03  0.47000000000E+01 0.  1.
<mgrwt>
<rscale>  2 0.18239139E+03</rscale>
<asrwt>0</asrwt>
<pdfrwt beam="1">  1       21 0.63569927E-02 0.18246018E+03</pdfrwt>
<pdfrwt beam="2">  1       21 0.12810268E+00 0.18246018E+03</pdfrwt>
<totfact> 0.80485566E+04</totfact>
</mgrwt>
</event>
<event>
12    1  0.2768653E-001  0.2441921E+03  0.7546771E-02  0.1117509E+00
         21   -1    0    0  504  503  0.00000000000E+00  0.00000000000E+00  0.71346922620E+03  0.71346922620E+03  0.00000000000E+00 0. -1.
         21   -1    0    0  502  504 -0.00000000000E+00 -0.00000000000E+00 -0.11842565475E+03  0.11842565475E+03  0.00000000000E+00 0.  1.
          6    2    1    2  502    0 -0.11148046954E+03  0.13109251935E+03  0.67445771108E+02  0.25052649323E+03  0.16911962646E+03 0.  0.
         24    2    3    3    0    0 -0.36409593657E+01  0.31055017079E+02 -0.53430351618E+01  0.86340129202E+02  0.80301925351E+02 0.  0.
         -6    2    1    2    0  503  0.11148046954E+03 -0.13109251935E+03  0.52759780034E+03  0.58136838771E+03  0.17325305074E+03 0.  0.
        -24    2    5    5    0    0  0.14241581981E+03 -0.12891288897E+03  0.40872999527E+03  0.45843185219E+03  0.78732175084E+02 0.  0.
          2    1    4    4  501    0  0.35198696176E+02 -0.16667404249E+01 -0.46976807349E+01  0.35549886644E+02  0.00000000000E+00 0. -1.
         -1    1    4    4    0  501 -0.38839655542E+02  0.32721757504E+02 -0.64535442689E+00  0.50790242558E+02  0.00000000000E+00 0.  1.
          5    1    3    3  502    0 -0.10783951017E+03  0.10003750227E+03  0.72788806269E+02  0.16418636403E+03  0.47000000000E+01 0. -1.
         11    1    6    6    0    0  0.12016291706E+03 -0.59974385624E+02  0.28495501396E+03  0.31501652901E+03  0.00000000000E+00 0. -1.
        -12    1    6    6    0    0  0.22252902745E+02 -0.68938503349E+02  0.12377498131E+03  0.14341532318E+03  0.00000000000E+00 0.  1.
         -5    1    5    5    0  503 -0.30935350267E+02 -0.21796303809E+01  0.11886780507E+03  0.12293653553E+03  0.47000000000E+01 0.  1.
<mgrwt>
<rscale>  2 0.24346001E+03</rscale>
<asrwt>0</asrwt>
<pdfrwt beam="1">  1       21 0.10976449E+00 0.24419206E+03</pdfrwt>
<pdfrwt beam="2">  1       21 0.18219332E-01 0.24419206E+03</pdfrwt>
<totfact> 0.17481031E+04</totfact>
</mgrwt>
</event>
<event>
12    1  0.2768653E-001  0.1921419E+03  0.7546771E-02  0.1156834E+00
         21   -1    0    0  504  503  0.00000000000E+00  0.00000000000E+00  0.78978625428E+03  0.78978625428E+03  0.00000000000E+00 0. -1.
         21   -1    0    0  502  504 -0.00000000000E+00 -0.00000000000E+00 -0.49047994471E+02  0.49047994471E+02  0.00000000000E+00 0.  1.
          6    2    1    2  502    0 -0.68066166892E+02  0.46761463947E+02  0.27463967921E+03  0.33517972438E+03  0.17349022063E+03 0.  0.
         24    2    3    3    0    0  0.36100965202E+01  0.58989738264E+02  0.22585013112E+03  0.24748977380E+03  0.82158897219E+02 0.  0.
         -6    2    1    2    0  503  0.68066166892E+02 -0.46761463947E+02  0.46609858059E+03  0.50365452437E+03  0.17204753848E+03 0.  0.
        -24    2    5    5    0    0  0.78291528795E+02  0.23153613826E+02  0.24107303045E+03  0.26774932234E+03  0.83113418225E+02 0.  0.
          4    1    4    4  501    0 -0.16742626685E+02  0.62165377824E+02  0.21453662878E+03  0.22398842568E+03  0.00000000000E+00 0. -1.
         -3    1    4    4    0  501  0.20352723205E+02 -0.31756395598E+01  0.11313502336E+02  0.23501348122E+02  0.00000000000E+00 0.  1.
          5    1    3    3  502    0 -0.71676263412E+02 -0.12228274317E+02  0.48789548092E+02  0.87689950579E+02  0.47000000000E+01 0. -1.
         13    1    6    6    0    0  0.31693711709E+02  0.19542498170E+02  0.20958902586E+02  0.42727932249E+02  0.00000000000E+00 0. -1.
        -14    1    6    6    0    0  0.46597817086E+02  0.36111156558E+01  0.22011412787E+03  0.22502139009E+03  0.00000000000E+00 0.  1.
         -5    1    5    5    0  503 -0.10225361903E+02 -0.69915077772E+02  0.22502555014E+03  0.23590520202E+03  0.47000000000E+01 0.  1.
<mgrwt>
<rscale>  2 0.19181562E+03</rscale>
<asrwt>0</asrwt>
<pdfrwt beam="1">  1       21 0.12150557E+00 0.19214186E+03</pdfrwt>
<pdfrwt beam="2">  1       21 0.75458459E-02 0.19214186E+03</pdfrwt>
<totfact> 0.68027829E+04</totfact>
</mgrwt>
</event>
<event>
12    1  0.2768653E-001  0.2309848E+03  0.7546771E-02  0.1126002E+00
         21   -1    0    0  504  503  0.00000000000E+00  0.00000000000E+00  0.44750207354E+03  0.44750207354E+03  0.00000000000E+00 0.  1.
         21   -1    0    0  502  504 -0.00000000000E+00 -0.00000000000E+00 -0.18977473626E+03  0.18977473626E+03  0.00000000000E+00 0.  1.
          6    2    1    2  502    0 -0.89570618834E+02  0.12434448071E+03 -0.65576704075E+02  0.24011301870E+03  0.17282798381E+03 0.  0.
         24    2    3    3    0    0 -0.58389884184E+02  0.21269644949E+01 -0.14248752532E+01  0.98525919624E+02  0.79318497309E+02 0.  0.
         -6    2    1    2    0  503  0.89570618834E+02 -0.12434448071E+03  0.32330404136E+03  0.39716379111E+03  0.17242136807E+03 0.  0.
        -24    2    5    5    0    0  0.18283629575E+02 -0.11708951065E+03  0.27763083505E+03  0.31206031760E+03  0.79110787097E+02 0.  0.
          2    1    4    4  501    0 -0.86048201033E+01 -0.26232799385E+02  0.23296870617E+02  0.36124048405E+02  0.00000000000E+00 0. -1.
         -1    1    4    4    0  501 -0.49785064080E+02  0.28359763880E+02 -0.24721745870E+02  0.62401871220E+02  0.00000000000E+00 0.  1.
          5    1    3    3  502    0 -0.31180734650E+02  0.12221751621E+03 -0.64151828822E+02  0.14158709907E+03  0.47000000000E+01 0. -1.
         13    1    6    6    0    0  0.70174183695E+01 -0.86343496091E+02  0.10392672681E+03  0.13529674062E+03  0.00000000000E+00 0. -1.
        -14    1    6    6    0    0  0.11266211206E+02 -0.30746014563E+02  0.17370410824E+03  0.17676357698E+03  0.00000000000E+00 0.  1.
         -5    1    5    5    0  503  0.71286989258E+02 -0.72549700533E+01  0.45673206307E+02  0.85103473503E+02  0.47000000000E+01 0.  1.
<mgrwt>
<rscale>  2 0.23090870E+03</rscale>
<asrwt>0</asrwt>
<pdfrwt beam="1">  1       21 0.68846473E-01 0.23098476E+03</pdfrwt>
<pdfrwt beam="2">  1       21 0.29196113E-01 0.23098476E+03</pdfrwt>
<totfact> 0.21128473E+04</totfact>
</mgrwt>
</event>
<event>
12    1  0.2768653E-001  0.1871198E+03  0.7546771E-02  0.1161728E+00
         21   -1    0    0  504  503  0.00000000000E+00  0.00000000000E+00  0.48271591209E+03  0.48271591209E+03  0.00000000000E+00 0.  1.
         21   -1    0    0  502  504 -0.00000000000E+00 -0.00000000000E+00 -0.10968918679E+03  0.10968918679E+03  0.00000000000E+00 0.  1.
          6    2    1    2  502    0 -0.30174171655E+02  0.55427362375E+02  0.12568169504E+02  0.18754144296E+03  0.17615663714E+03 0.  0.
         24    2    3    3    0    0 -0.11853147632E+02  0.44849401228E+02 -0.60580180909E+02  0.11125039269E+03  0.80961260217E+02 0.  0.
         -6    2    1    2    0  503  0.30174171655E+02 -0.55427362375E+02  0.36045855580E+03  0.40486365592E+03  0.17320951562E+03 0.  0.
        -24    2    5    5    0    0 -0.78627597232E+01 -0.93697023776E+02  0.20335415620E+03  0.23868526531E+03  0.82321247418E+02 0.  0.
          2    1    4    4  501    0 -0.11258959928E+02 -0.77067296687E+01 -0.56954529389E+02  0.58565999341E+02  0.00000000000E+00 0. -1.
         -1    1    4    4    0  501 -0.59418770393E+00  0.52556130897E+02 -0.36256515196E+01  0.52684393351E+02  0.00000000000E+00 0.  1.
          5    1    3    3  502    0 -0.18321024022E+02  0.10577961147E+02  0.73148350413E+02  0.76291050271E+02  0.47000000000E+01 0. -1.
         13    1    6    6    0    0 -0.23421002475E+02 -0.53035640933E+02  0.42080622834E+02  0.71638686366E+02  0.00000000000E+00 0. -1.
        -14    1    6    6    0    0  0.15558242752E+02 -0.40661382843E+02  0.16127353336E+03  0.16704657894E+03  0.00000000000E+00 0.  1.
         -5    1    5    5    0  503  0.38036931378E+02  0.38269661401E+02  0.15710439960E+03  0.16617839061E+03  0.47000000000E+01 0.  1.
<mgrwt>
<rscale>  2 0.18642301E+03</rscale>
<asrwt>0</asrwt>
<pdfrwt beam="1">  1       21 0.74263985E-01 0.18711984E+03</pdfrwt>
<pdfrwt beam="2">  1       21 0.16875260E-01 0.18711984E+03</pdfrwt>
<totfact> 0.51530609E+04</totfact>
</mgrwt>
</event>
<event>
12    1  0.2768653E-001  0.3575362E+03  0.7546771E-02  0.1059579E+00
         21   -1    0    0  504  503  0.00000000000E+00  0.00000000000E+00  0.31471843127E+04  0.31471843127E+04  0.00000000000E+00 0.  1.
         21   -1    0    0  502  504 -0.00000000000E+00 -0.00000000000E+00 -0.18894958350E+03  0.18894958350E+03  0.00000000000E+00 0.  1.
          6    2    1    2  502    0  0.18489456714E+03 -0.25220842604E+03  0.10206296853E+01  0.35738459828E+03  0.17299600652E+03 0.  0.
         24    2    3    3    0    0  0.17056489217E+03 -0.26769030194E+03  0.19176816989E+02  0.32915756861E+03  0.85008672913E+02 0.  0.
         -6    2    1    2    0  503 -0.18489456714E+03  0.25220842604E+03  0.29572140995E+04  0.29787492979E+04  0.17331202603E+03 0.  0.
        -24    2    5    5    0    0 -0.32088762086E+02  0.41265361498E+02  0.88323998305E+03  0.88847723039E+03  0.80909842099E+02 0.  0.
          4    1    4    4  501    0  0.50224472901E+02 -0.15791484362E+03  0.92259216778E+01  0.16596599997E+03  0.00000000000E+00 0. -1.
         -3    1    4    4    0  501  0.12034041927E+03 -0.10977545832E+03  0.99508953108E+01  0.16319156865E+03  0.00000000000E+00 0.  1.
          5    1    3    3  502    0  0.14329674971E+02  0.15481875899E+02 -0.18156187303E+02  0.28227029661E+02  0.47000000000E+01 0. -1.
         13    1    6    6    0    0  0.73275305932E+01  0.54260079718E+02  0.48537427157E+03  0.48845269214E+03  0.00000000000E+00 0. -1.
        -14    1    6    6    0    0 -0.39416292679E+02 -0.12994718220E+02  0.39786571148E+03  0.40002453825E+03  0.00000000000E+00 0.  1.
         -5    1    5    5    0  503 -0.15280580506E+03  0.21094306454E+03  0.20739741164E+04  0.20902720675E+04  0.47000000000E+01 0.  1.
<mgrwt>
<rscale>  2 0.35749795E+03</rscale>
<asrwt>0</asrwt>
<pdfrwt beam="1">  1       21 0.48418216E+00 0.35753622E+03</pdfrwt>
<pdfrwt beam="2">  1       21 0.29069169E-01 0.35753622E+03</pdfrwt>
<totfact> 0.21849443E+01</totfact>
</mgrwt>
</event>
<event>
12    1  0.2768653E-001  0.1794498E+03  0.7546771E-02  0.1168368E+00
         21   -1    0    0  504  503  0.00000000000E+00  0.00000000000E+00  0.24545038720E+03  0.24545038720E+03  0.00000000000E+00 0.  1.
         21   -1    0    0  502  504 -0.00000000000E+00 -0.00000000000E+00 -0.25863898851E+03  0.25863898851E+03  0.00000000000E+00 0.  1.
          6    2    1    2  502    0 -0.23929498940E+02 -0.41584591091E+02 -0.18358469756E+03  0.25672077278E+03  0.17291707511E+03 0.  0.
         24    2    3    3    0    0  0.39167387581E+02 -0.65033996906E+02 -0.12928419118E+03  0.17010826378E+03  0.80367370957E+02 0.  0.
         -6    2    1    2    0  503  0.23929498940E+02  0.41584591091E+02  0.17039609626E+03  0.24736860293E+03  0.17278453912E+03 0.  0.
        -24    2    5    5    0    0  0.62268184483E+02  0.58659229011E+01  0.38804641889E+02  0.10565029455E+03  0.75792141128E+02 0.  0.
          2    1    4    4  501    0 -0.22065823460E+02 -0.33947629347E+02 -0.61390603824E+02  0.73540113823E+02  0.00000000000E+00 0. -1.
         -1    1    4    4    0  501  0.61233211042E+02 -0.31086367560E+02 -0.67893587356E+02  0.96568149959E+02  0.00000000000E+00 0.  1.
          5    1    3    3  502    0 -0.63096886521E+02  0.23449405815E+02 -0.54300506380E+02  0.86612508998E+02  0.47000000000E+01 0. -1.
         11    1    6    6    0    0 -0.87402633440E+01 -0.49389187457E+01 -0.13481601842E+02  0.16808887826E+02  0.00000000000E+00 0. -1.
        -12    1    6    6    0    0  0.71008447827E+02  0.10804841647E+02  0.52286243731E+02  0.88841406727E+02  0.00000000000E+00 0.  1.
         -5    1    5    5    0  503 -0.38338685543E+02  0.35718668190E+02  0.13159145437E+03  0.14171830838E+03  0.47000000000E+01 0.  1.
<mgrwt>
<rscale>  2 0.17941782E+03</rscale>
<asrwt>0</asrwt>
<pdfrwt beam="1">  1       21 0.37761598E-01 0.17944975E+03</pdfrwt>
<pdfrwt beam="2">  1       21 0.39790613E-01 0.17944975E+03</pdfrwt>
<totfact> 0.41444047E+04</totfact>
</mgrwt>
</event>
<event>
12    1  0.2768653E-001  0.2440662E+03  0.7546771E-02  0.1118352E+00
         21   -1    0    0  504  503  0.00000000000E+00  0.00000000000E+00  0.51144377657E+03  0.51144377657E+03  0.00000000000E+00 0.  1.
         21   -1    0    0  502  504 -0.00000000000E+00 -0.00000000000E+00 -0.11580898976E+03  0.11580898976E+03  0.00000000000E+00 0. -1.
          6    2    1    2  502    0  0.14854580184E+03 -0.62490158106E+02  0.15138380077E+03  0.28720266580E+03  0.18329604743E+03 0.  0.
         24    2    3    3    0    0  0.31869024174E+02 -0.67786262262E+02  0.12570122301E+03  0.16752307704E+03  0.81563299467E+02 0.  0.
         -6    2    1    2    0  503 -0.14854580184E+03  0.62490158106E+02  0.24425098605E+03  0.34005010053E+03  0.17321850819E+03 0.  0.
        -24    2    5    5    0    0 -0.19434778941E+02  0.48715020275E+02  0.15382874503E+03  0.18175391508E+03  0.81365465754E+02 0.  0.
          4    1    4    4  501    0  0.48359614425E+02 -0.40693584747E+02  0.36805330029E+02  0.73138583972E+02  0.00000000000E+00 0. -1.
         -3    1    4    4    0  501 -0.16490590251E+02 -0.27092677516E+02  0.88895892986E+02  0.94384493067E+02  0.00000000000E+00 0.  1.
          5    1    3    3  502    0  0.11667677767E+03  0.52961041563E+01  0.25682577754E+02  0.11967958876E+03  0.47000000000E+01 0. -1.
         11    1    6    6    0    0 -0.43109259527E+02  0.55138743006E+02  0.12950675351E+03  0.14720967509E+03  0.00000000000E+00 0. -1.
        -12    1    6    6    0    0  0.23674480586E+02 -0.64237227312E+01  0.24321991520E+02  0.34544239987E+02  0.00000000000E+00 0.  1.
         -5    1    5    5    0  503 -0.12911102290E+03  0.13775137831E+02  0.90422241022E+02  0.15829618545E+03  0.47000000000E+01 0.  1.
<mgrwt>
<rscale>  2 0.24217568E+03</rscale>
<asrwt>0</asrwt>
<pdfrwt beam="1">  1       21 0.78683657E-01 0.24406621E+03</pdfrwt>
<pdfrwt beam="2">  1       21 0.17816768E-01 0.24406621E+03</pdfrwt>
<totfact> 0.39846886E+04</totfact>
</mgrwt>
</event>
<event>
12    1  0.2768653E-001  0.2025065E+03  0.7546771E-02  0.1149423E+00
         21   -1    0    0  504  503  0.00000000000E+00  0.00000000000E+00  0.31863244436E+03  0.31863244436E+03  0.00000000000E+00 0.  1.
         21   -1    0    0  502  504 -0.00000000000E+00 -0.00000000000E+00 -0.13978910101E+03  0.13978910101E+03  0.00000000000E+00 0.  1.
          6    2    1    2  502    0  0.88588927511E+02 -0.64507546551E+01  0.93383437468E+01  0.19433662059E+03  0.17259752932E+03 0.  0.
         24    2    3    3    0    0  0.24664080031E+02 -0.62763568407E+02  0.10389883982E+02  0.10900951555E+03  0.85014954145E+02 0.  0.
         -6    2    1    2    0  503 -0.88588927511E+02  0.64507546551E+01  0.16950499959E+03  0.26408492478E+03  0.18198706628E+03 0.  0.
        -24    2    5    5    0    0 -0.48339884923E+02 -0.68211849257E+02  0.86034400213E+02  0.14498865778E+03  0.81425991001E+02 0.  0.
          4    1    4    4  501    0  0.30270926096E+02 -0.80203165318E+02 -0.38426096093E+01  0.85811667869E+02  0.00000000000E+00 0. -1.
         -3    1    4    4    0  501 -0.56068460649E+01  0.17439596911E+02  0.14232493592E+02  0.23197847681E+02  0.00000000000E+00 0.  1.
          5    1    3    3  502    0  0.63924847481E+02  0.56312813752E+02 -0.10515402354E+01  0.85327105043E+02  0.47000000000E+01 0. -1.
         11    1    6    6    0    0  0.50032703036E+01 -0.13722205737E+02  0.63956690628E+02  0.65603276749E+02  0.00000000000E+00 0. -1.
        -12    1    6    6    0    0 -0.53343155227E+02 -0.54489643520E+02  0.22077709585E+02  0.79385381028E+02  0.00000000000E+00 0.  1.
         -5    1    5    5    0  503 -0.40249042588E+02  0.74662603912E+02  0.83470599381E+02  0.11909626700E+03  0.47000000000E+01 0.  1.
<mgrwt>
<rscale>  2 0.20037451E+03</rscale>
<asrwt>0</asrwt>
<pdfrwt beam="1">  1       21 0.49020376E-01 0.20250655E+03</pdfrwt>
<pdfrwt beam="2">  1       21 0.21506016E-01 0.20250655E+03</pdfrwt>
<totfact> 0.79654668E+04</totfact>
</mgrwt>
</event>
<event>
12    1  0.2768653E-001  0.3386355E+03  0.7546771E-02  0.1067581E+00
         21   -1    0    0  504  503  0.00000000000E+00  0.00000000000E+00  0.57469796458E+03  0.57469796458E+03  0.00000000000E+00 0.  1.
         21   -1    0    0  502  504 -0.00000000000E+00 -0.00000000000E+00 -0.21748823067E+03  0.21748823067E+03  0.00000000000E+00 0.  1.
          6    2    1    2  502    0 -0.18082210224E+03 -0.22747516555E+03  0.60889798320E+02  0.34220900339E+03  0.17017006453E+03 0.  0.
         24    2    3    3    0    0 -0.19440967497E+03 -0.18571014206E+03  0.83168285524E+02  0.29273820076E+03  0.80593497783E+02 0.  0.
         -6    2    1    2    0  503  0.18082210224E+03  0.22747516555E+03  0.29631993559E+03  0.44997719186E+03  0.17387462544E+03 0.  0.
        -24    2    5    5    0    0  0.18984609578E+03  0.21454414349E+03  0.21550494792E+03  0.36750419009E+03  0.80908698919E+02 0.  0.
          4    1    4    4  501    0 -0.18862912878E+03 -0.15029872779E+03  0.87564955245E+02  0.25658970592E+03  0.00000000000E+00 0. -1.
         -3    1    4    4    0  501 -0.57805461919E+01 -0.35411414266E+02 -0.43966697207E+01  0.36148494840E+02  0.00000000000E+00 0.  1.
          5    1    3    3  502    0  0.13587572732E+02 -0.41765023497E+02 -0.22278487204E+02  0.49470802627E+02  0.47000000000E+01 0. -1.
         11    1    6    6    0    0  0.20476769266E+02  0.55028248848E+02  0.15584210732E+02  0.60747624439E+02  0.00000000000E+00 0. -1.
        -12    1    6    6    0    0  0.16936932652E+03  0.15951589464E+03  0.19992073719E+03  0.30675656565E+03  0.00000000000E+00 0.  1.
         -5    1    5    5    0  503 -0.90239935451E+01  0.12931022061E+02  0.80814987665E+02  0.82473001778E+02  0.47000000000E+01 0.  1.
<mgrwt>
<rscale>  2 0.33816268E+03</rscale>
<asrwt>0</asrwt>
<pdfrwt beam="1">  1       21 0.88415071E-01 0.33863545E+03</pdfrwt>
<pdfrwt beam="2">  1       21 0.33459728E-01 0.33863545E+03</pdfrwt>
<totfact> 0.86969987E+03</totfact>
</mgrwt>
</event>
<event>
12    1  0.2768653E-001  0.1803502E+03  0.7546771E-02  0.1167734E+00
         21   -1    0    0  504  503  0.00000000000E+00  0.00000000000E+00  0.10628656810E+04  0.10628656810E+04  0.00000000000E+00 0.  1.
         21   -1    0    0  502  504 -0.00000000000E+00 -0.00000000000E+00 -0.39191901341E+02  0.39191901341E+02  0.00000000000E+00 0.  1.
          6    2    1    2  502    0 -0.44864924934E+01 -0.52391062923E+02  0.24982937235E+03  0.30747507805E+03  0.17135126567E+03 0.  0.
         24    2    3    3    0    0 -0.15082332526E+02 -0.91398299224E+02  0.23257439983E+03  0.26327484744E+03  0.81496429252E+02 0.  0.
         -6    2    1    2    0  503  0.44864924934E+01  0.52391062923E+02  0.77384440734E+03  0.79458250432E+03  0.17251445536E+03 0.  0.
        -24    2    5    5    0    0  0.48616715392E+02  0.12162616464E+02  0.24419917193E+03  0.26156095704E+03  0.79179444419E+02 0.  0.
          2    1    4    4  501    0 -0.40124391997E+02 -0.66037691290E+02  0.20214668005E+03  0.21641216177E+03  0.00000000000E+00 0. -1.
         -1    1    4    4    0  501  0.25042059471E+02 -0.25360607933E+02  0.30427719776E+02  0.46862685668E+02  0.00000000000E+00 0.  1.
          5    1    3    3  502    0  0.10595840033E+02  0.39007236301E+02  0.17254972519E+02  0.44200230616E+02  0.47000000000E+01 0. -1.
         13    1    6    6    0    0  0.88467073834E+01  0.43092445006E+01 -0.35921624229E+01  0.10475564451E+02  0.00000000000E+00 0. -1.
        -14    1    6    6    0    0  0.39770008008E+02  0.78533719630E+01  0.24779133435E+03  0.25108539258E+03  0.00000000000E+00 0.  1.
         -5    1    5    5    0  503 -0.44130222898E+02  0.40228446459E+02  0.52964523541E+03  0.53302154728E+03  0.47000000000E+01 0.  1.
<mgrwt>
<rscale>  2 0.18007146E+03</rscale>
<asrwt>0</asrwt>
<pdfrwt beam="1">  1       21 0.16351778E+00 0.18035019E+03</pdfrwt>
<pdfrwt beam="2">  1       21 0.60295241E-02 0.18035019E+03</pdfrwt>
<totfact> 0.46740249E+04</totfact>
</mgrwt>
</event>
<event>
12    1  0.2768653E-001  0.2285687E+03  0.7546771E-02  0.1128637E+00
         21   -1    0    0  504  503  0.00000000000E+00  0.00000000000E+00  0.82279175620E+02  0.82279175620E+02  0.00000000000E+00 0. -1.
         21   -1    0    0  502  504 -0.00000000000E+00 -0.00000000000E+00 -0.65331156759E+03  0.65331156759E+03  0.00000000000E+00 0. -1.
          6    2    1    2  502    0  0.14570460661E+03  0.33067494807E+02 -0.20552499223E+03  0.30738274360E+03  0.17297496070E+03 0.  0.
         24    2    3    3    0    0  0.79077608236E+02  0.52696655079E+02 -0.20258694671E+03  0.23770360069E+03  0.80195543644E+02 0.  0.
         -6    2    1    2    0  503 -0.14570460661E+03 -0.33067494807E+02 -0.36550739974E+03  0.42820799961E+03  0.16565971166E+03 0.  0.
        -24    2    5    5    0    0 -0.15484173453E+03 -0.63385740163E+02 -0.33943206357E+03  0.38692003206E+03  0.80618053952E+02 0.  0.
          2    1    4    4  501    0  0.91059913197E+02  0.57450844866E+02 -0.19498856521E+03  0.22273986606E+03  0.00000000000E+00 0. -1.
         -1    1    4    4    0  501 -0.11982304960E+02 -0.47541897869E+01 -0.75983815019E+01  0.14963734632E+02  0.00000000000E+00 0.  1.
          5    1    3    3  502    0  0.66626998374E+02 -0.19629160272E+02 -0.29380455164E+01  0.69679142910E+02  0.47000000000E+01 0. -1.
         11    1    6    6    0    0 -0.16003708233E+03 -0.46098498073E+02 -0.31737220226E+03  0.35841603482E+03  0.00000000000E+00 0. -1.
        -12    1    6    6    0    0  0.51953478045E+01 -0.17287242090E+02 -0.22059861307E+02  0.28503997243E+02  0.00000000000E+00 0.  1.
         -5    1    5    5    0  503  0.91371279174E+01  0.30318245356E+02 -0.26075336170E+02  0.41287967550E+02  0.47000000000E+01 0.  1.
<mgrwt>
<rscale>  2 0.22718495E+03</rscale>
<asrwt>0</asrwt>
<pdfrwt beam="1">  1       21 0.12658334E-01 0.22856865E+03</pdfrwt>
<pdfrwt beam="2">  1       21 0.10050948E+00 0.22856865E+03</pdfrwt>
<totfact> 0.42469098E+04</totfact>
</mgrwt>
</event>
<event>
12    1  0.2768653E-001  0.1929907E+03  0.7546771E-02  0.1155910E+00
         21   -1    0    0  504  503  0.00000000000E+00  0.00000000000E+00  0.35815762022E+03  0.35815762022E+03  0.00000000000E+00 0. -1.
         21   -1    0    0  502  504 -0.00000000000E+00 -0.00000000000E+00 -0.13204486880E+03  0.13204486880E+03  0.00000000000E+00 0. -1.
          6    2    1    2  502    0  0.52083042525E+02 -0.65165927714E+02 -0.37265667667E+00  0.19299104359E+03  0.17402920036E+03 0.  0.
         24    2    3    3    0    0 -0.21604366678E+02 -0.82729102679E+02 -0.73179847906E+00  0.11709296474E+03  0.79996085985E+02 0.  0.
         -6    2    1    2    0  503 -0.52083042525E+02  0.65165927714E+02  0.22648540810E+03  0.29721144542E+03  0.17343518027E+03 0.  0.
        -24    2    5    5    0    0 -0.10207781707E+03  0.56761618385E+02  0.15467010664E+03  0.20917942045E+03  0.78685614898E+02 0.  0.
          4    1    4    4  501    0 -0.36036813830E+02 -0.83411802860E+02  0.18809739306E+02  0.92790016167E+02  0.00000000000E+00 0. -1.
         -3    1    4    4    0  501  0.14432447152E+02  0.68270018170E+00 -0.19541537786E+02  0.24302948573E+02  0.00000000000E+00 0.  1.
          5    1    3    3  502    0  0.73687409204E+02  0.17563174965E+02  0.35914180239E+00  0.75898078848E+02  0.47000000000E+01 0. -1.
         11    1    6    6    0    0 -0.17119092857E+02  0.52882801437E+02  0.66606836964E+02  0.86753240622E+02  0.00000000000E+00 0. -1.
        -12    1    6    6    0    0 -0.84958724217E+02  0.38788169480E+01  0.88063269679E+02  0.12242617983E+03  0.00000000000E+00 0.  1.
         -5    1    5    5    0  503  0.49994774549E+02  0.84043093286E+01  0.71815301455E+02  0.88032024971E+02  0.47000000000E+01 0.  1.
<mgrwt>
<rscale>  2 0.19285667E+03</rscale>
<asrwt>0</asrwt>
<pdfrwt beam="1">  1       21 0.55101172E-01 0.19299068E+03</pdfrwt>
<pdfrwt beam="2">  1       21 0.20314595E-01 0.19299068E+03</pdfrwt>
<totfact> 0.69653467E+04</totfact>
</mgrwt>
</event>
<event>
12    1  0.2768653E-001  0.2391545E+03  0.7546771E-02  0.1120418E+00
         21   -1    0    0  504  503  0.00000000000E+00  0.00000000000E+00  0.66539642650E+03  0.66539642650E+03  0.00000000000E+00 0. -1.
         21   -1    0    0  502  504 -0.00000000000E+00 -0.00000000000E+00 -0.18770324894E+03  0.18770324894E+03  0.00000000000E+00 0.  1.
          6    2    1    2  502    0 -0.93751711748E+02  0.13520855131E+03 -0.75483430382E+02  0.25043953866E+03  0.17306495445E+03 0.  0.
         24    2    3    3    0    0 -0.90085144405E+02  0.95917035863E+02  0.11411296502E+02  0.15488824111E+03  0.80899558318E+02 0.  0.
         -6    2    1    2    0  503  0.93751711748E+02 -0.13520855131E+03  0.55317660794E+03  0.60266013678E+03  0.17356308678E+03 0.  0.
        -24    2    5    5    0    0  0.71377340676E+02 -0.88918207839E+02  0.19429912307E+03  0.24008800944E+03  0.82999581947E+02 0.  0.
          2    1    4    4  501    0 -0.42577698797E+02 -0.48246297110E+01  0.70101873064E+01  0.43419813597E+02  0.00000000000E+00 0. -1.
         -1    1    4    4    0  501 -0.47507445608E+02  0.10074166557E+03  0.44011091958E+01  0.11146842752E+03  0.00000000000E+00 0.  1.
          5    1    3    3  502    0 -0.36665673426E+01  0.39291515451E+02 -0.86894726885E+02  0.95551297547E+02  0.47000000000E+01 0. -1.
         13    1    6    6    0    0  0.84668074423E+02 -0.90360592840E+02  0.18845599319E+03  0.22549807302E+03  0.00000000000E+00 0. -1.
        -14    1    6    6    0    0 -0.13290733747E+02  0.14423850009E+01  0.58431298798E+01  0.14589936423E+02  0.00000000000E+00 0.  1.
         -5    1    5    5    0  503  0.22374371072E+02 -0.46290343474E+02  0.35887748487E+03  0.36257212734E+03  0.47000000000E+01 0.  1.
<mgrwt>
<rscale>  2 0.23906414E+03</rscale>
<asrwt>0</asrwt>
<pdfrwt beam="1">  1       21 0.10236868E+00 0.23915451E+03</pdfrwt>
<pdfrwt beam="2">  1       21 0.28877423E-01 0.23915451E+03</pdfrwt>
<totfact> 0.86363661E+03</totfact>
</mgrwt>
</event>
<event>
12    1  0.2768653E-001  0.2123955E+03  0.7546771E-02  0.1143081E+00
         21   -1    0    0  504  503  0.00000000000E+00  0.00000000000E+00  0.39689593527E+03  0.39689593527E+03  0.00000000000E+00 0. -1.
         21   -1    0    0  502  504 -0.00000000000E+00 -0.00000000000E+00 -0.23791259533E+03  0.23791259533E+03  0.00000000000E+00 0. -1.
          6    2    1    2  502    0  0.89047252650E+02  0.20395213306E+02 -0.15630491161E+03  0.26371023672E+03  0.19174588816E+03 0.  0.
         24    2    3    3    0    0  0.27204765392E+02  0.73575066192E+02 -0.14076261876E+03  0.18054628509E+03  0.81421475012E+02 0.  0.
         -6    2    1    2    0  503 -0.89047252650E+02 -0.20395213306E+02  0.31528825156E+03  0.37109829388E+03  0.17309501501E+03 0.  0.
        -24    2    5    5    0    0 -0.25602357265E+02 -0.76654968232E+02  0.15763392140E+03  0.19202458674E+03  0.74118310032E+02 0.  0.
          2    1    4    4  501    0 -0.27751777802E+02  0.34961100936E+02 -0.69675668503E+02  0.82747438215E+02  0.00000000000E+00 0. -1.
         -1    1    4    4    0  501  0.54956543193E+02  0.38613965257E+02 -0.71086950260E+02  0.97798846874E+02  0.00000000000E+00 0.  1.
          5    1    3    3  502    0  0.61842487259E+02 -0.53179852886E+02 -0.15542292847E+02  0.83163951627E+02  0.47000000000E+01 0. -1.
         13    1    6    6    0    0 -0.47588926784E+02 -0.36797213377E+02  0.11436613050E+03  0.12922210596E+03  0.00000000000E+00 0. -1.
        -14    1    6    6    0    0  0.21986569519E+02 -0.39857754855E+02  0.43267790907E+02  0.62802480773E+02  0.00000000000E+00 0.  1.
         -5    1    5    5    0  503 -0.63444895385E+02  0.56259754926E+02  0.15765433015E+03  0.17907370715E+03  0.47000000000E+01 0.  1.
<mgrwt>
<rscale>  2 0.20809861E+03</rscale>
<asrwt>0</asrwt>
<pdfrwt beam="1">  1       21 0.61060913E-01 0.21239554E+03</pdfrwt>
<pdfrwt beam="2">  1       21 0.36601938E-01 0.21239554E+03</pdfrwt>
<totfact> 0.17749214E+04</totfact>
</mgrwt>
</event>
<event>
12    1  0.2768653E-001  0.1806676E+03  0.7546771E-02  0.1167444E+00
         21   -1    0    0  504  503  0.00000000000E+00  0.00000000000E+00  0.73182572591E+02  0.73182572591E+02  0.00000000000E+00 0.  1.
         21   -1    0    0  502  504 -0.00000000000E+00 -0.00000000000E+00 -0.13485644144E+04  0.13485644144E+04  0.00000000000E+00 0.  1.
          6    2    1    2  502    0  0.45177868910E+02  0.14267751040E+02 -0.12208677114E+04  0.12341631729E+04  0.17434494550E+03 0.  0.
         24    2    3    3    0    0  0.76574356026E+02  0.40578569299E+02 -0.11071580935E+04  0.11132087775E+04  0.76970682807E+02 0.  0.
         -6    2    1    2    0  503 -0.45177868910E+02 -0.14267751040E+02 -0.54514130421E+02  0.18758381411E+03  0.17312217750E+03 0.  0.
        -24    2    5    5    0    0 -0.43303318382E+02 -0.45556937522E+02  0.20553527154E+02  0.10609902815E+03  0.82969538721E+02 0.  0.
          2    1    4    4  501    0  0.37224218044E+01  0.58472405932E+00 -0.53817518360E+03  0.53818837461E+03  0.00000000000E+00 0. -1.
         -1    1    4    4    0  501  0.72851934221E+02  0.39993845240E+02 -0.56898290995E+03  0.57502040294E+03  0.00000000000E+00 0.  1.
          5    1    3    3  502    0 -0.31396487115E+02 -0.26310818259E+02 -0.11370961784E+03  0.12095439533E+03  0.47000000000E+01 0. -1.
         13    1    6    6    0    0 -0.10899477086E+02 -0.56785525698E+02 -0.11730146928E+02  0.58999922682E+02  0.00000000000E+00 0. -1.
        -14    1    6    6    0    0 -0.32403841296E+02  0.11228588176E+02  0.32283674083E+02  0.47099105463E+02  0.00000000000E+00 0.  1.
         -5    1    5    5    0  503 -0.18745505286E+01  0.31289186482E+02 -0.75067657575E+02  0.81484785968E+02  0.47000000000E+01 0.  1.
<mgrwt>
<rscale>  2 0.18037192E+03</rscale>
<asrwt>0</asrwt>
<pdfrwt beam="1">  1       21 0.11258858E-01 0.18066756E+03</pdfrwt>
<pdfrwt beam="2">  1       21 0.20747143E+00 0.18066756E+03</pdfrwt>
<totfact> 0.80004279E+03</totfact>
</mgrwt>
</event>
<event>
12    1  0.2768653E-001  0.1968964E+03  0.7546771E-02  0.1153958E+00
         21   -1    0    0  504  503  0.00000000000E+00  0.00000000000E+00  0.24759024748E+03  0.24759024748E+03  0.00000000000E+00 0.  1.
         21   -1    0    0  502  504 -0.00000000000E+00 -0.00000000000E+00 -0.16148555804E+03  0.16148555804E+03  0.00000000000E+00 0.  1.
          6    2    1    2  502    0 -0.77148696374E+02  0.23907763867E+02 -0.99639894194E+01  0.18999279568E+03  0.17168132921E+03 0.  0.
         24    2    3    3    0    0  0.96893036865E+01  0.46944150114E+02  0.20838775520E+02  0.94901188929E+02  0.79210764793E+02 0.  0.
         -6    2    1    2    0  503  0.77148696374E+02 -0.23907763867E+02  0.96068678859E+02  0.21908300985E+03  0.17956801392E+03 0.  0.
        -24    2    5    5    0    0  0.49729212967E+02 -0.79350118912E+02  0.97222072639E+02  0.15704186931E+03  0.80253232415E+02 0.  0.
          2    1    4    4  501    0  0.89956717328E+01 -0.39968234389E+01 -0.24687526315E+02  0.26577634641E+02  0.00000000000E+00 0. -1.
         -1    1    4    4    0  501  0.69363195370E+00  0.50940973553E+02  0.45526301835E+02  0.68323554288E+02  0.00000000000E+00 0.  1.
          5    1    3    3  502    0 -0.86838000060E+02 -0.23036386247E+02 -0.30802764940E+02  0.95091606747E+02  0.47000000000E+01 0. -1.
         11    1    6    6    0    0 -0.19021529293E+01 -0.67045209652E+02  0.36385336460E+02  0.76305773257E+02  0.00000000000E+00 0. -1.
        -12    1    6    6    0    0  0.51631365896E+02 -0.12304909260E+02  0.60836736180E+02  0.80736096049E+02  0.00000000000E+00 0.  1.
         -5    1    5    5    0  503  0.27419483407E+02  0.55442355045E+02 -0.11533937807E+01  0.62041140548E+02  0.47000000000E+01 0.  1.
<mgrwt>
<rscale>  2 0.19508012E+03</rscale>
<asrwt>0</asrwt>
<pdfrwt beam="1">  1       21 0.38090807E-01 0.19689635E+03</pdfrwt>
<pdfrwt beam="2">  1       21 0.24843932E-01 0.19689635E+03</pdfrwt>
<totfact> 0.10171600E+05</totfact>
</mgrwt>
</event>
<event>
12    1  0.2768653E-001  0.2350302E+03  0.7546771E-02  0.1123235E+00
         21   -1    0    0  504  503  0.00000000000E+00  0.00000000000E+00  0.13252245593E+03  0.13252245593E+03  0.00000000000E+00 0. -1.
         21   -1    0    0  502  504 -0.00000000000E+00 -0.00000000000E+00 -0.41803353412E+03  0.41803353412E+03  0.00000000000E+00 0.  1.
          6    2    1    2  502    0 -0.11650061279E+03  0.10933781269E+03 -0.12340774264E+03  0.26545933367E+03  0.17237179824E+03 0.  0.
         24    2    3    3    0    0 -0.45806004844E+01  0.32997758393E+02 -0.34672593421E+01  0.84457392859E+02  0.77531898993E+02 0.  0.
         -6    2    1    2    0  503  0.11650061279E+03 -0.10933781269E+03 -0.16210333555E+03  0.28509665637E+03  0.17168419268E+03 0.  0.
        -24    2    5    5    0    0  0.74273744463E+01 -0.34119375829E+02 -0.11438867439E+03  0.14419398267E+03  0.80547117344E+02 0.  0.
          4    1    4    4  501    0  0.26677470178E+02  0.32035957017E+02  0.19135831297E+02  0.45871232777E+02  0.00000000000E+00 0. -1.
         -3    1    4    4    0  501 -0.31258070662E+02  0.96180137524E+00 -0.22603090639E+02  0.38586160082E+02  0.00000000000E+00 0.  1.
          5    1    3    3  502    0 -0.11192001231E+03  0.76340054293E+02 -0.11994048330E+03  0.18100194082E+03  0.47000000000E+01 0. -1.
         13    1    6    6    0    0 -0.18891496332E+01  0.19444366573E+02 -0.23705846776E+01  0.19679226343E+02  0.00000000000E+00 0. -1.
        -14    1    6    6    0    0  0.93165240794E+01 -0.53563742402E+02 -0.11201808971E+03  0.12451475633E+03  0.00000000000E+00 0.  1.
         -5    1    5    5    0  503  0.10907323835E+03 -0.75218436856E+02 -0.47714661158E+02  0.14090267370E+03  0.47000000000E+01 0.  1.
<mgrwt>
<rscale>  2 0.23490413E+03</rscale>
<asrwt>0</asrwt>
<pdfrwt beam="1">  1       21 0.20388070E-01 0.23503018E+03</pdfrwt>
<pdfrwt beam="2">  1       21 0.64312851E-01 0.23503018E+03</pdfrwt>
<totfact> 0.48696289E+04</totfact>
</mgrwt>
</event>
<event>
12    1  0.2768653E-001  0.1778861E+03  0.7546771E-02  0.1169935E+00
         21   -1    0    0  504  503  0.00000000000E+00  0.00000000000E+00  0.12475846516E+04  0.12475846516E+04  0.00000000000E+00 0.  1.
         21   -1    0    0  502  504 -0.00000000000E+00 -0.00000000000E+00 -0.10301723798E+03  0.10301723798E+03  0.00000000000E+00 0.  1.
          6    2    1    2  502    0  0.16327944885E+01  0.41023737289E+02 -0.14287854087E+02  0.17817321407E+03  0.17278871027E+03 0.  0.
         24    2    3    3    0    0  0.56648845116E+02  0.13014231393E+02 -0.33256501439E+02  0.11341830823E+03  0.91538275507E+02 0.  0.
         -6    2    1    2    0  503 -0.16327944885E+01 -0.41023737289E+02  0.11588552677E+04  0.11724286755E+04  0.17308337477E+03 0.  0.
        -24    2    5    5    0    0 -0.39638788992E+02  0.29346242173E+02  0.47796896199E+03  0.48684524445E+03  0.78304073304E+02 0.  0.
          4    1    4    4  501    0  0.23612664201E+01  0.10086900660E+02  0.28982357011E+02  0.30778209207E+02  0.00000000000E+00 0. -1.
         -3    1    4    4    0  501  0.54287578696E+02  0.29273307329E+01 -0.62238858451E+02  0.82640099027E+02  0.00000000000E+00 0.  1.
          5    1    3    3  502    0 -0.55016050627E+02  0.28009505897E+02  0.18968647352E+02  0.64754905834E+02  0.47000000000E+01 0. -1.
         13    1    6    6    0    0  0.54070756835E+01  0.42670532749E+02  0.28578166501E+03  0.28900029565E+03  0.00000000000E+00 0. -1.
        -14    1    6    6    0    0 -0.45045864675E+02 -0.13324290576E+02  0.19218729698E+03  0.19784494880E+03  0.00000000000E+00 0.  1.
         -5    1    5    5    0  503  0.38005994503E+02 -0.70369979462E+02  0.68088630572E+03  0.68558343106E+03  0.47000000000E+01 0.  1.
<mgrwt>
<rscale>  2 0.17781439E+03</rscale>
<asrwt>0</asrwt>
<pdfrwt beam="1">  1       21 0.19193609E+00 0.17788611E+03</pdfrwt>
<pdfrwt beam="2">  1       21 0.15848807E-01 0.17788611E+03</pdfrwt>
<totfact> 0.54479903E+03</totfact>
</mgrwt>
</event>
<event>
12    1  0.2768653E-001  0.2366308E+03  0.7546771E-02  0.1122211E+00
         21   -1    0    0  504  503  0.00000000000E+00  0.00000000000E+00  0.88231135033E+03  0.88231135033E+03  0.00000000000E+00 0. -1.
         21   -1    0    0  502  504 -0.00000000000E+00 -0.00000000000E+00 -0.84509461792E+02  0.84509461792E+02  0.00000000000E+00 0.  1.
          6    2    1    2  502    0 -0.10990167506E+03 -0.11845590221E+03  0.15685080625E+03  0.28389491504E+03  0.17286980192E+03 0.  0.
         24    2    3    3    0    0 -0.11273136238E+03 -0.47114058560E+02  0.47257827618E+02  0.15301184986E+03  0.79064716199E+02 0.  0.
         -6    2    1    2    0  503  0.10990167506E+03  0.11845590221E+03  0.64095108228E+03  0.68292589708E+03  0.17163715237E+03 0.  0.
        -24    2    5    5    0    0  0.38452438060E+02  0.48459888256E+02  0.18013729085E+03  0.21135843021E+03  0.91629644233E+02 0.  0.
          4    1    4    4  501    0 -0.12308680875E+03 -0.49531106146E+02  0.35893594189E+02  0.13744832872E+03  0.00000000000E+00 0. -1.
         -3    1    4    4    0  501  0.10355446374E+02  0.24170475855E+01  0.11364233428E+02  0.15563521133E+02  0.00000000000E+00 0.  1.
          5    1    3    3  502    0  0.28296873201E+01 -0.71341843650E+02  0.10959297864E+03  0.13088306518E+03  0.47000000000E+01 0. -1.
         11    1    6    6    0    0  0.56242678089E+02 -0.46530351127E+00  0.72195541134E+02  0.91518585575E+02  0.00000000000E+00 0. -1.
        -12    1    6    6    0    0 -0.17790240029E+02  0.48925191767E+02  0.10794174972E+03  0.11983984463E+03  0.00000000000E+00 0.  1.
         -5    1    5    5    0  503  0.71449236999E+02  0.69996013954E+02  0.46081379143E+03  0.47156746687E+03  0.47000000000E+01 0.  1.
<mgrwt>
<rscale>  2 0.23640575E+03</rscale>
<asrwt>0</asrwt>
<pdfrwt beam="1">  1       21 0.13574020E+00 0.23663083E+03</pdfrwt>
<pdfrwt beam="2">  1       21 0.13001456E-01 0.23663083E+03</pdfrwt>
<totfact> 0.19160506E+04</totfact>
</mgrwt>
</event>
<event>
12    1  0.2768653E-001  0.1938175E+03  0.7546771E-02  0.1155287E+00
         21   -1    0    0  504  503  0.00000000000E+00  0.00000000000E+00  0.45951121046E+02  0.45951121046E+02  0.00000000000E+00 0. -1.
         21   -1    0    0  502  504 -0.00000000000E+00 -0.00000000000E+00 -0.10905276182E+04  0.10905276182E+04  0.00000000000E+00 0. -1.
          6    2    1    2  502    0  0.70118427267E+02  0.49534294615E+02 -0.80781008128E+03  0.83049906447E+03  0.17263061286E+03 0.  0.
         24    2    3    3    0    0  0.11545934447E+03  0.36969148940E+02 -0.62370050427E+03  0.64041458850E+03  0.80193191390E+02 0.  0.
         -6    2    1    2    0  503 -0.70118427267E+02 -0.49534294615E+02 -0.23676641592E+03  0.30597967482E+03  0.17376704379E+03 0.  0.
        -24    2    5    5    0    0 -0.57455832434E+02 -0.86571350167E+02 -0.23169830537E+03  0.26623221532E+03  0.79998227558E+02 0.  0.
          2    1    4    4  501    0  0.12683432559E+03  0.40942261336E+02 -0.56836133941E+03  0.58377891967E+03  0.00000000000E+00 0. -1.
         -1    1    4    4    0  501 -0.11374981116E+02 -0.39731123959E+01 -0.55339164858E+02  0.56635668838E+02  0.00000000000E+00 0.  1.
          5    1    3    3  502    0 -0.45340917206E+02  0.12565145676E+02 -0.18410957701E+03  0.19008447597E+03  0.47000000000E+01 0. -1.
         13    1    6    6    0    0 -0.22915107653E+02 -0.93035376743E+02 -0.17548191565E+03  0.19993645542E+03  0.00000000000E+00 0. -1.
        -14    1    6    6    0    0 -0.34540724781E+02  0.64640265755E+01 -0.56216389718E+02  0.66295759901E+02  0.00000000000E+00 0.  1.
         -5    1    5    5    0  503 -0.12662594833E+02  0.37037055552E+02 -0.50681105550E+01  0.39747459497E+02  0.47000000000E+01 0.  1.
<mgrwt>
<rscale>  2 0.19356245E+03</rscale>
<asrwt>0</asrwt>
<pdfrwt beam="1">  1       21 0.70694041E-02 0.19381751E+03</pdfrwt>
<pdfrwt beam="2">  1       21 0.16777346E+00 0.19381751E+03</pdfrwt>
<totfact> 0.32877688E+04</totfact>
</mgrwt>
</event>
<event>
12    1  0.2768653E-001  0.2209469E+03  0.7546771E-02  0.1133296E+00
         21   -1    0    0  504  503  0.00000000000E+00  0.00000000000E+00  0.46283392396E+03  0.46283392396E+03  0.00000000000E+00 0.  1.
         21   -1    0    0  502  504 -0.00000000000E+00 -0.00000000000E+00 -0.15932676305E+03  0.15932676305E+03  0.00000000000E+00 0. -1.
          6    2    1    2  502    0 -0.93856889441E+02 -0.98361651090E+02  0.33325533688E+03  0.39984580296E+03  0.17416491175E+03 0.  0.
         24    2    3    3    0    0 -0.12036132150E+03 -0.11699655385E+03  0.30146856323E+03  0.35421430618E+03  0.80058970529E+02 0.  0.
         -6    2    1    2    0  503  0.93856889441E+02  0.98361651090E+02 -0.29748175970E+02  0.22231488405E+03  0.17336327061E+03 0.  0.
        -24    2    5    5    0    0  0.38172559852E+02  0.12117950300E+03 -0.50806973702E+02  0.15838553328E+03  0.79768491925E+02 0.  0.
          2    1    4    4  501    0 -0.10557008787E+03 -0.12871214016E+03  0.26109268831E+03  0.30964697700E+03  0.00000000000E+00 0. -1.
         -1    1    4    4    0  501 -0.14791233621E+02  0.11715586307E+02  0.40375874921E+02  0.44567329179E+02  0.00000000000E+00 0.  1.
          5    1    3    3  502    0  0.26504432055E+02  0.18634902759E+02  0.31786773657E+02  0.45631496786E+02  0.47000000000E+01 0. -1.
         13    1    6    6    0    0  0.49912051819E+02  0.40314833231E+02 -0.41570374098E+01  0.64294476087E+02  0.00000000000E+00 0. -1.
        -14    1    6    6    0    0 -0.11739491967E+02  0.80864669769E+02 -0.46649936292E+02  0.94091057197E+02  0.00000000000E+00 0.  1.
         -5    1    5    5    0  503  0.55684329588E+02 -0.22817851910E+02  0.21058797732E+02  0.63929350766E+02  0.47000000000E+01 0.  1.
<mgrwt>
<rscale>  2 0.22078892E+03</rscale>
<asrwt>0</asrwt>
<pdfrwt beam="1">  1       21 0.71205219E-01 0.22094693E+03</pdfrwt>
<pdfrwt beam="2">  1       21 0.24511810E-01 0.22094693E+03</pdfrwt>
<totfact> 0.27631190E+04</totfact>
</mgrwt>
</event>
<event>
12    1  0.2768653E-001  0.1789100E+03  0.7546771E-02  0.1169225E+00
         21   -1    0    0  504  503  0.00000000000E+00  0.00000000000E+00  0.14651591858E+04  0.14651591858E+04  0.00000000000E+00 0. -1.
         21   -1    0    0  502  504 -0.00000000000E+00 -0.00000000000E+00 -0.32822202866E+02  0.32822202866E+02  0.00000000000E+00 0. -1.
          6    2    1    2  502    0  0.36347448450E+02 -0.20277573923E+02  0.28147312010E+03  0.33352045927E+03  0.17400132874E+03 0.  0.
         24    2    3    3    0    0 -0.16301696368E+02  0.45755919662E+01  0.53583056527E+02  0.98264038787E+02  0.80610148403E+02 0.  0.
         -6    2    1    2    0  503 -0.36347448450E+02  0.20277573923E+02  0.11508638629E+04  0.11644609294E+04  0.17247987794E+03 0.  0.
        -24    2    5    5    0    0  0.30596057247E+02 -0.33451474690E+02  0.67440502394E+03  0.68030872318E+03  0.77088926849E+02 0.  0.
          2    1    4    4  501    0  0.76428020446E+01  0.20342845093E+02 -0.13311934839E+02  0.25484335949E+02  0.00000000000E+00 0. -1.
         -1    1    4    4    0  501 -0.23944498413E+02 -0.15767253127E+02  0.66894991366E+02  0.72779702839E+02  0.00000000000E+00 0.  1.
          5    1    3    3  502    0  0.52649144819E+02 -0.24853165889E+02  0.22789006357E+03  0.23525642049E+03  0.47000000000E+01 0. -1.
         11    1    6    6    0    0  0.30485916106E+02  0.19523319771E+02  0.24896824986E+03  0.25158644744E+03  0.00000000000E+00 0. -1.
        -12    1    6    6    0    0  0.11014114049E+00 -0.52974794462E+02  0.42543677407E+03  0.42872227574E+03  0.00000000000E+00 0.  1.
         -5    1    5    5    0  503 -0.66943505697E+02  0.53729048614E+02  0.47645883894E+03  0.48415220626E+03  0.47000000000E+01 0.  1.
<mgrwt>
<rscale>  2 0.17853898E+03</rscale>
<asrwt>0</asrwt>
<pdfrwt beam="1">  1       21 0.22540905E+00 0.17890998E+03</pdfrwt>
<pdfrwt beam="2">  1       21 0.50495708E-02 0.17890998E+03</pdfrwt>
<totfact> 0.24937411E+04</totfact>
</mgrwt>
</event>
<event>
12    1  0.2768653E-001  0.1751992E+03  0.7546771E-02  0.1172678E+00
         21   -1    0    0  504  503  0.00000000000E+00  0.00000000000E+00  0.16835983747E+03  0.16835983747E+03  0.00000000000E+00 0.  1.
         21   -1    0    0  502  504 -0.00000000000E+00 -0.00000000000E+00 -0.24401931169E+03  0.24401931169E+03  0.00000000000E+00 0.  1.
          6    2    1    2  502    0  0.81382803636E+00  0.30443840866E+02 -0.14206516453E+03  0.22555990073E+03  0.17253193352E+03 0.  0.
         24    2    3    3    0    0  0.41338916715E+02  0.61231829351E+02 -0.13624405122E+03  0.17411907641E+03  0.79352179013E+02 0.  0.
         -6    2    1    2    0  503 -0.81382803636E+00 -0.30443840866E+02  0.66405690309E+02  0.18681924843E+03  0.17194250817E+03 0.  0.
        -24    2    5    5    0    0  0.16377126234E+02 -0.38503148662E+02 -0.23700123484E+02  0.94614969626E+02  0.81483703300E+02 0.  0.
          2    1    4    4  501    0  0.28384647816E+02  0.10565005021E+02 -0.11282269670E+03  0.11681724382E+03  0.00000000000E+00 0. -1.
         -1    1    4    4    0  501  0.12954268899E+02  0.50666824330E+02 -0.23421354525E+02  0.57301832590E+02  0.00000000000E+00 0.  1.
          5    1    3    3  502    0 -0.40525088678E+02 -0.30787988485E+02 -0.58211133029E+01  0.51440824327E+02  0.47000000000E+01 0. -1.
         13    1    6    6    0    0 -0.30482951916E+02 -0.69638497726E+01  0.43137175776E+01  0.31564437592E+02  0.00000000000E+00 0. -1.
        -14    1    6    6    0    0  0.46860078150E+02 -0.31539298890E+02 -0.28013841062E+02  0.63050532034E+02  0.00000000000E+00 0.  1.
         -5    1    5    5    0  503 -0.17190954271E+02  0.80593077966E+01  0.90105813793E+02  0.92204278806E+02  0.47000000000E+01 0.  1.
<mgrwt>
<rscale>  2 0.17505391E+03</rscale>
<asrwt>0</asrwt>
<pdfrwt beam="1">  1       21 0.25901513E-01 0.17519919E+03</pdfrwt>
<pdfrwt beam="2">  1       21 0.37541433E-01 0.17519919E+03</pdfrwt>
<totfact> 0.97509363E+04</totfact>
</mgrwt>
</event>
<event>
12    1  0.2768653E-001  0.2436384E+03  0.7546771E-02  0.1117598E+00
         21   -1    0    0  504  503  0.00000000000E+00  0.00000000000E+00  0.10433704557E+04  0.10433704557E+04  0.00000000000E+00 0.  1.
         21   -1    0    0  502  504 -0.00000000000E+00 -0.00000000000E+00 -0.87857165451E+02  0.87857165451E+02  0.00000000000E+00 0. -1.
          6    2    1    2  502    0  0.17163213773E+03 -0.21678306573E+01  0.14118137665E+03  0.28158807850E+03  0.17290857308E+03 0.  0.
         24    2    3    3    0    0  0.98580030212E+02 -0.53330059467E+02  0.13447232726E+03  0.19202644936E+03  0.78925489254E+02 0.  0.
         -6    2    1    2    0  503 -0.17163213773E+03  0.21678306573E+01  0.81433191362E+03  0.84963954267E+03  0.17113911519E+03 0.  0.
        -24    2    5    5    0    0 -0.50532327748E+02 -0.14891504468E+02  0.54534270020E+03  0.55411717157E+03  0.82896960775E+02 0.  0.
          4    1    4    4  501    0  0.63061987567E+02 -0.17587594312E+02  0.12449420800E+03  0.14065896906E+03  0.00000000000E+00 0. -1.
         -3    1    4    4    0  501  0.35518042644E+02 -0.35742465155E+02  0.99781192621E+01  0.51367480303E+02  0.00000000000E+00 0.  1.
          5    1    3    3  502    0  0.73052107520E+02  0.51162228810E+02  0.67090493861E+01  0.89561629137E+02  0.47000000000E+01 0. -1.
         13    1    6    6    0    0 -0.17849056111E+02 -0.35042670000E+02  0.44410466032E+03  0.44584249107E+03  0.00000000000E+00 0. -1.
        -14    1    6    6    0    0 -0.32683271637E+02  0.20151165532E+02  0.10123803989E+03  0.10827468050E+03  0.00000000000E+00 0.  1.
         -5    1    5    5    0  503 -0.12109980998E+03  0.17059335125E+02  0.26898921341E+03  0.29552237111E+03  0.47000000000E+01 0.  1.
<mgrwt>
<rscale>  2 0.24332464E+03</rscale>
<asrwt>0</asrwt>
<pdfrwt beam="1">  1       21 0.16051852E+00 0.24363839E+03</pdfrwt>
<pdfrwt beam="2">  1       21 0.13516488E-01 0.24363839E+03</pdfrwt>
<totfact> 0.11411736E+04</totfact>
</mgrwt>
</event>
<event>
12    1  0.2768653E-001  0.1993071E+03  0.7546771E-02  0.1151810E+00
         21   -1    0    0  504  503  0.00000000000E+00  0.00000000000E+00  0.25407349320E+03  0.25407349320E+03  0.00000000000E+00 0. -1.
         21   -1    0    0  502  504 -0.00000000000E+00 -0.00000000000E+00 -0.15970434977E+03  0.15970434977E+03  0.00000000000E+00 0. -1.
          6    2    1    2  502    0 -0.13286318196E+02  0.85300089182E+02 -0.33760976622E+00  0.19930737677E+03  0.17964043250E+03 0.  0.
         24    2    3    3    0    0 -0.72289653693E+02  0.63668585158E+02  0.29520085799E+02  0.12957296955E+03  0.81475371769E+02 0.  0.
         -6    2    1    2    0  503  0.13286318196E+02 -0.85300089182E+02  0.94706753200E+02  0.21447046621E+03  0.17197552241E+03 0.  0.
        -24    2    5    5    0    0 -0.31075939734E+02 -0.11325630055E+03  0.61662116420E+02  0.15231262114E+03  0.74861300507E+02 0.  0.
          4    1    4    4  501    0 -0.53347879035E+02  0.83177307450E+02  0.25802129358E+02  0.10212840228E+03  0.00000000000E+00 0. -1.
         -3    1    4    4    0  501 -0.18941774658E+02 -0.19508722291E+02  0.37179564409E+01  0.27444567272E+02  0.00000000000E+00 0.  1.
          5    1    3    3  502    0  0.59003335497E+02  0.21631504024E+02 -0.29857695565E+02  0.69734407222E+02  0.47000000000E+01 0. -1.
         11    1    6    6    0    0  0.16272970716E+02 -0.60617736832E+02  0.75814814861E+01  0.63220237709E+02  0.00000000000E+00 0. -1.
        -12    1    6    6    0    0 -0.47348910450E+02 -0.52638563719E+02  0.54080634934E+02  0.89092383435E+02  0.00000000000E+00 0.  1.
         -5    1    5    5    0  503  0.44362257930E+02  0.27956211369E+02  0.33044636780E+02  0.62157845062E+02  0.47000000000E+01 0.  1.
<mgrwt>
<rscale>  2 0.19756438E+03</rscale>
<asrwt>0</asrwt>
<pdfrwt beam="1">  1       21 0.39088230E-01 0.19930709E+03</pdfrwt>
<pdfrwt beam="2">  1       21 0.24569900E-01 0.19930709E+03</pdfrwt>
<totfact> 0.98531774E+04</totfact>
</mgrwt>
</event>
<event>
12    1  0.2768653E-001  0.2088856E+03  0.7546771E-02  0.1142593E+00
         21   -1    0    0  504  503  0.00000000000E+00  0.00000000000E+00  0.12504004595E+03  0.12504004595E+03  0.00000000000E+00 0. -1.
         21   -1    0    0  502  504 -0.00000000000E+00 -0.00000000000E+00 -0.73837362165E+03  0.73837362165E+03  0.00000000000E+00 0.  1.
          6    2    1    2  502    0  0.11374044345E+03  0.24510917482E+02 -0.62041326888E+03  0.65440814550E+03  0.17262596314E+03 0.  0.
         24    2    3    3    0    0  0.16035782467E+02 -0.41264728731E+02 -0.26692668214E+03  0.28178569124E+03  0.78698144809E+02 0.  0.
         -6    2    1    2    0  503 -0.11374044345E+03 -0.24510917482E+02  0.70796931840E+01  0.20900552210E+03  0.17348058294E+03 0.  0.
        -24    2    5    5    0    0 -0.80859274605E+02 -0.60731845699E+02  0.54947599676E+02  0.14040119732E+03  0.80415658472E+02 0.  0.
          4    1    4    4  501    0 -0.25368644703E+02 -0.35142433512E+01 -0.36139087113E+02  0.44293923486E+02  0.00000000000E+00 0. -1.
         -3    1    4    4    0  501  0.41404427171E+02 -0.37750485379E+02 -0.23078759502E+03  0.23749176776E+03  0.00000000000E+00 0.  1.
          5    1    3    3  502    0  0.97704660986E+02  0.65775646213E+02 -0.35348658674E+03  0.37262245426E+03  0.47000000000E+01 0. -1.
         13    1    6    6    0    0  0.15081691957E+02 -0.12138287487E+02  0.18687527304E+02  0.26907603612E+02  0.00000000000E+00 0. -1.
        -14    1    6    6    0    0 -0.95940966562E+02 -0.48593558212E+02  0.36260072372E+02  0.11349359371E+03  0.00000000000E+00 0.  1.
         -5    1    5    5    0  503 -0.32881168849E+02  0.36220928217E+02 -0.47867906492E+02  0.68604324774E+02  0.47000000000E+01 0.  1.
<mgrwt>
<rscale>  2 0.20870805E+03</rscale>
<asrwt>0</asrwt>
<pdfrwt beam="1">  1       21 0.19236930E-01 0.20888558E+03</pdfrwt>
<pdfrwt beam="2">  1       21 0.11359594E+00 0.20888558E+03</pdfrwt>
<totfact> 0.14832456E+04</totfact>
</mgrwt>
</event>
<event>
12    1  0.2768653E-001  0.2108365E+03  0.7546771E-02  0.1141940E+00
         21   -1    0    0  504  503  0.00000000000E+00  0.00000000000E+00  0.12505616535E+03  0.12505616535E+03  0.00000000000E+00 0. -1.
         21   -1    0    0  502  504 -0.00000000000E+00 -0.00000000000E+00 -0.52843767469E+03  0.52843767469E+03  0.00000000000E+00 0.  1.
          6    2    1    2  502    0 -0.26111488278E+02  0.11258167596E+03 -0.39161504381E+03  0.44232925013E+03  0.17010696459E+03 0.  0.
         24    2    3    3    0    0 -0.33950762252E+02  0.42769223896E+02 -0.34356980740E+03  0.35709036569E+03  0.80569572043E+02 0.  0.
         -6    2    1    2    0  503  0.26111488278E+02 -0.11258167596E+03 -0.11766465538E+02  0.21116458991E+03  0.17633941912E+03 0.  0.
        -24    2    5    5    0    0  0.25636221773E+02  0.12971775883E+02 -0.55380854386E+00  0.85022967809E+02  0.80019469598E+02 0.  0.
          4    1    4    4  501    0 -0.28852626717E+02 -0.15297886699E+02 -0.68161507259E+02  0.75581019295E+02  0.00000000000E+00 0. -1.
         -3    1    4    4    0  501 -0.50981355345E+01  0.58067110595E+02 -0.27540830014E+03  0.28150934639E+03  0.00000000000E+00 0.  1.
          5    1    3    3  502    0  0.78392739736E+01  0.69812452066E+02 -0.48045236407E+02  0.85238884444E+02  0.47000000000E+01 0. -1.
         13    1    6    6    0    0  0.24527512818E+02 -0.14342318121E+01  0.37209879952E+02  0.44589584793E+02  0.00000000000E+00 0. -1.
        -14    1    6    6    0    0  0.11087089553E+01  0.14406007695E+02 -0.37763688496E+02  0.40433383016E+02  0.00000000000E+00 0.  1.
         -5    1    5    5    0  503  0.47526650482E+00 -0.12555345185E+03 -0.11212656994E+02  0.12614162210E+03  0.47000000000E+01 0.  1.
<mgrwt>
<rscale>  2 0.20952830E+03</rscale>
<asrwt>0</asrwt>
<pdfrwt beam="1">  1       21 0.19239410E-01 0.21083651E+03</pdfrwt>
<pdfrwt beam="2">  1       21 0.81298103E-01 0.21083651E+03</pdfrwt>
<totfact> 0.32582109E+04</totfact>
</mgrwt>
</event>
<event>
12    1  0.2768653E-001  0.2403469E+03  0.7546771E-02  0.1119778E+00
         21   -1    0    0  504  503  0.00000000000E+00  0.00000000000E+00  0.77783049464E+02  0.77783049464E+02  0.00000000000E+00 0.  1.
         21   -1    0    0  502  504 -0.00000000000E+00 -0.00000000000E+00 -0.11553826372E+04  0.11553826372E+04  0.00000000000E+00 0.  1.
          6    2    1    2  502    0 -0.10370368508E+03  0.12842045112E+03 -0.91002526563E+03  0.94122931639E+03  0.17470081677E+03 0.  0.
         24    2    3    3    0    0  0.84421872505E+01  0.83061593718E+02 -0.39340446550E+03  0.41061338773E+03  0.82860013433E+02 0.  0.
         -6    2    1    2    0  503  0.10370368508E+03 -0.12842045112E+03 -0.16757432216E+03  0.29193637033E+03  0.17291449999E+03 0.  0.
        -24    2    5    5    0    0  0.62325935406E+02 -0.59181550153E+02 -0.17495350807E+02  0.12149009956E+03  0.84064135572E+02 0.  0.
          4    1    4    4  501    0 -0.14921789644E+02  0.34756727960E+02 -0.30398921048E+03  0.30633336422E+03  0.00000000000E+00 0. -1.
         -3    1    4    4    0  501  0.23363976894E+02  0.48304865758E+02 -0.89415255023E+02  0.10428002351E+03  0.00000000000E+00 0.  1.
          5    1    3    3  502    0 -0.11214587233E+03  0.45358857405E+02 -0.51662080013E+03  0.53061592866E+03  0.47000000000E+01 0. -1.
         11    1    6    6    0    0 -0.71512901682E+01 -0.12885551105E+02  0.24072686551E+02  0.28225389565E+02  0.00000000000E+00 0. -1.
        -12    1    6    6    0    0  0.69477225574E+02 -0.46295999048E+02 -0.41568037358E+02  0.93264709998E+02  0.00000000000E+00 0.  1.
         -5    1    5    5    0  503  0.41377749675E+02 -0.69238900970E+02 -0.15007897135E+03  0.17044627076E+03  0.47000000000E+01 0.  1.
<mgrwt>
<rscale>  2 0.24002245E+03</rscale>
<asrwt>0</asrwt>
<pdfrwt beam="1">  1       21 0.11966624E-01 0.24034692E+03</pdfrwt>
<pdfrwt beam="2">  1       21 0.17775117E+00 0.24034692E+03</pdfrwt>
<totfact> 0.10737055E+04</totfact>
</mgrwt>
</event>
<event>
12    1  0.2768653E-001  0.3378612E+03  0.7546771E-02  0.1067828E+00
         21   -1    0    0  504  503  0.00000000000E+00  0.00000000000E+00  0.94057937921E+02  0.94057937921E+02  0.00000000000E+00 0. -1.
         21   -1    0    0  502  504 -0.00000000000E+00 -0.00000000000E+00 -0.12290322675E+04  0.12290322675E+04  0.00000000000E+00 0.  1.
          6    2    1    2  502    0 -0.24410569491E+03  0.15649717103E+03 -0.65138490332E+03  0.73379322313E+03  0.17341063175E+03 0.  0.
         24    2    3    3    0    0 -0.90167901130E+02  0.88194236623E+01 -0.28987082114E+03  0.31400746463E+03  0.79797006629E+02 0.  0.
         -6    2    1    2    0  503  0.24410569491E+03 -0.15649717103E+03 -0.48358942623E+03  0.58929698226E+03  0.17126951075E+03 0.  0.
        -24    2    5    5    0    0  0.76294577562E+02 -0.17586431778E+02 -0.22286380085E+03  0.24950777361E+03  0.80347434403E+02 0.  0.
          4    1    4    4  501    0 -0.47725454810E+02 -0.34284528548E+02 -0.16733924460E+03  0.17735718400E+03  0.00000000000E+00 0. -1.
         -3    1    4    4    0  501 -0.42442446319E+02  0.43103952210E+02 -0.12253157654E+03  0.13665028063E+03  0.00000000000E+00 0.  1.
          5    1    3    3  502    0 -0.15393779378E+03  0.14767774737E+03 -0.36151408218E+03  0.41978575850E+03  0.47000000000E+01 0. -1.
         11    1    6    6    0    0 -0.70492453744E+01 -0.10686580438E+02 -0.10040366837E+03  0.10121655736E+03  0.00000000000E+00 0. -1.
        -12    1    6    6    0    0  0.83343822936E+02 -0.68998513400E+01 -0.12246013249E+03  0.14829121625E+03  0.00000000000E+00 0.  1.
         -5    1    5    5    0  503  0.16781111735E+03 -0.13891073926E+03 -0.26072562537E+03  0.33978920865E+03  0.47000000000E+01 0.  1.
<mgrwt>
<rscale>  2 0.33758740E+03</rscale>
<asrwt>0</asrwt>
<pdfrwt beam="1">  1       21 0.14470454E-01 0.33786122E+03</pdfrwt>
<pdfrwt beam="2">  1       21 0.18908186E+00 0.33786122E+03</pdfrwt>
<totfact> 0.60121049E+03</totfact>
</mgrwt>
</event>
<event>
12    1  0.2768653E-001  0.2198410E+03  0.7546771E-02  0.1135614E+00
         21   -1    0    0  504  503  0.00000000000E+00  0.00000000000E+00  0.22368929818E+03  0.22368929818E+03  0.00000000000E+00 0.  1.
         21   -1    0    0  502  504 -0.00000000000E+00 -0.00000000000E+00 -0.41971302843E+03  0.41971302843E+03  0.00000000000E+00 0.  1.
          6    2    1    2  502    0 -0.12079213090E+03  0.19430857946E+02 -0.32752035725E+03  0.39446119277E+03  0.18265199441E+03 0.  0.
         24    2    3    3    0    0 -0.66011680516E+02 -0.61637549255E+02 -0.15938054936E+03  0.19986913387E+03  0.79929854977E+02 0.  0.
         -6    2    1    2    0  503  0.12079213090E+03 -0.19430857946E+02  0.13149662700E+03  0.24894113384E+03  0.17237177285E+03 0.  0.
        -24    2    5    5    0    0  0.79618046631E+02  0.39537586515E+02  0.28729688383E+02  0.12341935752E+03  0.80651650440E+02 0.  0.
          2    1    4    4  501    0 -0.11677394855E+02 -0.64128544517E+02 -0.73777299957E+02  0.98447558433E+02  0.00000000000E+00 0. -1.
         -1    1    4    4    0  501 -0.54334285661E+02  0.24909952617E+01 -0.85603249403E+02  0.10142157544E+03  0.00000000000E+00 0.  1.
          5    1    3    3  502    0 -0.54780450385E+02  0.81068407201E+02 -0.16813980789E+03  0.19459205890E+03  0.47000000000E+01 0. -1.
         13    1    6    6    0    0 -0.74780443302E+01  0.29009753537E+02 -0.30448292300E+01  0.30112421562E+02  0.00000000000E+00 0. -1.
        -14    1    6    6    0    0  0.87096090961E+02  0.10527832978E+02  0.31774517613E+02  0.93306935956E+02  0.00000000000E+00 0.  1.
         -5    1    5    5    0  503  0.41174084269E+02 -0.58968444460E+02  0.10276693862E+03  0.12552177632E+03  0.47000000000E+01 0.  1.
<mgrwt>
<rscale>  2 0.21769377E+03</rscale>
<asrwt>0</asrwt>
<pdfrwt beam="1">  1       21 0.34413739E-01 0.21984096E+03</pdfrwt>
<pdfrwt beam="2">  1       21 0.64571234E-01 0.21984096E+03</pdfrwt>
<totfact> 0.17701769E+04</totfact>
</mgrwt>
</event>
<event>
12    1  0.2768653E-001  0.1841636E+03  0.7546771E-02  0.1164814E+00
         21   -1    0    0  504  503  0.00000000000E+00  0.00000000000E+00  0.50631727364E+03  0.50631727364E+03  0.00000000000E+00 0.  1.
         21   -1    0    0  502  504 -0.00000000000E+00 -0.00000000000E+00 -0.68465986998E+02  0.68465986998E+02  0.00000000000E+00 0.  1.
          6    2    1    2  502    0 -0.49014819102E+02 -0.11952392663E+02  0.15667452920E+03  0.23866336269E+03  0.17282355281E+03 0.  0.
         24    2    3    3    0    0 -0.66380396966E+02  0.43613952823E+02  0.13618747089E+03  0.17676835801E+03  0.79946802221E+02 0.  0.
         -6    2    1    2    0  503  0.49014819102E+02  0.11952392663E+02  0.28117675745E+03  0.33611989796E+03  0.17711833528E+03 0.  0.
        -24    2    5    5    0    0  0.81381304995E+02  0.43837418191E+02  0.25757090610E+03  0.28470423420E+03  0.78543575579E+02 0.  0.
          4    1    4    4  501    0 -0.83859299277E+02  0.27547576548E+02  0.98867508231E+02  0.13253692026E+03  0.00000000000E+00 0. -1.
         -3    1    4    4    0  501  0.17478902312E+02  0.16066376275E+02  0.37319962660E+02  0.44231437751E+02  0.00000000000E+00 0.  1.
          5    1    3    3  502    0  0.17365577863E+02 -0.55566345486E+02  0.20487058309E+02  0.61895004672E+02  0.47000000000E+01 0. -1.
         11    1    6    6    0    0  0.25449141359E+02  0.42372184085E+02  0.52368319257E+02  0.72010427313E+02  0.00000000000E+00 0. -1.
        -12    1    6    6    0    0  0.55932163636E+02  0.14652341057E+01  0.20520258684E+03  0.21269380689E+03  0.00000000000E+00 0.  1.
         -5    1    5    5    0  503 -0.32366485893E+02 -0.31885025528E+02  0.23605851347E+02  0.51415663758E+02  0.47000000000E+01 0.  1.
<mgrwt>
<rscale>  2 0.18312312E+03</rscale>
<asrwt>0</asrwt>
<pdfrwt beam="1">  1       21 0.77894963E-01 0.18416356E+03</pdfrwt>
<pdfrwt beam="2">  1       21 0.10533229E-01 0.18416356E+03</pdfrwt>
<totfact> 0.10845764E+05</totfact>
</mgrwt>
</event>
<event>
12    1  0.2768653E-001  0.1904544E+03  0.7546771E-02  0.1158244E+00
         21   -1    0    0  504  503  0.00000000000E+00  0.00000000000E+00  0.58953316721E+03  0.58953316721E+03  0.00000000000E+00 0.  1.
         21   -1    0    0  502  504 -0.00000000000E+00 -0.00000000000E+00 -0.61636376015E+02  0.61636376015E+02  0.00000000000E+00 0.  1.
          6    2    1    2  502    0 -0.64594095153E+02 -0.45104806645E+02  0.29019781386E+03  0.34711331832E+03  0.17339562818E+03 0.  0.
         24    2    3    3    0    0 -0.93814493773E+02 -0.16922411630E+02  0.12533257050E+03  0.17725832854E+03  0.81392472326E+02 0.  0.
         -6    2    1    2    0  503  0.64594095153E+02  0.45104806645E+02  0.23769897733E+03  0.30405622490E+03  0.17246026605E+03 0.  0.
        -24    2    5    5    0    0  0.43754140308E+02  0.95699740009E+02  0.15882763159E+03  0.20794727538E+03  0.83324592701E+02 0.  0.
          4    1    4    4  501    0  0.13114919697E+02  0.56992910937E+01  0.25474034412E+02  0.29213172831E+02  0.00000000000E+00 0. -1.
         -3    1    4    4    0  501 -0.10692941347E+03 -0.22621702724E+02  0.99858536092E+02  0.14804515571E+03  0.00000000000E+00 0.  1.
          5    1    3    3  502    0  0.29220398620E+02 -0.28182395015E+02  0.16486524336E+03  0.16985498978E+03  0.47000000000E+01 0. -1.
         13    1    6    6    0    0 -0.11711584930E+02  0.39182637609E+02  0.10366658412E+03  0.11144146883E+03  0.00000000000E+00 0. -1.
        -14    1    6    6    0    0  0.55465725238E+02  0.56517102400E+02  0.55161047470E+02  0.96505806549E+02  0.00000000000E+00 0.  1.
         -5    1    5    5    0  503  0.20839954846E+02 -0.50594933364E+02  0.78871345742E+02  0.96108949527E+02  0.47000000000E+01 0.  1.
<mgrwt>
<rscale>  2 0.19024126E+03</rscale>
<asrwt>0</asrwt>
<pdfrwt beam="1">  1       21 0.90697406E-01 0.19045442E+03</pdfrwt>
<pdfrwt beam="2">  1       21 0.94825198E-02 0.19045442E+03</pdfrwt>
<totfact> 0.92050678E+04</totfact>
</mgrwt>
</event>
<event>
12    1  0.2768653E-001  0.2875695E+03  0.7546771E-02  0.1091682E+00
         21   -1    0    0  504  503  0.00000000000E+00  0.00000000000E+00  0.25037414942E+03  0.25037414942E+03  0.00000000000E+00 0. -1.
         21   -1    0    0  502  504 -0.00000000000E+00 -0.00000000000E+00 -0.47969373777E+03  0.47969373777E+03  0.00000000000E+00 0. -1.
          6    2    1    2  502    0 -0.12405257826E+03 -0.19290248075E+03  0.89453484007E+02  0.30075155986E+03  0.17276911096E+03 0.  0.
         24    2    3    3    0    0 -0.10335616415E+02 -0.11328820608E+03  0.81691976924E+02  0.16163897547E+03  0.80700289308E+02 0.  0.
         -6    2    1    2    0  503  0.12405257826E+03  0.19290248075E+03 -0.31877307236E+03  0.42931632733E+03  0.17348149179E+03 0.  0.
        -24    2    5    5    0    0  0.10816726191E+03  0.62024404082E+02 -0.13956786721E+03  0.20678990242E+03  0.87952776722E+02 0.  0.
          4    1    4    4  501    0 -0.27936818505E+02 -0.23409474756E+02  0.55470034323E+02  0.66373142493E+02  0.00000000000E+00 0. -1.
         -3    1    4    4    0  501  0.17601202090E+02 -0.89878731325E+02  0.26221942600E+02  0.95265832980E+02  0.00000000000E+00 0.  1.
          5    1    3    3  502    0 -0.11371696184E+03 -0.79614274674E+02  0.77615070829E+01  0.13911258439E+03  0.47000000000E+01 0. -1.
         11    1    6    6    0    0  0.58391156796E+02  0.70778250895E+02 -0.12330370610E+03  0.15369740378E+03  0.00000000000E+00 0. -1.
        -12    1    6    6    0    0  0.49776105118E+02 -0.87538468122E+01 -0.16264161108E+02  0.53092498634E+02  0.00000000000E+00 0.  1.
         -5    1    5    5    0  503  0.15885316345E+02  0.13087807667E+03 -0.17920520516E+03  0.22252642491E+03  0.47000000000E+01 0.  1.
<mgrwt>
<rscale>  2 0.28746218E+03</rscale>
<asrwt>0</asrwt>
<pdfrwt beam="1">  1       21 0.38519100E-01 0.28756953E+03</pdfrwt>
<pdfrwt beam="2">  1       21 0.73799036E-01 0.28756953E+03</pdfrwt>
<totfact> 0.10140505E+04</totfact>
</mgrwt>
</event>
<event>
12    1  0.2768653E-001  0.1778107E+03  0.7546771E-02  0.1169990E+00
         21   -1    0    0  504  503  0.00000000000E+00  0.00000000000E+00  0.17171545701E+03  0.17171545701E+03  0.00000000000E+00 0.  1.
         21   -1    0    0  502  504 -0.00000000000E+00 -0.00000000000E+00 -0.19480347473E+03  0.19480347473E+03  0.00000000000E+00 0.  1.
          6    2    1    2  502    0 -0.43220826364E+02  0.56702664349E+01 -0.54880423823E+02  0.18588832289E+03  0.17216972996E+03 0.  0.
         24    2    3    3    0    0  0.13658915832E+02 -0.28015532261E+01 -0.84518011269E+02  0.12102266641E+03  0.85491384799E+02 0.  0.
         -6    2    1    2    0  503  0.43220826364E+02 -0.56702664349E+01  0.31792406100E+02  0.18063060885E+03  0.17238465134E+03 0.  0.
        -24    2    5    5    0    0  0.26549059194E+02  0.56425205662E+02 -0.33194717539E+02  0.89092574605E+02  0.54285736608E+02 0.  0.
          4    1    4    4  501    0  0.43957391570E+02  0.20388716883E+02 -0.48220462909E+02  0.68360552169E+02  0.00000000000E+00 0. -1.
         -3    1    4    4    0  501 -0.30298475738E+02 -0.23190270109E+02 -0.36297548361E+02  0.52662114245E+02  0.00000000000E+00 0.  1.
          5    1    3    3  502    0 -0.56879742196E+02  0.84718196609E+01  0.29637587447E+02  0.64865656478E+02  0.47000000000E+01 0. -1.
         13    1    6    6    0    0 -0.11967267405E+02  0.34406701080E+02 -0.24450576596E+02  0.43873309247E+02  0.00000000000E+00 0. -1.
        -14    1    6    6    0    0  0.38516326599E+02  0.22018504582E+02 -0.87441409433E+01  0.45219265358E+02  0.00000000000E+00 0.  1.
         -5    1    5    5    0  503  0.16671767170E+02 -0.62095472097E+02  0.64987123639E+02  0.91538034250E+02  0.47000000000E+01 0.  1.
<mgrwt>
<rscale>  2 0.17775863E+03</rscale>
<asrwt>0</asrwt>
<pdfrwt beam="1">  1       21 0.26417763E-01 0.17781074E+03</pdfrwt>
<pdfrwt beam="2">  1       21 0.29969765E-01 0.17781074E+03</pdfrwt>
<totfact> 0.14621912E+05</totfact>
</mgrwt>
</event>
<event>
12    1  0.2768653E-001  0.1828743E+03  0.7546771E-02  0.1165187E+00
         21   -1    0    0  504  503  0.00000000000E+00  0.00000000000E+00  0.48262099264E+03  0.48262099264E+03  0.00000000000E+00 0.  1.
         21   -1    0    0  502  504 -0.00000000000E+00 -0.00000000000E+00 -0.69385125440E+02  0.69385125440E+02  0.00000000000E+00 0.  1.
          6    2    1    2  502    0 -0.52985776170E+02  0.25510740301E+02  0.18850075360E+03  0.26263198327E+03  0.17316100653E+03 0.  0.
         24    2    3    3    0    0 -0.97794404497E+02  0.45258603769E+02  0.11267906352E+03  0.17225051410E+03  0.73222820795E+02 0.  0.
         -6    2    1    2    0  503  0.52985776170E+02 -0.25510740301E+02  0.22473511361E+03  0.28937413481E+03  0.17254920534E+03 0.  0.
        -24    2    5    5    0    0  0.33151056774E+02 -0.61853407409E+02  0.22252672670E+03  0.24764677546E+03  0.82981592675E+02 0.  0.
          2    1    4    4  501    0 -0.64793661452E+02  0.20190198587E+02  0.20038776481E+02  0.70763092401E+02  0.00000000000E+00 0. -1.
         -1    1    4    4    0  501 -0.33000743046E+02  0.25068405182E+02  0.92640287041E+02  0.10148742170E+03  0.00000000000E+00 0.  1.
          5    1    3    3  502    0  0.44808628327E+02 -0.19747863468E+02  0.75821690074E+02  0.90381469172E+02  0.47000000000E+01 0. -1.
         13    1    6    6    0    0  0.23285940981E+00  0.13810737652E+02  0.93340716342E+02  0.94357193818E+02  0.00000000000E+00 0. -1.
        -14    1    6    6    0    0  0.32918197364E+02 -0.75664145061E+02  0.12918601036E+03  0.15328958164E+03  0.00000000000E+00 0.  1.
         -5    1    5    5    0  503  0.19834719396E+02  0.36342667108E+02  0.22083869019E+01  0.41727359355E+02  0.47000000000E+01 0.  1.
<mgrwt>
<rscale>  2 0.18272937E+03</rscale>
<asrwt>0</asrwt>
<pdfrwt beam="1">  1       21 0.74249381E-01 0.18287434E+03</pdfrwt>
<pdfrwt beam="2">  1       21 0.10674635E-01 0.18287434E+03</pdfrwt>
<totfact> 0.11796306E+05</totfact>
</mgrwt>
</event>
<event>
12    1  0.2768653E-001  0.2280450E+03  0.7546771E-02  0.1128237E+00
         21   -1    0    0  504  503  0.00000000000E+00  0.00000000000E+00  0.17117420723E+02  0.17117420723E+02  0.00000000000E+00 0.  1.
         21   -1    0    0  502  504 -0.00000000000E+00 -0.00000000000E+00 -0.30234436117E+04  0.30234436117E+04  0.00000000000E+00 0. -1.
          6    2    1    2  502    0  0.10045395896E+03  0.11230111579E+03 -0.14683017542E+04  0.14857222348E+04  0.16958177748E+03 0.  0.
         24    2    3    3    0    0  0.64301725062E+02  0.10466698846E+01 -0.88247277862E+03  0.88830930029E+03  0.78736272509E+02 0.  0.
         -6    2    1    2    0  503 -0.10045395896E+03 -0.11230111579E+03 -0.15380244368E+04  0.15548387976E+04  0.17117821078E+03 0.  0.
        -24    2    5    5    0    0 -0.40609975213E+02 -0.10965606575E+03 -0.13435661279E+04  0.13513088917E+04  0.84806591722E+02 0.  0.
          2    1    4    4  501    0  0.12022470428E+01 -0.26114119009E+02 -0.41422454555E+03  0.41504863178E+03  0.00000000000E+00 0. -1.
         -1    1    4    4    0  501  0.63099478019E+02  0.27160788894E+02 -0.46824823308E+03  0.47326066851E+03  0.00000000000E+00 0.  1.
          5    1    3    3  502    0  0.36152233902E+02  0.11125444591E+03 -0.58582897555E+03  0.59741293453E+03  0.47000000000E+01 0. -1.
         13    1    6    6    0    0 -0.42226327144E+02 -0.10746395147E+03 -0.85788707938E+03  0.86562220659E+03  0.00000000000E+00 0. -1.
        -14    1    6    6    0    0  0.16163519310E+01 -0.21921142792E+01 -0.48567904851E+03  0.48568668514E+03  0.00000000000E+00 0.  1.
         -5    1    5    5    0  503 -0.59843983751E+02 -0.26450500376E+01 -0.19445830893E+03  0.20352990590E+03  0.47000000000E+01 0.  1.
<mgrwt>
<rscale>  2 0.22774543E+03</rscale>
<asrwt>0</asrwt>
<pdfrwt beam="1">  1       21 0.26334503E-02 0.22804499E+03</pdfrwt>
<pdfrwt beam="2">  1       21 0.46514500E+00 0.22804499E+03</pdfrwt>
<totfact> 0.24611291E+03</totfact>
</mgrwt>
</event>
<event>
12    1  0.2768653E-001  0.2556806E+03  0.7546771E-02  0.1109828E+00
         21   -1    0    0  504  503  0.00000000000E+00  0.00000000000E+00  0.79571526793E+03  0.79571526793E+03  0.00000000000E+00 0. -1.
         21   -1    0    0  502  504 -0.00000000000E+00 -0.00000000000E+00 -0.11940037156E+03  0.11940037156E+03  0.00000000000E+00 0. -1.
          6    2    1    2  502    0 -0.17608084513E+03  0.63042807149E+02  0.82347356689E+02  0.26861436862E+03  0.17433798301E+03 0.  0.
         24    2    3    3    0    0 -0.48675109314E+02 -0.28915053658E+02  0.24070111388E+02  0.10096354994E+03  0.80055740328E+02 0.  0.
         -6    2    1    2    0  503  0.17608084513E+03 -0.63042807149E+02  0.59396753967E+03  0.64650127087E+03  0.17374577835E+03 0.  0.
        -24    2    5    5    0    0  0.11473615589E+03  0.14076374704E+02  0.22474461896E+03  0.26432566425E+03  0.77429860141E+02 0.  0.
          2    1    4    4  501    0 -0.34345111665E+02 -0.55231183319E+02  0.45424893699E+01  0.65197427217E+02  0.00000000000E+00 0. -1.
         -1    1    4    4    0  501 -0.14329997649E+02  0.26316129661E+02  0.19527622018E+02  0.35766122722E+02  0.00000000000E+00 0.  1.
          5    1    3    3  502    0 -0.12740573582E+03  0.91957860807E+02  0.58277245301E+02  0.16765081868E+03  0.47000000000E+01 0. -1.
         11    1    6    6    0    0  0.76512918173E+02 -0.19523036091E+02  0.18000941202E+03  0.19656745408E+03  0.00000000000E+00 0. -1.
        -12    1    6    6    0    0  0.38223237713E+02  0.33599410795E+02  0.44735206933E+02  0.67758210177E+02  0.00000000000E+00 0.  1.
         -5    1    5    5    0  503  0.61344689247E+02 -0.77119181853E+02  0.36922292072E+03  0.38217560662E+03  0.47000000000E+01 0.  1.
<mgrwt>
<rscale>  2 0.25557973E+03</rscale>
<asrwt>0</asrwt>
<pdfrwt beam="1">  1       21 0.12241773E+00 0.25568064E+03</pdfrwt>
<pdfrwt beam="2">  1       21 0.18369288E-01 0.25568064E+03</pdfrwt>
<totfact> 0.13069576E+04</totfact>
</mgrwt>
</event>
<event>
12    1  0.2768653E-001  0.1795245E+03  0.7546771E-02  0.1168640E+00
         21   -1    0    0  504  503  0.00000000000E+00  0.00000000000E+00  0.15314585110E+04  0.15314585110E+04  0.00000000000E+00 0.  1.
         21   -1    0    0  502  504 -0.00000000000E+00 -0.00000000000E+00 -0.37473559160E+02  0.37473559160E+02  0.00000000000E+00 0.  1.
          6    2    1    2  502    0 -0.46867432605E+02 -0.80694290356E+01  0.22653030690E+03  0.28904156667E+03  0.17311087602E+03 0.  0.
         24    2    3    3    0    0  0.27143827291E+02  0.32041656996E+02  0.85631515268E+02  0.12484313398E+03  0.80558032206E+02 0.  0.
         -6    2    1    2    0  503  0.46867432605E+02  0.80694290356E+01  0.12674546449E+04  0.12798905035E+04  0.17151312489E+03 0.  0.
        -24    2    5    5    0    0  0.13294285510E+02  0.69139582546E+02  0.69202127080E+03  0.70023338248E+03  0.80475653474E+02 0.  0.
          2    1    4    4  501    0  0.84091037916E+01  0.35281479011E+02  0.96396657773E+02  0.10299423002E+03  0.00000000000E+00 0. -1.
         -1    1    4    4    0  501  0.18734723499E+02 -0.32398220148E+01 -0.10765142505E+02  0.21848903964E+02  0.00000000000E+00 0.  1.
          5    1    3    3  502    0 -0.74011259896E+02 -0.40111086031E+02  0.14089879163E+03  0.16419843269E+03  0.47000000000E+01 0. -1.
         11    1    6    6    0    0  0.38865724437E+02  0.69801523164E+01  0.27842813938E+03  0.28121432372E+03  0.00000000000E+00 0. -1.
        -12    1    6    6    0    0 -0.25571438927E+02  0.62159430230E+02  0.41359313142E+03  0.41901905877E+03  0.00000000000E+00 0.  1.
         -5    1    5    5    0  503  0.33573147095E+02 -0.61070153511E+02  0.57543337412E+03  0.57965712098E+03  0.47000000000E+01 0.  1.
<mgrwt>
<rscale>  2 0.17913822E+03</rscale>
<asrwt>0</asrwt>
<pdfrwt beam="1">  1       21 0.23560895E+00 0.17952450E+03</pdfrwt>
<pdfrwt beam="2">  1       21 0.57651641E-02 0.17952450E+03</pdfrwt>
<totfact> 0.17281354E+04</totfact>
</mgrwt>
</event>
<event>
12    1  0.2768653E-001  0.2273849E+03  0.7546771E-02  0.1128752E+00
         21   -1    0    0  504  503  0.00000000000E+00  0.00000000000E+00  0.39976445888E+02  0.39976445888E+02  0.00000000000E+00 0. -1.
         21   -1    0    0  502  504 -0.00000000000E+00 -0.00000000000E+00 -0.13287454495E+04  0.13287454495E+04  0.00000000000E+00 0. -1.
          6    2    1    2  502    0  0.35974752917E+02  0.14194126500E+03 -0.76632051841E+03  0.79893569490E+03  0.17207440859E+03 0.  0.
         24    2    3    3    0    0  0.48734094961E+01  0.16438071734E+03 -0.68209778910E+03  0.70627296930E+03  0.80742448017E+02 0.  0.
         -6    2    1    2    0  503 -0.35974752917E+02 -0.14194126500E+03 -0.52244848525E+03  0.56978620053E+03  0.17396088360E+03 0.  0.
        -24    2    5    5    0    0 -0.33176982061E+01 -0.14354993229E+03 -0.50663645980E+03  0.53316405994E+03  0.83461501476E+02 0.  0.
          4    1    4    4  501    0  0.17043165454E+02  0.14428328770E+03 -0.65252285055E+03  0.66850146379E+03  0.00000000000E+00 0. -1.
         -3    1    4    4    0  501 -0.12169755958E+02  0.20097429634E+02 -0.29574938545E+02  0.37771505503E+02  0.00000000000E+00 0.  1.
          5    1    3    3  502    0  0.31101343421E+02 -0.22439452338E+02 -0.84222729306E+02  0.92662725599E+02  0.47000000000E+01 0. -1.
         13    1    6    6    0    0 -0.28180504639E+02 -0.58598614613E+02 -0.11957602209E+03  0.13611158486E+03  0.00000000000E+00 0. -1.
        -14    1    6    6    0    0  0.24862806433E+02 -0.84951317681E+02 -0.38706043772E+03  0.39705247508E+03  0.00000000000E+00 0.  1.
         -5    1    5    5    0  503 -0.32657054711E+02  0.16086672943E+01 -0.15812025445E+02  0.36622140592E+02  0.47000000000E+01 0.  1.
<mgrwt>
<rscale>  2 0.22702405E+03</rscale>
<asrwt>0</asrwt>
<pdfrwt beam="1">  1       21 0.61502220E-02 0.22738490E+03</pdfrwt>
<pdfrwt beam="2">  1       21 0.20442239E+00 0.22738490E+03</pdfrwt>
<totfact> 0.23196697E+04</totfact>
</mgrwt>
</event>
<event>
12    1  0.2768653E-001  0.1772508E+03  0.7546771E-02  0.1170769E+00
         21   -1    0    0  504  503  0.00000000000E+00  0.00000000000E+00  0.12953444753E+03  0.12953444753E+03  0.00000000000E+00 0. -1.
         21   -1    0    0  502  504 -0.00000000000E+00 -0.00000000000E+00 -0.29711930790E+03  0.29711930790E+03  0.00000000000E+00 0. -1.
          6    2    1    2  502    0  0.37934069217E+02 -0.24275088843E+02 -0.17671278534E+03  0.25029034470E+03  0.17143387822E+03 0.  0.
         24    2    3    3    0    0 -0.23627804323E+02  0.29839055040E+02 -0.12556698238E+03  0.15356295456E+03  0.79786412418E+02 0.  0.
         -6    2    1    2    0  503 -0.37934069217E+02  0.24275088843E+02  0.91279249662E+01  0.17636341074E+03  0.17027172428E+03 0.  0.
        -24    2    5    5    0    0 -0.83876303877E+02  0.35409232004E+02  0.30782544260E+01  0.12847451241E+03  0.90593469004E+02 0.  0.
          4    1    4    4  501    0  0.23304102946E+02  0.25379790265E+02 -0.25239256902E+02  0.42711064807E+02  0.00000000000E+00 0. -1.
         -3    1    4    4    0  501 -0.46931907269E+02  0.44592647758E+01 -0.10032772548E+03  0.11085188976E+03  0.00000000000E+00 0.  1.
          5    1    3    3  502    0  0.61561873540E+02 -0.54114143884E+02 -0.51145802953E+02  0.96727390132E+02  0.47000000000E+01 0. -1.
         11    1    6    6    0    0 -0.13571027158E+02  0.38587790474E+01  0.40443062643E+02  0.42833448026E+02  0.00000000000E+00 0. -1.
        -12    1    6    6    0    0 -0.70305276718E+02  0.31550452956E+02 -0.37364808217E+02  0.85641064387E+02  0.00000000000E+00 0.  1.
         -5    1    5    5    0  503  0.45942234660E+02 -0.11134143160E+02  0.60496705403E+01  0.47888898328E+02  0.47000000000E+01 0.  1.
<mgrwt>
<rscale>  2 0.17696919E+03</rscale>
<asrwt>0</asrwt>
<pdfrwt beam="1">  1       21 0.19928377E-01 0.17725081E+03</pdfrwt>
<pdfrwt beam="2">  1       21 0.45710662E-01 0.17725081E+03</pdfrwt>
<totfact> 0.10723681E+05</totfact>
</mgrwt>
</event>
<event>
12    1  0.2768653E-001  0.1791029E+03  0.7546771E-02  0.1168991E+00
         21   -1    0    0  504  503  0.00000000000E+00  0.00000000000E+00  0.16069777808E+03  0.16069777808E+03  0.00000000000E+00 0. -1.
         21   -1    0    0  502  504 -0.00000000000E+00 -0.00000000000E+00 -0.23916160163E+03  0.23916160163E+03  0.00000000000E+00 0.  1.
          6    2    1    2  502    0  0.38939314868E+02 -0.12289224428E+02 -0.12187907532E+03  0.21556954473E+03  0.17305613059E+03 0.  0.
         24    2    3    3    0    0 -0.15437883482E+02 -0.11068915025E+02 -0.13602196727E+03  0.15917379800E+03  0.80457897460E+02 0.  0.
         -6    2    1    2    0  503 -0.38939314868E+02  0.12289224428E+02  0.43415251773E+02  0.18428983498E+03  0.17438624920E+03 0.  0.
        -24    2    5    5    0    0  0.19614962517E+02 -0.24485802799E+02 -0.20479155449E+02  0.90026420541E+02  0.81859998132E+02 0.  0.
          2    1    4    4  501    0 -0.20155612795E+02 -0.41194922955E+02 -0.49711306519E+02  0.67634934762E+02  0.00000000000E+00 0. -1.
         -1    1    4    4    0  501  0.47177293133E+01  0.30126007930E+02 -0.86310660756E+02  0.91538863243E+02  0.00000000000E+00 0.  1.
          5    1    3    3  502    0  0.54377198350E+02 -0.12203094033E+01  0.14142891955E+02  0.56395746721E+02  0.47000000000E+01 0. -1.
         11    1    6    6    0    0  0.33293582026E+02  0.82710616828E+01  0.17100685757E+02  0.38331534262E+02  0.00000000000E+00 0. -1.
        -12    1    6    6    0    0 -0.13678619509E+02 -0.32756864481E+02 -0.37579841207E+02  0.51694886279E+02  0.00000000000E+00 0.  1.
         -5    1    5    5    0  503 -0.58554277385E+02  0.36775027227E+02  0.63894407223E+02  0.94263414441E+02  0.47000000000E+01 0.  1.
<mgrwt>
<rscale>  2 0.17877834E+03</rscale>
<asrwt>0</asrwt>
<pdfrwt beam="1">  1       21 0.24722735E-01 0.17910293E+03</pdfrwt>
<pdfrwt beam="2">  1       21 0.36794093E-01 0.17910293E+03</pdfrwt>
<totfact> 0.11076683E+05</totfact>
</mgrwt>
</event>
<event>
12    1  0.2768653E-001  0.2400953E+03  0.7546771E-02  0.1120061E+00
         21   -1    0    0  504  503  0.00000000000E+00  0.00000000000E+00  0.13221559943E+03  0.13221559943E+03  0.00000000000E+00 0. -1.
         21   -1    0    0  502  504 -0.00000000000E+00 -0.00000000000E+00 -0.47721881976E+03  0.47721881976E+03  0.00000000000E+00 0. -1.
          6    2    1    2  502    0 -0.15018788740E+03  0.65684508556E+02 -0.78468354073E+02  0.25070528101E+03  0.17269915792E+03 0.  0.
         24    2    3    3    0    0 -0.12377342295E+03  0.87264407048E+02 -0.78497181216E+01  0.17214003618E+03  0.81459419439E+02 0.  0.
         -6    2    1    2    0  503  0.15018788740E+03 -0.65684508556E+02 -0.26653486626E+03  0.35872913819E+03  0.17542777279E+03 0.  0.
        -24    2    5    5    0    0  0.17009908860E+03 -0.79362005045E+02 -0.19379182855E+03  0.28193610869E+03  0.81857612878E+02 0.  0.
          4    1    4    4  501    0 -0.13135371461E+03  0.85693627813E+02  0.52512535460E+01  0.15692282133E+03  0.00000000000E+00 0. -1.
         -3    1    4    4    0  501  0.75802916650E+01  0.15707792353E+01 -0.13100971668E+02  0.15217214849E+02  0.00000000000E+00 0.  1.
          5    1    3    3  502    0 -0.26414464451E+02 -0.21579898492E+02 -0.70618635951E+02  0.78565244827E+02  0.47000000000E+01 0. -1.
         13    1    6    6    0    0  0.10465307150E+02 -0.78773850135E+01 -0.60838747518E+02  0.62232861480E+02  0.00000000000E+00 0. -1.
        -14    1    6    6    0    0  0.15963378145E+03 -0.71484620032E+02 -0.13295308103E+03  0.21970324721E+03  0.00000000000E+00 0.  1.
         -5    1    5    5    0  503 -0.19911201199E+02  0.13677496489E+02 -0.72743037710E+02  0.76793029493E+02  0.47000000000E+01 0.  1.
<mgrwt>
<rscale>  2 0.23959717E+03</rscale>
<asrwt>0</asrwt>
<pdfrwt beam="1">  1       21 0.20340861E-01 0.24009531E+03</pdfrwt>
<pdfrwt beam="2">  1       21 0.73418281E-01 0.24009531E+03</pdfrwt>
<totfact> 0.36420725E+04</totfact>
</mgrwt>
</event>
<event>
12    1  0.2768653E-001  0.1970206E+03  0.7546771E-02  0.1152297E+00
         21   -1    0    0  504  503  0.00000000000E+00  0.00000000000E+00  0.12906013711E+03  0.12906013711E+03  0.00000000000E+00 0. -1.
         21   -1    0    0  502  504 -0.00000000000E+00 -0.00000000000E+00 -0.44148503082E+03  0.44148503082E+03  0.00000000000E+00 0. -1.
          6    2    1    2  502    0  0.93485460679E+02 -0.45287742341E+01 -0.31732334615E+03  0.37346368176E+03  0.17326561815E+03 0.  0.
         24    2    3    3    0    0 -0.20576087841E+02  0.21366434297E+02 -0.11188869013E+03  0.13701900205E+03  0.73315946674E+02 0.  0.
         -6    2    1    2    0  503 -0.93485460679E+02  0.45287742341E+01  0.48984524307E+01  0.19708148616E+03  0.17336976725E+03 0.  0.
        -24    2    5    5    0    0 -0.23115423179E+02  0.38429959924E+02 -0.47836715223E+02  0.10271877914E+03  0.79067133857E+02 0.  0.
          4    1    4    4  501    0  0.53601059059E+01  0.34103268098E+02 -0.18302327856E+02  0.39073505541E+02  0.00000000000E+00 0. -1.
         -3    1    4    4    0  501 -0.25936193747E+02 -0.12736833801E+02 -0.93586362277E+02  0.97945496505E+02  0.00000000000E+00 0.  1.
          5    1    3    3  502    0  0.11406154852E+03 -0.25895208531E+02 -0.20543465601E+03  0.23644467972E+03  0.47000000000E+01 0. -1.
         13    1    6    6    0    0  0.62445769794E+01  0.47903519763E+02 -0.31423462819E+01  0.48410910831E+02  0.00000000000E+00 0. -1.
        -14    1    6    6    0    0 -0.29360000158E+02 -0.94735598389E+01 -0.44694368941E+02  0.54307868310E+02  0.00000000000E+00 0.  1.
         -5    1    5    5    0  503 -0.70370037501E+02 -0.33901185690E+02  0.52735167653E+02  0.94362707022E+02  0.47000000000E+01 0.  1.
<mgrwt>
<rscale>  2 0.19699769E+03</rscale>
<asrwt>0</asrwt>
<pdfrwt beam="1">  1       21 0.19855406E-01 0.19702060E+03</pdfrwt>
<pdfrwt beam="2">  1       21 0.67920774E-01 0.19702060E+03</pdfrwt>
<totfact> 0.46225404E+04</totfact>
</mgrwt>
</event>
<event>
12    1  0.2768653E-001  0.2037583E+03  0.7546771E-02  0.1148132E+00
         21   -1    0    0  504  503  0.00000000000E+00  0.00000000000E+00  0.53697316297E+02  0.53697316297E+02  0.00000000000E+00 0. -1.
         21   -1    0    0  502  504 -0.00000000000E+00 -0.00000000000E+00 -0.75235097485E+03  0.75235097485E+03  0.00000000000E+00 0. -1.
          6    2    1    2  502    0 -0.79629868829E+02  0.48904273103E+02 -0.30554978131E+03  0.36327509692E+03  0.17284554736E+03 0.  0.
         24    2    3    3    0    0 -0.15371482561E+02 -0.36134499092E+02 -0.13955730478E+03  0.16595220101E+03  0.80758325910E+02 0.  0.
         -6    2    1    2    0  503  0.79629868829E+02 -0.48904273103E+02 -0.39310387724E+03  0.44277319423E+03  0.18106600810E+03 0.  0.
        -24    2    5    5    0    0 -0.17520389764E+02  0.30571986336E+02 -0.19547071668E+03  0.20860316047E+03  0.63756310050E+02 0.  0.
          2    1    4    4  501    0  0.94008187922E+00 -0.56904580436E+02 -0.62668745499E+02  0.84654513707E+02  0.00000000000E+00 0. -1.
         -1    1    4    4    0  501 -0.16311564440E+02  0.20770081344E+02 -0.76888559276E+02  0.81297687305E+02  0.00000000000E+00 0.  1.
          5    1    3    3  502    0 -0.64258386268E+02  0.85038772195E+02 -0.16599247654E+03  0.19732289591E+03  0.47000000000E+01 0. -1.
         11    1    6    6    0    0  0.11807076296E+02  0.40212601944E+02 -0.11685527745E+03  0.12414353094E+03  0.00000000000E+00 0. -1.
        -12    1    6    6    0    0 -0.29327466060E+02 -0.96406156080E+01 -0.78615439231E+02  0.84459629530E+02  0.00000000000E+00 0.  1.
         -5    1    5    5    0  503  0.97150258593E+02 -0.79476259439E+02 -0.19763316056E+03  0.23417003376E+03  0.47000000000E+01 0.  1.
<mgrwt>
<rscale>  2 0.20191627E+03</rscale>
<asrwt>0</asrwt>
<pdfrwt beam="1">  1       21 0.82611262E-02 0.20375830E+03</pdfrwt>
<pdfrwt beam="2">  1       21 0.11574630E+00 0.20375830E+03</pdfrwt>
<totfact> 0.65121693E+04</totfact>
</mgrwt>
</event>
<event>
12    1  0.2768653E-001  0.4157284E+03  0.7546771E-02  0.1038514E+00
         21   -1    0    0  504  503  0.00000000000E+00  0.00000000000E+00  0.43534752421E+03  0.43534752421E+03  0.00000000000E+00 0. -1.
         21   -1    0    0  502  504 -0.00000000000E+00 -0.00000000000E+00 -0.39647619671E+03  0.39647619671E+03  0.00000000000E+00 0.  1.
          6    2    1    2  502    0 -0.36191080737E+03 -0.10846555139E+03  0.23852641324E+02  0.41582415742E+03  0.17203654573E+03 0.  0.
         24    2    3    3    0    0 -0.19891060627E+03  0.14455034805E+01  0.40079095779E+02  0.21850488982E+03  0.81058831662E+02 0.  0.
         -6    2    1    2    0  503  0.36191080737E+03  0.10846555139E+03  0.15018686181E+02  0.41599956351E+03  0.17345278198E+03 0.  0.
        -24    2    5    5    0    0  0.24629506965E+03  0.45595274866E+02 -0.51149526158E+02  0.26862252051E+03  0.82471777447E+02 0.  0.
          2    1    4    4  501    0 -0.15236378873E+03 -0.21535365883E+02  0.56709454532E+02  0.16399529973E+03  0.00000000000E+00 0. -1.
         -1    1    4    4    0  501 -0.46546817539E+02  0.22980869363E+02 -0.16630358753E+02  0.54509590091E+02  0.00000000000E+00 0.  1.
          5    1    3    3  502    0 -0.16300020110E+03 -0.10991105487E+03 -0.16226454455E+02  0.19731926760E+03  0.47000000000E+01 0. -1.
         13    1    6    6    0    0  0.10023548789E+03  0.58335580236E+02 -0.34890180186E+02  0.12110952741E+03  0.00000000000E+00 0. -1.
        -14    1    6    6    0    0  0.14605958176E+03 -0.12740305370E+02 -0.16259345973E+02  0.14751299311E+03  0.00000000000E+00 0.  1.
         -5    1    5    5    0  503  0.11561573771E+03  0.62870276525E+02  0.66168212339E+02  0.14737704299E+03  0.47000000000E+01 0.  1.
<mgrwt>
<rscale>  2 0.41558107E+03</rscale>
<asrwt>0</asrwt>
<pdfrwt beam="1">  1       21 0.66976542E-01 0.41572837E+03</pdfrwt>
<pdfrwt beam="2">  1       21 0.60996338E-01 0.41572837E+03</pdfrwt>
<totfact> 0.45374753E+03</totfact>
</mgrwt>
</event>
<event>
12    1  0.2768653E-001  0.2428694E+03  0.7546771E-02  0.1118044E+00
         21   -1    0    0  504  503  0.00000000000E+00  0.00000000000E+00  0.47524164270E+03  0.47524164270E+03  0.00000000000E+00 0.  1.
         21   -1    0    0  502  504 -0.00000000000E+00 -0.00000000000E+00 -0.12483774740E+03  0.12483774740E+03  0.00000000000E+00 0.  1.
          6    2    1    2  502    0 -0.41995059926E+02  0.16560960683E+03  0.14570185790E+03  0.28244990010E+03  0.17134406245E+03 0.  0.
         24    2    3    3    0    0 -0.50047026216E+02  0.43624646010E+02  0.19291391247E+02  0.10653270109E+03  0.81050873240E+02 0.  0.
         -6    2    1    2    0  503  0.41995059926E+02 -0.16560960683E+03  0.20470203740E+03  0.31762949000E+03  0.17261356224E+03 0.  0.
        -24    2    5    5    0    0 -0.13691920180E+02 -0.11718872245E+02  0.58187155743E+02  0.97920367541E+02  0.76667154903E+02 0.  0.
          4    1    4    4  501    0 -0.11224568444E+02 -0.12118263466E+02 -0.21640360320E+02  0.27224041598E+02  0.00000000000E+00 0. -1.
         -3    1    4    4    0  501 -0.38822457772E+02  0.55742909476E+02  0.40931751567E+02  0.79308659493E+02  0.00000000000E+00 0.  1.
          5    1    3    3  502    0  0.80519662893E+01  0.12198496082E+03  0.12641046665E+03  0.17591719901E+03  0.47000000000E+01 0. -1.
         11    1    6    6    0    0 -0.84433912287E+01 -0.42750950521E+02  0.18685995122E+02  0.47414143877E+02  0.00000000000E+00 0. -1.
        -12    1    6    6    0    0 -0.52485289513E+01  0.31032078277E+02  0.39501160621E+02  0.50506223663E+02  0.00000000000E+00 0.  1.
         -5    1    5    5    0  503  0.55686980106E+02 -0.15389073459E+03  0.14651488166E+03  0.21970912246E+03  0.47000000000E+01 0.  1.
<mgrwt>
<rscale>  2 0.24264398E+03</rscale>
<asrwt>0</asrwt>
<pdfrwt beam="1">  1       21 0.73114098E-01 0.24286945E+03</pdfrwt>
<pdfrwt beam="2">  1       21 0.19205808E-01 0.24286945E+03</pdfrwt>
<totfact> 0.40891280E+04</totfact>
</mgrwt>
</event>
<event>
12    1  0.2768653E-001  0.3006733E+03  0.7546771E-02  0.1084978E+00
         21   -1    0    0  504  503  0.00000000000E+00  0.00000000000E+00  0.29239460072E+03  0.29239460072E+03  0.00000000000E+00 0.  1.
         21   -1    0    0  502  504 -0.00000000000E+00 -0.00000000000E+00 -0.48331133514E+03  0.48331133514E+03  0.00000000000E+00 0.  1.
          6    2    1    2  502    0  0.24373211549E+03 -0.22989281352E+02 -0.32860344559E+03  0.44500662371E+03  0.17354198201E+03 0.  0.
         24    2    3    3    0    0  0.15255885739E+03 -0.10229952907E+02 -0.30335132270E+03  0.34942878547E+03  0.81851049009E+02 0.  0.
         -6    2    1    2    0  503 -0.24373211549E+03  0.22989281352E+02  0.13768671117E+03  0.33069931215E+03  0.17455816637E+03 0.  0.
        -24    2    5    5    0    0 -0.18745620452E+03 -0.34285307004E+02  0.59640120700E+02  0.21862470793E+03  0.89019705865E+02 0.  0.
          2    1    4    4  501    0  0.76332557280E+02 -0.43927117441E+02 -0.12918700824E+03  0.15635067651E+03  0.00000000000E+00 0. -1.
         -1    1    4    4    0  501  0.76226300115E+02  0.33697164534E+02 -0.17416431447E+03  0.19307810896E+03  0.00000000000E+00 0.  1.
          5    1    3    3  502    0  0.91173258090E+02 -0.12759328445E+02 -0.25252122890E+02  0.95577838245E+02  0.47000000000E+01 0. -1.
         13    1    6    6    0    0  0.11821344443E+01  0.47526980322E+01 -0.12108503084E+02  0.13061448134E+02  0.00000000000E+00 0. -1.
        -14    1    6    6    0    0 -0.18863833896E+03 -0.39038005037E+02  0.71748623783E+02  0.20556325980E+03  0.00000000000E+00 0.  1.
         -5    1    5    5    0  503 -0.56275910968E+02  0.57274588357E+02  0.78046590468E+02  0.11207460422E+03  0.47000000000E+01 0.  1.
<mgrwt>
<rscale>  2 0.30052594E+03</rscale>
<asrwt>0</asrwt>
<pdfrwt beam="1">  1       21 0.44983785E-01 0.30067325E+03</pdfrwt>
<pdfrwt beam="2">  1       21 0.74355590E-01 0.30067325E+03</pdfrwt>
<totfact> 0.72066293E+03</totfact>
</mgrwt>
</event>
<event>
12    1  0.2768653E-001  0.1808134E+03  0.7546771E-02  0.1167148E+00
         21   -1    0    0  504  503  0.00000000000E+00  0.00000000000E+00  0.46999381043E+03  0.46999381043E+03  0.00000000000E+00 0.  1.
         21   -1    0    0  502  504 -0.00000000000E+00 -0.00000000000E+00 -0.23104652995E+03  0.23104652995E+03  0.00000000000E+00 0.  1.
          6    2    1    2  502    0  0.35942527899E+02 -0.37062136623E+02 -0.17380858300E+03  0.25041755887E+03  0.17272539762E+03 0.  0.
         24    2    3    3    0    0  0.32092719625E+02 -0.45981606360E+02 -0.26294972687E+02  0.10250970515E+03  0.81685759375E+02 0.  0.
         -6    2    1    2    0  503 -0.35942527899E+02  0.37062136623E+02  0.41275586348E+03  0.45062278150E+03  0.17328595179E+03 0.  0.
        -24    2    5    5    0    0  0.36802599304E+02  0.28863372315E+02  0.12803419052E+03  0.15660306393E+03  0.77098898262E+02 0.  0.
          4    1    4    4  501    0 -0.13518259530E+02 -0.39061712232E+02  0.11463278867E+02  0.42894841946E+02  0.00000000000E+00 0. -1.
         -3    1    4    4    0  501  0.45610979155E+02 -0.69198941280E+01 -0.37758251554E+02  0.59614863202E+02  0.00000000000E+00 0.  1.
          5    1    3    3  502    0  0.38498082744E+01  0.89194697369E+01 -0.14751361032E+03  0.14790785372E+03  0.47000000000E+01 0. -1.
         13    1    6    6    0    0  0.34348653197E+02  0.54000606868E+02  0.81163679758E+02  0.10336071996E+03  0.00000000000E+00 0. -1.
        -14    1    6    6    0    0  0.24539461072E+01 -0.25137234552E+02  0.46870510761E+02  0.53242343970E+02  0.00000000000E+00 0.  1.
         -5    1    5    5    0  503 -0.72745127204E+02  0.81987643078E+01  0.28472167296E+03  0.29401971758E+03  0.47000000000E+01 0.  1.
<mgrwt>
<rscale>  2 0.18067897E+03</rscale>
<asrwt>0</asrwt>
<pdfrwt beam="1">  1       21 0.72306740E-01 0.18081341E+03</pdfrwt>
<pdfrwt beam="2">  1       21 0.35545620E-01 0.18081341E+03</pdfrwt>
<totfact> 0.13264409E+04</totfact>
</mgrwt>
</event>
<event>
12    1  0.2768653E-001  0.2245545E+03  0.7546771E-02  0.1133527E+00
         21   -1    0    0  504  503  0.00000000000E+00  0.00000000000E+00  0.79708004134E+03  0.79708004134E+03  0.00000000000E+00 0.  1.
         21   -1    0    0  502  504 -0.00000000000E+00 -0.00000000000E+00 -0.11133550638E+03  0.11133550638E+03  0.00000000000E+00 0.  1.
          6    2    1    2  502    0 -0.12342304855E+03 -0.73398327191E+02  0.24548301366E+02  0.21012822671E+03  0.15142882556E+03 0.  0.
         24    2    3    3    0    0 -0.85084798395E+02 -0.20689782271E+02  0.61352059276E+02  0.13513076855E+03  0.82636308149E+02 0.  0.
         -6    2    1    2    0  503  0.12342304855E+03  0.73398327191E+02  0.66119623359E+03  0.69828732102E+03  0.17263881380E+03 0.  0.
        -24    2    5    5    0    0  0.26696198426E+02  0.21691242140E+02  0.14849456372E+03  0.17396413970E+03  0.83843243323E+02 0.  0.
          4    1    4    4  501    0 -0.47224204977E+02  0.22677286788E+02  0.56971369750E+02  0.77395877428E+02  0.00000000000E+00 0. -1.
         -3    1    4    4    0  501 -0.37860593418E+02 -0.43367069059E+02  0.43806895264E+01  0.57734891127E+02  0.00000000000E+00 0.  1.
          5    1    3    3  502    0 -0.38338250160E+02 -0.52708544920E+02 -0.36803757910E+02  0.74997458151E+02  0.47000000000E+01 0. -1.
         11    1    6    6    0    0  0.35317779382E+02 -0.24865299001E+02  0.67107083513E+02  0.79805947727E+02  0.00000000000E+00 0. -1.
        -12    1    6    6    0    0 -0.86215809560E+01  0.46556541140E+02  0.81387480207E+02  0.94158191973E+02  0.00000000000E+00 0.  1.
         -5    1    5    5    0  503  0.96726850128E+02  0.51707085051E+02  0.51270166987E+03  0.52432318132E+03  0.47000000000E+01 0.  1.
<mgrwt>
<rscale>  2 0.22047858E+03</rscale>
<asrwt>0</asrwt>
<pdfrwt beam="1">  1       21 0.12262769E+00 0.22455450E+03</pdfrwt>
<pdfrwt beam="2">  1       21 0.17128540E-01 0.22455450E+03</pdfrwt>
<totfact> 0.15081670E+04</totfact>
</mgrwt>
</event>
<event>
12    1  0.2768653E-001  0.2681659E+03  0.7546771E-02  0.1102580E+00
         21   -1    0    0  504  503  0.00000000000E+00  0.00000000000E+00  0.80214854845E+03  0.80214854845E+03  0.00000000000E+00 0. -1.
         21   -1    0    0  502  504 -0.00000000000E+00 -0.00000000000E+00 -0.14265959993E+03  0.14265959993E+03  0.00000000000E+00 0.  1.
          6    2    1    2  502    0 -0.62443457852E+01  0.20332611167E+03  0.39590244111E+02  0.26939172747E+03  0.17211628587E+03 0.  0.
         24    2    3    3    0    0  0.25239636233E+02  0.66282236271E+02 -0.30123945504E+02  0.11237445727E+03  0.81793596766E+02 0.  0.
         -6    2    1    2    0  503  0.62443457852E+01 -0.20332611167E+03  0.61989870441E+03  0.67541642090E+03  0.17473533801E+03 0.  0.
        -24    2    5    5    0    0 -0.54425459891E+02 -0.10561149875E+03  0.42832151311E+03  0.45191500899E+03  0.81559410279E+02 0.  0.
          2    1    4    4  501    0  0.22481482781E+02  0.19741616421E+02  0.25841377571E+02  0.39533849822E+02  0.00000000000E+00 0. -1.
         -1    1    4    4    0  501  0.27581534516E+01  0.46540619849E+02 -0.55965323076E+02  0.72840607448E+02  0.00000000000E+00 0.  1.
          5    1    3    3  502    0 -0.31483982018E+02  0.13704387540E+03  0.69714189616E+02  0.15701727020E+03  0.47000000000E+01 0. -1.
         13    1    6    6    0    0  0.13199709397E+02 -0.77780482056E+01  0.12781153894E+03  0.12872653126E+03  0.00000000000E+00 0. -1.
        -14    1    6    6    0    0 -0.67625169287E+02 -0.97833450545E+02  0.30050997417E+03  0.32318847773E+03  0.00000000000E+00 0.  1.
         -5    1    5    5    0  503  0.60669805676E+02 -0.97714612920E+02  0.19157719130E+03  0.22350141191E+03  0.47000000000E+01 0.  1.
<mgrwt>
<rscale>  2 0.26774008E+03</rscale>
<asrwt>0</asrwt>
<pdfrwt beam="1">  1       21 0.12340747E+00 0.26816588E+03</pdfrwt>
<pdfrwt beam="2">  1       21 0.21947631E-01 0.26816588E+03</pdfrwt>
<totfact> 0.90998514E+03</totfact>
</mgrwt>
</event>
<event>
12    1  0.2768653E-001  0.3748890E+03  0.7546771E-02  0.1052860E+00
         21   -1    0    0  504  503  0.00000000000E+00  0.00000000000E+00  0.50637953817E+03  0.50637953817E+03  0.00000000000E+00 0. -1.
         21   -1    0    0  502  504 -0.00000000000E+00 -0.00000000000E+00 -0.27958467608E+03  0.27958467608E+03  0.00000000000E+00 0. -1.
          6    2    1    2  502    0  0.16341947365E+03  0.28929368331E+03  0.78469388212E+02  0.38279900768E+03  0.17314986520E+03 0.  0.
         24    2    3    3    0    0  0.86020204104E+02  0.13159329451E+03  0.10463159774E+03  0.20512905872E+03  0.80086758025E+02 0.  0.
         -6    2    1    2    0  503 -0.16341947365E+03 -0.28929368331E+03  0.14832547388E+03  0.40316520657E+03  0.17362309183E+03 0.  0.
        -24    2    5    5    0    0 -0.18617225318E+03 -0.22212149934E+03  0.98817747039E+02  0.31654594605E+03  0.80239145728E+02 0.  0.
          2    1    4    4  501    0  0.98440346266E+02  0.11521798441E+03  0.10534783274E+03  0.18456394980E+03  0.00000000000E+00 0. -1.
         -1    1    4    4    0  501 -0.12420142162E+02  0.16375310107E+02 -0.71623499317E+00  0.20565108922E+02  0.00000000000E+00 0.  1.
          5    1    3    3  502    0  0.77399269546E+02  0.15770038880E+03 -0.26162209531E+02  0.17766994895E+03  0.47000000000E+01 0. -1.
         13    1    6    6    0    0 -0.10612771701E+03 -0.17344886115E+03  0.44143882137E+02  0.20807758669E+03  0.00000000000E+00 0. -1.
        -14    1    6    6    0    0 -0.80044536169E+02 -0.48672638188E+02  0.54673864902E+02  0.10846835936E+03  0.00000000000E+00 0.  1.
         -5    1    5    5    0  503  0.22752779533E+02 -0.67172183974E+02  0.49507726842E+02  0.86619260522E+02  0.47000000000E+01 0.  1.
<mgrwt>
<rscale>  2 0.37483422E+03</rscale>
<asrwt>0</asrwt>
<pdfrwt beam="1">  1       21 0.77904544E-01 0.37488897E+03</pdfrwt>
<pdfrwt beam="2">  1       21 0.43013027E-01 0.37488897E+03</pdfrwt>
<totfact> 0.68924937E+03</totfact>
</mgrwt>
</event>
<event>
12    1  0.2768653E-001  0.3505239E+03  0.7546771E-02  0.1062467E+00
         21   -1    0    0  504  503  0.00000000000E+00  0.00000000000E+00  0.39517103777E+03  0.39517103777E+03  0.00000000000E+00 0. -1.
         21   -1    0    0  502  504 -0.00000000000E+00 -0.00000000000E+00 -0.40695257655E+03  0.40695257655E+03  0.00000000000E+00 0.  1.
          6    2    1    2  502    0 -0.15866020871E+03  0.25931245422E+03 -0.20130908974E+03  0.40421815881E+03  0.17450203310E+03 0.  0.
         24    2    3    3    0    0 -0.11849890132E+03  0.26396697779E+03 -0.20453852612E+03  0.36338784580E+03  0.80586368794E+02 0.  0.
         -6    2    1    2    0  503  0.15866020871E+03 -0.25931245422E+03  0.18952755095E+03  0.39790545551E+03  0.17318212440E+03 0.  0.
        -24    2    5    5    0    0  0.15246494042E+03 -0.14808085538E+03  0.17111152150E+03  0.28489178346E+03  0.81918726225E+02 0.  0.
          2    1    4    4  501    0 -0.46598644431E+02  0.19111950919E+03 -0.15020098856E+03  0.24750441899E+03  0.00000000000E+00 0. -1.
         -1    1    4    4    0  501 -0.71900256891E+02  0.72847468595E+02 -0.54337537555E+02  0.11588342681E+03  0.00000000000E+00 0.  1.
          5    1    3    3  502    0 -0.40161307388E+02 -0.46545235679E+01  0.32294363755E+01  0.40830313004E+02  0.47000000000E+01 0. -1.
         11    1    6    6    0    0  0.11139143671E+03 -0.14863117513E+03  0.14977395772E+03  0.23860326235E+03  0.00000000000E+00 0. -1.
        -12    1    6    6    0    0  0.41073503714E+02  0.55031974090E+00  0.21337563772E+02  0.46288521114E+02  0.00000000000E+00 0.  1.
         -5    1    5    5    0  503  0.61952682875E+01 -0.11123159883E+03  0.18416029458E+02  0.11301367205E+03  0.47000000000E+01 0.  1.
<mgrwt>
<rscale>  2 0.35035993E+03</rscale>
<asrwt>0</asrwt>
<pdfrwt beam="1">  1       21 0.60795544E-01 0.35052385E+03</pdfrwt>
<pdfrwt beam="2">  1       21 0.62608089E-01 0.35052385E+03</pdfrwt>
<totfact> 0.54429947E+03</totfact>
</mgrwt>
</event>
<event>
12    1  0.2768653E-001  0.1885699E+03  0.7546771E-02  0.1160735E+00
         21   -1    0    0  504  503  0.00000000000E+00  0.00000000000E+00  0.96019813322E+03  0.96019813322E+03  0.00000000000E+00 0. -1.
         21   -1    0    0  502  504 -0.00000000000E+00 -0.00000000000E+00 -0.27823365900E+03  0.27823365900E+03  0.00000000000E+00 0. -1.
          6    2    1    2  502    0  0.16172429648E+02 -0.73434311422E+02 -0.23603360379E+03  0.30211004127E+03  0.17292908762E+03 0.  0.
         24    2    3    3    0    0 -0.32030534827E+02  0.12361108667E+02 -0.11224801744E+03  0.14390340020E+03  0.83245534420E+02 0.  0.
         -6    2    1    2    0  503 -0.16172429648E+02  0.73434311422E+02  0.91799807802E+03  0.93632175095E+03  0.16829677500E+03 0.  0.
        -24    2    5    5    0    0  0.22740813548E+01  0.22365313516E+02  0.18533075695E+03  0.20163010837E+03  0.76169760626E+02 0.  0.
          4    1    4    4  501    0 -0.96095577612E+01 -0.35722771621E+02 -0.45856333423E+02  0.58917428047E+02  0.00000000000E+00 0. -1.
         -3    1    4    4    0  501 -0.22420977066E+02  0.48083880287E+02 -0.66391684015E+02  0.84985972151E+02  0.00000000000E+00 0.  1.
          5    1    3    3  502    0  0.48202964475E+02 -0.85795420089E+02 -0.12378558635E+03  0.15820664108E+03  0.47000000000E+01 0. -1.
         11    1    6    6    0    0 -0.30253364417E+02  0.15806501410E+02  0.14709634382E+03  0.15100478770E+03  0.00000000000E+00 0. -1.
        -12    1    6    6    0    0  0.32527445772E+02  0.65588121063E+01  0.38234413138E+02  0.50625320668E+02  0.00000000000E+00 0.  1.
         -5    1    5    5    0  503 -0.18446511003E+02  0.51068997905E+02  0.73266732106E+03  0.73469164257E+03  0.47000000000E+01 0.  1.
<mgrwt>
<rscale>  2 0.18750116E+03</rscale>
<asrwt>0</asrwt>
<pdfrwt beam="1">  1       21 0.14772279E+00 0.18856992E+03</pdfrwt>
<pdfrwt beam="2">  1       21 0.42805179E-01 0.18856992E+03</pdfrwt>
<totfact> 0.16399851E+03</totfact>
</mgrwt>
</event>
<event>
12    1  0.2768653E-001  0.2804997E+03  0.7546771E-02  0.1095537E+00
         21   -1    0    0  504  503  0.00000000000E+00  0.00000000000E+00  0.22256957233E+03  0.22256957233E+03  0.00000000000E+00 0.  1.
         21   -1    0    0  502  504 -0.00000000000E+00 -0.00000000000E+00 -0.44550206649E+03  0.44550206649E+03  0.00000000000E+00 0. -1.
          6    2    1    2  502    0  0.21632214761E+03 -0.38697278186E+02  0.41101251166E+02  0.28349500075E+03  0.17431968253E+03 0.  0.
         24    2    3    3    0    0  0.14357042064E+03  0.42916277955E+02  0.26898530793E+02  0.17314377244E+03  0.82467947596E+02 0.  0.
         -6    2    1    2    0  503 -0.21632214761E+03  0.38697278186E+02 -0.26403374532E+03  0.38457663807E+03  0.17289482639E+03 0.  0.
        -24    2    5    5    0    0 -0.19260026425E+03 -0.23428891249E+02 -0.22198459868E+03  0.30575653015E+03  0.81031592252E+02 0.  0.
          4    1    4    4  501    0  0.85771112574E+02 -0.72281049775E+00 -0.18393604817E+02  0.87724175147E+02  0.00000000000E+00 0. -1.
         -3    1    4    4    0  501  0.57799308066E+02  0.43639088453E+02  0.45292135611E+02  0.85419597295E+02  0.00000000000E+00 0.  1.
          5    1    3    3  502    0  0.72751726974E+02 -0.81613556141E+02  0.14202720373E+02  0.11035122831E+03  0.47000000000E+01 0. -1.
         11    1    6    6    0    0 -0.18236722835E+03  0.24990952022E+01 -0.19201299868E+03  0.26482643961E+03  0.00000000000E+00 0. -1.
        -12    1    6    6    0    0 -0.10233035900E+02 -0.25927986451E+02 -0.29971599998E+02  0.40930090540E+02  0.00000000000E+00 0.  1.
         -5    1    5    5    0  503 -0.23721883359E+02  0.62126169435E+02 -0.42049146645E+02  0.78820107920E+02  0.47000000000E+01 0.  1.
<mgrwt>
<rscale>  2 0.28027866E+03</rscale>
<asrwt>0</asrwt>
<pdfrwt beam="1">  1       21 0.34241473E-01 0.28049974E+03</pdfrwt>
<pdfrwt beam="2">  1       21 0.68538779E-01 0.28049974E+03</pdfrwt>
<totfact> 0.15208869E+04</totfact>
</mgrwt>
</event>
<event>
12    1  0.2768653E-001  0.3080857E+03  0.7546771E-02  0.1081313E+00
         21   -1    0    0  504  503  0.00000000000E+00  0.00000000000E+00  0.51669609081E+02  0.51669609081E+02  0.00000000000E+00 0.  1.
         21   -1    0    0  502  504 -0.00000000000E+00 -0.00000000000E+00 -0.22915547341E+04  0.22915547341E+04  0.00000000000E+00 0.  1.
          6    2    1    2  502    0 -0.24870208980E+03  0.53215125986E+02 -0.59738644810E+03  0.67215128908E+03  0.17387411518E+03 0.  0.
         24    2    3    3    0    0 -0.14208339883E+03  0.40939444437E+02 -0.49821617575E+03  0.52594913266E+03  0.80866569330E+02 0.  0.
         -6    2    1    2    0  503  0.24870208980E+03 -0.53215125986E+02 -0.16424986769E+04  0.16710730541E+04  0.17320123950E+03 0.  0.
        -24    2    5    5    0    0  0.42313731832E+02  0.25973898019E+01 -0.57011350793E+03  0.57757260514E+03  0.82240524951E+02 0.  0.
          2    1    4    4  501    0 -0.13125216215E+03  0.46316825396E+02 -0.49385565653E+03  0.51309432648E+03  0.00000000000E+00 0. -1.
         -1    1    4    4    0  501 -0.10831236682E+02 -0.53773809584E+01 -0.43605192215E+01  0.12854806180E+02  0.00000000000E+00 0.  1.
          5    1    3    3  502    0 -0.10661869098E+03  0.12275681548E+02 -0.99170272351E+02  0.14620215642E+03  0.47000000000E+01 0. -1.
         11    1    6    6    0    0  0.29406916152E+02  0.53461090205E+01 -0.57634032121E+02  0.64923256679E+02  0.00000000000E+00 0. -1.
        -12    1    6    6    0    0  0.12906815680E+02 -0.27487192186E+01 -0.51247947581E+03  0.51264934846E+03  0.00000000000E+00 0.  1.
         -5    1    5    5    0  503  0.20638835797E+03 -0.55812515787E+02 -0.10723851690E+04  0.10935004490E+04  0.47000000000E+01 0.  1.
<mgrwt>
<rscale>  2 0.30799083E+03</rscale>
<asrwt>0</asrwt>
<pdfrwt beam="1">  1       21 0.79491729E-02 0.30808568E+03</pdfrwt>
<pdfrwt beam="2">  1       21 0.35254678E+00 0.30808568E+03</pdfrwt>
<totfact> 0.18093525E+03</totfact>
</mgrwt>
</event>
<event>
12    1  0.2768653E-001  0.1897610E+03  0.7546771E-02  0.1159126E+00
         21   -1    0    0  504  503  0.00000000000E+00  0.00000000000E+00  0.22968229261E+03  0.22968229261E+03  0.00000000000E+00 0. -1.
         21   -1    0    0  502  504 -0.00000000000E+00 -0.00000000000E+00 -0.16998411213E+03  0.16998411213E+03  0.00000000000E+00 0. -1.
          6    2    1    2  502    0  0.29360589257E+02 -0.71298008775E+02 -0.29322709333E+02  0.19006216202E+03  0.17122603159E+03 0.  0.
         24    2    3    3    0    0 -0.35328058290E+02 -0.27475874504E+02 -0.36826111318E+02  0.11142761735E+03  0.95168041128E+02 0.  0.
         -6    2    1    2    0  503 -0.29360589257E+02  0.71298008775E+02  0.89020889814E+02  0.20960424271E+03  0.17338906967E+03 0.  0.
        -24    2    5    5    0    0 -0.42233478587E+02  0.10859786745E+03  0.87879837093E+02  0.16985021476E+03  0.86885362157E+02 0.  0.
          2    1    4    4  501    0 -0.41460965195E+02  0.27420949714E+02 -0.21040574900E+02  0.53978013211E+02  0.00000000000E+00 0. -1.
         -1    1    4    4    0  501  0.61329069042E+01 -0.54896824218E+02 -0.15785536418E+02  0.57449604144E+02  0.00000000000E+00 0.  1.
          5    1    3    3  502    0  0.64688647548E+02 -0.43822134271E+02  0.75034019848E+01  0.78634544667E+02  0.47000000000E+01 0. -1.
         13    1    6    6    0    0 -0.22037239508E+02 -0.91466959755E+01  0.48013541414E+01  0.24338343698E+02  0.00000000000E+00 0. -1.
        -14    1    6    6    0    0 -0.20196239079E+02  0.11774456343E+03  0.83078482952E+02  0.14551187106E+03  0.00000000000E+00 0.  1.
         -5    1    5    5    0  503  0.12872889329E+02 -0.37299858679E+02  0.11410527215E+01  0.39754027952E+02  0.47000000000E+01 0.  1.
<mgrwt>
<rscale>  2 0.18926543E+03</rscale>
<asrwt>0</asrwt>
<pdfrwt beam="1">  1       21 0.35335737E-01 0.18976095E+03</pdfrwt>
<pdfrwt beam="2">  1       21 0.26151402E-01 0.18976095E+03</pdfrwt>
<totfact> 0.10741750E+05</totfact>
</mgrwt>
</event>
<event>
12    1  0.2768653E-001  0.2068955E+03  0.7546771E-02  0.1144137E+00
         21   -1    0    0  504  503  0.00000000000E+00  0.00000000000E+00  0.12663452610E+04  0.12663452610E+04  0.00000000000E+00 0. -1.
         21   -1    0    0  502  504 -0.00000000000E+00 -0.00000000000E+00 -0.53982854992E+02  0.53982854992E+02  0.00000000000E+00 0. -1.
          6    2    1    2  502    0  0.73800750322E+02  0.84695936238E+02  0.20142833004E+03  0.28843982144E+03  0.17321722225E+03 0.  0.
         24    2    3    3    0    0  0.10510477653E+03  0.87345059185E+02  0.20189152686E+03  0.25667089857E+03  0.80271963606E+02 0.  0.
         -6    2    1    2    0  503 -0.73800750322E+02 -0.84695936238E+02  0.10109340760E+04  0.10318882946E+04  0.17374059437E+03 0.  0.
        -24    2    5    5    0    0 -0.46600901878E+02 -0.91787047521E+02  0.98593414226E+03  0.99397784349E+03  0.73002152892E+02 0.  0.
          2    1    4    4  501    0  0.10301947137E+03  0.10104108374E+03  0.18861487102E+03  0.23748238178E+03  0.00000000000E+00 0. -1.
         -1    1    4    4    0  501  0.20853051519E+01 -0.13696024557E+02  0.13276655841E+02  0.19188516789E+02  0.00000000000E+00 0.  1.
          5    1    3    3  502    0 -0.31304026203E+02 -0.26491229472E+01 -0.46319681662E+00  0.31768922869E+02  0.47000000000E+01 0. -1.
         13    1    6    6    0    0 -0.20795356138E+02  0.96672234934E+00  0.70911622588E+02  0.73904259735E+02  0.00000000000E+00 0. -1.
        -14    1    6    6    0    0 -0.25805545741E+02 -0.92753769870E+02  0.91502251967E+03  0.92007358376E+03  0.00000000000E+00 0.  1.
         -5    1    5    5    0  503 -0.27199848444E+02  0.70911112823E+01  0.24999933697E+02  0.37910451059E+02  0.47000000000E+01 0.  1.
<mgrwt>
<rscale>  2 0.20678558E+03</rscale>
<asrwt>0</asrwt>
<pdfrwt beam="1">  1       21 0.19482233E+00 0.20689550E+03</pdfrwt>
<pdfrwt beam="2">  1       21 0.83050556E-02 0.20689550E+03</pdfrwt>
<totfact> 0.16127828E+04</totfact>
</mgrwt>
</event>
<event>
12    1  0.2768653E-001  0.1804049E+03  0.7546771E-02  0.1167657E+00
         21   -1    0    0  504  503  0.00000000000E+00  0.00000000000E+00  0.19405797711E+03  0.19405797711E+03  0.00000000000E+00 0. -1.
         21   -1    0    0  502  504 -0.00000000000E+00 -0.00000000000E+00 -0.19219703779E+03  0.19219703779E+03  0.00000000000E+00 0. -1.
          6    2    1    2  502    0  0.52188690485E+02  0.15040782560E+01  0.71175782985E+02  0.19393788271E+03  0.17268465074E+03 0.  0.
         24    2    3    3    0    0  0.41416031575E+02 -0.40076922521E+02 -0.12705820184E+02  0.99580884261E+02  0.80208897596E+02 0.  0.
         -6    2    1    2    0  503 -0.52188690485E+02 -0.15040782560E+01 -0.69314843660E+02  0.19231713219E+03  0.17162578512E+03 0.  0.
        -24    2    5    5    0    0 -0.71216440640E+02 -0.44227005039E+01 -0.10620187485E+03  0.15044450746E+03  0.79141455037E+02 0.  0.
          4    1    4    4  501    0  0.60809691237E+02 -0.47248744975E+02 -0.15972404518E+02  0.78647187846E+02  0.00000000000E+00 0. -1.
         -3    1    4    4    0  501 -0.19393659662E+02  0.71718224536E+01  0.32665843340E+01  0.20933696415E+02  0.00000000000E+00 0.  1.
          5    1    3    3  502    0  0.10772658911E+02  0.41581000777E+02  0.83881603169E+02  0.94356998447E+02  0.47000000000E+01 0. -1.
         13    1    6    6    0    0 -0.16746221274E+02 -0.23249775828E+02  0.10682802197E+01  0.28672795916E+02  0.00000000000E+00 0. -1.
        -14    1    6    6    0    0 -0.54470219366E+02  0.18827075324E+02 -0.10727015507E+03  0.12177171154E+03  0.00000000000E+00 0.  1.
         -5    1    5    5    0  503  0.19027750155E+02  0.29186222480E+01  0.36887031193E+02  0.41872624733E+02  0.47000000000E+01 0.  1.
<mgrwt>
<rscale>  2 0.18015099E+03</rscale>
<asrwt>0</asrwt>
<pdfrwt beam="1">  1       21 0.29855073E-01 0.18040485E+03</pdfrwt>
<pdfrwt beam="2">  1       21 0.29568775E-01 0.18040485E+03</pdfrwt>
<totfact> 0.11841876E+05</totfact>
</mgrwt>
</event>
<event>
12    1  0.2768653E-001  0.2305644E+03  0.7546771E-02  0.1126848E+00
         21   -1    0    0  504  503  0.00000000000E+00  0.00000000000E+00  0.12182592589E+04  0.12182592589E+04  0.00000000000E+00 0. -1.
         21   -1    0    0  502  504 -0.00000000000E+00 -0.00000000000E+00 -0.48022115847E+02  0.48022115847E+02  0.00000000000E+00 0. -1.
          6    2    1    2  502    0  0.61878547020E+01  0.14919117575E+03  0.37628814029E+03  0.43953174115E+03  0.17116977095E+03 0.  0.
         24    2    3    3    0    0 -0.24455326759E+02  0.15330295360E+03  0.36884329994E+03  0.40738478274E+03  0.76270064305E+02 0.  0.
         -6    2    1    2    0  503 -0.61878547020E+01 -0.14919117575E+03  0.79394900272E+03  0.82674963355E+03  0.17568050886E+03 0.  0.
        -24    2    5    5    0    0  0.17394654035E+02 -0.26881923375E+02  0.49987564988E+03  0.50734876508E+03  0.80634312080E+02 0.  0.
          4    1    4    4  501    0  0.14649972405E+02  0.56621287981E+02  0.20487798849E+03  0.21306239019E+03  0.00000000000E+00 0. -1.
         -3    1    4    4    0  501 -0.39105299164E+02  0.96681665616E+02  0.16396531145E+03  0.19432239255E+03  0.00000000000E+00 0.  1.
          5    1    3    3  502    0  0.30643181461E+02 -0.41117778460E+01  0.74448403461E+01  0.32146958408E+02  0.47000000000E+01 0. -1.
         11    1    6    6    0    0 -0.13745541739E+02 -0.47025296856E+02  0.31533307014E+03  0.31911637937E+03  0.00000000000E+00 0. -1.
        -12    1    6    6    0    0  0.31140195773E+02  0.20143373482E+02  0.18454257975E+03  0.18823238570E+03  0.00000000000E+00 0.  1.
         -5    1    5    5    0  503 -0.23582508737E+02 -0.12230925238E+03  0.29407335284E+03  0.31940086848E+03  0.47000000000E+01 0.  1.
<mgrwt>
<rscale>  2 0.22970504E+03</rscale>
<asrwt>0</asrwt>
<pdfrwt beam="1">  1       21 0.18742448E+00 0.23056439E+03</pdfrwt>
<pdfrwt beam="2">  1       21 0.73880187E-02 0.23056439E+03</pdfrwt>
<totfact> 0.21775371E+04</totfact>
</mgrwt>
</event>
<event>
12    1  0.2768653E-001  0.1838566E+03  0.7546771E-02  0.1164347E+00
         21   -1    0    0  504  503  0.00000000000E+00  0.00000000000E+00  0.31411954789E+03  0.31411954789E+03  0.00000000000E+00 0. -1.
         21   -1    0    0  502  504 -0.00000000000E+00 -0.00000000000E+00 -0.71702661355E+03  0.71702661355E+03  0.00000000000E+00 0. -1.
          6    2    1    2  502    0  0.53368621997E+02  0.20523051867E+02 -0.67690425791E+03  0.70117995625E+03  0.17373701735E+03 0.  0.
         24    2    3    3    0    0 -0.82938896909E+01  0.63128223303E+02 -0.30237799995E+03  0.31919896997E+03  0.80009789339E+02 0.  0.
         -6    2    1    2    0  503 -0.53368621997E+02 -0.20523051867E+02  0.27399719225E+03  0.32996620518E+03  0.17473931935E+03 0.  0.
        -24    2    5    5    0    0 -0.93833794997E+02  0.12284636534E+02  0.23006398899E+03  0.26165814568E+03  0.81116291769E+02 0.  0.
          4    1    4    4  501    0 -0.36290673761E+02  0.63689281143E+02 -0.19812352469E+03  0.21124930430E+03  0.00000000000E+00 0. -1.
         -3    1    4    4    0  501  0.27996784070E+02 -0.56105783976E+00 -0.10425447527E+03  0.10794966566E+03  0.00000000000E+00 0.  1.
          5    1    3    3  502    0  0.61662511688E+02 -0.42605171436E+02 -0.37452625796E+03  0.38198098629E+03  0.47000000000E+01 0. -1.
         13    1    6    6    0    0 -0.29111165976E+02 -0.27969997309E+02  0.12838784546E+03  0.13458536174E+03  0.00000000000E+00 0. -1.
        -14    1    6    6    0    0 -0.64722629021E+02  0.40254633844E+02  0.10167614354E+03  0.12707278394E+03  0.00000000000E+00 0.  1.
         -5    1    5    5    0  503  0.40465173000E+02 -0.32807688402E+02  0.43933203258E+02  0.68308059500E+02  0.47000000000E+01 0.  1.
<mgrwt>
<rscale>  2 0.18361801E+03</rscale>
<asrwt>0</asrwt>
<pdfrwt beam="1">  1       21 0.48326085E-01 0.18385656E+03</pdfrwt>
<pdfrwt beam="2">  1       21 0.11031178E+00 0.18385656E+03</pdfrwt>
<totfact> 0.26739511E+03</totfact>
</mgrwt>
</event>
<event>
12    1  0.2768653E-001  0.1803065E+03  0.7546771E-02  0.1167782E+00
         21   -1    0    0  504  503  0.00000000000E+00  0.00000000000E+00  0.20932122175E+03  0.20932122175E+03  0.00000000000E+00 0.  1.
         21   -1    0    0  502  504 -0.00000000000E+00 -0.00000000000E+00 -0.20831496724E+03  0.20831496724E+03  0.00000000000E+00 0.  1.
          6    2    1    2  502    0  0.46560311919E+02  0.16054020665E+02 -0.10579536888E+03  0.20807226806E+03  0.17226669567E+03 0.  0.
         24    2    3    3    0    0  0.67373290693E+02 -0.19780872105E+02 -0.12304174169E+03  0.16294082669E+03  0.80498444727E+02 0.  0.
         -6    2    1    2    0  503 -0.46560311919E+02 -0.16054020665E+02  0.10680162338E+03  0.20956392092E+03  0.17344986586E+03 0.  0.
        -24    2    5    5    0    0  0.15372842044E+02  0.32959798482E+01  0.12106721280E+03  0.14296260621E+03  0.74389844770E+02 0.  0.
          4    1    4    4  501    0  0.18751334898E+02 -0.38772490031E+02 -0.93546126726E+02  0.10298444722E+03  0.00000000000E+00 0. -1.
         -3    1    4    4    0  501  0.48621955795E+02  0.18991617926E+02 -0.29495614964E+02  0.59956379468E+02  0.00000000000E+00 0.  1.
          5    1    3    3  502    0 -0.20812978774E+02  0.35834892770E+02  0.17246372816E+02  0.45131441375E+02  0.47000000000E+01 0. -1.
         11    1    6    6    0    0  0.18420400908E+02  0.36055411029E+02  0.84957258657E+02  0.94111846399E+02  0.00000000000E+00 0. -1.
        -12    1    6    6    0    0 -0.30475588637E+01 -0.32759431181E+02  0.36109954138E+02  0.48850759812E+02  0.00000000000E+00 0.  1.
         -5    1    5    5    0  503 -0.61933153963E+02 -0.19350000513E+02 -0.14265589412E+02  0.66601314708E+02  0.47000000000E+01 0.  1.
<mgrwt>
<rscale>  2 0.18002140E+03</rscale>
<asrwt>0</asrwt>
<pdfrwt beam="1">  1       21 0.32203265E-01 0.18030655E+03</pdfrwt>
<pdfrwt beam="2">  1       21 0.32048456E-01 0.18030655E+03</pdfrwt>
<totfact> 0.87289032E+04</totfact>
</mgrwt>
</event>
<event>
12    1  0.2768653E-001  0.1791402E+03  0.7546771E-02  0.1168907E+00
         21   -1    0    0  504  503  0.00000000000E+00  0.00000000000E+00  0.14141729421E+03  0.14141729421E+03  0.00000000000E+00 0.  1.
         21   -1    0    0  502  504 -0.00000000000E+00 -0.00000000000E+00 -0.22899428261E+03  0.22899428261E+03  0.00000000000E+00 0.  1.
          6    2    1    2  502    0 -0.72819916096E+01 -0.46298322266E+02 -0.21147492365E+02  0.18038407131E+03  0.17290064980E+03 0.  0.
         24    2    3    3    0    0 -0.55330503651E+01 -0.41503992309E+02  0.51705281570E+02  0.10720168910E+03  0.84056944866E+02 0.  0.
         -6    2    1    2    0  503  0.72819916096E+01  0.46298322266E+02 -0.66429496035E+02  0.19002750552E+03  0.17175858891E+03 0.  0.
        -24    2    5    5    0    0 -0.44050113462E+02  0.74285781223E+02 -0.35016553551E+02  0.12349070498E+03  0.81024720960E+02 0.  0.
          2    1    4    4  501    0  0.37093855886E+02 -0.27179704850E+02  0.39459353948E+02  0.60594810951E+02  0.00000000000E+00 0. -1.
         -1    1    4    4    0  501 -0.42626906251E+02 -0.14324287459E+02  0.12245927623E+02  0.46606878152E+02  0.00000000000E+00 0.  1.
          5    1    3    3  502    0 -0.17489412445E+01 -0.47943299576E+01 -0.72852773935E+02  0.73182382205E+02  0.47000000000E+01 0. -1.
         11    1    6    6    0    0 -0.47859104257E+02  0.47264064634E+01 -0.79041929196E+01  0.48737142346E+02  0.00000000000E+00 0. -1.
        -12    1    6    6    0    0  0.38089907958E+01  0.69559374759E+02 -0.27112360631E+02  0.74753562636E+02  0.00000000000E+00 0.  1.
         -5    1    5    5    0  503  0.51332105071E+02 -0.27987458957E+02 -0.31412942484E+02  0.66536800535E+02  0.47000000000E+01 0.  1.
<mgrwt>
<rscale>  2 0.17886401E+03</rscale>
<asrwt>0</asrwt>
<pdfrwt beam="1">  1       21 0.21756507E-01 0.17914016E+03</pdfrwt>
<pdfrwt beam="2">  1       21 0.35229889E-01 0.17914016E+03</pdfrwt>
<totfact> 0.15377887E+05</totfact>
</mgrwt>
</event>
<event>
12    1  0.2768653E-001  0.2120767E+03  0.7546771E-02  0.1140031E+00
         21   -1    0    0  504  503  0.00000000000E+00  0.00000000000E+00  0.20615975415E+03  0.20615975415E+03  0.00000000000E+00 0.  1.
         21   -1    0    0  502  504 -0.00000000000E+00 -0.00000000000E+00 -0.31958527048E+03  0.31958527048E+03  0.00000000000E+00 0.  1.
          6    2    1    2  502    0 -0.20084487675E+02 -0.11916935277E+03  0.91801102148E+02  0.23062724577E+03  0.17365702649E+03 0.  0.
         24    2    3    3    0    0  0.26385102918E+02 -0.28460068257E+02  0.90166472573E+02  0.12858627771E+03  0.83055938373E+02 0.  0.
         -6    2    1    2    0  503  0.20084487675E+02  0.11916935277E+03 -0.20522661848E+03  0.29511777887E+03  0.17427511924E+03 0.  0.
        -24    2    5    5    0    0  0.37267224282E+02  0.13565564495E+03 -0.21464644268E+03  0.26908189296E+03  0.80874407276E+02 0.  0.
          2    1    4    4  501    0  0.32626722773E+01  0.14923322076E+02  0.75865024040E+02  0.77387676310E+02  0.00000000000E+00 0. -1.
         -1    1    4    4    0  501  0.23122430640E+02 -0.43383390334E+02  0.14301448533E+02  0.51198601404E+02  0.00000000000E+00 0.  1.
          5    1    3    3  502    0 -0.46469590593E+02 -0.90709284515E+02  0.16346295751E+01  0.10204096805E+03  0.47000000000E+01 0. -1.
         13    1    6    6    0    0 -0.23672820569E+01  0.58377083499E+02 -0.31475296494E+02  0.66364012774E+02  0.00000000000E+00 0. -1.
        -14    1    6    6    0    0  0.39634506339E+02  0.77278561452E+02 -0.18317114618E+03  0.20271788019E+03  0.00000000000E+00 0.  1.
         -5    1    5    5    0  503 -0.17182736606E+02 -0.16486292179E+02  0.94198241996E+01  0.26035885908E+02  0.47000000000E+01 0.  1.
<mgrwt>
<rscale>  2 0.21194971E+03</rscale>
<asrwt>0</asrwt>
<pdfrwt beam="1">  1       21 0.31716885E-01 0.21207673E+03</pdfrwt>
<pdfrwt beam="2">  1       21 0.49166965E-01 0.21207673E+03</pdfrwt>
<totfact> 0.37338374E+04</totfact>
</mgrwt>
</event>
<event>
12    1  0.2768653E-001  0.2444739E+03  0.7546771E-02  0.1116905E+00
         21   -1    0    0  504  503  0.00000000000E+00  0.00000000000E+00  0.61803691604E+03  0.61803691604E+03  0.00000000000E+00 0. -1.
         21   -1    0    0  502  504 -0.00000000000E+00 -0.00000000000E+00 -0.11744034346E+03  0.11744034346E+03  0.00000000000E+00 0.  1.
          6    2    1    2  502    0  0.79120531300E+02  0.15264109458E+03  0.95411374389E+02  0.26243252172E+03  0.17380487872E+03 0.  0.
         24    2    3    3    0    0 -0.53670071924E+01  0.39316162619E+01  0.37988802551E+02  0.81955113556E+02  0.72313409172E+02 0.  0.
         -6    2    1    2    0  503 -0.79120531300E+02 -0.15264109458E+03  0.40518519819E+03  0.47304473777E+03  0.17331161782E+03 0.  0.
        -24    2    5    5    0    0 -0.19042155696E+02 -0.13324534014E+03  0.36767665737E+03  0.39946085951E+03  0.79157624668E+02 0.  0.
          2    1    4    4  501    0 -0.55770729399E+01 -0.90672977924E+01  0.57517783265E+02  0.58494572600E+02  0.00000000000E+00 0. -1.
         -1    1    4    4    0  501  0.21006574755E+00  0.12998914054E+02 -0.19528980715E+02  0.23460540956E+02  0.00000000000E+00 0.  1.
          5    1    3    3  502    0  0.84487538492E+02  0.14870947832E+03  0.57422571839E+02  0.18047740817E+03  0.47000000000E+01 0. -1.
         13    1    6    6    0    0 -0.23932090174E+02 -0.44830585247E+01  0.34428356949E+02  0.42168169466E+02  0.00000000000E+00 0. -1.
        -14    1    6    6    0    0  0.48899344782E+01 -0.12876228161E+03  0.33324830042E+03  0.35729269004E+03  0.00000000000E+00 0.  1.
         -5    1    5    5    0  503 -0.60078375604E+02 -0.19395754444E+02  0.37508540825E+02  0.73583878265E+02  0.47000000000E+01 0.  1.
<mgrwt>
<rscale>  2 0.24438627E+03</rscale>
<asrwt>0</asrwt>
<pdfrwt beam="1">  1       21 0.95082601E-01 0.24447392E+03</pdfrwt>
<pdfrwt beam="2">  1       21 0.18067746E-01 0.24447392E+03</pdfrwt>
<totfact> 0.25059795E+04</totfact>
</mgrwt>
</event>
<event>
12    1  0.2768653E-001  0.1786977E+03  0.7546771E-02  0.1169284E+00
         21   -1    0    0  504  503  0.00000000000E+00  0.00000000000E+00  0.20309229691E+03  0.20309229691E+03  0.00000000000E+00 0. -1.
         21   -1    0    0  502  504 -0.00000000000E+00 -0.00000000000E+00 -0.20682102078E+03  0.20682102078E+03  0.00000000000E+00 0. -1.
          6    2    1    2  502    0  0.29759530593E+02  0.30230096638E+02 -0.10299373516E+03  0.20549607509E+03  0.17268885023E+03 0.  0.
         24    2    3    3    0    0  0.69993150930E+02  0.62852400745E+02 -0.62100636125E+02  0.13933494996E+03  0.81904052501E+02 0.  0.
         -6    2    1    2    0  503 -0.29759530593E+02 -0.30230096638E+02  0.99265011291E+02  0.20441724259E+03  0.17358968344E+03 0.  0.
        -24    2    5    5    0    0 -0.58092460525E+02 -0.58853913612E+02  0.21563228032E+02  0.11677173536E+03  0.79574796623E+02 0.  0.
          4    1    4    4  501    0  0.73381813073E+02  0.78467155034E+02 -0.60447102879E+02  0.12327139634E+03  0.00000000000E+00 0. -1.
         -3    1    4    4    0  501 -0.33886621423E+01 -0.15614754290E+02 -0.16535332461E+01  0.16063553618E+02  0.00000000000E+00 0.  1.
          5    1    3    3  502    0 -0.40233620338E+02 -0.32622304106E+02 -0.40893099034E+02  0.66161125136E+02  0.47000000000E+01 0. -1.
         11    1    6    6    0    0 -0.99659941704E+01  0.14295085397E+02  0.23418942704E+02  0.29191049719E+02  0.00000000000E+00 0. -1.
        -12    1    6    6    0    0 -0.48126466354E+02 -0.73148999009E+02 -0.18557146724E+01  0.87580685637E+02  0.00000000000E+00 0.  1.
         -5    1    5    5    0  503  0.28332929932E+02  0.28623816974E+02  0.77701783259E+02  0.87645507234E+02  0.47000000000E+01 0.  1.
<mgrwt>
<rscale>  2 0.17847855E+03</rscale>
<asrwt>0</asrwt>
<pdfrwt beam="1">  1       21 0.31244969E-01 0.17869770E+03</pdfrwt>
<pdfrwt beam="2">  1       21 0.31818619E-01 0.17869770E+03</pdfrwt>
<totfact> 0.93983741E+04</totfact>
</mgrwt>
</event>
<event>
12    1  0.2768653E-001  0.2026118E+03  0.7546771E-02  0.1147566E+00
         21   -1    0    0  504  503  0.00000000000E+00  0.00000000000E+00  0.28071086982E+02  0.28071086982E+02  0.00000000000E+00 0.  1.
         21   -1    0    0  502  504 -0.00000000000E+00 -0.00000000000E+00 -0.27558439369E+04  0.27558439369E+04  0.00000000000E+00 0.  1.
          6    2    1    2  502    0  0.83692084862E+02  0.72028160060E+02 -0.23175456392E+04  0.23263804232E+04  0.16981066736E+03 0.  0.
         24    2    3    3    0    0  0.76171935052E+02  0.82470731553E+02 -0.23003746433E+04  0.23044137882E+04  0.77432696545E+02 0.  0.
         -6    2    1    2    0  503 -0.83692084862E+02 -0.72028160060E+02 -0.41022721066E+03  0.45753460063E+03  0.16987973833E+03 0.  0.
        -24    2    5    5    0    0 -0.97288464424E+02  0.25069119054E+00 -0.29038245387E+03  0.31684362862E+03  0.81257660093E+02 0.  0.
          4    1    4    4  501    0  0.41281235961E+02  0.38151448967E+00 -0.10774515434E+04  0.10782421409E+04  0.00000000000E+00 0. -1.
         -3    1    4    4    0  501  0.34890699091E+02  0.82089217063E+02 -0.12229230999E+04  0.12261716473E+04  0.00000000000E+00 0.  1.
          5    1    3    3  502    0  0.75201498101E+01 -0.10442571493E+02 -0.17170995904E+02  0.21966634993E+02  0.47000000000E+01 0. -1.
         13    1    6    6    0    0 -0.27950234727E+02  0.10992918427E+02 -0.20089768459E+03  0.20313035113E+03  0.00000000000E+00 0. -1.
        -14    1    6    6    0    0 -0.69338229697E+02 -0.10742227236E+02 -0.89484769276E+02  0.11371327748E+03  0.00000000000E+00 0.  1.
         -5    1    5    5    0  503  0.13596379562E+02 -0.72278851250E+02 -0.11984475679E+03  0.14069097201E+03  0.47000000000E+01 0.  1.
<mgrwt>
<rscale>  2 0.20259733E+03</rscale>
<asrwt>0</asrwt>
<pdfrwt beam="1">  1       21 0.43186279E-02 0.20261181E+03</pdfrwt>
<pdfrwt beam="2">  1       21 0.42397608E+00 0.20261181E+03</pdfrwt>
<totfact> 0.20879712E+03</totfact>
</mgrwt>
</event>
<event>
12    1  0.2768653E-001  0.1916037E+03  0.7546771E-02  0.1157159E+00
         21   -1    0    0  504  503  0.00000000000E+00  0.00000000000E+00  0.98903086026E+03  0.98903086026E+03  0.00000000000E+00 0.  1.
         21   -1    0    0  502  504 -0.00000000000E+00 -0.00000000000E+00 -0.51180286726E+02  0.51180286726E+02  0.00000000000E+00 0.  1.
          6    2    1    2  502    0  0.69432784543E+02  0.46173676927E+02  0.19462574849E+03  0.27268581768E+03  0.17182972147E+03 0.  0.
         24    2    3    3    0    0  0.95629964540E+02  0.59833030266E+02  0.86827156094E+02  0.16081313695E+03  0.74811953262E+02 0.  0.
         -6    2    1    2    0  503 -0.69432784543E+02 -0.46173676927E+02  0.74322482505E+03  0.76752532930E+03  0.17250817529E+03 0.  0.
        -24    2    5    5    0    0 -0.10164426207E+03 -0.20062100675E+01  0.60733076249E+03  0.62097284501E+03  0.80131381387E+02 0.  0.
          2    1    4    4  501    0  0.34193076695E+02  0.30899223508E+02  0.80307519640E+02  0.92591717870E+02  0.00000000000E+00 0. -1.
         -1    1    4    4    0  501  0.61436887845E+02  0.28933806757E+02  0.65196364534E+01  0.68221419078E+02  0.00000000000E+00 0.  1.
          5    1    3    3  502    0 -0.26197179997E+02 -0.13659353338E+02  0.10779859239E+03  0.11187268074E+03  0.47000000000E+01 0. -1.
         13    1    6    6    0    0 -0.30114563685E+02  0.20937198063E+02  0.76328772286E+02  0.84683733311E+02  0.00000000000E+00 0. -1.
        -14    1    6    6    0    0 -0.71529698388E+02 -0.22943408130E+02  0.53100199020E+03  0.53628911170E+03  0.00000000000E+00 0.  1.
         -5    1    5    5    0  503  0.32211477530E+02 -0.44167466860E+02  0.13589406256E+03  0.14655248429E+03  0.47000000000E+01 0.  1.
<mgrwt>
<rscale>  2 0.19145090E+03</rscale>
<asrwt>0</asrwt>
<pdfrwt beam="1">  1       21 0.15215858E+00 0.19160373E+03</pdfrwt>
<pdfrwt beam="2">  1       21 0.78738910E-02 0.19160373E+03</pdfrwt>
<totfact> 0.35534171E+04</totfact>
</mgrwt>
</event>
<event>
12    1  0.2768653E-001  0.3059974E+03  0.7546771E-02  0.1082342E+00
         21   -1    0    0  504  503  0.00000000000E+00  0.00000000000E+00  0.17717106059E+03  0.17717106059E+03  0.00000000000E+00 0.  1.
         21   -1    0    0  502  504 -0.00000000000E+00 -0.00000000000E+00 -0.57507925305E+03  0.57507925305E+03  0.00000000000E+00 0. -1.
          6    2    1    2  502    0 -0.12302367302E+03  0.21984439751E+03 -0.30684967056E+03  0.43299169634E+03  0.17279671737E+03 0.  0.
         24    2    3    3    0    0 -0.25750730894E+02  0.35238988610E+02 -0.58676649690E+02  0.10871847735E+03  0.80447943656E+02 0.  0.
         -6    2    1    2    0  503  0.12302367302E+03 -0.21984439751E+03 -0.91058521895E+02  0.31925861730E+03  0.17368945584E+03 0.  0.
        -24    2    5    5    0    0  0.31667775034E+01 -0.14615303303E+03 -0.60786853194E+02  0.17526362944E+03  0.75176863055E+02 0.  0.
          2    1    4    4  501    0 -0.33121677554E+02 -0.92459519308E+01 -0.53129256181E+02  0.63287052494E+02  0.00000000000E+00 0. -1.
         -1    1    4    4    0  501  0.73709466603E+01  0.44484940541E+02 -0.55473935091E+01  0.45431424855E+02  0.00000000000E+00 0.  1.
          5    1    3    3  502    0 -0.97272942131E+02  0.18460540890E+03 -0.24817302087E+03  0.32427321899E+03  0.47000000000E+01 0. -1.
         11    1    6    6    0    0 -0.16058369360E+02 -0.65941942881E+02 -0.63209625082E+02  0.92745176481E+02  0.00000000000E+00 0. -1.
        -12    1    6    6    0    0  0.19225146863E+02 -0.80211090150E+02  0.24227718876E+01  0.82518452958E+02  0.00000000000E+00 0.  1.
         -5    1    5    5    0  503  0.11985689552E+03 -0.73691364474E+02 -0.30271668701E+02  0.14399498786E+03  0.47000000000E+01 0.  1.
<mgrwt>
<rscale>  2 0.30587086E+03</rscale>
<asrwt>0</asrwt>
<pdfrwt beam="1">  1       21 0.27257086E-01 0.30599740E+03</pdfrwt>
<pdfrwt beam="2">  1       21 0.88473731E-01 0.30599740E+03</pdfrwt>
<totfact> 0.13197063E+04</totfact>
</mgrwt>
</event>
<event>
12    1  0.2768653E-001  0.1874361E+03  0.7546771E-02  0.1161145E+00
         21   -1    0    0  504  503  0.00000000000E+00  0.00000000000E+00  0.26886612780E+03  0.26886612780E+03  0.00000000000E+00 0.  1.
         21   -1    0    0  502  504 -0.00000000000E+00 -0.00000000000E+00 -0.14122307377E+03  0.14122307377E+03  0.00000000000E+00 0.  1.
          6    2    1    2  502    0 -0.26920845390E+02 -0.59114582233E+02  0.47882466599E+01  0.18597854593E+03  0.17420053528E+03 0.  0.
         24    2    3    3    0    0 -0.77069763569E+02 -0.77337088811E+02  0.97458955580E+00  0.13227931203E+03  0.74673240222E+02 0.  0.
         -6    2    1    2    0  503  0.26920845390E+02  0.59114582233E+02  0.12285480737E+03  0.22411065564E+03  0.17582097863E+03 0.  0.
        -24    2    5    5    0    0  0.38346569242E+02 -0.19046462957E+01  0.12366028064E+03  0.16184804886E+03  0.97102208324E+02 0.  0.
          2    1    4    4  501    0 -0.61289236880E+02 -0.87713119776E+02  0.15936594180E+02  0.10818473539E+03  0.00000000000E+00 0. -1.
         -1    1    4    4    0  501 -0.15780526688E+02  0.10376030965E+02 -0.14962004624E+02  0.24094576641E+02  0.00000000000E+00 0.  1.
          5    1    3    3  502    0  0.50148918179E+02  0.18222506578E+02  0.38136571041E+01  0.53699233896E+02  0.47000000000E+01 0. -1.
         13    1    6    6    0    0 -0.31386092940E+02 -0.11082414840E+02  0.49394349159E+02  0.59562643306E+02  0.00000000000E+00 0. -1.
        -14    1    6    6    0    0  0.69732662182E+02  0.91777685448E+01  0.74265931482E+02  0.10228540555E+03  0.00000000000E+00 0.  1.
         -5    1    5    5    0  503 -0.11425723851E+02  0.61019228528E+02 -0.80547327254E+00  0.62262606779E+02  0.47000000000E+01 0.  1.
<mgrwt>
<rscale>  2 0.18705512E+03</rscale>
<asrwt>0</asrwt>
<pdfrwt beam="1">  1       21 0.41364020E-01 0.18743608E+03</pdfrwt>
<pdfrwt beam="2">  1       21 0.21726627E-01 0.18743608E+03</pdfrwt>
<totfact> 0.11143845E+05</totfact>
</mgrwt>
</event>
<event>
12    1  0.2768653E-001  0.1757042E+03  0.7546771E-02  0.1172406E+00
         21   -1    0    0  504  503  0.00000000000E+00  0.00000000000E+00  0.54037928015E+02  0.54037928015E+02  0.00000000000E+00 0.  1.
         21   -1    0    0  502  504 -0.00000000000E+00 -0.00000000000E+00 -0.57714503003E+03  0.57714503003E+03  0.00000000000E+00 0.  1.
          6    2    1    2  502    0  0.22999949283E+02 -0.75494759168E+01 -0.30351682519E+03  0.34995019863E+03  0.17250126405E+03 0.  0.
         24    2    3    3    0    0 -0.43325490812E+02 -0.38821116177E+02 -0.12085804141E+03  0.15306622067E+03  0.73745674588E+02 0.  0.
         -6    2    1    2    0  503 -0.22999949283E+02  0.75494759168E+01 -0.21959027683E+03  0.28123275941E+03  0.17402868452E+03 0.  0.
        -24    2    5    5    0    0  0.59369157896E+01  0.11350635309E+02 -0.23435148707E+03  0.24819075129E+03  0.80709018371E+02 0.  0.
          2    1    4    4  501    0 -0.47808889382E+02 -0.53564155641E+02 -0.11684817414E+03  0.13714337196E+03  0.00000000000E+00 0. -1.
         -1    1    4    4    0  501  0.44833985691E+01  0.14743039464E+02 -0.40098672717E+01  0.15922848706E+02  0.00000000000E+00 0.  1.
          5    1    3    3  502    0  0.66325440095E+02  0.31271640260E+02 -0.18265878378E+03  0.19688397796E+03  0.47000000000E+01 0. -1.
         13    1    6    6    0    0  0.39152738146E+01  0.31901604032E+02 -0.34034807209E+02  0.46812496309E+02  0.00000000000E+00 0. -1.
        -14    1    6    6    0    0  0.20216419750E+01 -0.20550968723E+02 -0.20031667986E+03  0.20137825499E+03  0.00000000000E+00 0.  1.
         -5    1    5    5    0  503 -0.28936865072E+02 -0.38011593924E+01  0.14761210237E+02  0.33042008120E+02  0.47000000000E+01 0.  1.
<mgrwt>
<rscale>  2 0.17532482E+03</rscale>
<asrwt>0</asrwt>
<pdfrwt beam="1">  1       21 0.83135273E-02 0.17570423E+03</pdfrwt>
<pdfrwt beam="2">  1       21 0.88791544E-01 0.17570423E+03</pdfrwt>
<totfact> 0.12242703E+05</totfact>
</mgrwt>
</event>
<event>
12    1  0.2768653E-001  0.1945388E+03  0.7546771E-02  0.1154500E+00
         21   -1    0    0  504  503  0.00000000000E+00  0.00000000000E+00  0.52067651472E+03  0.52067651472E+03  0.00000000000E+00 0. -1.
         21   -1    0    0  502  504 -0.00000000000E+00 -0.00000000000E+00 -0.13349555468E+03  0.13349555468E+03  0.00000000000E+00 0.  1.
          6    2    1    2  502    0  0.34957375510E+02  0.81987883307E+02 -0.27297910000E+02  0.19644469950E+03  0.17291996113E+03 0.  0.
         24    2    3    3    0    0  0.14531767242E+02  0.11114278626E+03 -0.57290174413E+02  0.14965966167E+03  0.80944172434E+02 0.  0.
         -6    2    1    2    0  503 -0.34957375510E+02 -0.81987883307E+02  0.41447887004E+03  0.45772736990E+03  0.17256181597E+03 0.  0.
        -24    2    5    5    0    0  0.73187033216E+01  0.20273299018E+02  0.17383914228E+03  0.19282326493E+03  0.80598970451E+02 0.  0.
          4    1    4    4  501    0  0.20738056306E+02  0.90919230697E+01 -0.40005835976E+02  0.45969522040E+02  0.00000000000E+00 0. -1.
         -3    1    4    4    0  501 -0.62062890640E+01  0.10205086319E+03 -0.17284338437E+02  0.10369013964E+03  0.00000000000E+00 0.  1.
          5    1    3    3  502    0  0.20425608269E+02 -0.29154902955E+02  0.29992264412E+02  0.46785037823E+02  0.47000000000E+01 0. -1.
         13    1    6    6    0    0  0.30159469701E+02 -0.16475411126E+02  0.11339667963E+03  0.11848982967E+03  0.00000000000E+00 0. -1.
        -14    1    6    6    0    0 -0.22840766379E+02  0.36748710144E+02  0.60442462653E+02  0.74333435261E+02  0.00000000000E+00 0.  1.
         -5    1    5    5    0  503 -0.42276078832E+02 -0.10226118233E+03  0.24063972776E+03  0.26490410496E+03  0.47000000000E+01 0.  1.
<mgrwt>
<rscale>  2 0.19445918E+03</rscale>
<asrwt>0</asrwt>
<pdfrwt beam="1">  1       21 0.80104078E-01 0.19453880E+03</pdfrwt>
<pdfrwt beam="2">  1       21 0.20537778E-01 0.19453880E+03</pdfrwt>
<totfact> 0.30091381E+04</totfact>
</mgrwt>
</event>
<event>
12    1  0.2768653E-001  0.2660302E+03  0.7546771E-02  0.1103843E+00
         21   -1    0    0  504  503  0.00000000000E+00  0.00000000000E+00  0.43299260636E+02  0.43299260636E+02  0.00000000000E+00 0. -1.
         21   -1    0    0  502  504 -0.00000000000E+00 -0.00000000000E+00 -0.16760082958E+04  0.16760082958E+04  0.00000000000E+00 0. -1.
          6    2    1    2  502    0  0.12771404069E+03  0.15422021277E+03 -0.97171721934E+03  0.10074752655E+04  0.17514938216E+03 0.  0.
         24    2    3    3    0    0  0.88013935622E+01  0.10504569309E+03 -0.35664924057E+03  0.37907327671E+03  0.73388051863E+02 0.  0.
         -6    2    1    2    0  503 -0.12771404069E+03 -0.15422021277E+03 -0.66099181582E+03  0.71183229091E+03  0.17233769053E+03 0.  0.
        -24    2    5    5    0    0 -0.83701181858E+02 -0.90077448882E+02 -0.58359919077E+03  0.60199999004E+03  0.81829932790E+02 0.  0.
          2    1    4    4  501    0  0.10817002944E+01 -0.10112928094E+02 -0.58240953597E+02  0.59122331365E+02  0.00000000000E+00 0. -1.
         -1    1    4    4    0  501  0.77196932678E+01  0.11515862118E+03 -0.29840828697E+03  0.31995094535E+03  0.00000000000E+00 0.  1.
          5    1    3    3  502    0  0.11891264713E+03  0.49174519676E+02 -0.61506797877E+03  0.62840198881E+03  0.47000000000E+01 0. -1.
         13    1    6    6    0    0 -0.45555936889E+02 -0.84894192751E+02 -0.28310108406E+03  0.29904613547E+03  0.00000000000E+00 0. -1.
        -14    1    6    6    0    0 -0.38145244969E+02 -0.51832561310E+01 -0.30049810671E+03  0.30295385456E+03  0.00000000000E+00 0.  1.
         -5    1    5    5    0  503 -0.44012858832E+02 -0.64142763883E+02 -0.77392625055E+02  0.10983230087E+03  0.47000000000E+01 0.  1.
<mgrwt>
<rscale>  2 0.26556831E+03</rscale>
<asrwt>0</asrwt>
<pdfrwt beam="1">  1       21 0.66614248E-02 0.26603018E+03</pdfrwt>
<pdfrwt beam="2">  1       21 0.25784743E+00 0.26603018E+03</pdfrwt>
<totfact> 0.92628722E+03</totfact>
</mgrwt>
</event>
<event>
12    1  0.2768653E-001  0.1885774E+03  0.7546771E-02  0.1160427E+00
         21   -1    0    0  504  503  0.00000000000E+00  0.00000000000E+00  0.51458037775E+03  0.51458037775E+03  0.00000000000E+00 0. -1.
         21   -1    0    0  502  504 -0.00000000000E+00 -0.00000000000E+00 -0.73528664910E+02  0.73528664910E+02  0.00000000000E+00 0.  1.
          6    2    1    2  502    0  0.34403387564E+02  0.58055763320E+02  0.14173902462E+03  0.23590542258E+03  0.17608904729E+03 0.  0.
         24    2    3    3    0    0 -0.35163381248E+02 -0.11561507441E+02  0.85908671411E+02  0.12265694334E+03  0.79336587346E+02 0.  0.
         -6    2    1    2    0  503 -0.34403387564E+02 -0.58055763320E+02  0.29931268822E+03  0.35220362008E+03  0.17293131565E+03 0.  0.
        -24    2    5    5    0    0 -0.63288273627E+02 -0.25208674242E+02  0.92697627506E+02  0.14095698408E+03  0.81456358749E+02 0.  0.
          2    1    4    4  501    0 -0.40142000038E+02  0.14890834366E+02  0.85631705396E+02  0.95738738681E+02  0.00000000000E+00 0. -1.
         -1    1    4    4    0  501  0.49786187898E+01 -0.26452341806E+02  0.27696601443E+00  0.26918204663E+02  0.00000000000E+00 0.  1.
          5    1    3    3  502    0  0.69566768812E+02  0.69617270760E+02  0.55830353206E+02  0.11324847924E+03  0.47000000000E+01 0. -1.
         13    1    6    6    0    0  0.48068748390E+01  0.17146997394E+02  0.43178962932E+02  0.46707048775E+02  0.00000000000E+00 0. -1.
        -14    1    6    6    0    0 -0.68095148466E+02 -0.42355671636E+02  0.49518664574E+02  0.94249935308E+02  0.00000000000E+00 0.  1.
         -5    1    5    5    0  503  0.28884886063E+02 -0.32847089078E+02  0.20661506072E+03  0.21124663599E+03  0.47000000000E+01 0.  1.
<mgrwt>
<rscale>  2 0.18783671E+03</rscale>
<asrwt>0</asrwt>
<pdfrwt beam="1">  1       21 0.79166210E-01 0.18857735E+03</pdfrwt>
<pdfrwt beam="2">  1       21 0.11312103E-01 0.18857735E+03</pdfrwt>
<totfact> 0.91977512E+04</totfact>
</mgrwt>
</event>
<event>
12    1  0.2768653E-001  0.1881585E+03  0.7546771E-02  0.1160577E+00
         21   -1    0    0  504  503  0.00000000000E+00  0.00000000000E+00  0.50689787798E+02  0.50689787798E+02  0.00000000000E+00 0. -1.
         21   -1    0    0  502  504 -0.00000000000E+00 -0.00000000000E+00 -0.15753854516E+04  0.15753854516E+04  0.00000000000E+00 0. -1.
          6    2    1    2  502    0 -0.60315970263E+02 -0.31287390226E+02 -0.13731435673E+04  0.13859750664E+04  0.17546142384E+03 0.  0.
         24    2    3    3    0    0  0.25119571204E+02 -0.36434134371E+02 -0.94440293534E+03  0.94874933500E+03  0.79183062427E+02 0.  0.
         -6    2    1    2    0  503  0.60315970263E+02  0.31287390226E+02 -0.15155209657E+03  0.24010017305E+03  0.17338724886E+03 0.  0.
        -24    2    5    5    0    0  0.45629208242E+02  0.34639671218E+02 -0.10834256360E+02  0.98500246073E+02  0.79391346497E+02 0.  0.
          2    1    4    4  501    0 -0.50671022987E+01 -0.51777438395E+02 -0.71125850225E+03  0.71315863290E+03  0.00000000000E+00 0. -1.
         -1    1    4    4    0  501  0.30186673503E+02  0.15343304025E+02 -0.23314443309E+03  0.23559070210E+03  0.00000000000E+00 0.  1.
          5    1    3    3  502    0 -0.85435541467E+02  0.51467441444E+01 -0.42874063192E+03  0.43722573138E+03  0.47000000000E+01 0. -1.
         11    1    6    6    0    0  0.45289998654E+02 -0.13479594461E+02 -0.16491219170E+02  0.50048414107E+02  0.00000000000E+00 0. -1.
        -12    1    6    6    0    0  0.33920958808E+00  0.48119265679E+02  0.56569628096E+01  0.48451831966E+02  0.00000000000E+00 0.  1.
         -5    1    5    5    0  503  0.14686762021E+02 -0.33522809919E+01 -0.14071784021E+03  0.14159992698E+03  0.47000000000E+01 0.  1.
<mgrwt>
<rscale>  2 0.18767347E+03</rscale>
<asrwt>0</asrwt>
<pdfrwt beam="1">  1       21 0.77984290E-02 0.18815852E+03</pdfrwt>
<pdfrwt beam="2">  1       21 0.24236699E+00 0.18815852E+03</pdfrwt>
<totfact> 0.92931922E+03</totfact>
</mgrwt>
</event>
<event>
12    1  0.2768653E-001  0.1855772E+03  0.7546771E-02  0.1163266E+00
         21   -1    0    0  504  503  0.00000000000E+00  0.00000000000E+00  0.22546593002E+03  0.22546593002E+03  0.00000000000E+00 0. -1.
         21   -1    0    0  502  504 -0.00000000000E+00 -0.00000000000E+00 -0.17166653096E+03  0.17166653096E+03  0.00000000000E+00 0. -1.
          6    2    1    2  502    0 -0.48021329679E+02 -0.38912799862E+02 -0.43253403465E+02  0.19055122885E+03  0.17498188422E+03 0.  0.
         24    2    3    3    0    0  0.40353078394E+02 -0.12420107248E+02 -0.83288845923E+01  0.91790352066E+02  0.81076928987E+02 0.  0.
         -6    2    1    2    0  503  0.48021329679E+02  0.38912799862E+02  0.97052802531E+02  0.20658123213E+03  0.17157011655E+03 0.  0.
        -24    2    5    5    0    0  0.58160496154E+01  0.66347507431E+02  0.10990309029E+03  0.15441640931E+03  0.85614952158E+02 0.  0.
          4    1    4    4  501    0  0.38696160393E+01  0.24979929298E+01 -0.40593003940E+02  0.40853468223E+02  0.00000000000E+00 0. -1.
         -3    1    4    4    0  501  0.36483462355E+02 -0.14918100178E+02  0.32264119348E+02  0.50936883843E+02  0.00000000000E+00 0.  1.
          5    1    3    3  502    0 -0.88374408073E+02 -0.26492692615E+02 -0.34924518872E+02  0.98760876782E+02  0.47000000000E+01 0. -1.
         11    1    6    6    0    0  0.29015308660E+02  0.13903531774E+02  0.86835751532E+02  0.92604773509E+02  0.00000000000E+00 0. -1.
        -12    1    6    6    0    0 -0.23199259044E+02  0.52443975657E+02  0.23067338757E+02  0.61811635800E+02  0.00000000000E+00 0.  1.
         -5    1    5    5    0  503  0.42205280063E+02 -0.27434707569E+02 -0.12850287759E+02  0.52164822822E+02  0.47000000000E+01 0.  1.
<mgrwt>
<rscale>  2 0.18476862E+03</rscale>
<asrwt>0</asrwt>
<pdfrwt beam="1">  1       21 0.34687066E-01 0.18557725E+03</pdfrwt>
<pdfrwt beam="2">  1       21 0.26410236E-01 0.18557725E+03</pdfrwt>
<totfact> 0.10951676E+05</totfact>
</mgrwt>
</event>
<event>
12    1  0.2768653E-001  0.2823404E+03  0.7546771E-02  0.1094492E+00
         21   -1    0    0  504  503  0.00000000000E+00  0.00000000000E+00  0.18075337147E+03  0.18075337147E+03  0.00000000000E+00 0. -1.
         21   -1    0    0  502  504 -0.00000000000E+00 -0.00000000000E+00 -0.50736832567E+03  0.50736832567E+03  0.00000000000E+00 0.  1.
          6    2    1    2  502    0  0.20996099022E+03 -0.75353796740E+02 -0.28838694623E+03  0.40320510982E+03  0.17217873774E+03 0.  0.
         24    2    3    3    0    0  0.14563366037E+03 -0.26621447677E+02 -0.27354399055E+03  0.32101477861E+03  0.79412271152E+02 0.  0.
         -6    2    1    2    0  503 -0.20996099022E+03  0.75353796740E+02 -0.38228007963E+02  0.28491658733E+03  0.17307301651E+03 0.  0.
        -24    2    5    5    0    0 -0.11295115094E+03  0.10623227507E+03  0.30072950113E+01  0.17497646929E+03  0.81021368903E+02 0.  0.
          4    1    4    4  501    0  0.94302469577E+02 -0.15524305208E+02 -0.94404920070E+02  0.13433632701E+03  0.00000000000E+00 0. -1.
         -3    1    4    4    0  501  0.51331190792E+02 -0.11097142469E+02 -0.17913907048E+03  0.18667845160E+03  0.00000000000E+00 0.  1.
          5    1    3    3  502    0  0.64327329848E+02 -0.48732349064E+02 -0.14842955678E+02  0.82190331207E+02  0.47000000000E+01 0. -1.
         13    1    6    6    0    0 -0.23029907102E+02 -0.11924654885E+02  0.53312397586E+01  0.26476331555E+02  0.00000000000E+00 0. -1.
        -14    1    6    6    0    0 -0.89921243834E+02  0.11815692996E+03 -0.23239447473E+01  0.14850013774E+03  0.00000000000E+00 0.  1.
         -5    1    5    5    0  503 -0.97009839281E+02 -0.30878478331E+02 -0.41235302974E+02  0.10994011803E+03  0.47000000000E+01 0.  1.
<mgrwt>
<rscale>  2 0.28220344E+03</rscale>
<asrwt>0</asrwt>
<pdfrwt beam="1">  1       21 0.27808211E-01 0.28234036E+03</pdfrwt>
<pdfrwt beam="2">  1       21 0.78056665E-01 0.28234036E+03</pdfrwt>
<totfact> 0.17112305E+04</totfact>
</mgrwt>
</event>
<event>
12    1  0.2768653E-001  0.1899613E+03  0.7546771E-02  0.1158894E+00
         21   -1    0    0  504  503  0.00000000000E+00  0.00000000000E+00  0.39847996639E+03  0.39847996639E+03  0.00000000000E+00 0. -1.
         21   -1    0    0  502  504 -0.00000000000E+00 -0.00000000000E+00 -0.96343944100E+02  0.96343944100E+02  0.00000000000E+00 0. -1.
          6    2    1    2  502    0  0.63110000572E+02  0.44720208864E+02  0.85561346779E+02  0.20674424855E+03  0.17157992596E+03 0.  0.
         24    2    3    3    0    0  0.42570675280E+01  0.69294374441E+02  0.93338674930E+02  0.14232271352E+03  0.81998863371E+02 0.  0.
         -6    2    1    2    0  503 -0.63110000572E+02 -0.44720208864E+02  0.21657467551E+03  0.28807966194E+03  0.17350081354E+03 0.  0.
        -24    2    5    5    0    0 -0.71950748198E+02 -0.30305972863E+02  0.23677139921E+03  0.26132285595E+03  0.78317159063E+02 0.  0.
          2    1    4    4  501    0 -0.37859611787E+02  0.44143351744E+02  0.45960752617E+02  0.74124061471E+02  0.00000000000E+00 0. -1.
         -1    1    4    4    0  501  0.42116679315E+02  0.25151022697E+02  0.47377922313E+02  0.68198652053E+02  0.00000000000E+00 0.  1.
          5    1    3    3  502    0  0.58852933044E+02 -0.24574165577E+02 -0.77773281511E+01  0.64421535024E+02  0.47000000000E+01 0. -1.
         13    1    6    6    0    0 -0.13888095515E+02 -0.47548284002E+02  0.11873522759E+03  0.12865369322E+03  0.00000000000E+00 0. -1.
        -14    1    6    6    0    0 -0.58062652683E+02  0.17242311139E+02  0.11803617161E+03  0.13266916273E+03  0.00000000000E+00 0.  1.
         -5    1    5    5    0  503  0.88407476267E+01 -0.14414236002E+02 -0.20196723702E+02  0.26756805983E+02  0.47000000000E+01 0.  1.
<mgrwt>
<rscale>  2 0.18952159E+03</rscale>
<asrwt>0</asrwt>
<pdfrwt beam="1">  1       21 0.61304609E-01 0.18996132E+03</pdfrwt>
<pdfrwt beam="2">  1       21 0.14822145E-01 0.18996132E+03</pdfrwt>
<totfact> 0.99286987E+04</totfact>
</mgrwt>
</event>
<event>
12    1  0.2768653E-001  0.2409257E+03  0.7546771E-02  0.1119651E+00
         21   -1    0    0  504  503  0.00000000000E+00  0.00000000000E+00  0.13761207760E+03  0.13761207760E+03  0.00000000000E+00 0.  1.
         21   -1    0    0  502  504 -0.00000000000E+00 -0.00000000000E+00 -0.44705935360E+03  0.44705935360E+03  0.00000000000E+00 0. -1.
          6    2    1    2  502    0  0.13629085707E+03  0.95938839763E+02 -0.22986177500E+03  0.33094118590E+03  0.17001815851E+03 0.  0.
         24    2    3    3    0    0  0.93647995809E+02  0.12024399312E+03 -0.12005105663E+03  0.21056827381E+03  0.81842389612E+02 0.  0.
         -6    2    1    2    0  503 -0.13629085707E+03 -0.95938839763E+02 -0.79585501004E+02  0.25373024529E+03  0.17397047655E+03 0.  0.
        -24    2    5    5    0    0 -0.27278536738E+02 -0.22866117910E+02 -0.65907089665E+02  0.12169806134E+03  0.95915044440E+02 0.  0.
          2    1    4    4  501    0  0.41317902747E+02  0.54443131403E+02 -0.10481006142E+03  0.12512542755E+03  0.00000000000E+00 0. -1.
         -1    1    4    4    0  501  0.52330093063E+02  0.65800861715E+02 -0.15240995209E+02  0.85442846262E+02  0.00000000000E+00 0.  1.
          5    1    3    3  502    0  0.42642861264E+02 -0.24305153355E+02 -0.10981071837E+03  0.12037291209E+03  0.47000000000E+01 0. -1.
         13    1    6    6    0    0 -0.57631554500E+02 -0.18178445308E+02 -0.67929081040E+02  0.90918710939E+02  0.00000000000E+00 0. -1.
        -14    1    6    6    0    0  0.30353017762E+02 -0.46876726026E+01  0.20219913757E+01  0.30779350396E+02  0.00000000000E+00 0.  1.
         -5    1    5    5    0  503 -0.10901232034E+03 -0.73072721852E+02 -0.13678411339E+02  0.13203218396E+03  0.47000000000E+01 0.  1.
<mgrwt>
<rscale>  2 0.24021297E+03</rscale>
<asrwt>0</asrwt>
<pdfrwt beam="1">  1       21 0.21171089E-01 0.24092568E+03</pdfrwt>
<pdfrwt beam="2">  1       21 0.68778361E-01 0.24092568E+03</pdfrwt>
<totfact> 0.39039377E+04</totfact>
</mgrwt>
</event>
<event>
12    1  0.2768653E-001  0.1942265E+03  0.7546771E-02  0.1154785E+00
         21   -1    0    0  504  503  0.00000000000E+00  0.00000000000E+00  0.87201780550E+03  0.87201780550E+03  0.00000000000E+00 0. -1.
         21   -1    0    0  502  504 -0.00000000000E+00 -0.00000000000E+00 -0.52175893726E+02  0.52175893726E+02  0.00000000000E+00 0. -1.
          6    2    1    2  502    0 -0.48447989416E+02 -0.68688461017E+02  0.60214947697E+03  0.63269893384E+03  0.17509607626E+03 0.  0.
         24    2    3    3    0    0  0.37198403796E+02 -0.52675019299E+02  0.38717671796E+03  0.40069222683E+03  0.80560975703E+02 0.  0.
         -6    2    1    2    0  503  0.48447989416E+02  0.68688461017E+02  0.21769243481E+03  0.29149476539E+03  0.17468225359E+03 0.  0.
        -24    2    5    5    0    0  0.23093551903E+02 -0.56180447012E+01  0.31676923518E+02  0.89533965390E+02  0.80299619608E+02 0.  0.
          2    1    4    4  501    0  0.32817049968E+02 -0.42433707540E+02  0.38575010270E+03  0.38946209063E+03  0.00000000000E+00 0. -1.
         -1    1    4    4    0  501  0.43813538275E+01 -0.10241311759E+02  0.14266152593E+01  0.11230136197E+02  0.00000000000E+00 0.  1.
          5    1    3    3  502    0 -0.85646393211E+02 -0.16013441718E+02  0.21497275901E+03  0.23200670702E+03  0.47000000000E+01 0. -1.
         13    1    6    6    0    0 -0.17302056480E+01  0.35255972444E+02  0.80979941454E+01  0.36215393326E+02  0.00000000000E+00 0. -1.
        -14    1    6    6    0    0  0.24823757551E+02 -0.40874017146E+02  0.23578929373E+02  0.53318572064E+02  0.00000000000E+00 0.  1.
         -5    1    5    5    0  503  0.25354437512E+02  0.74306505718E+02  0.18601551129E+03  0.20196080000E+03  0.47000000000E+01 0.  1.
<mgrwt>
<rscale>  2 0.19413323E+03</rscale>
<asrwt>0</asrwt>
<pdfrwt beam="1">  1       21 0.13415657E+00 0.19422654E+03</pdfrwt>
<pdfrwt beam="2">  1       21 0.80270612E-02 0.19422654E+03</pdfrwt>
<totfact> 0.47578109E+04</totfact>
</mgrwt>
</event>
<event>
12    1  0.2768653E-001  0.1894733E+03  0.7546771E-02  0.1159171E+00
         21   -1    0    0  504  503  0.00000000000E+00  0.00000000000E+00  0.37492847665E+03  0.37492847665E+03  0.00000000000E+00 0. -1.
         21   -1    0    0  502  504 -0.00000000000E+00 -0.00000000000E+00 -0.10246574771E+03  0.10246574771E+03  0.00000000000E+00 0. -1.
          6    2    1    2  502    0 -0.37134289661E+02  0.64313794628E+02  0.19930507834E+03  0.27428793879E+03  0.17319393599E+03 0.  0.
         24    2    3    3    0    0 -0.51143299766E+02  0.60922580937E+02  0.49730388685E+02  0.12394689156E+03  0.81009396924E+02 0.  0.
         -6    2    1    2    0  503  0.37134289661E+02 -0.64313794628E+02  0.73157650592E+02  0.20310628557E+03  0.17431265516E+03 0.  0.
        -24    2    5    5    0    0  0.39539390669E+02  0.23424886171E+02  0.59256630732E+01  0.92444228997E+02  0.79992082643E+02 0.  0.
          4    1    4    4  501    0 -0.43552703917E+01 -0.19098872406E+02  0.16040031043E+02  0.25318331367E+02  0.00000000000E+00 0. -1.
         -3    1    4    4    0  501 -0.46788029375E+02  0.80021453343E+02  0.33690357642E+02  0.98628560194E+02  0.00000000000E+00 0.  1.
          5    1    3    3  502    0  0.14009010105E+02  0.33912136907E+01  0.14957468966E+03  0.15034104723E+03  0.47000000000E+01 0. -1.
         13    1    6    6    0    0 -0.70441405653E+00 -0.26672904987E+02  0.88668465020E+01  0.28116917087E+02  0.00000000000E+00 0. -1.
        -14    1    6    6    0    0  0.40243804725E+02  0.50097791157E+02 -0.29411834288E+01  0.64327311910E+02  0.00000000000E+00 0.  1.
         -5    1    5    5    0  503 -0.24051010077E+01 -0.87738680799E+02  0.67231987519E+02  0.11066205657E+03  0.47000000000E+01 0.  1.
<mgrwt>
<rscale>  2 0.18921557E+03</rscale>
<asrwt>0</asrwt>
<pdfrwt beam="1">  1       21 0.57681303E-01 0.18947327E+03</pdfrwt>
<pdfrwt beam="2">  1       21 0.15763961E-01 0.18947327E+03</pdfrwt>
<totfact> 0.10113560E+05</totfact>
</mgrwt>
</event>
<event>
12    1  0.2768653E-001  0.2025496E+03  0.7546771E-02  0.1147670E+00
         21   -1    0    0  504  503  0.00000000000E+00  0.00000000000E+00  0.60357405025E+02  0.60357405025E+02  0.00000000000E+00 0. -1.
         21   -1    0    0  502  504 -0.00000000000E+00 -0.00000000000E+00 -0.78227770547E+03  0.78227770547E+03  0.00000000000E+00 0. -1.
          6    2    1    2  502    0 -0.63436159214E+02 -0.83558070934E+02 -0.51451801935E+03  0.55295130904E+03  0.17326355767E+03 0.  0.
         24    2    3    3    0    0 -0.10532657048E+03 -0.89346199874E+02 -0.40734392292E+03  0.43764005227E+03  0.80767034902E+02 0.  0.
         -6    2    1    2    0  503  0.63436159214E+02  0.83558070934E+02 -0.20740228110E+03  0.28968380146E+03  0.17290142021E+03 0.  0.
        -24    2    5    5    0    0 -0.31540562804E+02  0.42698372493E+02 -0.79142879491E+02  0.12487282858E+03  0.80694918227E+02 0.  0.
          2    1    4    4  501    0 -0.81280916218E+02 -0.67052109178E+02 -0.38180374429E+03  0.39607659845E+03  0.00000000000E+00 0. -1.
         -1    1    4    4    0  501 -0.24045654258E+02 -0.22294090696E+02 -0.25540178634E+02  0.41563453818E+02  0.00000000000E+00 0.  1.
          5    1    3    3  502    0  0.41890411263E+02  0.57881289407E+01 -0.10717409643E+03  0.11531125677E+03  0.47000000000E+01 0. -1.
         13    1    6    6    0    0 -0.44240007210E+02  0.26042555155E+02 -0.95763372171E+01  0.52221634898E+02  0.00000000000E+00 0. -1.
        -14    1    6    6    0    0  0.12699444406E+02  0.16655817339E+02 -0.69566542274E+02  0.72651193682E+02  0.00000000000E+00 0.  1.
         -5    1    5    5    0  503  0.94976722017E+02  0.40859698440E+02 -0.12825940160E+03  0.16481097288E+03  0.47000000000E+01 0.  1.
<mgrwt>
<rscale>  2 0.20247218E+03</rscale>
<asrwt>0</asrwt>
<pdfrwt beam="1">  1       21 0.92857554E-02 0.20254964E+03</pdfrwt>
<pdfrwt beam="2">  1       21 0.12035041E+00 0.20254964E+03</pdfrwt>
<totfact> 0.48222081E+04</totfact>
</mgrwt>
</event>
<event>
12    1  0.2768653E-001  0.1972379E+03  0.7546771E-02  0.1155434E+00
         21   -1    0    0  504  503  0.00000000000E+00  0.00000000000E+00  0.52202310326E+02  0.52202310326E+02  0.00000000000E+00 0. -1.
         21   -1    0    0  502  504 -0.00000000000E+00 -0.00000000000E+00 -0.74298157622E+03  0.74298157622E+03  0.00000000000E+00 0. -1.
          6    2    1    2  502    0 -0.12400598455E+02 -0.55936821550E+02 -0.43897451731E+03  0.47532702736E+03  0.17307354866E+03 0.  0.
         24    2    3    3    0    0 -0.83804208082E+01  0.27904889568E+02 -0.30826749078E+03  0.31991785409E+03  0.80434278644E+02 0.  0.
         -6    2    1    2    0  503  0.12400598455E+02  0.55936821550E+02 -0.25180474858E+03  0.31985685918E+03  0.18873281673E+03 0.  0.
        -24    2    5    5    0    0  0.53467157720E+02  0.48418207748E+02 -0.61008739538E+02  0.12449002753E+03  0.81071825305E+02 0.  0.
          2    1    4    4  501    0 -0.23901888560E+02  0.11442699522E+02 -0.28896404247E+03  0.29017659019E+03  0.00000000000E+00 0. -1.
         -1    1    4    4    0  501  0.15521467752E+02  0.16462190046E+02 -0.19303448307E+02  0.29741263908E+02  0.00000000000E+00 0.  1.
          5    1    3    3  502    0 -0.40201776472E+01 -0.83841711118E+02 -0.13070702653E+03  0.15540917327E+03  0.47000000000E+01 0. -1.
         11    1    6    6    0    0 -0.14127655286E+02  0.35590248921E+02 -0.31682063303E+02  0.49699191113E+02  0.00000000000E+00 0. -1.
        -12    1    6    6    0    0  0.67594813006E+02  0.12827958827E+02 -0.29326676235E+02  0.74790836417E+02  0.00000000000E+00 0.  1.
         -5    1    5    5    0  503 -0.41066559265E+02  0.75186138021E+01 -0.19079600904E+03  0.19536683165E+03  0.47000000000E+01 0.  1.
<mgrwt>
<rscale>  2 0.19339521E+03</rscale>
<asrwt>0</asrwt>
<pdfrwt beam="1">  1       21 0.80311243E-02 0.19723787E+03</pdfrwt>
<pdfrwt beam="2">  1       21 0.11430486E+00 0.19723787E+03</pdfrwt>
<totfact> 0.70761565E+04</totfact>
</mgrwt>
</event>
<event>
12    1  0.2768653E-001  0.2037641E+03  0.7546771E-02  0.1146709E+00
         21   -1    0    0  504  503  0.00000000000E+00  0.00000000000E+00  0.56722308540E+03  0.56722308540E+03  0.00000000000E+00 0. -1.
         21   -1    0    0  502  504 -0.00000000000E+00 -0.00000000000E+00 -0.92725945017E+02  0.92725945017E+02  0.00000000000E+00 0.  1.
          6    2    1    2  502    0 -0.93532770356E+02  0.50747729413E+02  0.84861662853E+02  0.22024957444E+03  0.17316079825E+03 0.  0.
         24    2    3    3    0    0 -0.78447783493E+02  0.91332319876E+02  0.26779809391E+02  0.14765303518E+03  0.81170272990E+02 0.  0.
         -6    2    1    2    0  503  0.93532770356E+02 -0.50747729413E+02  0.38963547753E+03  0.43969945597E+03  0.17377023641E+03 0.  0.
        -24    2    5    5    0    0  0.11365823073E+03 -0.21257668637E+02  0.37550008931E+03  0.40101357948E+03  0.80258905849E+02 0.  0.
          2    1    4    4  501    0  0.12359185295E+02  0.13795030737E+02 -0.12044199452E+02  0.22093326473E+02  0.00000000000E+00 0. -1.
         -1    1    4    4    0  501 -0.90806968788E+02  0.77537289138E+02  0.38824008843E+02  0.12555970870E+03  0.00000000000E+00 0.  1.
          5    1    3    3  502    0 -0.15084986863E+02 -0.40584590463E+02  0.58081853462E+02  0.72596539265E+02  0.47000000000E+01 0. -1.
         13    1    6    6    0    0  0.83352033517E+02 -0.85073286702E+01  0.13944873598E+03  0.16268339221E+03  0.00000000000E+00 0. -1.
        -14    1    6    6    0    0  0.30306197212E+02 -0.12750339967E+02  0.23605135333E+03  0.23833018728E+03  0.00000000000E+00 0.  1.
         -5    1    5    5    0  503 -0.20125460374E+02 -0.29490060776E+02  0.14135388218E+02  0.38685876491E+02  0.47000000000E+01 0.  1.
<mgrwt>
<rscale>  2 0.20363410E+03</rscale>
<asrwt>0</asrwt>
<pdfrwt beam="1">  1       21 0.87265088E-01 0.20376409E+03</pdfrwt>
<pdfrwt beam="2">  1       21 0.14265530E-01 0.20376409E+03</pdfrwt>
<totfact> 0.48208169E+04</totfact>
</mgrwt>
</event>
<event>
12    1  0.2768653E-001  0.2011992E+03  0.7546771E-02  0.1148922E+00
         21   -1    0    0  504  503  0.00000000000E+00  0.00000000000E+00  0.13584883755E+02  0.13584883755E+02  0.00000000000E+00 0. -1.
         21   -1    0    0  502  504 -0.00000000000E+00 -0.00000000000E+00 -0.34143764284E+04  0.34143764284E+04  0.00000000000E+00 0. -1.
          6    2    1    2  502    0  0.83178161146E+02  0.52893095066E+02 -0.23178758399E+04  0.23265133740E+04  0.17435533977E+03 0.  0.
         24    2    3    3    0    0  0.27249770062E+01  0.79388538892E+02 -0.11987138184E+04  0.12041406892E+04  0.82036670662E+02 0.  0.
         -6    2    1    2    0  503 -0.83178161146E+02 -0.52893095066E+02 -0.10829157048E+04  0.11014479381E+04  0.17539911843E+03 0.  0.
        -24    2    5    5    0    0 -0.89351683911E+02 -0.20817961279E+02 -0.10401173655E+04  0.10474043036E+04  0.82428940122E+02 0.  0.
          2    1    4    4  501    0 -0.24622273303E+02  0.47948711903E+02 -0.98071744560E+03  0.98219755824E+03  0.00000000000E+00 0. -1.
         -1    1    4    4    0  501  0.27347250309E+02  0.31439826988E+02 -0.21799637283E+03  0.22194313097E+03  0.00000000000E+00 0.  1.
          5    1    3    3  502    0  0.80453184139E+02 -0.26495443825E+02 -0.11191620215E+04  0.11223726848E+04  0.47000000000E+01 0. -1.
         11    1    6    6    0    0 -0.92674337992E+02 -0.41966923825E+02 -0.83598508086E+03  0.84215248681E+03  0.00000000000E+00 0. -1.
        -12    1    6    6    0    0  0.33226540808E+01  0.21148962546E+02 -0.20413228469E+03  0.20525181680E+03  0.00000000000E+00 0.  1.
         -5    1    5    5    0  503  0.61735227653E+01 -0.32075133788E+02 -0.42798339217E+02  0.54043634506E+02  0.47000000000E+01 0.  1.
<mgrwt>
<rscale>  2 0.20097154E+03</rscale>
<asrwt>0</asrwt>
<pdfrwt beam="1">  1       21 0.20899804E-02 0.20119925E+03</pdfrwt>
<pdfrwt beam="2">  1       21 0.52528911E+00 0.20119925E+03</pdfrwt>
<totfact> 0.14118278E+03</totfact>
</mgrwt>
</event>
<event>
12    1  0.2768653E-001  0.1828648E+03  0.7546771E-02  0.1165375E+00
         21   -1    0    0  504  503  0.00000000000E+00  0.00000000000E+00  0.13283629337E+03  0.13283629337E+03  0.00000000000E+00 0.  1.
         21   -1    0    0  502  504 -0.00000000000E+00 -0.00000000000E+00 -0.29042576133E+03  0.29042576133E+03  0.00000000000E+00 0. -1.
          6    2    1    2  502    0 -0.17305717120E+02  0.55000989141E+02 -0.15759080247E+03  0.24039729969E+03  0.17213774723E+03 0.  0.
         24    2    3    3    0    0 -0.71636446365E+01  0.18390291987E+02 -0.40898373471E+01  0.82195399967E+02  0.79685860492E+02 0.  0.
         -6    2    1    2    0  503  0.17305717120E+02 -0.55000989141E+02  0.13345148608E-02  0.18286475501E+03  0.17353651481E+03 0.  0.
        -24    2    5    5    0    0 -0.21389312198E+02 -0.95309812390E+02  0.13131183587E+02  0.12527491683E+03  0.77329902300E+02 0.  0.
          2    1    4    4  501    0  0.33780011594E+02 -0.61690135261E+01 -0.23544867494E+01  0.34419318980E+02  0.00000000000E+00 0. -1.
         -1    1    4    4    0  501 -0.40943656231E+02  0.24559305513E+02 -0.17353505978E+01  0.47776080987E+02  0.00000000000E+00 0.  1.
          5    1    3    3  502    0 -0.10142072484E+02  0.36610697154E+02 -0.15350096513E+03  0.15820189972E+03  0.47000000000E+01 0. -1.
         11    1    6    6    0    0  0.13204326651E+02 -0.69478114565E+02 -0.16863193554E+02  0.72704401123E+02  0.00000000000E+00 0. -1.
        -12    1    6    6    0    0 -0.34593638850E+02 -0.25831697825E+02  0.29994377142E+02  0.52570515705E+02  0.00000000000E+00 0.  1.
         -5    1    5    5    0  503  0.38695029319E+02  0.40308823249E+02 -0.13129849073E+02  0.57589838187E+02  0.47000000000E+01 0.  1.
<mgrwt>
<rscale>  2 0.18253213E+03</rscale>
<asrwt>0</asrwt>
<pdfrwt beam="1">  1       21 0.20436353E-01 0.18286476E+03</pdfrwt>
<pdfrwt beam="2">  1       21 0.44680886E-01 0.18286476E+03</pdfrwt>
<totfact> 0.10698579E+05</totfact>
</mgrwt>
</event>
<event>
12    1  0.2768653E-001  0.2044150E+03  0.7546771E-02  0.1148012E+00
         21   -1    0    0  504  503  0.00000000000E+00  0.00000000000E+00  0.20448367659E+03  0.20448367659E+03  0.00000000000E+00 0. -1.
         21   -1    0    0  502  504 -0.00000000000E+00 -0.00000000000E+00 -0.22770965906E+03  0.22770965906E+03  0.00000000000E+00 0.  1.
          6    2    1    2  502    0  0.60485508698E+02 -0.91924111353E+02 -0.93477374269E+02  0.22477435389E+03  0.17226999639E+03 0.  0.
         24    2    3    3    0    0  0.78830546063E+02 -0.53621731251E+02 -0.12086231405E+03  0.17402361356E+03  0.81160175348E+02 0.  0.
         -6    2    1    2    0  503 -0.60485508698E+02  0.91924111353E+02  0.70251391798E+02  0.20741898177E+03  0.16117951773E+03 0.  0.
        -24    2    5    5    0    0 -0.78421640716E+02  0.16402104967E+02  0.19893170852E+02  0.11477278002E+03  0.79737506909E+02 0.  0.
          4    1    4    4  501    0  0.11156444721E+02  0.17229157173E+02 -0.29816866219E+01  0.20741276981E+02  0.00000000000E+00 0. -1.
         -3    1    4    4    0  501  0.67674101342E+02 -0.70850888423E+02 -0.11788062743E+03  0.15328233658E+03  0.00000000000E+00 0.  1.
          5    1    3    3  502    0 -0.18345037365E+02 -0.38302380102E+02  0.27384939784E+02  0.50750740333E+02  0.47000000000E+01 0. -1.
         13    1    6    6    0    0 -0.41708003169E+02  0.39211052069E+02  0.37138595003E+02  0.68237375181E+02  0.00000000000E+00 0. -1.
        -14    1    6    6    0    0 -0.36713637547E+02 -0.22808947102E+02 -0.17245424151E+02  0.46535404844E+02  0.00000000000E+00 0.  1.
         -5    1    5    5    0  503  0.17936132018E+02  0.75522006386E+02  0.50358220946E+02  0.92646201742E+02  0.47000000000E+01 0.  1.
<mgrwt>
<rscale>  2 0.20206086E+03</rscale>
<asrwt>0</asrwt>
<pdfrwt beam="1">  1       21 0.31459027E-01 0.20441500E+03</pdfrwt>
<pdfrwt beam="2">  1       21 0.35032255E-01 0.20441500E+03</pdfrwt>
<totfact> 0.75895755E+04</totfact>
</mgrwt>
</event>
<event>
12    1  0.2768653E-001  0.1923569E+03  0.7546771E-02  0.1157386E+00
         21   -1    0    0  504  503  0.00000000000E+00  0.00000000000E+00  0.21476865600E+03  0.21476865600E+03  0.00000000000E+00 0.  1.
         21   -1    0    0  502  504 -0.00000000000E+00 -0.00000000000E+00 -0.23684312060E+03  0.23684312060E+03  0.00000000000E+00 0.  1.
          6    2    1    2  502    0  0.60070017794E+02  0.26400918758E+02 -0.13250699831E+03  0.22980886230E+03  0.17592212209E+03 0.  0.
         24    2    3    3    0    0  0.25606999057E+02 -0.55646272807E+02 -0.65119323630E+02  0.11808317142E+03  0.77141966428E+02 0.  0.
         -6    2    1    2    0  503 -0.60070017794E+02 -0.26400918758E+02  0.11043253371E+03  0.22180291429E+03  0.18081972442E+03 0.  0.
        -24    2    5    5    0    0 -0.63488072870E+02  0.40324734966E+02  0.10773143802E+03  0.15477022165E+03  0.81798160885E+02 0.  0.
          2    1    4    4  501    0  0.39432410913E+02 -0.63117212040E+02 -0.31195188336E+02  0.80695955670E+02  0.00000000000E+00 0. -1.
         -1    1    4    4    0  501 -0.13825411856E+02  0.74709392332E+01 -0.33924135294E+02  0.37387215749E+02  0.00000000000E+00 0.  1.
          5    1    3    3  502    0  0.34463018737E+02  0.82047191565E+02 -0.67387674679E+02  0.11172569088E+03  0.47000000000E+01 0. -1.
         13    1    6    6    0    0 -0.63520447703E+02  0.44764004747E+01  0.32629424829E+02  0.71551134179E+02  0.00000000000E+00 0. -1.
        -14    1    6    6    0    0  0.32374832466E-01  0.35848334491E+02  0.75102013190E+02  0.83219087468E+02  0.00000000000E+00 0.  1.
         -5    1    5    5    0  503  0.34180550767E+01 -0.66725653724E+02  0.27010956901E+01  0.67032692646E+02  0.47000000000E+01 0.  1.
<mgrwt>
<rscale>  2 0.19119738E+03</rscale>
<asrwt>0</asrwt>
<pdfrwt beam="1">  1       21 0.33041331E-01 0.19235693E+03</pdfrwt>
<pdfrwt beam="2">  1       21 0.36437403E-01 0.19235693E+03</pdfrwt>
<totfact> 0.64069630E+04</totfact>
</mgrwt>
</event>
<event>
12    1  0.2768653E-001  0.1804604E+03  0.7546771E-02  0.1167685E+00
         21   -1    0    0  504  503  0.00000000000E+00  0.00000000000E+00  0.14360491392E+03  0.14360491392E+03  0.00000000000E+00 0. -1.
         21   -1    0    0  502  504 -0.00000000000E+00 -0.00000000000E+00 -0.53115247573E+03  0.53115247573E+03  0.00000000000E+00 0. -1.
          6    2    1    2  502    0  0.14479174808E+02  0.44545635919E+02 -0.45018753050E+03  0.48501006323E+03  0.17427561113E+03 0.  0.
         24    2    3    3    0    0 -0.30629900667E+02  0.73792656379E+02 -0.19897235398E+03  0.22806382019E+03  0.77714615632E+02 0.  0.
         -6    2    1    2    0  503 -0.14479174808E+02 -0.44545635919E+02  0.62639968696E+02  0.18974732642E+03  0.17287660924E+03 0.  0.
        -24    2    5    5    0    0  0.39827151209E+02 -0.28149701340E+02 -0.13091545120E+02  0.95008971460E+02  0.80477999759E+02 0.  0.
          4    1    4    4  501    0 -0.53052691808E+02  0.31630145591E+02 -0.90767404388E+02  0.10978968949E+03  0.00000000000E+00 0. -1.
         -3    1    4    4    0  501  0.22422791141E+02  0.42162510788E+02 -0.10820494959E+03  0.11827413071E+03  0.00000000000E+00 0.  1.
          5    1    3    3  502    0  0.45109075474E+02 -0.29247020459E+02 -0.25121517652E+03  0.25694624303E+03  0.47000000000E+01 0. -1.
         11    1    6    6    0    0  0.56445912800E+02 -0.10853734380E+02  0.13657932760E+02  0.59080316089E+02  0.00000000000E+00 0. -1.
        -12    1    6    6    0    0 -0.16618761592E+02 -0.17295966961E+02 -0.26749477880E+02  0.35928655371E+02  0.00000000000E+00 0.  1.
         -5    1    5    5    0  503 -0.54306326017E+02 -0.16395934579E+02  0.75731513816E+02  0.94738354962E+02  0.47000000000E+01 0.  1.
<mgrwt>
<rscale>  2 0.18012176E+03</rscale>
<asrwt>0</asrwt>
<pdfrwt beam="1">  1       21 0.22093064E-01 0.18046038E+03</pdfrwt>
<pdfrwt beam="2">  1       21 0.81715766E-01 0.18046038E+03</pdfrwt>
<totfact> 0.25278820E+04</totfact>
</mgrwt>
</event>
<event>
12    1  0.2768653E-001  0.1745408E+03  0.7546771E-02  0.1173260E+00
         21   -1    0    0  504  503  0.00000000000E+00  0.00000000000E+00  0.12486065568E+03  0.12486065568E+03  0.00000000000E+00 0.  1.
         21   -1    0    0  502  504 -0.00000000000E+00 -0.00000000000E+00 -0.27954329324E+03  0.27954329324E+03  0.00000000000E+00 0.  1.
          6    2    1    2  502    0  0.16106810282E+02  0.92368975857E+01 -0.14977597432E+03  0.22979423132E+03  0.17328530420E+03 0.  0.
         24    2    3    3    0    0 -0.31141201529E+02  0.35285885646E+02 -0.14946627370E+03  0.17563603422E+03  0.79328313897E+02 0.  0.
         -6    2    1    2    0  503 -0.16106810282E+02 -0.92368975857E+01 -0.49066632459E+01  0.17460971760E+03  0.17355036307E+03 0.  0.
        -24    2    5    5    0    0 -0.47942517119E+02 -0.45961626962E+02  0.36397660305E+02  0.11065383341E+03  0.80675430415E+02 0.  0.
          2    1    4    4  501    0 -0.17597452526E+02 -0.23263848789E+02 -0.29649574776E+02  0.41592959504E+02  0.00000000000E+00 0. -1.
         -1    1    4    4    0  501 -0.13543749002E+02  0.58549734435E+02 -0.11981669892E+03  0.13404307472E+03  0.00000000000E+00 0.  1.
          5    1    3    3  502    0  0.47248011810E+02 -0.26048988061E+02 -0.30970062792E+00  0.54158197104E+02  0.47000000000E+01 0. -1.
         11    1    6    6    0    0 -0.44771561388E+02 -0.63461648715E+02  0.92706249697E+01  0.78216481985E+02  0.00000000000E+00 0. -1.
        -12    1    6    6    0    0 -0.31709557311E+01  0.17500021753E+02  0.27127035336E+02  0.32437351429E+02  0.00000000000E+00 0.  1.
         -5    1    5    5    0  503  0.31835706837E+02  0.36724729377E+02 -0.41304323551E+02  0.63955884183E+02  0.47000000000E+01 0.  1.
<mgrwt>
<rscale>  2 0.17447484E+03</rscale>
<asrwt>0</asrwt>
<pdfrwt beam="1">  1       21 0.19209332E-01 0.17454076E+03</pdfrwt>
<pdfrwt beam="2">  1       21 0.43006660E-01 0.17454076E+03</pdfrwt>
<totfact> 0.13019868E+05</totfact>
</mgrwt>
</event>
<event>
12    1  0.2768653E-001  0.2298680E+03  0.7546771E-02  0.1126801E+00
         21   -1    0    0  504  503  0.00000000000E+00  0.00000000000E+00  0.73920650901E+03  0.73920650901E+03  0.00000000000E+00 0. -1.
         21   -1    0    0  502  504 -0.00000000000E+00 -0.00000000000E+00 -0.24376342148E+03  0.24376342148E+03  0.00000000000E+00 0.  1.
          6    2    1    2  502    0 -0.13645753244E+03 -0.54968587843E+02 -0.16567175676E+03  0.28303270508E+03  0.17611978125E+03 0.  0.
         24    2    3    3    0    0 -0.68098370839E+02 -0.91565339858E+02 -0.14175690533E+03  0.20175351124E+03  0.87108320574E+02 0.  0.
         -6    2    1    2    0  503  0.13645753244E+03  0.54968587843E+02  0.66111484430E+03  0.69993722540E+03  0.17662694682E+03 0.  0.
        -24    2    5    5    0    0  0.16869846726E+03  0.43086417285E+02  0.59736917065E+03  0.62736819093E+03  0.80158023567E+02 0.  0.
          4    1    4    4  501    0  0.95116212635E+01 -0.35479589654E+02 -0.85717084685E+01  0.37719310799E+02  0.00000000000E+00 0. -1.
         -3    1    4    4    0  501 -0.77609992103E+02 -0.56085750204E+02 -0.13318519686E+03  0.16403420044E+03  0.00000000000E+00 0.  1.
          5    1    3    3  502    0 -0.68359161605E+02  0.36596752015E+02 -0.23914851431E+02  0.81279193846E+02  0.47000000000E+01 0. -1.
         13    1    6    6    0    0  0.10019365303E+03  0.12656780526E+02  0.21262307224E+03  0.23538804780E+03  0.00000000000E+00 0. -1.
        -14    1    6    6    0    0  0.68504814234E+02  0.30429636760E+02  0.38474609841E+03  0.39198014313E+03  0.00000000000E+00 0.  1.
         -5    1    5    5    0  503 -0.32240934816E+02  0.11882170558E+02  0.63745673649E+02  0.72569034470E+02  0.47000000000E+01 0.  1.
<mgrwt>
<rscale>  2 0.22977054E+03</rscale>
<asrwt>0</asrwt>
<pdfrwt beam="1">  1       21 0.11372408E+00 0.22986797E+03</pdfrwt>
<pdfrwt beam="2">  1       21 0.37502065E-01 0.22986797E+03</pdfrwt>
<totfact> 0.40123586E+03</totfact>
</mgrwt>
</event>
<event>
12    1  0.2768653E-001  0.2053868E+03  0.7546771E-02  0.1145722E+00
         21   -1    0    0  504  503  0.00000000000E+00  0.00000000000E+00  0.17395711929E+04  0.17395711929E+04  0.00000000000E+00 0. -1.
         21   -1    0    0  502  504 -0.00000000000E+00 -0.00000000000E+00 -0.30823654619E+02  0.30823654619E+02  0.00000000000E+00 0.  1.
          6    2    1    2  502    0 -0.10698422197E+03 -0.12790209600E+02  0.44118126699E+03  0.48664630662E+03  0.17485566672E+03 0.  0.
         24    2    3    3    0    0 -0.21763519751E+02 -0.96077974467E+01  0.12734691276E+03  0.16139749766E+03  0.96259833242E+02 0.  0.
         -6    2    1    2    0  503  0.10698422197E+03  0.12790209600E+02  0.12675662712E+04  0.12837485409E+04  0.17226970410E+03 0.  0.
        -24    2    5    5    0    0 -0.11081713134E+02 -0.21499827936E+00  0.55694903928E+03  0.56325729120E+03  0.83328825448E+02 0.  0.
          4    1    4    4  501    0 -0.35122368451E+02 -0.43137885450E+02  0.10533546043E+03  0.11912185841E+03  0.00000000000E+00 0. -1.
         -3    1    4    4    0  501  0.13358848700E+02  0.33530088003E+02  0.22011452335E+02  0.42275639250E+02  0.00000000000E+00 0.  1.
          5    1    3    3  502    0 -0.85220702221E+02 -0.31824121532E+01  0.31383435423E+03  0.32524880896E+03  0.47000000000E+01 0. -1.
         13    1    6    6    0    0  0.30405557360E+02  0.51724231554E+01  0.38729664041E+03  0.38852276581E+03  0.00000000000E+00 0. -1.
        -14    1    6    6    0    0 -0.41487270494E+02 -0.53874214347E+01  0.16965239887E+03  0.17473452539E+03  0.00000000000E+00 0.  1.
         -5    1    5    5    0  503  0.11806593511E+03  0.13005207879E+02  0.71061723197E+03  0.72049124966E+03  0.47000000000E+01 0.  1.
<mgrwt>
<rscale>  2 0.20483528E+03</rscale>
<asrwt>0</asrwt>
<pdfrwt beam="1">  1       21 0.26762626E+00 0.20538675E+03</pdfrwt>
<pdfrwt beam="2">  1       21 0.47421021E-02 0.20538675E+03</pdfrwt>
<totfact> 0.15256474E+04</totfact>
</mgrwt>
</event>
<event>
12    1  0.2768653E-001  0.1937587E+03  0.7546771E-02  0.1155307E+00
         21   -1    0    0  504  503  0.00000000000E+00  0.00000000000E+00  0.35127255523E+03  0.35127255523E+03  0.00000000000E+00 0. -1.
         21   -1    0    0  502  504 -0.00000000000E+00 -0.00000000000E+00 -0.12921808632E+03  0.12921808632E+03  0.00000000000E+00 0.  1.
          6    2    1    2  502    0 -0.17763347995E+02 -0.84841399835E+02  0.98535036435E+01  0.19313777539E+03  0.17231224300E+03 0.  0.
         24    2    3    3    0    0 -0.50182387804E+02 -0.94625318825E+02 -0.35573805828E+02  0.13628313917E+03  0.76389628574E+02 0.  0.
         -6    2    1    2    0  503  0.17763347995E+02  0.84841399835E+02  0.21220096526E+03  0.28735286616E+03  0.17328825804E+03 0.  0.
        -24    2    5    5    0    0  0.67050383762E+02  0.96522501094E+02  0.16001986853E+03  0.21447888673E+03  0.81132529545E+02 0.  0.
          4    1    4    4  501    0 -0.26765335312E+02 -0.95170863261E+02 -0.66810378710E+01  0.99088408279E+02  0.00000000000E+00 0. -1.
         -3    1    4    4    0  501 -0.23417052492E+02  0.54554443587E+00 -0.28892767957E+02  0.37194730895E+02  0.00000000000E+00 0.  1.
          5    1    3    3  502    0  0.32419039809E+02  0.97839189898E+01  0.45427309472E+02  0.56854636212E+02  0.47000000000E+01 0. -1.
         11    1    6    6    0    0  0.34676175771E+02  0.23995065211E+02  0.11653352167E+03  0.12392845514E+03  0.00000000000E+00 0. -1.
        -12    1    6    6    0    0  0.32374207991E+02  0.72527435884E+02  0.43486346861E+02  0.90550431596E+02  0.00000000000E+00 0.  1.
         -5    1    5    5    0  503 -0.49287035766E+02 -0.11681101259E+02  0.52181096739E+02  0.72873979431E+02  0.47000000000E+01 0.  1.
<mgrwt>
<rscale>  2 0.19354019E+03</rscale>
<asrwt>0</asrwt>
<pdfrwt beam="1">  1       21 0.54041931E-01 0.19375866E+03</pdfrwt>
<pdfrwt beam="2">  1       21 0.19879706E-01 0.19375866E+03</pdfrwt>
<totfact> 0.75538575E+04</totfact>
</mgrwt>
</event>
<event>
12    1  0.2768653E-001  0.1823390E+03  0.7546771E-02  0.1165811E+00
         21   -1    0    0  504  503  0.00000000000E+00  0.00000000000E+00  0.75302165736E+03  0.75302165736E+03  0.00000000000E+00 0. -1.
         21   -1    0    0  502  504 -0.00000000000E+00 -0.00000000000E+00 -0.57038621982E+02  0.57038621982E+02  0.00000000000E+00 0. -1.
          6    2    1    2  502    0 -0.15098020959E+02 -0.32265040722E+02  0.15435037585E+03  0.23889654833E+03  0.17882544334E+03 0.  0.
         24    2    3    3    0    0 -0.43340881955E+02  0.54265065058E+01  0.16663219898E+03  0.18999618934E+03  0.80152250171E+02 0.  0.
         -6    2    1    2    0  503  0.15098020959E+02  0.32265040722E+02  0.54163265953E+03  0.57116373102E+03  0.17774444204E+03 0.  0.
        -24    2    5    5    0    0 -0.57554656991E+02  0.41720775963E+02  0.30147241742E+03  0.32003258115E+03  0.80511321245E+02 0.  0.
          2    1    4    4  501    0 -0.62828178945E+02  0.19980474008E+02  0.10819558461E+03  0.12669997609E+03  0.00000000000E+00 0. -1.
         -1    1    4    4    0  501  0.19487296989E+02 -0.14553967502E+02  0.58436614363E+02  0.63296213253E+02  0.00000000000E+00 0.  1.
          5    1    3    3  502    0  0.28242860996E+02 -0.37691547228E+02 -0.12281823120E+02  0.48900358985E+02  0.47000000000E+01 0. -1.
         11    1    6    6    0    0 -0.87186033509E+01 -0.21474753801E+02  0.11272892278E+03  0.11508687643E+03  0.00000000000E+00 0. -1.
        -12    1    6    6    0    0 -0.48836053640E+02  0.63195529764E+02  0.18874349464E+03  0.20494570473E+03  0.00000000000E+00 0.  1.
         -5    1    5    5    0  503  0.72652677950E+02 -0.94557352412E+01  0.24016024211E+03  0.25113114987E+03  0.47000000000E+01 0.  1.
<mgrwt>
<rscale>  2 0.18207344E+03</rscale>
<asrwt>0</asrwt>
<pdfrwt beam="1">  1       21 0.11584948E+00 0.18233903E+03</pdfrwt>
<pdfrwt beam="2">  1       21 0.87751731E-02 0.18233903E+03</pdfrwt>
<totfact> 0.59097454E+04</totfact>
</mgrwt>
</event>
<event>
12    1  0.2768653E-001  0.1936341E+03  0.7546771E-02  0.1157165E+00
         21   -1    0    0  504  503  0.00000000000E+00  0.00000000000E+00  0.52123753679E+03  0.52123753679E+03  0.00000000000E+00 0.  1.
         21   -1    0    0  502  504 -0.00000000000E+00 -0.00000000000E+00 -0.68948689519E+02  0.68948689519E+02  0.00000000000E+00 0. -1.
          6    2    1    2  502    0 -0.52937864402E+02 -0.64552548481E+02  0.20597744622E+03  0.27687572168E+03  0.16511816345E+03 0.  0.
         24    2    3    3    0    0 -0.32658582803E+01  0.23497260939E+02  0.96844233706E+02  0.12803948549E+03  0.80327561518E+02 0.  0.
         -6    2    1    2    0  503  0.52937864402E+02  0.64552548481E+02  0.24631140105E+03  0.31331050462E+03  0.17471324225E+03 0.  0.
        -24    2    5    5    0    0  0.73173235479E+02  0.61594796824E+02  0.26001127206E+03  0.28825067615E+03  0.79588625537E+02 0.  0.
          2    1    4    4  501    0  0.14725546044E+02  0.22723626405E+01 -0.97943415691E+01  0.17830716896E+02  0.00000000000E+00 0. -1.
         -1    1    4    4    0  501 -0.17991404324E+02  0.21224898299E+02  0.10663857527E+03  0.11020876859E+03  0.00000000000E+00 0.  1.
          5    1    3    3  502    0 -0.49672006121E+02 -0.88049809420E+02  0.10913321252E+03  0.14883623620E+03  0.47000000000E+01 0. -1.
         11    1    6    6    0    0 -0.17392871691E+02  0.10565043295E+02  0.37947510029E+02  0.43059791487E+02  0.00000000000E+00 0. -1.
        -12    1    6    6    0    0  0.90566107170E+02  0.51029753529E+02  0.22206376203E+03  0.24519088466E+03  0.00000000000E+00 0.  1.
         -5    1    5    5    0  503 -0.20235371077E+02  0.29577516569E+01 -0.13699871013E+02  0.25059828476E+02  0.47000000000E+01 0.  1.
<mgrwt>
<rscale>  2 0.19144443E+03</rscale>
<asrwt>0</asrwt>
<pdfrwt beam="1">  1       21 0.80190388E-01 0.19363410E+03</pdfrwt>
<pdfrwt beam="2">  1       21 0.10607491E-01 0.19363410E+03</pdfrwt>
<totfact> 0.99966744E+04</totfact>
</mgrwt>
</event>
<event>
12    1  0.2768653E-001  0.1879626E+03  0.7546771E-02  0.1160358E+00
         21   -1    0    0  504  503  0.00000000000E+00  0.00000000000E+00  0.33442729527E+02  0.33442729527E+02  0.00000000000E+00 0. -1.
         21   -1    0    0  502  504 -0.00000000000E+00 -0.00000000000E+00 -0.12972038786E+04  0.12972038786E+04  0.00000000000E+00 0. -1.
          6    2    1    2  502    0 -0.61657594564E+02  0.37588452502E+02 -0.91891725692E+03  0.93790335344E+03  0.17331827546E+03 0.  0.
         24    2    3    3    0    0 -0.96007699620E+02 -0.58252618918E+01 -0.50322259016E+03  0.51851233508E+03  0.79816378759E+02 0.  0.
         -6    2    1    2    0  503  0.61657594564E+02 -0.37588452502E+02 -0.34484389211E+03  0.39274325463E+03  0.17353790194E+03 0.  0.
        -24    2    5    5    0    0  0.53793131219E+02 -0.86613812519E+02 -0.18838785684E+03  0.22853023237E+03  0.79626810928E+02 0.  0.
          2    1    4    4  501    0 -0.31229405899E+02  0.35659491738E+02 -0.16657060932E+03  0.17318384172E+03  0.00000000000E+00 0. -1.
         -1    1    4    4    0  501 -0.64778293721E+02 -0.41484753630E+02 -0.33665198084E+03  0.34532849335E+03  0.00000000000E+00 0.  1.
          5    1    3    3  502    0  0.34350105056E+02  0.43413714394E+02 -0.41569466676E+03  0.41939101837E+03  0.47000000000E+01 0. -1.
         13    1    6    6    0    0  0.15544202886E+02  0.35854730731E+01  0.26401941608E+00  0.15954546899E+02  0.00000000000E+00 0. -1.
        -14    1    6    6    0    0  0.38248928333E+02 -0.90199285592E+02 -0.18865187625E+03  0.21257568547E+03  0.00000000000E+00 0.  1.
         -5    1    5    5    0  503  0.78644633446E+01  0.49025360017E+02 -0.15645603527E+03  0.16421302226E+03  0.47000000000E+01 0.  1.
<mgrwt>
<rscale>  2 0.18791193E+03</rscale>
<asrwt>0</asrwt>
<pdfrwt beam="1">  1       21 0.51450349E-02 0.18796264E+03</pdfrwt>
<pdfrwt beam="2">  1       21 0.19956984E+00 0.18796264E+03</pdfrwt>
<totfact> 0.34739197E+04</totfact>
</mgrwt>
</event>
<event>
12    1  0.2768653E-001  0.2072081E+03  0.7546771E-02  0.1144178E+00
         21   -1    0    0  504  503  0.00000000000E+00  0.00000000000E+00  0.80426584643E+02  0.80426584643E+02  0.00000000000E+00 0.  1.
         21   -1    0    0  502  504 -0.00000000000E+00 -0.00000000000E+00 -0.85135419227E+03  0.85135419227E+03  0.00000000000E+00 0.  1.
          6    2    1    2  502    0  0.88934296237E+02  0.69898800521E+02 -0.67323412987E+03  0.70440001901E+03  0.17360887591E+03 0.  0.
         24    2    3    3    0    0  0.17174044097E+02 -0.21084491100E+01 -0.46915778099E+03  0.47635654955E+03  0.80666879788E+02 0.  0.
         -6    2    1    2    0  503 -0.88934296237E+02 -0.69898800521E+02 -0.97693477756E+02  0.22738075791E+03  0.17135589312E+03 0.  0.
        -24    2    5    5    0    0 -0.76507107992E+02 -0.98182621755E+02 -0.11599171728E+03  0.19116853454E+03  0.87167455688E+02 0.  0.
          4    1    4    4  501    0  0.20952840952E+02 -0.35868322280E+02 -0.15872784211E+03  0.16407341634E+03  0.00000000000E+00 0. -1.
         -3    1    4    4    0  501 -0.37787968549E+01  0.33759873170E+02 -0.31042993887E+03  0.31228313321E+03  0.00000000000E+00 0.  1.
          5    1    3    3  502    0  0.71760252141E+02  0.72007249631E+02 -0.20407634888E+03  0.22804346945E+03  0.47000000000E+01 0. -1.
         11    1    6    6    0    0 -0.84899176010E+02 -0.41858853128E+02 -0.66026748533E+02  0.11541042065E+03  0.00000000000E+00 0. -1.
        -12    1    6    6    0    0  0.83920680174E+01 -0.56323768628E+02 -0.49964968751E+02  0.75758113891E+02  0.00000000000E+00 0.  1.
         -5    1    5    5    0  503 -0.12427188245E+02  0.28283821235E+02  0.18298239528E+02  0.36212223366E+02  0.47000000000E+01 0.  1.
<mgrwt>
<rscale>  2 0.20673548E+03</rscale>
<asrwt>0</asrwt>
<pdfrwt beam="1">  1       21 0.12373320E-01 0.20720809E+03</pdfrwt>
<pdfrwt beam="2">  1       21 0.13097757E+00 0.20720809E+03</pdfrwt>
<totfact> 0.23346875E+04</totfact>
</mgrwt>
</event>
<event>
12    1  0.2768653E-001  0.2191772E+03  0.7546771E-02  0.1135085E+00
         21   -1    0    0  504  503  0.00000000000E+00  0.00000000000E+00  0.50711459274E+03  0.50711459274E+03  0.00000000000E+00 0.  1.
         21   -1    0    0  502  504 -0.00000000000E+00 -0.00000000000E+00 -0.17428845343E+03  0.17428845343E+03  0.00000000000E+00 0. -1.
          6    2    1    2  502    0 -0.12751118177E+03 -0.25435414602E+02 -0.66337972945E+02  0.22602339604E+03  0.17256821003E+03 0.  0.
         24    2    3    3    0    0 -0.12311414170E+02 -0.31162183188E+02 -0.65036741704E+02  0.11057832020E+03  0.82916431103E+02 0.  0.
         -6    2    1    2    0  503  0.12751118177E+03  0.25435414602E+02  0.39916411226E+03  0.45537965013E+03  0.17644425591E+03 0.  0.
        -24    2    5    5    0    0  0.16239150038E+03  0.14006772150E+02  0.31940848473E+03  0.36745752198E+03  0.80225066428E+02 0.  0.
          4    1    4    4  501    0  0.22354632153E+02 -0.18468648518E+02  0.68244387695E+01  0.29789151067E+02  0.00000000000E+00 0. -1.
         -3    1    4    4    0  501 -0.34666046323E+02 -0.12693534670E+02 -0.71861180474E+02  0.80789169133E+02  0.00000000000E+00 0.  1.
          5    1    3    3  502    0 -0.11519976760E+03  0.57267685867E+01 -0.13012312404E+01  0.11544507584E+03  0.47000000000E+01 0. -1.
         13    1    6    6    0    0  0.15824331590E+03 -0.36648924779E+00  0.24572105133E+03  0.29226685821E+03  0.00000000000E+00 0. -1.
        -14    1    6    6    0    0  0.41481844809E+01  0.14373261398E+02  0.73687433398E+02  0.75190663772E+02  0.00000000000E+00 0.  1.
         -5    1    5    5    0  503 -0.34880318612E+02  0.11428642451E+02  0.79755627533E+02  0.87922128147E+02  0.47000000000E+01 0.  1.
<mgrwt>
<rscale>  2 0.21839599E+03</rscale>
<asrwt>0</asrwt>
<pdfrwt beam="1">  1       21 0.78017629E-01 0.21917718E+03</pdfrwt>
<pdfrwt beam="2">  1       21 0.26813608E-01 0.21917718E+03</pdfrwt>
<totfact> 0.18973670E+04</totfact>
</mgrwt>
</event>
<event>
12    1  0.2768653E-001  0.1901753E+03  0.7546771E-02  0.1158466E+00
         21   -1    0    0  504  503  0.00000000000E+00  0.00000000000E+00  0.19409908760E+03  0.19409908760E+03  0.00000000000E+00 0. -1.
         21   -1    0    0  502  504 -0.00000000000E+00 -0.00000000000E+00 -0.35598605594E+03  0.35598605594E+03  0.00000000000E+00 0.  1.
          6    2    1    2  502    0 -0.12715722943E+01  0.81275054171E+02 -0.27129311725E+03  0.33131042736E+03  0.17192845164E+03 0.  0.
         24    2    3    3    0    0  0.29760330585E+02  0.21192326865E+02 -0.24200519146E+03  0.25746744723E+03  0.79926101459E+02 0.  0.
         -6    2    1    2    0  503  0.12715722943E+01 -0.81275054171E+02  0.10940614890E+03  0.21877471619E+03  0.17112983287E+03 0.  0.
        -24    2    5    5    0    0  0.53919067099E+02 -0.75351907250E+02  0.11066274139E+03  0.16557216547E+03  0.81133987464E+02 0.  0.
          4    1    4    4  501    0  0.15914445818E+02  0.41051799697E+02 -0.63162855688E+02  0.76993936013E+02  0.00000000000E+00 0. -1.
         -3    1    4    4    0  501  0.13845884766E+02 -0.19859472832E+02 -0.17884233577E+03  0.18047351122E+03  0.00000000000E+00 0.  1.
          5    1    3    3  502    0 -0.31031902879E+02  0.60082727306E+02 -0.29287925785E+02  0.73842980124E+02  0.47000000000E+01 0. -1.
         11    1    6    6    0    0  0.37807341331E+02 -0.69507283891E+02  0.12171901978E+03  0.14517636636E+03  0.00000000000E+00 0. -1.
        -12    1    6    6    0    0  0.16111725767E+02 -0.58446233593E+01 -0.11056278390E+02  0.20395799108E+02  0.00000000000E+00 0.  1.
         -5    1    5    5    0  503 -0.52647494804E+02 -0.59231469208E+01 -0.12565924890E+01  0.53202550722E+02  0.47000000000E+01 0.  1.
<mgrwt>
<rscale>  2 0.18999462E+03</rscale>
<asrwt>0</asrwt>
<pdfrwt beam="1">  1       21 0.29861398E-01 0.19017530E+03</pdfrwt>
<pdfrwt beam="2">  1       21 0.54767085E-01 0.19017530E+03</pdfrwt>
<totfact> 0.33886894E+04</totfact>
</mgrwt>
</event>
<event>
12    1  0.2768653E-001  0.2004452E+03  0.7546771E-02  0.1149465E+00
         21   -1    0    0  504  503  0.00000000000E+00  0.00000000000E+00  0.13143631090E+03  0.13143631090E+03  0.00000000000E+00 0. -1.
         21   -1    0    0  502  504 -0.00000000000E+00 -0.00000000000E+00 -0.35835820693E+03  0.35835820693E+03  0.00000000000E+00 0.  1.
          6    2    1    2  502    0 -0.87970570399E+02  0.50367946003E+02 -0.20811237950E+03  0.28894467655E+03  0.17292342919E+03 0.  0.
         24    2    3    3    0    0 -0.13957458448E+02  0.86888837227E+02 -0.11515297384E+03  0.16454508918E+03  0.77912760881E+02 0.  0.
         -6    2    1    2    0  503  0.87970570399E+02 -0.50367946003E+02 -0.18809516532E+02  0.20084984129E+03  0.17236910858E+03 0.  0.
        -24    2    5    5    0    0  0.22895795414E+02 -0.88424998573E+02 -0.54118609689E+01  0.12413835086E+03  0.83891859521E+02 0.  0.
          4    1    4    4  501    0  0.11189673574E+02  0.51070621967E+02 -0.10828398474E+03  0.12024491080E+03  0.00000000000E+00 0. -1.
         -3    1    4    4    0  501 -0.25147132023E+02  0.35818215260E+02 -0.68689891069E+01  0.44300178383E+02  0.00000000000E+00 0.  1.
          5    1    3    3  502    0 -0.74013111950E+02 -0.36520891225E+02 -0.92959405654E+02  0.12439958736E+03  0.47000000000E+01 0. -1.
         13    1    6    6    0    0  0.30126709461E+02 -0.20549936276E+01 -0.20038557532E+02  0.36240659620E+02  0.00000000000E+00 0. -1.
        -14    1    6    6    0    0 -0.72309140471E+01 -0.86370004945E+02  0.14626696563E+02  0.87897691236E+02  0.00000000000E+00 0.  1.
         -5    1    5    5    0  503  0.65074774985E+02  0.38057052570E+02 -0.13397655564E+02  0.76711490432E+02  0.47000000000E+01 0.  1.
<mgrwt>
<rscale>  2 0.20032555E+03</rscale>
<asrwt>0</asrwt>
<pdfrwt beam="1">  1       21 0.20220971E-01 0.20044516E+03</pdfrwt>
<pdfrwt beam="2">  1       21 0.55132031E-01 0.20044516E+03</pdfrwt>
<totfact> 0.69934330E+04</totfact>
</mgrwt>
</event>
<event>
12    1  0.2768653E-001  0.4278499E+03  0.7546771E-02  0.1034657E+00
         21   -1    0    0  504  503  0.00000000000E+00  0.00000000000E+00  0.17383850351E+03  0.17383850351E+03  0.00000000000E+00 0. -1.
         21   -1    0    0  502  504 -0.00000000000E+00 -0.00000000000E+00 -0.14760400111E+04  0.14760400111E+04  0.00000000000E+00 0.  1.
          6    2    1    2  502    0 -0.39149669003E+03  0.70776263446E+00 -0.10937970134E+04  0.11739710333E+04  0.16895538197E+03 0.  0.
         24    2    3    3    0    0 -0.13336954964E+03  0.51507640742E+02 -0.44642881863E+03  0.47517355339E+03  0.77786514982E+02 0.  0.
         -6    2    1    2    0  503  0.39149669003E+03 -0.70776263446E+00 -0.20840449412E+03  0.47590748132E+03  0.17258429354E+03 0.  0.
        -24    2    5    5    0    0  0.17072260419E+03  0.47980027061E+02 -0.13985836651E+03  0.23961876078E+03  0.80053090247E+02 0.  0.
          4    1    4    4  501    0 -0.47559554808E+02  0.54706116931E+02 -0.26006002251E+03  0.26997386131E+03  0.00000000000E+00 0. -1.
         -3    1    4    4    0  501 -0.85809994828E+02 -0.31984761891E+01 -0.18636879613E+03  0.20519969209E+03  0.00000000000E+00 0.  1.
          5    1    3    3  502    0 -0.25812714039E+03 -0.50799878108E+02 -0.64736819482E+03  0.69879747988E+03  0.47000000000E+01 0. -1.
         13    1    6    6    0    0  0.10505864087E+03  0.22597688786E+02 -0.34421791785E+02  0.11283985692E+03  0.00000000000E+00 0. -1.
        -14    1    6    6    0    0  0.65663963316E+02  0.25382338275E+02 -0.10543657472E+03  0.12677890386E+03  0.00000000000E+00 0.  1.
         -5    1    5    5    0  503  0.22077408585E+03 -0.48687789696E+02 -0.68546127619E+02  0.23628872055E+03  0.47000000000E+01 0.  1.
<mgrwt>
<rscale>  2 0.42748667E+03</rscale>
<asrwt>0</asrwt>
<pdfrwt beam="1">  1       21 0.26744385E-01 0.42784985E+03</pdfrwt>
<pdfrwt beam="2">  1       21 0.22708308E+00 0.42784985E+03</pdfrwt>
<totfact> 0.10143777E+03</totfact>
</mgrwt>
</event>
<event>
12    1  0.2768653E-001  0.1771458E+03  0.7546771E-02  0.1170924E+00
         21   -1    0    0  504  503  0.00000000000E+00  0.00000000000E+00  0.16825434627E+03  0.16825434627E+03  0.00000000000E+00 0. -1.
         21   -1    0    0  502  504 -0.00000000000E+00 -0.00000000000E+00 -0.34979485590E+03  0.34979485590E+03  0.00000000000E+00 0. -1.
          6    2    1    2  502    0 -0.23176498365E+02 -0.98502684886E+01 -0.26867983507E+03  0.32182216433E+03  0.17534672455E+03 0.  0.
         24    2    3    3    0    0 -0.60170772608E+02 -0.57202738784E+02 -0.15487158488E+03  0.19303846745E+03  0.79912245061E+02 0.  0.
         -6    2    1    2    0  503  0.23176498365E+02  0.98502684886E+01  0.87139325441E+02  0.19622703784E+03  0.17400462774E+03 0.  0.
        -24    2    5    5    0    0  0.78644565470E+02  0.46526881010E+02  0.50369307714E+02  0.12009554253E+03  0.59465568532E+02 0.  0.
          4    1    4    4  501    0 -0.37163689560E+02  0.13308110224E+02 -0.39210627360E+02  0.55639185089E+02  0.00000000000E+00 0. -1.
         -3    1    4    4    0  501 -0.23007083048E+02 -0.70510849008E+02 -0.11566095752E+03  0.13739928236E+03  0.00000000000E+00 0.  1.
          5    1    3    3  502    0  0.36994274243E+02  0.47352470295E+02 -0.11380825019E+03  0.12878369688E+03  0.47000000000E+01 0. -1.
         11    1    6    6    0    0  0.50232773881E+02  0.34285743948E+02  0.62182744655E+02  0.86980098544E+02  0.00000000000E+00 0. -1.
        -12    1    6    6    0    0  0.28411791589E+02  0.12241137062E+02 -0.11813436941E+02  0.33115443984E+02  0.00000000000E+00 0.  1.
         -5    1    5    5    0  503 -0.55468067105E+02 -0.36676612522E+02  0.36770017727E+02  0.76131495309E+02  0.47000000000E+01 0.  1.
<mgrwt>
<rscale>  2 0.17681282E+03</rscale>
<asrwt>0</asrwt>
<pdfrwt beam="1">  1       21 0.25885285E-01 0.17714585E+03</pdfrwt>
<pdfrwt beam="2">  1       21 0.53814592E-01 0.17714585E+03</pdfrwt>
<totfact> 0.46634057E+04</totfact>
</mgrwt>
</event>
<event>
12    1  0.2768653E-001  0.1822013E+03  0.7546771E-02  0.1165818E+00
         21   -1    0    0  504  503  0.00000000000E+00  0.00000000000E+00  0.24099047824E+03  0.24099047824E+03  0.00000000000E+00 0. -1.
         21   -1    0    0  502  504 -0.00000000000E+00 -0.00000000000E+00 -0.52939007373E+03  0.52939007373E+03  0.00000000000E+00 0. -1.
          6    2    1    2  502    0  0.31472823390E+02  0.49532016466E+02 -0.47562187394E+03  0.50913453322E+03  0.17192395611E+03 0.  0.
         24    2    3    3    0    0 -0.26873407441E+02 -0.22591171704E+02 -0.26967851461E+03  0.28321243564E+03  0.79058468192E+02 0.  0.
         -6    2    1    2    0  503 -0.31472823390E+02 -0.49532016466E+02  0.18722227845E+03  0.26124601875E+03  0.17249156935E+03 0.  0.
        -24    2    5    5    0    0 -0.51915676513E+02 -0.69355020210E+02  0.64206828029E+02  0.13489035895E+03  0.81040334868E+02 0.  0.
          4    1    4    4  501    0 -0.19486702725E+02 -0.64163983527E+01 -0.26363467259E+03  0.26443173475E+03  0.00000000000E+00 0. -1.
         -3    1    4    4    0  501 -0.73867047158E+01 -0.16174773351E+02 -0.60438420169E+01  0.18780700888E+02  0.00000000000E+00 0.  1.
          5    1    3    3  502    0  0.58346230830E+02  0.72123188171E+02 -0.20594335933E+03  0.22592209758E+03  0.47000000000E+01 0. -1.
         13    1    6    6    0    0 -0.46087715448E+02 -0.83783816738E+02  0.69763134891E+02  0.11836680469E+03  0.00000000000E+00 0. -1.
        -14    1    6    6    0    0 -0.58279610648E+01  0.14428796528E+02 -0.55563068626E+01  0.16523554259E+02  0.00000000000E+00 0.  1.
         -5    1    5    5    0  503  0.20442853123E+02  0.19823003744E+02  0.12301545042E+03  0.12635565980E+03  0.47000000000E+01 0.  1.
<mgrwt>
<rscale>  2 0.18206680E+03</rscale>
<asrwt>0</asrwt>
<pdfrwt beam="1">  1       21 0.37075458E-01 0.18220126E+03</pdfrwt>
<pdfrwt beam="2">  1       21 0.81444627E-01 0.18220126E+03</pdfrwt>
<totfact> 0.93352959E+03</totfact>
</mgrwt>
</event>
<event>
12    1  0.2768653E-001  0.2026300E+03  0.7546771E-02  0.1147790E+00
         21   -1    0    0  504  503  0.00000000000E+00  0.00000000000E+00  0.17446109785E+04  0.17446109785E+04  0.00000000000E+00 0.  1.
         21   -1    0    0  502  504 -0.00000000000E+00 -0.00000000000E+00 -0.59576240150E+02  0.59576240150E+02  0.00000000000E+00 0.  1.
          6    2    1    2  502    0 -0.13870293612E+02  0.10167550582E+03  0.13852865087E+03  0.24446288802E+03  0.17332519429E+03 0.  0.
         24    2    3    3    0    0 -0.45675784764E+02  0.12394135249E+03  0.13444244780E+03  0.20514184720E+03  0.80997960046E+02 0.  0.
         -6    2    1    2    0  503  0.13870293612E+02 -0.10167550582E+03  0.15465060875E+04  0.15597243307E+04  0.17472439852E+03 0.  0.
        -24    2    5    5    0    0  0.68395064125E+02 -0.39409542464E+02  0.66748264887E+03  0.67680061002E+03  0.79340924835E+02 0.  0.
          4    1    4    4  501    0  0.43203559897E+01  0.70676317916E+02  0.10441125578E+03  0.12615671890E+03  0.00000000000E+00 0. -1.
         -3    1    4    4    0  501 -0.49996140754E+02  0.53265034575E+02  0.30031192017E+02  0.78985128300E+02  0.00000000000E+00 0.  1.
          5    1    3    3  502    0  0.31805491152E+02 -0.22265846669E+02  0.40862030750E+01  0.39321040816E+02  0.47000000000E+01 0. -1.
         13    1    6    6    0    0 -0.10158762571E+02  0.13623894566E+02  0.89702774043E+02  0.91298404319E+02  0.00000000000E+00 0. -1.
        -14    1    6    6    0    0  0.78553826696E+02 -0.53033437030E+02  0.57777987483E+03  0.58550220570E+03  0.00000000000E+00 0.  1.
         -5    1    5    5    0  503 -0.54524770513E+02 -0.62265963358E+02  0.87902343863E+03  0.88292372063E+03  0.47000000000E+01 0.  1.
<mgrwt>
<rscale>  2 0.20232799E+03</rscale>
<asrwt>0</asrwt>
<pdfrwt beam="1">  1       21 0.26840165E+00 0.20262998E+03</pdfrwt>
<pdfrwt beam="2">  1       21 0.91655767E-02 0.20262998E+03</pdfrwt>
<totfact> 0.48609315E+03</totfact>
</mgrwt>
</event>
<event>
12    1  0.2768653E-001  0.2475449E+03  0.7546771E-02  0.1115129E+00
         21   -1    0    0  504  503  0.00000000000E+00  0.00000000000E+00  0.56072506798E+02  0.56072506798E+02  0.00000000000E+00 0. -1.
         21   -1    0    0  502  504 -0.00000000000E+00 -0.00000000000E+00 -0.11505796212E+04  0.11505796212E+04  0.00000000000E+00 0. -1.
          6    2    1    2  502    0 -0.17003629278E+03 -0.43954482180E+02 -0.69229359495E+03  0.73522030120E+03  0.17445381144E+03 0.  0.
         24    2    3    3    0    0 -0.89594949067E+02  0.25461333111E+02 -0.23584975346E+03  0.26654937654E+03  0.82145782264E+02 0.  0.
         -6    2    1    2    0  503  0.17003629278E+03  0.43954482180E+02 -0.40221351946E+03  0.47143182681E+03  0.17212761174E+03 0.  0.
        -24    2    5    5    0    0  0.40281538661E+02  0.60333257645E+02 -0.16370994035E+03  0.19938291990E+03  0.87692074000E+02 0.  0.
          4    1    4    4  501    0 -0.47056864277E+02  0.15508710416E+02 -0.21004710536E+03  0.21581161934E+03  0.00000000000E+00 0. -1.
         -3    1    4    4    0  501 -0.42538084791E+02  0.99526226951E+01 -0.25802648103E+02  0.50737757196E+02  0.00000000000E+00 0.  1.
          5    1    3    3  502    0 -0.80441343709E+02 -0.69415815291E+02 -0.45644384149E+03  0.46867092466E+03  0.47000000000E+01 0. -1.
         13    1    6    6    0    0  0.46285292386E+02  0.69734405278E+01 -0.12416917118E+03  0.13269868212E+03  0.00000000000E+00 0. -1.
        -14    1    6    6    0    0 -0.60037537249E+01  0.53359817117E+02 -0.39540769166E+02  0.66684237776E+02  0.00000000000E+00 0.  1.
         -5    1    5    5    0  503  0.12975475411E+03 -0.16378775465E+02 -0.23850357911E+03  0.27204890691E+03  0.47000000000E+01 0.  1.
<mgrwt>
<rscale>  2 0.24713541E+03</rscale>
<asrwt>0</asrwt>
<pdfrwt beam="1">  1       21 0.86265403E-02 0.24754488E+03</pdfrwt>
<pdfrwt beam="2">  1       21 0.17701223E+00 0.24754488E+03</pdfrwt>
<totfact> 0.19357012E+04</totfact>
</mgrwt>
</event>
<event>
12    1  0.2768653E-001  0.1942153E+03  0.7546771E-02  0.1154779E+00
         21   -1    0    0  504  503  0.00000000000E+00  0.00000000000E+00  0.19080183163E+04  0.19080183163E+04  0.00000000000E+00 0.  1.
         21   -1    0    0  502  504 -0.00000000000E+00 -0.00000000000E+00 -0.10870358960E+03  0.10870358960E+03  0.00000000000E+00 0.  1.
          6    2    1    2  502    0 -0.26645953457E+02 -0.80558659708E+02 -0.12445600814E+02  0.19461369452E+03  0.17469943510E+03 0.  0.
         24    2    3    3    0    0  0.31523064018E+02 -0.21526431986E+02 -0.48276106241E+02  0.10420156246E+03  0.84085030452E+02 0.  0.
         -6    2    1    2    0  503  0.26645953457E+02  0.80558659708E+02  0.18117603275E+04  0.18221082114E+04  0.17436497682E+03 0.  0.
        -24    2    5    5    0    0 -0.29643198437E+02  0.46963974997E+02  0.54059614574E+03  0.54924626345E+03  0.79642519836E+02 0.  0.
          2    1    4    4  501    0  0.12877818004E+02 -0.39503639269E+00  0.23661034737E+02  0.26941395939E+02  0.00000000000E+00 0. -1.
         -1    1    4    4    0  501  0.18645246014E+02 -0.21131395593E+02 -0.71937140979E+02  0.77260166521E+02  0.00000000000E+00 0.  1.
          5    1    3    3  502    0 -0.58169017475E+02 -0.59032227723E+02  0.35830505427E+02  0.90412132057E+02  0.47000000000E+01 0. -1.
         13    1    6    6    0    0  0.50632647461E+01  0.46060418575E+02  0.14720276130E+03  0.15432385345E+03  0.00000000000E+00 0. -1.
        -14    1    6    6    0    0 -0.34706463183E+02  0.90355642252E+00  0.39339338444E+03  0.39492241000E+03  0.00000000000E+00 0.  1.
         -5    1    5    5    0  503  0.56289151894E+02  0.33594684711E+02  0.12711641817E+04  0.12728619479E+04  0.47000000000E+01 0.  1.
<mgrwt>
<rscale>  2 0.19414009E+03</rscale>
<asrwt>0</asrwt>
<pdfrwt beam="1">  1       21 0.29354125E+00 0.19421534E+03</pdfrwt>
<pdfrwt beam="2">  1       21 0.16723631E-01 0.19421534E+03</pdfrwt>
<totfact> 0.11931032E+03</totfact>
</mgrwt>
</event>
<event>
12    1  0.2768653E-001  0.1826197E+03  0.7546771E-02  0.1165429E+00
         21   -1    0    0  504  503  0.00000000000E+00  0.00000000000E+00  0.15285276235E+04  0.15285276235E+04  0.00000000000E+00 0. -1.
         21   -1    0    0  502  504 -0.00000000000E+00 -0.00000000000E+00 -0.41328199540E+02  0.41328199540E+02  0.00000000000E+00 0.  1.
          6    2    1    2  502    0 -0.19608265971E+02  0.50598046971E+02  0.20396408564E+03  0.27377237962E+03  0.17437121655E+03 0.  0.
         24    2    3    3    0    0  0.39015697053E+02 -0.14279061148E+02  0.13251891554E+03  0.16075773221E+03  0.80967087669E+02 0.  0.
         -6    2    1    2    0  503  0.19608265971E+02 -0.50598046971E+02  0.12832353383E+04  0.12960834434E+04  0.17376625777E+03 0.  0.
        -24    2    5    5    0    0 -0.19301907171E+02 -0.53227813684E+02  0.12008218090E+04  0.12047872384E+04  0.79583345693E+02 0.  0.
          2    1    4    4  501    0  0.29101946095E+02 -0.77837352339E+01  0.14226101103E+03  0.14541562866E+03  0.00000000000E+00 0. -1.
         -1    1    4    4    0  501  0.99137509579E+01 -0.64953259144E+01 -0.97420954874E+01  0.15342103548E+02  0.00000000000E+00 0.  1.
          5    1    3    3  502    0 -0.58623963024E+02  0.64877108119E+02  0.71445170096E+02  0.11301464741E+03  0.47000000000E+01 0. -1.
         11    1    6    6    0    0 -0.39581562427E+01  0.49223422936E+01  0.74363466105E+03  0.74366148587E+03  0.00000000000E+00 0. -1.
        -12    1    6    6    0    0 -0.15343750928E+02 -0.58150155978E+02  0.45718714797E+03  0.46112575248E+03  0.00000000000E+00 0.  1.
         -5    1    5    5    0  503  0.38910173142E+02  0.26297667134E+01  0.82413529255E+02  0.91296205020E+02  0.47000000000E+01 0.  1.
<mgrwt>
<rscale>  2 0.18247518E+03</rscale>
<asrwt>0</asrwt>
<pdfrwt beam="1">  1       21 0.23515805E+00 0.18261974E+03</pdfrwt>
<pdfrwt beam="2">  1       21 0.63581857E-02 0.18261974E+03</pdfrwt>
<totfact> 0.14666628E+04</totfact>
</mgrwt>
</event>
<event>
12    1  0.2768653E-001  0.1874380E+03  0.7546771E-02  0.1160960E+00
         21   -1    0    0  504  503  0.00000000000E+00  0.00000000000E+00  0.64997912060E+02  0.64997912060E+02  0.00000000000E+00 0. -1.
         21   -1    0    0  502  504 -0.00000000000E+00 -0.00000000000E+00 -0.54707148098E+03  0.54707148098E+03  0.00000000000E+00 0. -1.
          6    2    1    2  502    0 -0.67821858360E+02  0.13767665822E+02 -0.27903966392E+03  0.33574388045E+03  0.17341126299E+03 0.  0.
         24    2    3    3    0    0 -0.24667023121E+02 -0.28978021531E+02 -0.56932375264E+02  0.10543263178E+03  0.80165807737E+02 0.  0.
         -6    2    1    2    0  503  0.67821858360E+02 -0.13767665822E+02 -0.20303390501E+03  0.27632551259E+03  0.17419434328E+03 0.  0.
        -24    2    5    5    0    0 -0.24384548815E+02 -0.20400094716E+02 -0.54771559341E+02  0.10154043376E+03  0.79371064570E+02 0.  0.
          4    1    4    4  501    0 -0.51361796884E+02 -0.14101829757E+02 -0.18616509468E+02  0.56422249214E+02  0.00000000000E+00 0. -1.
         -3    1    4    4    0  501  0.26694773762E+02 -0.14876191774E+02 -0.38315865796E+02  0.49010382570E+02  0.00000000000E+00 0.  1.
          5    1    3    3  502    0 -0.43154835239E+02  0.42745687353E+02 -0.22210728865E+03  0.23031124867E+03  0.47000000000E+01 0. -1.
         11    1    6    6    0    0  0.25368179561E+02  0.90494168736E+01 -0.11314573401E+02  0.29213970138E+02  0.00000000000E+00 0. -1.
        -12    1    6    6    0    0 -0.49752728375E+02 -0.29449511590E+02 -0.43456985939E+02  0.72326463626E+02  0.00000000000E+00 0.  1.
         -5    1    5    5    0  503  0.92206407175E+02  0.66324288936E+01 -0.14826234566E+03  0.17478507882E+03  0.47000000000E+01 0.  1.
<mgrwt>
<rscale>  2 0.18725590E+03</rscale>
<asrwt>0</asrwt>
<pdfrwt beam="1">  1       21 0.99996791E-02 0.18743805E+03</pdfrwt>
<pdfrwt beam="2">  1       21 0.84164840E-01 0.18743805E+03</pdfrwt>
<totfact> 0.99663166E+04</totfact>
</mgrwt>
</event>
<event>
12    1  0.2768653E-001  0.2275240E+03  0.7546771E-02  0.1128502E+00
         21   -1    0    0  504  503  0.00000000000E+00  0.00000000000E+00  0.88409983468E+03  0.88409983468E+03  0.00000000000E+00 0.  1.
         21   -1    0    0  502  504 -0.00000000000E+00 -0.00000000000E+00 -0.58416348027E+02  0.58416348027E+02  0.00000000000E+00 0. -1.
          6    2    1    2  502    0 -0.13519507717E+03 -0.59561833806E+02  0.40533492436E+03  0.46482640135E+03  0.17303716810E+03 0.  0.
         24    2    3    3    0    0 -0.28101537841E+02 -0.89831020442E+02  0.22279426562E+03  0.25098432897E+03  0.67056244538E+02 0.  0.
         -6    2    1    2    0  503  0.13519507717E+03  0.59561833806E+02  0.42034856229E+03  0.47768978136E+03  0.17224776475E+03 0.  0.
        -24    2    5    5    0    0  0.10577165213E+03 -0.16216421707E+02  0.30992300214E+03  0.34048928470E+03  0.91815418168E+02 0.  0.
          4    1    4    4  501    0 -0.14874287473E+02 -0.86006632626E+02  0.12637680662E+03  0.15358867971E+03  0.00000000000E+00 0. -1.
         -3    1    4    4    0  501 -0.13227250368E+02 -0.38243878157E+01  0.96417458996E+02  0.97395649254E+02  0.00000000000E+00 0.  1.
          5    1    3    3  502    0 -0.10709353933E+03  0.30269186636E+02  0.18254065875E+03  0.21384207238E+03  0.47000000000E+01 0. -1.
         11    1    6    6    0    0  0.12131442736E+03 -0.43193677494E+01  0.26942844060E+03  0.29551232094E+03  0.00000000000E+00 0. -1.
        -12    1    6    6    0    0 -0.15542775231E+02 -0.11897053958E+02  0.40494561538E+02  0.44976963758E+02  0.00000000000E+00 0.  1.
         -5    1    5    5    0  503  0.29423425036E+02  0.75778255513E+02  0.11042556015E+03  0.13720049666E+03  0.47000000000E+01 0.  1.
<mgrwt>
<rscale>  2 0.22737393E+03</rscale>
<asrwt>0</asrwt>
<pdfrwt beam="1">  1       21 0.13601535E+00 0.22752403E+03</pdfrwt>
<pdfrwt beam="2">  1       21 0.89871311E-02 0.22752403E+03</pdfrwt>
<totfact> 0.37014573E+04</totfact>
</mgrwt>
</event>
<event>
12    1  0.2768653E-001  0.2713688E+03  0.7546771E-02  0.1101118E+00
         21   -1    0    0  504  503  0.00000000000E+00  0.00000000000E+00  0.77612639180E+03  0.77612639180E+03  0.00000000000E+00 0. -1.
         21   -1    0    0  502  504 -0.00000000000E+00 -0.00000000000E+00 -0.95455825168E+02  0.95455825168E+02  0.00000000000E+00 0.  1.
          6    2    1    2  502    0  0.11962801498E+03 -0.16472813500E+03  0.40730009554E+03  0.48942252843E+03  0.17942915894E+03 0.  0.
         24    2    3    3    0    0  0.74089358745E+02 -0.18540675762E+03  0.36515414868E+03  0.42385008390E+03  0.80289740757E+02 0.  0.
         -6    2    1    2    0  503 -0.11962801498E+03  0.16472813500E+03  0.27337047110E+03  0.38215968854E+03  0.17282474548E+03 0.  0.
        -24    2    5    5    0    0 -0.12632757130E+03  0.67517997921E+02  0.13306908850E+03  0.21127591879E+03  0.80079936518E+02 0.  0.
          2    1    4    4  501    0  0.40490330805E+02 -0.17389709461E+03  0.31953558873E+03  0.36603641741E+03  0.00000000000E+00 0. -1.
         -1    1    4    4    0  501  0.33599027940E+02 -0.11509663007E+02  0.45618559950E+02  0.57813666489E+02  0.00000000000E+00 0.  1.
          5    1    3    3  502    0  0.45538656240E+02  0.20678622614E+02  0.42145946854E+02  0.65572444529E+02  0.47000000000E+01 0. -1.
         13    1    6    6    0    0 -0.25201335453E+01 -0.12399566663E+01 -0.97497336462E+01  0.10146224509E+02  0.00000000000E+00 0. -1.
        -14    1    6    6    0    0 -0.12380743775E+03  0.68757954588E+02  0.14281882215E+03  0.20112969428E+03  0.00000000000E+00 0.  1.
         -5    1    5    5    0  503  0.66995563147E+01  0.97210137081E+02  0.14030138260E+03  0.17088376975E+03  0.47000000000E+01 0.  1.
<mgrwt>
<rscale>  2 0.27028210E+03</rscale>
<asrwt>0</asrwt>
<pdfrwt beam="1">  1       21 0.11940406E+00 0.27136883E+03</pdfrwt>
<pdfrwt beam="2">  1       21 0.14685512E-01 0.27136883E+03</pdfrwt>
<totfact> 0.20875492E+04</totfact>
</mgrwt>
</event>
<event>
12    1  0.2768653E-001  0.2003006E+03  0.7546771E-02  0.1149529E+00
         21   -1    0    0  504  503  0.00000000000E+00  0.00000000000E+00  0.16966701903E+03  0.16966701903E+03  0.00000000000E+00 0.  1.
         21   -1    0    0  502  504 -0.00000000000E+00 -0.00000000000E+00 -0.27709475487E+03  0.27709475487E+03  0.00000000000E+00 0.  1.
          6    2    1    2  502    0  0.89064058859E+02 -0.48352020084E+02  0.32103376445E+02  0.20265261768E+03  0.17253153986E+03 0.  0.
         24    2    3    3    0    0  0.37361375992E+02 -0.19613271270E+02 -0.48100682614E+02  0.10288356341E+03  0.80565495883E+02 0.  0.
         -6    2    1    2    0  503 -0.89064058859E+02  0.48352020084E+02 -0.13953111228E+03  0.24410915622E+03  0.17277159613E+03 0.  0.
        -24    2    5    5    0    0 -0.12180290329E+03  0.44337208443E+02 -0.77089138914E+02  0.17333457967E+03  0.85442412586E+02 0.  0.
          4    1    4    4  501    0  0.29050817264E+01  0.10842044572E+02 -0.55219955304E+02  0.56349204911E+02  0.00000000000E+00 0. -1.
         -3    1    4    4    0  501  0.34456294266E+02 -0.30455315842E+02  0.71192726905E+01  0.46534358502E+02  0.00000000000E+00 0.  1.
          5    1    3    3  502    0  0.51702682867E+02 -0.28738748814E+02  0.80204059059E+02  0.99769054263E+02  0.47000000000E+01 0. -1.
         11    1    6    6    0    0 -0.53265904095E+02 -0.14392717398E+02 -0.59926648020E+02  0.81459253594E+02  0.00000000000E+00 0. -1.
        -12    1    6    6    0    0 -0.68536999197E+02  0.58729925840E+02 -0.17162490894E+02  0.91875326078E+02  0.00000000000E+00 0.  1.
         -5    1    5    5    0  503  0.32738844434E+02  0.40148116415E+01 -0.62441973370E+02  0.70774576549E+02  0.47000000000E+01 0.  1.
<mgrwt>
<rscale>  2 0.20024887E+03</rscale>
<asrwt>0</asrwt>
<pdfrwt beam="1">  1       21 0.26102619E-01 0.20030065E+03</pdfrwt>
<pdfrwt beam="2">  1       21 0.42629962E-01 0.20030065E+03</pdfrwt>
<totfact> 0.73573043E+04</totfact>
</mgrwt>
</event>
<event>
12    1  0.2768653E-001  0.1753604E+03  0.7546771E-02  0.1172881E+00
         21   -1    0    0  504  503  0.00000000000E+00  0.00000000000E+00  0.98767973413E+02  0.98767973413E+02  0.00000000000E+00 0. -1.
         21   -1    0    0  502  504 -0.00000000000E+00 -0.00000000000E+00 -0.33564836207E+03  0.33564836207E+03  0.00000000000E+00 0. -1.
          6    2    1    2  502    0 -0.81433514578E+01  0.23939149433E+02 -0.18168203537E+03  0.25250670383E+03  0.17352773972E+03 0.  0.
         24    2    3    3    0    0 -0.31911414106E+02  0.77246582528E+02 -0.11280517005E+03  0.16210362975E+03  0.81038309005E+02 0.  0.
         -6    2    1    2    0  503  0.81433514578E+01 -0.23939149433E+02 -0.55198353285E+02  0.18190963166E+03  0.17147845006E+03 0.  0.
        -24    2    5    5    0    0  0.42633462859E+01 -0.49241257516E+02  0.24528461933E+02  0.98042437962E+02  0.81041943668E+02 0.  0.
          4    1    4    4  501    0 -0.54493354708E+02  0.60248736143E+02 -0.10504637627E+03  0.13279373886E+03  0.00000000000E+00 0. -1.
         -3    1    4    4    0  501  0.22581940602E+02  0.16997846385E+02 -0.77587937837E+01  0.29309890891E+02  0.00000000000E+00 0.  1.
          5    1    3    3  502    0  0.23768062648E+02 -0.53307433095E+02 -0.68876865322E+02  0.90403074073E+02  0.47000000000E+01 0. -1.
         13    1    6    6    0    0 -0.22053285266E+02 -0.13318081476E+02  0.42761809730E+02  0.49922851047E+02  0.00000000000E+00 0. -1.
        -14    1    6    6    0    0  0.26316631552E+02 -0.35923176039E+02 -0.18233347798E+02  0.48119586915E+02  0.00000000000E+00 0.  1.
         -5    1    5    5    0  503  0.38800051719E+01  0.25302108083E+02 -0.79726815217E+02  0.83867193695E+02  0.47000000000E+01 0.  1.
<mgrwt>
<rscale>  2 0.17485129E+03</rscale>
<asrwt>0</asrwt>
<pdfrwt beam="1">  1       21 0.15195073E-01 0.17536041E+03</pdfrwt>
<pdfrwt beam="2">  1       21 0.51638209E-01 0.17536041E+03</pdfrwt>
<totfact> 0.13729174E+05</totfact>
</mgrwt>
</event>
<event>
12    1  0.2768653E-001  0.3158525E+03  0.7546771E-02  0.1077601E+00
         21   -1    0    0  504  503  0.00000000000E+00  0.00000000000E+00  0.83527104198E+03  0.83527104198E+03  0.00000000000E+00 0. -1.
         21   -1    0    0  502  504 -0.00000000000E+00 -0.00000000000E+00 -0.21105658879E+03  0.21105658879E+03  0.00000000000E+00 0.  1.
          6    2    1    2  502    0 -0.15596218804E+03 -0.21377639751E+03  0.65702976422E+03  0.72900679550E+03  0.17244780249E+03 0.  0.
         24    2    3    3    0    0 -0.15708929655E+02 -0.41838887382E+02  0.15980471200E+03  0.18449937918E+03  0.80654894278E+02 0.  0.
         -6    2    1    2    0  503  0.15596218804E+03  0.21377639751E+03 -0.32815311027E+02  0.31732083526E+03  0.17202068371E+03 0.  0.
        -24    2    5    5    0    0  0.17268433974E+03  0.14873150729E+03  0.14100566159E+01  0.24179644257E+03  0.80762546564E+02 0.  0.
          4    1    4    4  501    0 -0.32550864555E+01 -0.61618778847E+02  0.78197983677E+02  0.99611214959E+02  0.00000000000E+00 0. -1.
         -3    1    4    4    0  501 -0.12453843200E+02  0.19779891465E+02  0.81606728322E+02  0.84888164218E+02  0.00000000000E+00 0.  1.
          5    1    3    3  502    0 -0.14025325839E+03 -0.17193751013E+03  0.49722505222E+03  0.54450741633E+03  0.47000000000E+01 0. -1.
         11    1    6    6    0    0  0.27356390559E+02 -0.41649547868E+00  0.18226992243E+02  0.32875048580E+02  0.00000000000E+00 0. -1.
        -12    1    6    6    0    0  0.14532794918E+03  0.14914800276E+03 -0.16816935627E+02  0.20892139399E+03  0.00000000000E+00 0.  1.
         -5    1    5    5    0  503 -0.16722151698E+02  0.65044890227E+02 -0.34225367643E+02  0.75524392697E+02  0.47000000000E+01 0.  1.
<mgrwt>
<rscale>  2 0.31579423E+03</rscale>
<asrwt>0</asrwt>
<pdfrwt beam="1">  1       21 0.12850324E+00 0.31585249E+03</pdfrwt>
<pdfrwt beam="2">  1       21 0.32470245E-01 0.31585249E+03</pdfrwt>
<totfact> 0.37401134E+03</totfact>
</mgrwt>
</event>
<event>
12    1  0.2768653E-001  0.2253516E+03  0.7546771E-02  0.1130696E+00
         21   -1    0    0  504  503  0.00000000000E+00  0.00000000000E+00  0.92669471854E+03  0.92669471854E+03  0.00000000000E+00 0.  1.
         21   -1    0    0  502  504 -0.00000000000E+00 -0.00000000000E+00 -0.82293283491E+02  0.82293283491E+02  0.00000000000E+00 0. -1.
          6    2    1    2  502    0  0.13290359414E+03  0.56483942663E+02  0.12292685298E+03  0.25313819200E+03  0.16767269292E+03 0.  0.
         24    2    3    3    0    0  0.13785332333E+03  0.78068557904E+02  0.13863650228E+03  0.22558318311E+03  0.81052169951E+02 0.  0.
         -6    2    1    2    0  503 -0.13290359414E+03 -0.56483942663E+02  0.72147458206E+03  0.75584981003E+03  0.17300162322E+03 0.  0.
        -24    2    5    5    0    0 -0.13028568578E+02 -0.24749437480E+02  0.44019430054E+03  0.44841235728E+03  0.80748632703E+02 0.  0.
          2    1    4    4  501    0  0.13204376479E+03  0.40637019284E+02  0.12160477072E+03  0.18405065449E+03  0.00000000000E+00 0. -1.
         -1    1    4    4    0  501  0.58095585362E+01  0.37431538620E+02  0.17031731555E+02  0.41532528620E+02  0.00000000000E+00 0.  1.
          5    1    3    3  502    0 -0.49497291834E+01 -0.21584615240E+02 -0.15709649294E+02  0.27555008891E+02  0.47000000000E+01 0. -1.
         11    1    6    6    0    0  0.10939309423E+02  0.11771526528E+02  0.18681979265E+02  0.24642517662E+02  0.00000000000E+00 0. -1.
        -12    1    6    6    0    0 -0.23967878000E+02 -0.36520964008E+02  0.42151232127E+03  0.42376983962E+03  0.00000000000E+00 0.  1.
         -5    1    5    5    0  503 -0.11987502557E+03 -0.31734505183E+02  0.28128028153E+03  0.30743745274E+03  0.47000000000E+01 0.  1.
<mgrwt>
<rscale>  2 0.22432853E+03</rscale>
<asrwt>0</asrwt>
<pdfrwt beam="1">  1       21 0.14256841E+00 0.22535164E+03</pdfrwt>
<pdfrwt beam="2">  1       21 0.12660506E-01 0.22535164E+03</pdfrwt>
<totfact> 0.17815306E+04</totfact>
</mgrwt>
</event>
<event>
12    1  0.2768653E-001  0.1918926E+03  0.7546771E-02  0.1157252E+00
         21   -1    0    0  504  503  0.00000000000E+00  0.00000000000E+00  0.54757905744E+03  0.54757905744E+03  0.00000000000E+00 0. -1.
         21   -1    0    0  502  504 -0.00000000000E+00 -0.00000000000E+00 -0.32952619169E+03  0.32952619169E+03  0.00000000000E+00 0. -1.
          6    2    1    2  502    0 -0.27478402464E+02 -0.77304868028E+02 -0.28266755401E+03  0.34164855165E+03  0.17346954064E+03 0.  0.
         24    2    3    3    0    0 -0.32390698678E+02 -0.32097268036E+02 -0.28158790978E+03  0.29591985843E+03  0.78723692138E+02 0.  0.
         -6    2    1    2    0  503  0.27478402464E+02  0.77304868028E+02  0.50072041976E+03  0.53545669748E+03  0.17106089819E+03 0.  0.
        -24    2    5    5    0    0 -0.15283125259E+02  0.10025730520E+03  0.26647207750E+03  0.29618752170E+03  0.80215826128E+02 0.  0.
          2    1    4    4  501    0 -0.35648913519E+02 -0.49828194318E+02 -0.26293575698E+03  0.26997945529E+03  0.00000000000E+00 0. -1.
         -1    1    4    4    0  501  0.32582148413E+01  0.17730926282E+02 -0.18652152805E+02  0.25940403139E+02  0.00000000000E+00 0.  1.
          5    1    3    3  502    0  0.49122962136E+01 -0.45207599992E+02 -0.10796442254E+01  0.45728693211E+02  0.47000000000E+01 0. -1.
         13    1    6    6    0    0  0.23107699945E+02  0.84925190448E+01  0.93162743887E+02  0.96360705295E+02  0.00000000000E+00 0. -1.
        -14    1    6    6    0    0 -0.38390825204E+02  0.91764786156E+02  0.17330933362E+03  0.19982681641E+03  0.00000000000E+00 0.  1.
         -5    1    5    5    0  503  0.42761527723E+02 -0.22952437173E+02  0.23424834226E+03  0.23926917577E+03  0.47000000000E+01 0.  1.
<mgrwt>
<rscale>  2 0.19134667E+03</rscale>
<asrwt>0</asrwt>
<pdfrwt beam="1">  1       21 0.84242932E-01 0.19189264E+03</pdfrwt>
<pdfrwt beam="2">  1       21 0.50696337E-01 0.19189264E+03</pdfrwt>
<totfact> 0.45305501E+03</totfact>
</mgrwt>
</event>
<event>
12    1  0.2768653E-001  0.1882070E+03  0.7546771E-02  0.1160563E+00
         21   -1    0    0  504  503  0.00000000000E+00  0.00000000000E+00  0.17630854212E+04  0.17630854212E+04  0.00000000000E+00 0. -1.
         21   -1    0    0  502  504 -0.00000000000E+00 -0.00000000000E+00 -0.22257081488E+02  0.22257081488E+02  0.00000000000E+00 0.  1.
          6    2    1    2  502    0  0.68446158454E+02 -0.22891292681E+02  0.57385746359E+03  0.60329220743E+03  0.17158149998E+03 0.  0.
         24    2    3    3    0    0  0.72589447071E+02  0.28457062530E+02  0.22756268722E+03  0.25315511633E+03  0.78890456161E+02 0.  0.
         -6    2    1    2    0  503 -0.68446158454E+02  0.22891292681E+02  0.11669708761E+04  0.11820502952E+04  0.17381883363E+03 0.  0.
        -24    2    5    5    0    0  0.22629608984E+02  0.35590674386E+00  0.74116406314E+03  0.74600423002E+03  0.81767455870E+02 0.  0.
          2    1    4    4  501    0  0.80106797854E+02  0.97535697966E+00  0.14286760408E+03  0.16379622303E+03  0.00000000000E+00 0. -1.
         -1    1    4    4    0  501 -0.75173507824E+01  0.27481705551E+02  0.84695083145E+02  0.89358893299E+02  0.00000000000E+00 0.  1.
          5    1    3    3  502    0 -0.41432886172E+01 -0.51348355211E+02  0.34629477637E+03  0.35013709110E+03  0.47000000000E+01 0. -1.
         13    1    6    6    0    0  0.77034519676E+01  0.17526747280E+01  0.72013648755E+03  0.72017982181E+03  0.00000000000E+00 0. -1.
        -14    1    6    6    0    0  0.14926157016E+02 -0.13967679841E+01  0.21027575595E+02  0.25824408212E+02  0.00000000000E+00 0.  1.
         -5    1    5    5    0  503 -0.91075767438E+02  0.22535385937E+02  0.42580681295E+03  0.43604606522E+03  0.47000000000E+01 0.  1.
<mgrwt>
<rscale>  2 0.18768878E+03</rscale>
<asrwt>0</asrwt>
<pdfrwt beam="1">  1       21 0.27124380E+00 0.18820700E+03</pdfrwt>
<pdfrwt beam="2">  1       21 0.34241678E-02 0.18820700E+03</pdfrwt>
<totfact> 0.25503218E+04</totfact>
</mgrwt>
</event>
<event>
12    1  0.2768653E-001  0.2079259E+03  0.7546771E-02  0.1143311E+00
         21   -1    0    0  504  503  0.00000000000E+00  0.00000000000E+00  0.65254479100E+03  0.65254479100E+03  0.00000000000E+00 0. -1.
         21   -1    0    0  502  504 -0.00000000000E+00 -0.00000000000E+00 -0.67514510754E+02  0.67514510754E+02  0.00000000000E+00 0. -1.
          6    2    1    2  502    0 -0.30948294441E+02  0.10973632817E+03  0.24084588289E+03  0.31818217914E+03  0.17387725892E+03 0.  0.
         24    2    3    3    0    0  0.19438984395E+02  0.12335268497E+03  0.21152062183E+03  0.25812933593E+03  0.79347473867E+02 0.  0.
         -6    2    1    2    0  503  0.30948294441E+02 -0.10973632817E+03  0.34418439735E+03  0.40187712261E+03  0.17332761939E+03 0.  0.
        -24    2    5    5    0    0  0.66145316828E+02 -0.15680027485E+02  0.17313801410E+03  0.20347255283E+03  0.82481765432E+02 0.  0.
          2    1    4    4  501    0  0.11535573396E+02  0.71148631213E+02  0.18601767013E+03  0.19949378632E+03  0.00000000000E+00 0. -1.
         -1    1    4    4    0  501  0.79034109991E+01  0.52204053755E+02  0.25502951692E+02  0.58635549617E+02  0.00000000000E+00 0.  1.
          5    1    3    3  502    0 -0.50387278836E+02 -0.13616356798E+02  0.29325261061E+02  0.60052843207E+02  0.47000000000E+01 0. -1.
         13    1    6    6    0    0  0.48995266593E+02 -0.90107741052E+01  0.17766961273E+03  0.18452160167E+03  0.00000000000E+00 0. -1.
        -14    1    6    6    0    0  0.17150050235E+02 -0.66692533802E+01 -0.45315986238E+01  0.18950951158E+02  0.00000000000E+00 0.  1.
         -5    1    5    5    0  503 -0.35197022387E+02 -0.94056300686E+02  0.17104638325E+03  0.19840456978E+03  0.47000000000E+01 0.  1.
<mgrwt>
<rscale>  2 0.20781090E+03</rscale>
<asrwt>0</asrwt>
<pdfrwt beam="1">  1       21 0.10039150E+00 0.20792585E+03</pdfrwt>
<pdfrwt beam="2">  1       21 0.10386848E-01 0.20792585E+03</pdfrwt>
<totfact> 0.61258351E+04</totfact>
</mgrwt>
</event>
<event>
12    1  0.2768653E-001  0.1921411E+03  0.7546771E-02  0.1156820E+00
         21   -1    0    0  504  503  0.00000000000E+00  0.00000000000E+00  0.18323541250E+03  0.18323541250E+03  0.00000000000E+00 0.  1.
         21   -1    0    0  502  504 -0.00000000000E+00 -0.00000000000E+00 -0.28274411146E+03  0.28274411146E+03  0.00000000000E+00 0.  1.
          6    2    1    2  502    0  0.55396529971E+02  0.61577155500E+02  0.76259496406E+02  0.20557085765E+03  0.17199809624E+03 0.  0.
         24    2    3    3    0    0  0.25140434334E+02 -0.18253722458E+02 -0.91165874203E+01  0.84742193464E+02  0.78312753526E+02 0.  0.
         -6    2    1    2    0  503 -0.55396529971E+02 -0.61577155500E+02 -0.17576819536E+03  0.26040866631E+03  0.17337154719E+03 0.  0.
        -24    2    5    5    0    0 -0.62056332910E+02 -0.98265575907E+02 -0.92252394554E+02  0.16882606888E+03  0.80527171627E+02 0.  0.
          2    1    4    4  501    0 -0.24730289723E+02 -0.72798978574E+01  0.13261018607E+02  0.28990321783E+02  0.00000000000E+00 0. -1.
         -1    1    4    4    0  501  0.49870724057E+02 -0.10973824601E+02 -0.22377606027E+02  0.55751871680E+02  0.00000000000E+00 0.  1.
          5    1    3    3  502    0  0.30256095637E+02  0.79830877958E+02  0.85376083826E+02  0.12082866418E+03  0.47000000000E+01 0. -1.
         13    1    6    6    0    0  0.44678833107E+01  0.11564177340E+02 -0.12839081638E+02  0.17847526331E+02  0.00000000000E+00 0. -1.
        -14    1    6    6    0    0 -0.66524216221E+02 -0.10982975325E+03 -0.79413312916E+02  0.15097854255E+03  0.00000000000E+00 0.  1.
         -5    1    5    5    0  503  0.66598029386E+01  0.36688420408E+02 -0.83515800809E+02  0.91582597429E+02  0.47000000000E+01 0.  1.
<mgrwt>
<rscale>  2 0.19183079E+03</rscale>
<asrwt>0</asrwt>
<pdfrwt beam="1">  1       21 0.28190063E-01 0.19214113E+03</pdfrwt>
<pdfrwt beam="2">  1       21 0.43499094E-01 0.19214113E+03</pdfrwt>
<totfact> 0.61101066E+04</totfact>
</mgrwt>
</event>
<event>
12    1  0.2768653E-001  0.1894040E+03  0.7546771E-02  0.1159925E+00
         21   -1    0    0  504  503  0.00000000000E+00  0.00000000000E+00  0.10470056012E+04  0.10470056012E+04  0.00000000000E+00 0. -1.
         21   -1    0    0  502  504 -0.00000000000E+00 -0.00000000000E+00 -0.84847397178E+02  0.84847397178E+02  0.00000000000E+00 0. -1.
          6    2    1    2  502    0  0.52980746372E+02 -0.43513052385E+02  0.43045170020E+02  0.19423382419E+03  0.17656031996E+03 0.  0.
         24    2    3    3    0    0 -0.27026661249E+02  0.24891638913E+02  0.24262570232E+02  0.87204561277E+02  0.75272366026E+02 0.  0.
         -6    2    1    2    0  503 -0.52980746372E+02  0.43513052385E+02  0.91911303399E+03  0.93761917418E+03  0.17222253427E+03 0.  0.
        -24    2    5    5    0    0 -0.53143419819E+02 -0.35874981582E+02  0.42439692514E+03  0.43655170890E+03  0.79708262434E+02 0.  0.
          2    1    4    4  501    0 -0.41261708257E+01 -0.20413532704E+00  0.46446091716E+02  0.46629458421E+02  0.00000000000E+00 0. -1.
         -1    1    4    4    0  501 -0.22900490424E+02  0.25095774240E+02 -0.22183521484E+02  0.40575102856E+02  0.00000000000E+00 0.  1.
          5    1    3    3  502    0  0.80007407622E+02 -0.68404691298E+02  0.18782599788E+02  0.10702926292E+03  0.47000000000E+01 0. -1.
         11    1    6    6    0    0  0.10916086893E+02 -0.34853457466E+02  0.19424842409E+03  0.19765215585E+03  0.00000000000E+00 0. -1.
        -12    1    6    6    0    0 -0.64059506711E+02 -0.10215241169E+01  0.23014850106E+03  0.23889955306E+03  0.00000000000E+00 0.  1.
         -5    1    5    5    0  503  0.16267344648E+00  0.79388033967E+02  0.49471610885E+03  0.50106746527E+03  0.47000000000E+01 0.  1.
<mgrwt>
<rscale>  2 0.18838663E+03</rscale>
<asrwt>0</asrwt>
<pdfrwt beam="1">  1       21 0.16107778E+00 0.18940404E+03</pdfrwt>
<pdfrwt beam="2">  1       21 0.13053446E-01 0.18940404E+03</pdfrwt>
<totfact> 0.12501988E+04</totfact>
</mgrwt>
</event>
<event>
12    1  0.2768653E-001  0.2064290E+03  0.7546771E-02  0.1144540E+00
         21   -1    0    0  504  503  0.00000000000E+00  0.00000000000E+00  0.89109651389E+03  0.89109651389E+03  0.00000000000E+00 0. -1.
         21   -1    0    0  502  504 -0.00000000000E+00 -0.00000000000E+00 -0.90074438898E+02  0.90074438898E+02  0.00000000000E+00 0. -1.
          6    2    1    2  502    0  0.85514008567E+02 -0.75257375189E+02  0.63693209892E+02  0.21549033852E+03  0.17147286324E+03 0.  0.
         24    2    3    3    0    0  0.45692399926E+02  0.14391490849E+02 -0.88288122434E+01  0.93407524858E+02  0.79700108874E+02 0.  0.
         -6    2    1    2    0  503 -0.85514008567E+02  0.75257375189E+02  0.73732886510E+03  0.76568061427E+03  0.17215292497E+03 0.  0.
        -24    2    5    5    0    0  0.10997820505E+02  0.74151299687E+01  0.21054441609E+03  0.22582781108E+03  0.80581095204E+02 0.  0.
          4    1    4    4  501    0  0.17943578377E+02  0.24350383247E+02 -0.40231836680E+02  0.50334022807E+02  0.00000000000E+00 0. -1.
         -3    1    4    4    0  501  0.27748821549E+02 -0.99588923983E+01  0.31403024437E+02  0.43073502051E+02  0.00000000000E+00 0.  1.
          5    1    3    3  502    0  0.39821608641E+02 -0.89648866038E+02  0.72522022135E+02  0.12208281366E+03  0.47000000000E+01 0. -1.
         11    1    6    6    0    0 -0.31657858992E+02 -0.10715353526E+02  0.11287004658E+03  0.11771442669E+03  0.00000000000E+00 0. -1.
        -12    1    6    6    0    0  0.42655679496E+02  0.18130483494E+02  0.97674369506E+02  0.10811338439E+03  0.00000000000E+00 0.  1.
         -5    1    5    5    0  503 -0.96511829071E+02  0.67842245220E+02  0.52678444902E+03  0.53985280319E+03  0.47000000000E+01 0.  1.
<mgrwt>
<rscale>  2 0.20628719E+03</rscale>
<asrwt>0</asrwt>
<pdfrwt beam="1">  1       21 0.13709177E+00 0.20642904E+03</pdfrwt>
<pdfrwt beam="2">  1       21 0.13857607E-01 0.20642904E+03</pdfrwt>
<totfact> 0.16950978E+04</totfact>
</mgrwt>
</event>
<event>
12    1  0.2768653E-001  0.2585900E+03  0.7546771E-02  0.1108033E+00
         21   -1    0    0  504  503  0.00000000000E+00  0.00000000000E+00  0.68576413093E+03  0.68576413093E+03  0.00000000000E+00 0.  1.
         21   -1    0    0  502  504 -0.00000000000E+00 -0.00000000000E+00 -0.97721672972E+02  0.97721672972E+02  0.00000000000E+00 0.  1.
          6    2    1    2  502    0 -0.17644059095E+03  0.72954951697E+02  0.31629848752E+03  0.40855054238E+03  0.17439926997E+03 0.  0.
         24    2    3    3    0    0 -0.11613124292E+03  0.11768799286E+03  0.19662597664E+03  0.26719332718E+03  0.73440929702E+02 0.  0.
         -6    2    1    2    0  503  0.17644059095E+03 -0.72954951697E+02  0.27174397045E+03  0.37493526152E+03  0.17400562563E+03 0.  0.
        -24    2    5    5    0    0  0.12572407094E+03 -0.17968808020E+02  0.25827266062E+03  0.29878273309E+03  0.80230507263E+02 0.  0.
          2    1    4    4  501    0 -0.38676418386E+02  0.67781498379E+02  0.13630266561E+03  0.15706245100E+03  0.00000000000E+00 0. -1.
         -1    1    4    4    0  501 -0.77454824537E+02  0.49906494477E+02  0.60323311029E+02  0.11013087618E+03  0.00000000000E+00 0.  1.
          5    1    3    3  502    0 -0.60309348023E+02 -0.44733041159E+02  0.11967251088E+03  0.14135721520E+03  0.47000000000E+01 0. -1.
         13    1    6    6    0    0  0.88770341668E+01  0.16700606175E+02  0.82499288214E+01  0.20634275073E+02  0.00000000000E+00 0. -1.
        -14    1    6    6    0    0  0.11684703677E+03 -0.34669414195E+02  0.25002273180E+03  0.27814845802E+03  0.00000000000E+00 0.  1.
         -5    1    5    5    0  503  0.50716520004E+02 -0.54986143677E+02  0.13471309827E+02  0.76152528430E+02  0.47000000000E+01 0.  1.
<mgrwt>
<rscale>  2 0.25852369E+03</rscale>
<asrwt>0</asrwt>
<pdfrwt beam="1">  1       21 0.10550217E+00 0.25859005E+03</pdfrwt>
<pdfrwt beam="2">  1       21 0.15034104E-01 0.25859005E+03</pdfrwt>
<totfact> 0.27256059E+04</totfact>
</mgrwt>
</event>
<event>
12    1  0.2768653E-001  0.1899207E+03  0.7546771E-02  0.1158576E+00
         21   -1    0    0  504  503  0.00000000000E+00  0.00000000000E+00  0.85552420564E+02  0.85552420564E+02  0.00000000000E+00 0.  1.
         21   -1    0    0  502  504 -0.00000000000E+00 -0.00000000000E+00 -0.94846155664E+03  0.94846155664E+03  0.00000000000E+00 0.  1.
          6    2    1    2  502    0  0.72815308782E+02 -0.24254700486E+02 -0.81684067733E+03  0.83858575629E+03  0.17351374249E+03 0.  0.
         24    2    3    3    0    0  0.93024079907E+01  0.31473358714E+02 -0.23476509855E+03  0.25039057222E+03  0.80645397017E+02 0.  0.
         -6    2    1    2    0  503 -0.72815308782E+02  0.24254700486E+02 -0.46068458748E+02  0.19542822091E+03  0.17372255739E+03 0.  0.
        -24    2    5    5    0    0 -0.25042627105E+02 -0.72509033808E+01 -0.88491868622E+02  0.12403726984E+03  0.82913959769E+02 0.  0.
          2    1    4    4  501    0 -0.33682417696E+02  0.83964534917E+01 -0.64184659771E+02  0.72970379216E+02  0.00000000000E+00 0. -1.
         -1    1    4    4    0  501  0.42984825687E+02  0.23076905223E+02 -0.17058043878E+03  0.17742019301E+03  0.00000000000E+00 0.  1.
          5    1    3    3  502    0  0.63512900791E+02 -0.55728059200E+02 -0.58207557878E+03  0.58819518407E+03  0.47000000000E+01 0. -1.
         11    1    6    6    0    0  0.24004127924E+02 -0.24922832273E+02 -0.31430117347E+02  0.46746101467E+02  0.00000000000E+00 0. -1.
        -12    1    6    6    0    0 -0.49046755029E+02  0.17671928892E+02 -0.57061751275E+02  0.77291168371E+02  0.00000000000E+00 0.  1.
         -5    1    5    5    0  503 -0.47772681677E+02  0.31505603866E+02  0.42423409874E+02  0.71390951072E+02  0.47000000000E+01 0.  1.
<mgrwt>
<rscale>  2 0.18987297E+03</rscale>
<asrwt>0</asrwt>
<pdfrwt beam="1">  1       21 0.13161911E-01 0.18992074E+03</pdfrwt>
<pdfrwt beam="2">  1       21 0.14591717E+00 0.18992074E+03</pdfrwt>
<totfact> 0.16004011E+04</totfact>
</mgrwt>
</event>
<event>
12    1  0.2768653E-001  0.1923027E+03  0.7546771E-02  0.1156474E+00
         21   -1    0    0  504  503  0.00000000000E+00  0.00000000000E+00  0.29592056167E+03  0.29592056167E+03  0.00000000000E+00 0. -1.
         21   -1    0    0  502  504 -0.00000000000E+00 -0.00000000000E+00 -0.23526034510E+03  0.23526034510E+03  0.00000000000E+00 0. -1.
          6    2    1    2  502    0  0.17928016625E+02  0.83098593506E+02 -0.15170931332E+03  0.24468282657E+03  0.17212547704E+03 0.  0.
         24    2    3    3    0    0  0.35644888808E+02  0.11564213846E+03 -0.14798926033E+03  0.20714752755E+03  0.79784802520E+02 0.  0.
         -6    2    1    2    0  503 -0.17928016625E+02 -0.83098593506E+02  0.21236952989E+03  0.28649808020E+03  0.17249215261E+03 0.  0.
        -24    2    5    5    0    0  0.26891059902E+02 -0.79181300981E+02  0.21199644046E+03  0.24126176738E+03  0.79195593984E+02 0.  0.
          2    1    4    4  501    0  0.22121600254E+02  0.12565246942E+03 -0.13606704077E+03  0.18652653392E+03  0.00000000000E+00 0. -1.
         -1    1    4    4    0  501  0.13523288554E+02 -0.10010330967E+02 -0.11922219557E+02  0.20620993637E+02  0.00000000000E+00 0.  1.
          5    1    3    3  502    0 -0.17716872183E+02 -0.32543544951E+02 -0.37200529894E+01  0.37535299015E+02  0.47000000000E+01 0. -1.
         13    1    6    6    0    0  0.49166698494E+02 -0.35836017716E+02  0.79653742416E+02  0.10023124806E+03  0.00000000000E+00 0. -1.
        -14    1    6    6    0    0 -0.22275638592E+02 -0.43345283265E+02  0.13234269804E+03  0.14103051933E+03  0.00000000000E+00 0.  1.
         -5    1    5    5    0  503 -0.44819076527E+02 -0.39172925251E+01  0.37308942798E+00  0.45236312816E+02  0.47000000000E+01 0.  1.
<mgrwt>
<rscale>  2 0.19222045E+03</rscale>
<asrwt>0</asrwt>
<pdfrwt beam="1">  1       21 0.45526240E-01 0.19230271E+03</pdfrwt>
<pdfrwt beam="2">  1       21 0.36193899E-01 0.19230271E+03</pdfrwt>
<totfact> 0.34068125E+04</totfact>
</mgrwt>
</event>
<event>
12    1  0.2768653E-001  0.2196289E+03  0.7546771E-02  0.1134166E+00
         21   -1    0    0  504  503  0.00000000000E+00  0.00000000000E+00  0.23719740411E+03  0.23719740411E+03  0.00000000000E+00 0.  1.
         21   -1    0    0  502  504 -0.00000000000E+00 -0.00000000000E+00 -0.25109458989E+03  0.25109458989E+03  0.00000000000E+00 0.  1.
          6    2    1    2  502    0 -0.98494229468E+02  0.92901146303E+02 -0.11343026803E+03  0.24719077470E+03  0.17293096070E+03 0.  0.
         24    2    3    3    0    0 -0.48973200334E+02  0.53140699846E+02 -0.14118506915E+03  0.17772391631E+03  0.80188891672E+02 0.  0.
         -6    2    1    2    0  503  0.98494229468E+02 -0.92901146303E+02  0.99533082243E+02  0.24110121930E+03  0.17289079578E+03 0.  0.
        -24    2    5    5    0    0  0.13638223903E+02 -0.72455841181E+02  0.39206480152E-01  0.10866378692E+03  0.79824601328E+02 0.  0.
          2    1    4    4  501    0 -0.42965534668E+02  0.32310836924E+02 -0.24564257402E+02  0.59105245907E+02  0.00000000000E+00 0. -1.
         -1    1    4    4    0  501 -0.60076656664E+01  0.20829862923E+02 -0.11662081175E+03  0.11861867041E+03  0.00000000000E+00 0.  1.
          5    1    3    3  502    0 -0.49521029134E+02  0.39760446456E+02  0.27754801124E+02  0.69466858388E+02  0.47000000000E+01 0. -1.
         11    1    6    6    0    0  0.55240081890E+01  0.12523190041E+02  0.16798422586E+02  0.21668686085E+02  0.00000000000E+00 0. -1.
        -12    1    6    6    0    0  0.81142157140E+01 -0.84979031222E+02 -0.16759216106E+02  0.86995100831E+02  0.00000000000E+00 0.  1.
         -5    1    5    5    0  503  0.84856005565E+02 -0.20445305121E+02  0.99493875762E+02  0.13243743238E+03  0.47000000000E+01 0.  1.
<mgrwt>
<rscale>  2 0.21962099E+03</rscale>
<asrwt>0</asrwt>
<pdfrwt beam="1">  1       21 0.36491908E-01 0.21962890E+03</pdfrwt>
<pdfrwt beam="2">  1       21 0.38629937E-01 0.21962890E+03</pdfrwt>
<totfact> 0.46191316E+04</totfact>
</mgrwt>
</event>
<event>
12    1  0.2768653E-001  0.2070458E+03  0.7546771E-02  0.1145321E+00
         21   -1    0    0  504  503  0.00000000000E+00  0.00000000000E+00  0.11959285878E+03  0.11959285878E+03  0.00000000000E+00 0. -1.
         21   -1    0    0  502  504 -0.00000000000E+00 -0.00000000000E+00 -0.15916029675E+04  0.15916029675E+04  0.00000000000E+00 0. -1.
          6    2    1    2  502    0 -0.76044934079E+02 -0.66647898098E+02 -0.14899749849E+04  0.15033721039E+04  0.17285095570E+03 0.  0.
         24    2    3    3    0    0  0.26609090357E+02 -0.13954787473E+02 -0.56753116001E+03  0.57372748756E+03  0.78541916317E+02 0.  0.
         -6    2    1    2    0  503  0.76044934079E+02  0.66647898098E+02  0.17964876198E+02  0.20782372235E+03  0.18067426068E+03 0.  0.
        -24    2    5    5    0    0  0.10009897995E+03  0.10635070374E+02 -0.29674593417E+02  0.13031473540E+03  0.77255668131E+02 0.  0.
          2    1    4    4  501    0  0.21538247012E+02  0.19904409475E+02 -0.83749796146E+02  0.88736181771E+02  0.00000000000E+00 0. -1.
         -1    1    4    4    0  501  0.50708433446E+01 -0.33859196947E+02 -0.48378136387E+03  0.48499130579E+03  0.00000000000E+00 0.  1.
          5    1    3    3  502    0 -0.10265402444E+03 -0.52693110626E+02 -0.92244382486E+03  0.92964461633E+03  0.47000000000E+01 0. -1.
         13    1    6    6    0    0  0.78116844068E+02 -0.34474184454E+01  0.13996334633E+02  0.79435655749E+02  0.00000000000E+00 0. -1.
        -14    1    6    6    0    0  0.21982135884E+02  0.14082488819E+02 -0.43670928049E+02  0.50879079650E+02  0.00000000000E+00 0.  1.
         -5    1    5    5    0  503 -0.24054045873E+02  0.56012827724E+02  0.47639469615E+02  0.77508986948E+02  0.47000000000E+01 0.  1.
<mgrwt>
<rscale>  2 0.20532691E+03</rscale>
<asrwt>0</asrwt>
<pdfrwt beam="1">  1       21 0.18398902E-01 0.20704580E+03</pdfrwt>
<pdfrwt beam="2">  1       21 0.24486199E+00 0.20704580E+03</pdfrwt>
<totfact> 0.18915505E+03</totfact>
</mgrwt>
</event>
<event>
12    1  0.2768653E-001  0.1994577E+03  0.7546771E-02  0.1150246E+00
         21   -1    0    0  504  503  0.00000000000E+00  0.00000000000E+00  0.28616535904E+03  0.28616535904E+03  0.00000000000E+00 0.  1.
         21   -1    0    0  502  504 -0.00000000000E+00 -0.00000000000E+00 -0.25432682544E+03  0.25432682544E+03  0.00000000000E+00 0.  1.
          6    2    1    2  502    0  0.34738105949E+02 -0.91406388611E+02 -0.16617537078E+03  0.25943545783E+03  0.17358179352E+03 0.  0.
         24    2    3    3    0    0  0.44167962449E+02 -0.12800906910E+03 -0.15246429201E+03  0.21895383121E+03  0.79738881269E+02 0.  0.
         -6    2    1    2    0  503 -0.34738105949E+02  0.91406388611E+02  0.19801390438E+03  0.28105672665E+03  0.17384335875E+03 0.  0.
        -24    2    5    5    0    0 -0.87755601337E+01  0.69325063084E+02  0.21707955883E+03  0.24172190871E+03  0.80143443031E+02 0.  0.
          4    1    4    4  501    0  0.60126992560E+02 -0.62552361100E+02 -0.10661720899E+03  0.13746011191E+03  0.00000000000E+00 0. -1.
         -3    1    4    4    0  501 -0.15959030111E+02 -0.65456708000E+02 -0.45847083014E+02  0.81493719299E+02  0.00000000000E+00 0.  1.
          5    1    3    3  502    0 -0.94298565000E+01  0.36602680489E+02 -0.13711078772E+02  0.40481626619E+02  0.47000000000E+01 0. -1.
         13    1    6    6    0    0 -0.40296589109E+02  0.15302151234E+02  0.75414620689E+02  0.86863893189E+02  0.00000000000E+00 0. -1.
        -14    1    6    6    0    0  0.31521028975E+02  0.54022911850E+02  0.14166493815E+03  0.15485801552E+03  0.00000000000E+00 0.  1.
         -5    1    5    5    0  503 -0.25962545815E+02  0.22081325527E+02 -0.19065654452E+02  0.39334817934E+02  0.47000000000E+01 0.  1.
<mgrwt>
<rscale>  2 0.19940070E+03</rscale>
<asrwt>0</asrwt>
<pdfrwt beam="1">  1       21 0.44025439E-01 0.19945771E+03</pdfrwt>
<pdfrwt beam="2">  1       21 0.39127204E-01 0.19945771E+03</pdfrwt>
<totfact> 0.31096698E+04</totfact>
</mgrwt>
</event>
<event>
12    1  0.2768653E-001  0.1854213E+03  0.7546771E-02  0.1163053E+00
         21   -1    0    0  504  503  0.00000000000E+00  0.00000000000E+00  0.94319811443E+03  0.94319811443E+03  0.00000000000E+00 0.  1.
         21   -1    0    0  502  504 -0.00000000000E+00 -0.00000000000E+00 -0.37424751940E+02  0.37424751940E+02  0.00000000000E+00 0.  1.
          6    2    1    2  502    0  0.26374418692E+02  0.59287996924E+02  0.54647038270E+03  0.57707099295E+03  0.17369621525E+03 0.  0.
         24    2    3    3    0    0  0.32772696134E+02 -0.30589693074E+01  0.46974895141E+03  0.47789261742E+03  0.81448569849E+02 0.  0.
         -6    2    1    2    0  503 -0.26374418692E+02 -0.59287996924E+02  0.35930297979E+03  0.40355187342E+03  0.17188602828E+03 0.  0.
        -24    2    5    5    0    0  0.19056695358E+02 -0.72052579697E+02  0.13509423384E+03  0.17438256383E+03  0.81265581113E+02 0.  0.
          2    1    4    4  501    0  0.28494864234E+01 -0.30403548711E+02  0.35277662013E+03  0.35409580491E+03  0.00000000000E+00 0. -1.
         -1    1    4    4    0  501  0.29923209711E+02  0.27344579403E+02  0.11697233128E+03  0.12379681251E+03  0.00000000000E+00 0.  1.
          5    1    3    3  502    0 -0.63982774424E+01  0.62346966231E+02  0.76721431289E+02  0.99178375523E+02  0.47000000000E+01 0. -1.
         11    1    6    6    0    0  0.27739925920E+02  0.80912327469E+01  0.27068458892E+02  0.39593850585E+02  0.00000000000E+00 0. -1.
        -12    1    6    6    0    0 -0.86832305620E+01 -0.80143812444E+02  0.10802577495E+03  0.13478871325E+03  0.00000000000E+00 0.  1.
         -5    1    5    5    0  503 -0.45431114050E+02  0.12764582774E+02  0.22420874595E+03  0.22916930959E+03  0.47000000000E+01 0.  1.
<mgrwt>
<rscale>  2 0.18499616E+03</rscale>
<asrwt>0</asrwt>
<pdfrwt beam="1">  1       21 0.14510738E+00 0.18542128E+03</pdfrwt>
<pdfrwt beam="2">  1       21 0.57576549E-02 0.18542128E+03</pdfrwt>
<totfact> 0.69237662E+04</totfact>
</mgrwt>
</event>
<event>
12    1  0.2768653E-001  0.1863679E+03  0.7546771E-02  0.1162735E+00
         21   -1    0    0  504  503  0.00000000000E+00  0.00000000000E+00  0.80014418331E+02  0.80014418331E+02  0.00000000000E+00 0. -1.
         21   -1    0    0  502  504 -0.00000000000E+00 -0.00000000000E+00 -0.13379641622E+04  0.13379641622E+04  0.00000000000E+00 0.  1.
          6    2    1    2  502    0  0.44988886258E+02 -0.48282385691E+02 -0.12169555067E+04  0.12311432524E+04  0.17429232324E+03 0.  0.
         24    2    3    3    0    0  0.11863367580E+02  0.26320082328E+02 -0.88828421268E+03  0.89245499198E+03  0.81200886601E+02 0.  0.
         -6    2    1    2    0  503 -0.44988886258E+02  0.48282385691E+02 -0.40994237207E+02  0.18683532819E+03  0.16991681412E+03 0.  0.
        -24    2    5    5    0    0 -0.19720637825E+02 -0.20721843902E+02  0.23195359183E+02  0.89149800266E+02  0.81187214689E+02 0.  0.
          2    1    4    4  501    0 -0.21189406935E+02  0.38612522270E+02 -0.65947859841E+03  0.66094775861E+03  0.00000000000E+00 0. -1.
         -1    1    4    4    0  501  0.33052774515E+02 -0.12292439942E+02 -0.22880561427E+03  0.23150723337E+03  0.00000000000E+00 0.  1.
          5    1    3    3  502    0  0.33125518678E+02 -0.74602468018E+02 -0.32867129399E+03  0.33868826037E+03  0.47000000000E+01 0. -1.
         11    1    6    6    0    0 -0.16422485815E+01  0.26735156401E+02 -0.98745336011E+01  0.28547714130E+02  0.00000000000E+00 0. -1.
        -12    1    6    6    0    0 -0.18078389243E+02 -0.47457000303E+02  0.33069892784E+02  0.60602086137E+02  0.00000000000E+00 0.  1.
         -5    1    5    5    0  503 -0.25268248433E+02  0.69004229592E+02 -0.64189596390E+02  0.97685527921E+02  0.47000000000E+01 0.  1.
<mgrwt>
<rscale>  2 0.18533806E+03</rscale>
<asrwt>0</asrwt>
<pdfrwt beam="1">  1       21 0.12309910E-01 0.18636792E+03</pdfrwt>
<pdfrwt beam="2">  1       21 0.20584064E+00 0.18636792E+03</pdfrwt>
<totfact> 0.69490745E+03</totfact>
</mgrwt>
</event>
<event>
12    1  0.2768653E-001  0.3122458E+03  0.7546771E-02  0.1079412E+00
         21   -1    0    0  504  503  0.00000000000E+00  0.00000000000E+00  0.15666244495E+03  0.15666244495E+03  0.00000000000E+00 0. -1.
         21   -1    0    0  502  504 -0.00000000000E+00 -0.00000000000E+00 -0.64126129251E+03  0.64126129251E+03  0.00000000000E+00 0.  1.
          6    2    1    2  502    0  0.10467070790E+03  0.23654707542E+03 -0.31443407216E+03  0.44232078070E+03  0.17282479948E+03 0.  0.
         24    2    3    3    0    0  0.26787072171E+02  0.20571312190E+03 -0.19634943616E+03  0.29746683817E+03  0.83054096671E+02 0.  0.
         -6    2    1    2    0  503 -0.10467070790E+03 -0.23654707542E+03 -0.17016477540E+03  0.35560295676E+03  0.17489121216E+03 0.  0.
        -24    2    5    5    0    0 -0.12806688325E+03 -0.14606806067E+03 -0.80220164558E+02  0.22581098417E+03  0.82573124169E+02 0.  0.
          4    1    4    4  501    0 -0.16829899310E+02  0.71554394156E+01 -0.28370086904E+02  0.33753631730E+02  0.00000000000E+00 0. -1.
         -3    1    4    4    0  501  0.43616971482E+02  0.19855768249E+03 -0.16797934926E+03  0.26371320644E+03  0.00000000000E+00 0.  1.
          5    1    3    3  502    0  0.77883635730E+02  0.30833953517E+02 -0.11808463600E+03  0.14485394252E+03  0.47000000000E+01 0. -1.
         13    1    6    6    0    0 -0.31708594103E+02 -0.91904645855E+02 -0.17704963169E+02  0.98819859292E+02  0.00000000000E+00 0. -1.
        -14    1    6    6    0    0 -0.96358289149E+02 -0.54163414813E+02 -0.62515201389E+02  0.12699112487E+03  0.00000000000E+00 0.  1.
         -5    1    5    5    0  503  0.23396175351E+02 -0.90479014754E+02 -0.89944610840E+02  0.12979197260E+03  0.47000000000E+01 0.  1.
<mgrwt>
<rscale>  2 0.31195718E+03</rscale>
<asrwt>0</asrwt>
<pdfrwt beam="1">  1       21 0.24101915E-01 0.31224576E+03</pdfrwt>
<pdfrwt beam="2">  1       21 0.98655583E-01 0.31224576E+03</pdfrwt>
<totfact> 0.12908114E+04</totfact>
</mgrwt>
</event>
<event>
12    1  0.2768653E-001  0.2094993E+03  0.7546771E-02  0.1141989E+00
         21   -1    0    0  504  503  0.00000000000E+00  0.00000000000E+00  0.59714515103E+03  0.59714515103E+03  0.00000000000E+00 0. -1.
         21   -1    0    0  502  504 -0.00000000000E+00 -0.00000000000E+00 -0.10108831618E+03  0.10108831618E+03  0.00000000000E+00 0.  1.
          6    2    1    2  502    0 -0.11756438148E+03 -0.35811084681E+01  0.65548582060E+02  0.21951436732E+03  0.17336589260E+03 0.  0.
         24    2    3    3    0    0 -0.20484285644E+02  0.96145551164E+00 -0.25230916506E+02  0.86442254328E+02  0.80094530590E+02 0.  0.
         -6    2    1    2    0  503  0.11756438148E+03  0.35811084681E+01  0.43050825278E+03  0.47871909990E+03  0.17320627229E+03 0.  0.
        -24    2    5    5    0    0  0.12107609957E+03 -0.40823521942E+02  0.24580343481E+03  0.28866104785E+03  0.81116522065E+02 0.  0.
          2    1    4    4  501    0  0.25898069524E+02  0.11731024811E+02 -0.26419331651E+02  0.38811184381E+02  0.00000000000E+00 0. -1.
         -1    1    4    4    0  501 -0.46382355167E+02 -0.10769569299E+02  0.11884151446E+01  0.47631069947E+02  0.00000000000E+00 0.  1.
          5    1    3    3  502    0 -0.97080095836E+02 -0.45425639797E+01  0.90779498566E+02  0.13307211299E+03  0.47000000000E+01 0. -1.
         11    1    6    6    0    0  0.12522824295E+03 -0.24687233090E+02  0.23842083745E+03  0.27043680969E+03  0.00000000000E+00 0. -1.
        -12    1    6    6    0    0 -0.41521433816E+01 -0.16136288853E+02  0.73825973687E+01  0.18224238160E+02  0.00000000000E+00 0.  1.
         -5    1    5    5    0  503 -0.35117180854E+01  0.44404630411E+02  0.18470481797E+03  0.19005805204E+03  0.47000000000E+01 0.  1.
<mgrwt>
<rscale>  2 0.20946624E+03</rscale>
<asrwt>0</asrwt>
<pdfrwt beam="1">  1       21 0.91868483E-01 0.20949926E+03</pdfrwt>
<pdfrwt beam="2">  1       21 0.15552049E-01 0.20949926E+03</pdfrwt>
<totfact> 0.36455504E+04</totfact>
</mgrwt>
</event>
<event>
12    1  0.2768653E-001  0.1831634E+03  0.7546771E-02  0.1164851E+00
         21   -1    0    0  504  503  0.00000000000E+00  0.00000000000E+00  0.23704247327E+02  0.23704247327E+02  0.00000000000E+00 0. -1.
         21   -1    0    0  502  504 -0.00000000000E+00 -0.00000000000E+00 -0.14158167930E+04  0.14158167930E+04  0.00000000000E+00 0. -1.
          6    2    1    2  502    0  0.18670389687E+02  0.56208382538E+02 -0.66260721741E+03  0.68737287761E+03  0.17298896665E+03 0.  0.
         24    2    3    3    0    0  0.42577247104E+02  0.34878138371E+02 -0.18802753034E+03  0.21168969887E+03  0.80180234075E+02 0.  0.
         -6    2    1    2    0  503 -0.18670389687E+02 -0.56208382538E+02 -0.72950532826E+03  0.75214816272E+03  0.17332301925E+03 0.  0.
        -24    2    5    5    0    0  0.12102704136E+02 -0.98043853190E+02 -0.43780028363E+03  0.45581876328E+03  0.79640341648E+02 0.  0.
          2    1    4    4  501    0  0.35095836511E+02  0.58787052432E+02 -0.10837492053E+03  0.12819032208E+03  0.00000000000E+00 0. -1.
         -1    1    4    4    0  501  0.74814105927E+01 -0.23908914061E+02 -0.79652609812E+02  0.83499376799E+02  0.00000000000E+00 0.  1.
          5    1    3    3  502    0 -0.23906857417E+02  0.21330244167E+02 -0.47457968707E+03  0.47568317873E+03  0.47000000000E+01 0. -1.
         11    1    6    6    0    0 -0.58058247927E+01 -0.19066194543E+02 -0.14014154824E+02  0.24364398439E+02  0.00000000000E+00 0. -1.
        -12    1    6    6    0    0  0.17908528929E+02 -0.78977658647E+02 -0.42378612880E+03  0.43145436484E+03  0.00000000000E+00 0.  1.
         -5    1    5    5    0  503 -0.30773093824E+02  0.41835470651E+02 -0.29170504463E+03  0.29632939944E+03  0.47000000000E+01 0.  1.
<mgrwt>
<rscale>  2 0.18308434E+03</rscale>
<asrwt>0</asrwt>
<pdfrwt beam="1">  1       21 0.36468068E-02 0.18316341E+03</pdfrwt>
<pdfrwt beam="2">  1       21 0.21781799E+00 0.18316341E+03</pdfrwt>
<totfact> 0.47773985E+04</totfact>
</mgrwt>
</event>
<event>
12    1  0.2768653E-001  0.2230785E+03  0.7546771E-02  0.1131982E+00
         21   -1    0    0  504  503  0.00000000000E+00  0.00000000000E+00  0.71040157555E+03  0.71040157555E+03  0.00000000000E+00 0. -1.
         21   -1    0    0  502  504 -0.00000000000E+00 -0.00000000000E+00 -0.16994670981E+03  0.16994670981E+03  0.00000000000E+00 0. -1.
          6    2    1    2  502    0 -0.54471677667E+02  0.12801017875E+03 -0.68825473992E+02  0.23151352834E+03  0.17177834090E+03 0.  0.
         24    2    3    3    0    0 -0.66232071344E+02  0.30810266063E+02  0.38187479935E+01  0.10950777899E+03  0.81494852928E+02 0.  0.
         -6    2    1    2    0  503  0.54471677667E+02 -0.12801017875E+03  0.60928033974E+03  0.64883475702E+03  0.17438532048E+03 0.  0.
        -24    2    5    5    0    0  0.10201929983E+03 -0.92865783736E+02  0.49670255397E+03  0.52158793890E+03  0.79426441179E+02 0.  0.
          2    1    4    4  501    0 -0.79715834655E+02  0.29885936588E+02 -0.14891625685E+02  0.86426523799E+02  0.00000000000E+00 0. -1.
         -1    1    4    4    0  501  0.13483763311E+02  0.92432947479E+00  0.18710373678E+02  0.23081255191E+02  0.00000000000E+00 0.  1.
          5    1    3    3  502    0  0.11760393677E+02  0.97199912687E+02 -0.72644221985E+02  0.12200574935E+03  0.47000000000E+01 0. -1.
         11    1    6    6    0    0  0.83567743933E+02 -0.10105091152E+03  0.35479044078E+03  0.37824742089E+03  0.00000000000E+00 0. -1.
        -12    1    6    6    0    0  0.18451555898E+02  0.81851277816E+01  0.14191211319E+03  0.14334051801E+03  0.00000000000E+00 0.  1.
         -5    1    5    5    0  503 -0.47547622164E+02 -0.35144395014E+02  0.11257778577E+03  0.12724681812E+03  0.47000000000E+01 0.  1.
<mgrwt>
<rscale>  2 0.22256875E+03</rscale>
<asrwt>0</asrwt>
<pdfrwt beam="1">  1       21 0.10929255E+00 0.22307848E+03</pdfrwt>
<pdfrwt beam="2">  1       21 0.26145648E-01 0.22307848E+03</pdfrwt>
<totfact> 0.90289708E+03</totfact>
</mgrwt>
</event>
<event>
12    1  0.2768653E-001  0.2168759E+03  0.7546771E-02  0.1136970E+00
         21   -1    0    0  504  503  0.00000000000E+00  0.00000000000E+00  0.56411809267E+03  0.56411809267E+03  0.00000000000E+00 0.  1.
         21   -1    0    0  502  504 -0.00000000000E+00 -0.00000000000E+00 -0.87443142676E+02  0.87443142676E+02  0.00000000000E+00 0. -1.
          6    2    1    2  502    0 -0.79861538530E+01  0.12953850645E+03  0.15437611990E+03  0.26308767771E+03  0.16893530259E+03 0.  0.
         24    2    3    3    0    0 -0.43751130575E+02  0.35886001973E+02  0.12411250418E+03  0.15826448566E+03  0.80260620259E+02 0.  0.
         -6    2    1    2    0  503  0.79861538530E+01 -0.12953850645E+03  0.32229883009E+03  0.38847355764E+03  0.17375605255E+03 0.  0.
        -24    2    5    5    0    0  0.35599041753E+02 -0.15332427657E+03  0.28884518718E+03  0.33877978879E+03  0.81022080794E+02 0.  0.
          4    1    4    4  501    0  0.17828697429E+02 -0.10846714268E+02  0.24835064671E+02  0.32439082904E+02  0.00000000000E+00 0. -1.
         -3    1    4    4    0  501 -0.61579828004E+02  0.46732716241E+02  0.99277439510E+02  0.12582540276E+03  0.00000000000E+00 0.  1.
          5    1    3    3  502    0  0.35764976722E+02  0.93652504474E+02  0.30263615722E+02  0.10482319205E+03  0.47000000000E+01 0. -1.
         13    1    6    6    0    0  0.21028176392E+02 -0.42317005523E+02  0.28010372936E+02  0.54931722627E+02  0.00000000000E+00 0. -1.
        -14    1    6    6    0    0  0.14570865361E+02 -0.11100727104E+03  0.26083481424E+03  0.28384806616E+03  0.00000000000E+00 0.  1.
         -5    1    5    5    0  503 -0.27612887900E+02  0.23785770119E+02  0.33453642916E+02  0.49693768851E+02  0.47000000000E+01 0.  1.
<mgrwt>
<rscale>  2 0.21590879E+03</rscale>
<asrwt>0</asrwt>
<pdfrwt beam="1">  1       21 0.86787396E-01 0.21687593E+03</pdfrwt>
<pdfrwt beam="2">  1       21 0.13452792E-01 0.21687593E+03</pdfrwt>
<totfact> 0.53958765E+04</totfact>
</mgrwt>
</event>
<event>
12    1  0.2768653E-001  0.1939724E+03  0.7546771E-02  0.1155577E+00
         21   -1    0    0  504  503  0.00000000000E+00  0.00000000000E+00  0.18155970375E+03  0.18155970375E+03  0.00000000000E+00 0. -1.
         21   -1    0    0  502  504 -0.00000000000E+00 -0.00000000000E+00 -0.40548962789E+03  0.40548962789E+03  0.00000000000E+00 0.  1.
          6    2    1    2  502    0 -0.79753829779E+02  0.62061756443E+01 -0.31838726498E+03  0.37130064155E+03  0.17347773901E+03 0.  0.
         24    2    3    3    0    0 -0.63732670853E+02  0.56888410391E+02 -0.28877956121E+03  0.31027546171E+03  0.74693256700E+02 0.  0.
         -6    2    1    2    0  503  0.79753829779E+02 -0.62061756443E+01  0.94457340843E+02  0.21574869009E+03  0.17670913405E+03 0.  0.
        -24    2    5    5    0    0  0.26824930464E-01 -0.38152667191E+02  0.94623943311E+02  0.12973071882E+03  0.80129532794E+02 0.  0.
          2    1    4    4  501    0 -0.38378714035E+02  0.55474314934E+01 -0.20602331301E+03  0.20964089579E+03  0.00000000000E+00 0. -1.
         -1    1    4    4    0  501 -0.25353956818E+02  0.51340978897E+02 -0.82756248200E+02  0.10063456591E+03  0.00000000000E+00 0.  1.
          5    1    3    3  502    0 -0.16021158926E+02 -0.50682234747E+02 -0.29607703777E+02  0.61025179845E+02  0.47000000000E+01 0. -1.
         11    1    6    6    0    0  0.24633581993E+02  0.64733702773E+01  0.67188933900E+02  0.71854510806E+02  0.00000000000E+00 0. -1.
        -12    1    6    6    0    0 -0.24606757063E+02 -0.44626037469E+02  0.27435009411E+02  0.57876208019E+02  0.00000000000E+00 0.  1.
         -5    1    5    5    0  503  0.79727004848E+02  0.31946491547E+02 -0.16660246738E+00  0.86017971265E+02  0.47000000000E+01 0.  1.
<mgrwt>
<rscale>  2 0.19323344E+03</rscale>
<asrwt>0</asrwt>
<pdfrwt beam="1">  1       21 0.27932262E-01 0.19397244E+03</pdfrwt>
<pdfrwt beam="2">  1       21 0.62383019E-01 0.19397244E+03</pdfrwt>
<totfact> 0.29145763E+04</totfact>
</mgrwt>
</event>
<event>
12    1  0.2768653E-001  0.1777734E+03  0.7546771E-02  0.1170331E+00
         21   -1    0    0  504  503  0.00000000000E+00  0.00000000000E+00  0.53570174743E+02  0.53570174743E+02  0.00000000000E+00 0. -1.
         21   -1    0    0  502  504 -0.00000000000E+00 -0.00000000000E+00 -0.66013286202E+03  0.66013286202E+03  0.00000000000E+00 0.  1.
          6    2    1    2  502    0 -0.27717850782E+02 -0.24913541001E+02 -0.18194341745E+03  0.25337174876E+03  0.17235101432E+03 0.  0.
         24    2    3    3    0    0  0.31983969250E+02 -0.43649091688E+02 -0.54524235780E+02  0.11133982970E+03  0.80594341582E+02 0.  0.
         -6    2    1    2    0  503  0.27717850782E+02  0.24913541001E+02 -0.42461926983E+03  0.46033128801E+03  0.17382291746E+03 0.  0.
        -24    2    5    5    0    0  0.84754949288E+02  0.28768391163E+01 -0.27084360363E+03  0.29477799644E+03  0.79662613083E+02 0.  0.
          2    1    4    4  501    0  0.26806021392E+02  0.14051140525E+02  0.20905925275E+01  0.30337565988E+02  0.00000000000E+00 0. -1.
         -1    1    4    4    0  501  0.51779478582E+01 -0.57700232214E+02 -0.56614828307E+02  0.81002263708E+02  0.00000000000E+00 0.  1.
          5    1    3    3  502    0 -0.59701820032E+02  0.18735550687E+02 -0.12741918167E+03  0.14203191906E+03  0.47000000000E+01 0. -1.
         11    1    6    6    0    0  0.57338681314E+02  0.22502797353E+02 -0.79932436948E+02  0.10091231213E+03  0.00000000000E+00 0. -1.
        -12    1    6    6    0    0  0.27416267974E+02 -0.19625958236E+02 -0.19091116668E+03  0.19386568430E+03  0.00000000000E+00 0.  1.
         -5    1    5    5    0  503 -0.57037098506E+02  0.22036701885E+02 -0.15377566620E+03  0.16555329157E+03  0.47000000000E+01 0.  1.
<mgrwt>
<rscale>  2 0.17741254E+03</rscale>
<asrwt>0</asrwt>
<pdfrwt beam="1">  1       21 0.82415656E-02 0.17777337E+03</pdfrwt>
<pdfrwt beam="2">  1       21 0.10155890E+00 0.17777337E+03</pdfrwt>
<totfact> 0.90732284E+04</totfact>
</mgrwt>
</event>
<event>
12    1  0.2768653E-001  0.2097489E+03  0.7546771E-02  0.1141912E+00
         21   -1    0    0  504  503  0.00000000000E+00  0.00000000000E+00  0.30908010324E+03  0.30908010324E+03  0.00000000000E+00 0. -1.
         21   -1    0    0  502  504 -0.00000000000E+00 -0.00000000000E+00 -0.95238040019E+03  0.95238040019E+03  0.00000000000E+00 0.  1.
          6    2    1    2  502    0  0.91535768870E+02  0.73315271620E+02 -0.90360455757E+03  0.92762912040E+03  0.17389842586E+03 0.  0.
         24    2    3    3    0    0  0.19434738007E+02  0.73316996066E+02 -0.74318953780E+03  0.75169269091E+03  0.83415355397E+02 0.  0.
         -6    2    1    2    0  503 -0.91535768870E+02 -0.73315271620E+02  0.26030426061E+03  0.33383138303E+03  0.17300623737E+03 0.  0.
        -24    2    5    5    0    0 -0.11193856458E+03 -0.67342996762E+02  0.12544799967E+03  0.19722888211E+03  0.78081430992E+02 0.  0.
          4    1    4    4  501    0  0.10176293908E+02  0.85568764194E+02 -0.45461319427E+03  0.46270803621E+03  0.00000000000E+00 0. -1.
         -3    1    4    4    0  501  0.92584440989E+01 -0.12251768128E+02 -0.28857634353E+03  0.28898465470E+03  0.00000000000E+00 0.  1.
          5    1    3    3  502    0  0.72101030863E+02 -0.17244459204E-02 -0.16041501977E+03  0.17593642949E+03  0.47000000000E+01 0. -1.
         13    1    6    6    0    0 -0.68947968313E+02 -0.73056907744E+02  0.55064245610E+02  0.11455655917E+03  0.00000000000E+00 0. -1.
        -14    1    6    6    0    0 -0.42990596271E+02  0.57139109824E+01  0.70383754056E+02  0.82672322947E+02  0.00000000000E+00 0.  1.
         -5    1    5    5    0  503  0.20402795714E+02 -0.59722748581E+01  0.13485626095E+03  0.13660250092E+03  0.47000000000E+01 0.  1.
<mgrwt>
<rscale>  2 0.20956385E+03</rscale>
<asrwt>0</asrwt>
<pdfrwt beam="1">  1       21 0.47550786E-01 0.20974887E+03</pdfrwt>
<pdfrwt beam="2">  1       21 0.14652006E+00 0.20974887E+03</pdfrwt>
<totfact> 0.13220808E+03</totfact>
</mgrwt>
</event>
<event>
12    1  0.2768653E-001  0.1817361E+03  0.7546771E-02  0.1166171E+00
         21   -1    0    0  504  503  0.00000000000E+00  0.00000000000E+00  0.36287943550E+03  0.36287943550E+03  0.00000000000E+00 0.  1.
         21   -1    0    0  502  504 -0.00000000000E+00 -0.00000000000E+00 -0.92201126609E+02  0.92201126609E+02  0.00000000000E+00 0.  1.
          6    2    1    2  502    0 -0.57121390634E+02 -0.10868447093E+02  0.16192247152E+03  0.24328855661E+03  0.17201586725E+03 0.  0.
         24    2    3    3    0    0  0.11190944440E+02  0.13378297582E+02  0.15538532651E+03  0.17035499770E+03  0.67616635987E+02 0.  0.
         -6    2    1    2    0  503  0.57121390634E+02  0.10868447093E+02  0.10875583738E+03  0.21179200550E+03  0.17218317288E+03 0.  0.
        -24    2    5    5    0    0  0.73355862631E+02 -0.48608712096E+02  0.80315858538E+02  0.14373311231E+03  0.80403239785E+02 0.  0.
          2    1    4    4  501    0  0.30525786760E+02 -0.95689101941E+01  0.40471897616E+02  0.51588392069E+02  0.00000000000E+00 0. -1.
         -1    1    4    4    0  501 -0.19334842321E+02  0.22947207776E+02  0.11491342890E+03  0.11876660563E+03  0.00000000000E+00 0.  1.
          5    1    3    3  502    0 -0.68312335073E+02 -0.24246744675E+02  0.65371450067E+01  0.72933558911E+02  0.47000000000E+01 0. -1.
         13    1    6    6    0    0  0.44846993883E+02  0.16702017078E+02  0.29668722401E+02  0.56306689866E+02  0.00000000000E+00 0. -1.
        -14    1    6    6    0    0  0.28508868748E+02 -0.65310729174E+02  0.50647136138E+02  0.87426422445E+02  0.00000000000E+00 0.  1.
         -5    1    5    5    0  503 -0.16234471997E+02  0.59477159189E+02  0.28439978838E+02  0.68058893192E+02  0.47000000000E+01 0.  1.
<mgrwt>
<rscale>  2 0.18169649E+03</rscale>
<asrwt>0</asrwt>
<pdfrwt beam="1">  1       21 0.55827605E-01 0.18173613E+03</pdfrwt>
<pdfrwt beam="2">  1       21 0.14184789E-01 0.18173613E+03</pdfrwt>
<totfact> 0.13171183E+05</totfact>
</mgrwt>
</event>
<event>
12    1  0.2768653E-001  0.2973439E+03  0.7546771E-02  0.1086651E+00
         21   -1    0    0  504  503  0.00000000000E+00  0.00000000000E+00  0.15329591117E+03  0.15329591117E+03  0.00000000000E+00 0.  1.
         21   -1    0    0  502  504 -0.00000000000E+00 -0.00000000000E+00 -0.65193143396E+03  0.65193143396E+03  0.00000000000E+00 0. -1.
          6    2    1    2  502    0  0.22748411870E+03 -0.82164759097E+02 -0.38729829583E+03  0.48827588519E+03  0.17295461312E+03 0.  0.
         24    2    3    3    0    0  0.16645691627E+03  0.82198455377E+01 -0.20907635700E+03  0.27928103914E+03  0.80681503043E+02 0.  0.
         -6    2    1    2    0  503 -0.22748411870E+03  0.82164759097E+02 -0.11133722697E+03  0.31695145994E+03  0.17193655212E+03 0.  0.
        -24    2    5    5    0    0 -0.30405678849E+02  0.25223282230E+02 -0.16327150777E+02  0.90829263289E+02  0.80141499514E+02 0.  0.
          4    1    4    4  501    0  0.15370453939E+03  0.31146222006E+02 -0.19229663085E+03  0.24813941003E+03  0.00000000000E+00 0. -1.
         -3    1    4    4    0  501  0.12752376879E+02 -0.22926376468E+02 -0.16779726152E+02  0.31141629112E+02  0.00000000000E+00 0.  1.
          5    1    3    3  502    0  0.61027202434E+02 -0.90384604635E+02 -0.17822193883E+03  0.20899484605E+03  0.47000000000E+01 0. -1.
         13    1    6    6    0    0 -0.63435882415E+01  0.19771827615E+02 -0.47048808200E+02  0.51427197396E+02  0.00000000000E+00 0. -1.
        -14    1    6    6    0    0 -0.24062090607E+02  0.54514546142E+01  0.30721657423E+02  0.39402065892E+02  0.00000000000E+00 0.  1.
         -5    1    5    5    0  503 -0.19707843985E+03  0.56941476868E+02 -0.95010076189E+02  0.22612219666E+03  0.47000000000E+01 0.  1.
<mgrwt>
<rscale>  2 0.29719599E+03</rscale>
<asrwt>0</asrwt>
<pdfrwt beam="1">  1       21 0.23583986E-01 0.29734386E+03</pdfrwt>
<pdfrwt beam="2">  1       21 0.10029714E+00 0.29734386E+03</pdfrwt>
<totfact> 0.13019844E+04</totfact>
</mgrwt>
</event>
<event>
12    1  0.2768653E-001  0.1933116E+03  0.7546771E-02  0.1155916E+00
         21   -1    0    0  504  503  0.00000000000E+00  0.00000000000E+00  0.20012359977E+03  0.20012359977E+03  0.00000000000E+00 0.  1.
         21   -1    0    0  502  504 -0.00000000000E+00 -0.00000000000E+00 -0.29354608986E+03  0.29354608986E+03  0.00000000000E+00 0.  1.
          6    2    1    2  502    0  0.80883123245E+02 -0.24552544832E+02 -0.19669683844E+03  0.27450084632E+03  0.17180268128E+03 0.  0.
         24    2    3    3    0    0  0.74101792048E+02  0.46934039532E+02 -0.13717442807E+03  0.18111280890E+03  0.79316745906E+02 0.  0.
         -6    2    1    2    0  503 -0.80883123245E+02  0.24552544832E+02  0.10327434835E+03  0.21916884331E+03  0.17385190183E+03 0.  0.
        -24    2    5    5    0    0  0.18683037185E+02  0.22546892925E+02  0.83404650120E+02  0.11751089798E+03  0.77427754860E+02 0.  0.
          2    1    4    4  501    0 -0.74511900535E+01  0.17517677605E+02 -0.66768629955E+02  0.69429382887E+02  0.00000000000E+00 0. -1.
         -1    1    4    4    0  501  0.81552982102E+02  0.29416361927E+02 -0.70405798113E+02  0.11168342602E+03  0.00000000000E+00 0.  1.
          5    1    3    3  502    0  0.67813311968E+01 -0.71486584364E+02 -0.59522410367E+02  0.93388037418E+02  0.47000000000E+01 0. -1.
         11    1    6    6    0    0  0.46065053008E+02  0.26802952284E+02  0.42809962474E+02  0.68359931589E+02  0.00000000000E+00 0. -1.
        -12    1    6    6    0    0 -0.27382015823E+02 -0.42560593590E+01  0.40594687646E+02  0.49150966388E+02  0.00000000000E+00 0.  1.
         -5    1    5    5    0  503 -0.99566160430E+02  0.20056519073E+01  0.19869698229E+02  0.10165794534E+03  0.47000000000E+01 0.  1.
<mgrwt>
<rscale>  2 0.19284978E+03</rscale>
<asrwt>0</asrwt>
<pdfrwt beam="1">  1       21 0.30788246E-01 0.19331164E+03</pdfrwt>
<pdfrwt beam="2">  1       21 0.45160937E-01 0.19331164E+03</pdfrwt>
<totfact> 0.47640763E+04</totfact>
</mgrwt>
</event>
<event>
12    1  0.2768653E-001  0.1891091E+03  0.7546771E-02  0.1159577E+00
         21   -1    0    0  504  503  0.00000000000E+00  0.00000000000E+00  0.55821882249E+03  0.55821882249E+03  0.00000000000E+00 0.  1.
         21   -1    0    0  502  504 -0.00000000000E+00 -0.00000000000E+00 -0.68821407137E+02  0.68821407137E+02  0.00000000000E+00 0.  1.
          6    2    1    2  502    0  0.25750178151E+02 -0.70186104574E+02  0.15757419643E+03  0.24511235653E+03  0.17222450173E+03 0.  0.
         24    2    3    3    0    0  0.60635898240E+02  0.15338893556E+01  0.59491544472E+02  0.11860912491E+03  0.82763613244E+02 0.  0.
         -6    2    1    2    0  503 -0.25750178151E+02  0.70186104574E+02  0.33182321892E+03  0.38192787309E+03  0.17370403184E+03 0.  0.
        -24    2    5    5    0    0 -0.13709287814E+02 -0.26309444240E+02  0.20333129465E+03  0.22071795223E+03  0.80577091185E+02 0.  0.
          4    1    4    4  501    0  0.58750565160E+02  0.29734410030E+02  0.17746417143E+02  0.68196036307E+02  0.00000000000E+00 0. -1.
         -3    1    4    4    0  501  0.18853330794E+01 -0.28200520675E+02  0.41745127329E+02  0.50413088607E+02  0.00000000000E+00 0.  1.
          5    1    3    3  502    0 -0.34885720089E+02 -0.71719993929E+02  0.98082651958E+02  0.12650323162E+03  0.47000000000E+01 0. -1.
         13    1    6    6    0    0 -0.12757274857E+02 -0.32922417603E+02  0.27483939632E+02  0.44743721127E+02  0.00000000000E+00 0. -1.
        -14    1    6    6    0    0 -0.95201295725E+00  0.66129733630E+01  0.17584735502E+03  0.17597423110E+03  0.00000000000E+00 0.  1.
         -5    1    5    5    0  503 -0.12040890337E+02  0.96495548814E+02  0.12849192427E+03  0.16120992086E+03  0.47000000000E+01 0.  1.
<mgrwt>
<rscale>  2 0.18876866E+03</rscale>
<asrwt>0</asrwt>
<pdfrwt beam="1">  1       21 0.85879816E-01 0.18910910E+03</pdfrwt>
<pdfrwt beam="2">  1       21 0.10587909E-01 0.18910910E+03</pdfrwt>
<totfact> 0.85961149E+04</totfact>
</mgrwt>
</event>
<event>
12    1  0.2768653E-001  0.1857005E+03  0.7546771E-02  0.1162604E+00
         21   -1    0    0  504  503  0.00000000000E+00  0.00000000000E+00  0.88393300499E+02  0.88393300499E+02  0.00000000000E+00 0.  1.
         21   -1    0    0  502  504 -0.00000000000E+00 -0.00000000000E+00 -0.18559920797E+04  0.18559920797E+04  0.00000000000E+00 0.  1.
          6    2    1    2  502    0  0.63212033815E+02 -0.52712196143E+01 -0.17478994953E+04  0.17576429337E+04  0.17358712444E+03 0.  0.
         24    2    3    3    0    0  0.22491559547E+02 -0.46663687974E+02 -0.54202168089E+03  0.55035883841E+03  0.80149725148E+02 0.  0.
         -6    2    1    2    0  503 -0.63212033815E+02  0.52712196143E+01 -0.19699283851E+02  0.18674244644E+03  0.17453117929E+03 0.  0.
        -24    2    5    5    0    0 -0.95896487291E+02 -0.72974262944E+01  0.25345782525E+02  0.12949393237E+03  0.82926962578E+02 0.  0.
          2    1    4    4  501    0 -0.25272473488E+02 -0.25821376702E+02 -0.12574740011E+03  0.13083520186E+03  0.00000000000E+00 0. -1.
         -1    1    4    4    0  501  0.47764033035E+02 -0.20842311272E+02 -0.41627428078E+03  0.41952363655E+03  0.00000000000E+00 0.  1.
          5    1    3    3  502    0  0.40720474268E+02  0.41392468360E+02 -0.12058778144E+04  0.12072840953E+04  0.47000000000E+01 0. -1.
         13    1    6    6    0    0  0.13800808720E+02  0.39196873493E+00 -0.61379459275E+01  0.15109279963E+02  0.00000000000E+00 0. -1.
        -14    1    6    6    0    0 -0.10969729601E+03 -0.76893950294E+01  0.31483728453E+02  0.11438465240E+03  0.00000000000E+00 0.  1.
         -5    1    5    5    0  503  0.32684453475E+02  0.12568645909E+02 -0.45045066376E+02  0.57248514075E+02  0.47000000000E+01 0.  1.
<mgrwt>
<rscale>  2 0.18547836E+03</rscale>
<asrwt>0</asrwt>
<pdfrwt beam="1">  1       21 0.13598971E-01 0.18570051E+03</pdfrwt>
<pdfrwt beam="2">  1       21 0.28553721E+00 0.18570051E+03</pdfrwt>
<totfact> 0.19548968E+03</totfact>
</mgrwt>
</event>
<event>
12    1  0.2768653E-001  0.1981801E+03  0.7546771E-02  0.1151535E+00
         21   -1    0    0  504  503  0.00000000000E+00  0.00000000000E+00  0.23062870730E+04  0.23062870730E+04  0.00000000000E+00 0.  1.
         21   -1    0    0  502  504 -0.00000000000E+00 -0.00000000000E+00 -0.93865206600E+02  0.93865206600E+02  0.00000000000E+00 0.  1.
          6    2    1    2  502    0  0.62296418782E+02  0.71589327459E+02  0.19138876559E+02  0.19793393471E+03  0.17264318787E+03 0.  0.
         24    2    3    3    0    0  0.60254496097E+02  0.11710263082E+03 -0.30915985285E+00  0.14817505258E+03  0.67912592228E+02 0.  0.
         -6    2    1    2    0  503 -0.62296418782E+02 -0.71589327459E+02  0.21932829898E+04  0.22022183449E+04  0.17398129045E+03 0.  0.
        -24    2    5    5    0    0 -0.53203497257E+01 -0.97061773763E+02  0.11440997177E+04  0.11511699414E+04  0.82333321653E+02 0.  0.
          2    1    4    4  501    0  0.51581951834E+02  0.36660621169E+02 -0.17079788130E+02  0.65547067532E+02  0.00000000000E+00 0. -1.
         -1    1    4    4    0  501  0.86725442632E+01  0.80442009649E+02  0.16770628277E+02  0.82627985049E+02  0.00000000000E+00 0.  1.
          5    1    3    3  502    0  0.20419226853E+01 -0.45513303359E+02  0.19448036412E+02  0.49758882133E+02  0.47000000000E+01 0. -1.
         13    1    6    6    0    0 -0.17439401435E+02 -0.16597134561E+02  0.70626429472E+02  0.74616956102E+02  0.00000000000E+00 0. -1.
        -14    1    6    6    0    0  0.12119051709E+02 -0.80464639202E+02  0.10734732882E+04  0.10765529853E+04  0.00000000000E+00 0.  1.
         -5    1    5    5    0  503 -0.56976069056E+02  0.25472446304E+02  0.10491832721E+04  0.10510484035E+04  0.47000000000E+01 0.  1.
<mgrwt>
<rscale>  2 0.19788606E+03</rscale>
<asrwt>0</asrwt>
<pdfrwt beam="1">  1       21 0.35481335E+00 0.19818013E+03</pdfrwt>
<pdfrwt beam="2">  1       21 0.14440803E-01 0.19818013E+03</pdfrwt>
<totfact> 0.68273425E+02</totfact>
</mgrwt>
</event>
<event>
12    1  0.2768653E-001  0.2771409E+03  0.7546771E-02  0.1097327E+00
         21   -1    0    0  504  503  0.00000000000E+00  0.00000000000E+00  0.28906539880E+03  0.28906539880E+03  0.00000000000E+00 0. -1.
         21   -1    0    0  502  504 -0.00000000000E+00 -0.00000000000E+00 -0.47079775695E+03  0.47079775695E+03  0.00000000000E+00 0.  1.
          6    2    1    2  502    0 -0.59498169021E+02 -0.20822605757E+03 -0.34186438332E+03  0.43978607092E+03  0.17216970821E+03 0.  0.
         24    2    3    3    0    0 -0.57182269455E+02 -0.37456510765E+02 -0.11205836253E+03  0.15342877890E+03  0.79438727588E+02 0.  0.
         -6    2    1    2    0  503  0.59498169021E+02  0.20822605757E+03  0.16013202517E+03  0.32007708483E+03  0.17294204689E+03 0.  0.
        -24    2    5    5    0    0  0.90946358487E+02  0.21282456430E+03  0.14329996846E+03  0.28380666965E+03  0.80285798782E+02 0.  0.
          4    1    4    4  501    0  0.36036705526E+01  0.11271213540E+02 -0.56539256354E+02  0.57764298708E+02  0.00000000000E+00 0. -1.
         -3    1    4    4    0  501 -0.60785940008E+02 -0.48727724305E+02 -0.55519106180E+02  0.95664480188E+02  0.00000000000E+00 0.  1.
          5    1    3    3  502    0 -0.23158995659E+01 -0.17076954680E+03 -0.22980602078E+03  0.28635729202E+03  0.47000000000E+01 0. -1.
         13    1    6    6    0    0  0.60031662254E+02  0.16044677978E+03  0.61804126213E+02  0.18211732381E+03  0.00000000000E+00 0. -1.
        -14    1    6    6    0    0  0.30914696233E+02  0.52377784520E+02  0.81495842242E+02  0.10168934584E+03  0.00000000000E+00 0.  1.
         -5    1    5    5    0  503 -0.31448189466E+02 -0.45985067266E+01  0.16832056710E+02  0.36270415188E+02  0.47000000000E+01 0.  1.
<mgrwt>
<rscale>  2 0.27702049E+03</rscale>
<asrwt>0</asrwt>
<pdfrwt beam="1">  1       21 0.44471600E-01 0.27714089E+03</pdfrwt>
<pdfrwt beam="2">  1       21 0.72430423E-01 0.27714089E+03</pdfrwt>
<totfact> 0.79191839E+03</totfact>
</mgrwt>
</event>
<event>
12    1  0.2768653E-001  0.1882551E+03  0.7546771E-02  0.1160104E+00
         21   -1    0    0  504  503  0.00000000000E+00  0.00000000000E+00  0.77067665876E+02  0.77067665876E+02  0.00000000000E+00 0. -1.
         21   -1    0    0  502  504 -0.00000000000E+00 -0.00000000000E+00 -0.46010135636E+03  0.46010135636E+03  0.00000000000E+00 0. -1.
          6    2    1    2  502    0  0.55023829626E+02  0.49241778080E+02 -0.17960937294E+03  0.26000220844E+03  0.17288506879E+03 0.  0.
         24    2    3    3    0    0  0.21921759454E+02  0.11880781171E+02 -0.19128854815E+03  0.20852323921E+03  0.79176487272E+02 0.  0.
         -6    2    1    2    0  503 -0.55023829626E+02 -0.49241778080E+02 -0.20342431755E+03  0.27716681380E+03  0.17316932514E+03 0.  0.
        -24    2    5    5    0    0 -0.50846020408E+02 -0.73139265420E+01 -0.21329543110E+03  0.23363604644E+03  0.80324653452E+02 0.  0.
          2    1    4    4  501    0  0.13273281840E+02 -0.20385794897E+02 -0.16283593901E+03  0.16464295818E+03  0.00000000000E+00 0. -1.
         -1    1    4    4    0  501  0.86484776143E+01  0.32266576068E+02 -0.28452609141E+02  0.43880281029E+02  0.00000000000E+00 0.  1.
          5    1    3    3  502    0  0.33102070172E+02  0.37360996909E+02  0.11679175209E+02  0.51478969233E+02  0.47000000000E+01 0. -1.
         11    1    6    6    0    0 -0.35159592022E+02 -0.26184260304E+02 -0.42401539294E+02  0.60989367380E+02  0.00000000000E+00 0. -1.
        -12    1    6    6    0    0 -0.15686428386E+02  0.18870333762E+02 -0.17089389181E+03  0.17264667906E+03  0.00000000000E+00 0.  1.
         -5    1    5    5    0  503 -0.41778092177E+01 -0.41927851538E+02  0.98711135563E+01  0.43530767364E+02  0.47000000000E+01 0.  1.
<mgrwt>
<rscale>  2 0.18818972E+03</rscale>
<asrwt>0</asrwt>
<pdfrwt beam="1">  1       21 0.11856564E-01 0.18825512E+03</pdfrwt>
<pdfrwt beam="2">  1       21 0.70784825E-01 0.18825512E+03</pdfrwt>
<totfact> 0.10857625E+05</totfact>
</mgrwt>
</event>
<event>
12    1  0.2768653E-001  0.2579548E+03  0.7546771E-02  0.1108535E+00
         21   -1    0    0  504  503  0.00000000000E+00  0.00000000000E+00  0.72463483815E+03  0.72463483815E+03  0.00000000000E+00 0. -1.
         21   -1    0    0  502  504 -0.00000000000E+00 -0.00000000000E+00 -0.97252755164E+03  0.97252755164E+03  0.00000000000E+00 0.  1.
          6    2    1    2  502    0  0.10631495523E+03  0.15944342346E+03 -0.93166382828E+03  0.96671513160E+03  0.17267189048E+03 0.  0.
         24    2    3    3    0    0  0.11395949708E+02  0.86818437950E+02 -0.64155886073E+03  0.65292063145E+03  0.83906318945E+02 0.  0.
         -6    2    1    2    0  503 -0.10631495523E+03 -0.15944342346E+03  0.68377111479E+03  0.73044725818E+03  0.17112914591E+03 0.  0.
        -24    2    5    5    0    0 -0.31277261371E+02 -0.10709158805E+02  0.17358004179E+03  0.19372614071E+03  0.79415574816E+02 0.  0.
          4    1    4    4  501    0 -0.14847216536E+02  0.90979214995E+01 -0.22503164094E+02  0.28453548263E+02  0.00000000000E+00 0. -1.
         -3    1    4    4    0  501  0.26243166244E+02  0.77720516451E+02 -0.61905569663E+03  0.62446708319E+03  0.00000000000E+00 0.  1.
          5    1    3    3  502    0  0.94919005521E+02  0.72624985505E+02 -0.29010496755E+03  0.31379450015E+03  0.47000000000E+01 0. -1.
         11    1    6    6    0    0 -0.57655083615E+02 -0.12467300742E+02  0.12995748514E+03  0.14271821958E+03  0.00000000000E+00 0. -1.
        -12    1    6    6    0    0  0.26377822244E+02  0.17581419374E+01  0.43622556652E+02  0.51007921133E+02  0.00000000000E+00 0.  1.
         -5    1    5    5    0  503 -0.75037693858E+02 -0.14873426465E+03  0.51019107300E+03  0.53672111748E+03  0.47000000000E+01 0.  1.
<mgrwt>
<rscale>  2 0.25769684E+03</rscale>
<asrwt>0</asrwt>
<pdfrwt beam="1">  1       21 0.11148228E+00 0.25795476E+03</pdfrwt>
<pdfrwt beam="2">  1       21 0.14961962E+00 0.25795476E+03</pdfrwt>
<totfact> 0.17676677E+02</totfact>
</mgrwt>
</event>
<event>
12    1  0.2768653E-001  0.2051476E+03  0.7546771E-02  0.1145713E+00
         21   -1    0    0  504  503  0.00000000000E+00  0.00000000000E+00  0.26195569630E+03  0.26195569630E+03  0.00000000000E+00 0.  1.
         21   -1    0    0  502  504 -0.00000000000E+00 -0.00000000000E+00 -0.41018408306E+03  0.41018408306E+03  0.00000000000E+00 0.  1.
          6    2    1    2  502    0  0.87234599846E+02 -0.12385408146E+02 -0.33664027139E+03  0.39359967518E+03  0.18393139546E+03 0.  0.
         24    2    3    3    0    0  0.66890974481E+02  0.64412465262E+02 -0.18104033779E+03  0.21882780734E+03  0.80539662337E+02 0.  0.
         -6    2    1    2    0  503 -0.87234599846E+02  0.12385408146E+02  0.18841188463E+03  0.27854010418E+03  0.18526272594E+03 0.  0.
        -24    2    5    5    0    0  0.29496754348E+02 -0.64050136527E+01  0.83887583652E+02  0.12065815937E+03  0.81303025857E+02 0.  0.
          2    1    4    4  501    0  0.54598469331E+02 -0.27019526535E+01 -0.78269929064E+02  0.95469760643E+02  0.00000000000E+00 0. -1.
         -1    1    4    4    0  501  0.12292505150E+02  0.67114417915E+02 -0.10277040873E+03  0.12335804670E+03  0.00000000000E+00 0.  1.
          5    1    3    3  502    0  0.20343625365E+02 -0.76797873408E+02 -0.15559993359E+03  0.17477186784E+03  0.47000000000E+01 0. -1.
         13    1    6    6    0    0  0.74038101110E+01 -0.39281481504E+02  0.18130699254E+02  0.43892749387E+02  0.00000000000E+00 0. -1.
        -14    1    6    6    0    0  0.22092944237E+02  0.32876467851E+02  0.65756884398E+02  0.76765409978E+02  0.00000000000E+00 0.  1.
         -5    1    5    5    0  503 -0.11673135419E+03  0.18790421799E+02  0.10452430098E+03  0.15788194482E+03  0.47000000000E+01 0.  1.
<mgrwt>
<rscale>  2 0.20484660E+03</rscale>
<asrwt>0</asrwt>
<pdfrwt beam="1">  1       21 0.40300877E-01 0.20514763E+03</pdfrwt>
<pdfrwt beam="2">  1       21 0.63105243E-01 0.20514763E+03</pdfrwt>
<totfact> 0.13677348E+04</totfact>
</mgrwt>
</event>
<event>
12    1  0.2768653E-001  0.2663383E+03  0.7546771E-02  0.1103488E+00
         21   -1    0    0  504  503  0.00000000000E+00  0.00000000000E+00  0.46140911789E+03  0.46140911789E+03  0.00000000000E+00 0. -1.
         21   -1    0    0  502  504 -0.00000000000E+00 -0.00000000000E+00 -0.15580225295E+03  0.15580225295E+03  0.00000000000E+00 0.  1.
          6    2    1    2  502    0 -0.20324683580E+03 -0.41252147659E+01  0.19121544987E+03  0.32734680179E+03  0.17107392179E+03 0.  0.
         24    2    3    3    0    0 -0.15355512742E+03 -0.60797593936E+02  0.10258218600E+03  0.21090381185E+03  0.81742206861E+02 0.  0.
         -6    2    1    2    0  503  0.20324683580E+03  0.41252147659E+01  0.11439141507E+03  0.28986456904E+03  0.17207492230E+03 0.  0.
        -24    2    5    5    0    0  0.20177810000E+03 -0.13009132582E+02  0.13996802800E+03  0.25868771589E+03  0.80278554546E+02 0.  0.
          2    1    4    4  501    0 -0.11006889797E+03 -0.78401128368E+02  0.89891982617E+02  0.16230362833E+03  0.00000000000E+00 0. -1.
         -1    1    4    4    0  501 -0.43486229453E+02  0.17603534432E+02  0.12690203382E+02  0.48600183522E+02  0.00000000000E+00 0.  1.
          5    1    3    3  502    0 -0.49691708378E+02  0.56672379171E+02  0.88633263873E+02  0.11644298994E+03  0.47000000000E+01 0. -1.
         13    1    6    6    0    0  0.19247850517E+03 -0.10395568095E+02  0.99192838452E+02  0.21678390621E+03  0.00000000000E+00 0. -1.
        -14    1    6    6    0    0  0.92995948239E+01 -0.26135644874E+01  0.40775189546E+02  0.41903809681E+02  0.00000000000E+00 0.  1.
         -5    1    5    5    0  503  0.14687358025E+01  0.17134347348E+02 -0.25576612926E+02  0.31176853155E+02  0.47000000000E+01 0.  1.
<mgrwt>
<rscale>  2 0.26617671E+03</rscale>
<asrwt>0</asrwt>
<pdfrwt beam="1">  1       21 0.70986017E-01 0.26633827E+03</pdfrwt>
<pdfrwt beam="2">  1       21 0.23969578E-01 0.26633827E+03</pdfrwt>
<totfact> 0.28429390E+04</totfact>
</mgrwt>
</event>
<event>
12    1  0.2768653E-001  0.2108333E+03  0.7546771E-02  0.1140940E+00
         21   -1    0    0  504  503  0.00000000000E+00  0.00000000000E+00  0.40676570408E+03  0.40676570408E+03  0.00000000000E+00 0. -1.
         21   -1    0    0  502  504 -0.00000000000E+00 -0.00000000000E+00 -0.11733059141E+03  0.11733059141E+03  0.00000000000E+00 0.  1.
          6    2    1    2  502    0 -0.11850036485E+03  0.19161011632E+02  0.21378223072E+03  0.30025579573E+03  0.17332403141E+03 0.  0.
         24    2    3    3    0    0 -0.13963432230E+03 -0.16366539618E+02  0.19453885744E+03  0.25441641887E+03  0.84360770239E+02 0.  0.
         -6    2    1    2    0  503  0.11850036485E+03 -0.19161011632E+02  0.75652881952E+02  0.22384049977E+03  0.17312345292E+03 0.  0.
        -24    2    5    5    0    0  0.44607659617E+02  0.48205847748E+02  0.70455813408E+02  0.12360315568E+03  0.77460127784E+02 0.  0.
          4    1    4    4  501    0 -0.11719026086E+03 -0.33543830406E+02  0.19007433711E+03  0.22580301023E+03  0.00000000000E+00 0. -1.
         -3    1    4    4    0  501 -0.22444061439E+02  0.17177290788E+02  0.44645203288E+01  0.28613408648E+02  0.00000000000E+00 0.  1.
          5    1    3    3  502    0  0.21133957453E+02  0.35527551250E+02  0.19243373278E+02  0.45839376856E+02  0.47000000000E+01 0. -1.
         13    1    6    6    0    0  0.54518781757E+02  0.18327111573E+02  0.71918697632E+02  0.92089519773E+02  0.00000000000E+00 0. -1.
        -14    1    6    6    0    0 -0.99111221401E+01  0.29878736175E+02 -0.14628842248E+01  0.31513635902E+02  0.00000000000E+00 0.  1.
         -5    1    5    5    0  503  0.73892705232E+02 -0.67366859380E+02  0.51970685441E+01  0.10023734409E+03  0.47000000000E+01 0.  1.
<mgrwt>
<rscale>  2 0.21079212E+03</rscale>
<asrwt>0</asrwt>
<pdfrwt beam="1">  1       21 0.62579338E-01 0.21083335E+03</pdfrwt>
<pdfrwt beam="2">  1       21 0.18050860E-01 0.21083335E+03</pdfrwt>
<totfact> 0.65551968E+04</totfact>
</mgrwt>
</event>
<event>
12    1  0.2768653E-001  0.1941114E+03  0.7546771E-02  0.1155119E+00
         21   -1    0    0  504  503  0.00000000000E+00  0.00000000000E+00  0.48269499633E+02  0.48269499633E+02  0.00000000000E+00 0. -1.
         21   -1    0    0  502  504 -0.00000000000E+00 -0.00000000000E+00 -0.10069491563E+04  0.10069491563E+04  0.00000000000E+00 0.  1.
          6    2    1    2  502    0 -0.59506339317E+02  0.67030855019E+02 -0.73399894191E+03  0.75923230016E+03  0.17217752157E+03 0.  0.
         24    2    3    3    0    0  0.10386485933E+02  0.82294504557E+02 -0.33665212489E+03  0.35546928921E+03  0.78380468257E+02 0.  0.
         -6    2    1    2    0  503  0.59506339317E+02 -0.67030855019E+02 -0.22468071476E+03  0.29598635577E+03  0.17056482427E+03 0.  0.
        -24    2    5    5    0    0  0.27624678663E+01 -0.97625719707E+02 -0.13215817275E+03  0.18312173123E+03  0.80804538546E+02 0.  0.
          2    1    4    4  501    0  0.62023950042E+01  0.67389081442E+02 -0.11616880117E+03  0.13444310457E+03  0.00000000000E+00 0. -1.
         -1    1    4    4    0  501  0.41840909287E+01  0.14905423115E+02 -0.22048332372E+03  0.22102618463E+03  0.00000000000E+00 0.  1.
          5    1    3    3  502    0 -0.69892825250E+02 -0.15263649538E+02 -0.39734681702E+03  0.40376301095E+03  0.47000000000E+01 0. -1.
         13    1    6    6    0    0  0.20431467823E+01 -0.78374674591E+02 -0.14145671827E+03  0.16173053889E+03  0.00000000000E+00 0. -1.
        -14    1    6    6    0    0  0.71932108406E+00 -0.19251045116E+02  0.92985455268E+01  0.21391192342E+02  0.00000000000E+00 0.  1.
         -5    1    5    5    0  503  0.56743871451E+02  0.30594864688E+02 -0.92522542010E+02  0.11286462454E+03  0.47000000000E+01 0.  1.
<mgrwt>
<rscale>  2 0.19375316E+03</rscale>
<asrwt>0</asrwt>
<pdfrwt beam="1">  1       21 0.74260773E-02 0.19411141E+03</pdfrwt>
<pdfrwt beam="2">  1       21 0.15491525E+00 0.19411141E+03</pdfrwt>
<totfact> 0.37452092E+04</totfact>
</mgrwt>
</event>
<event>
12    1  0.2768653E-001  0.3224439E+03  0.7546771E-02  0.1074579E+00
         21   -1    0    0  504  503  0.00000000000E+00  0.00000000000E+00  0.47662345328E+03  0.47662345328E+03  0.00000000000E+00 0. -1.
         21   -1    0    0  502  504 -0.00000000000E+00 -0.00000000000E+00 -0.22241493931E+03  0.22241493931E+03  0.00000000000E+00 0. -1.
          6    2    1    2  502    0  0.24299726483E+03 -0.12243426306E+03  0.76947565392E+02  0.33108249919E+03  0.17221171263E+03 0.  0.
         24    2    3    3    0    0  0.11871227801E+03 -0.53547666888E+02  0.10613114656E+03  0.18594155910E+03  0.79689933813E+02 0.  0.
         -6    2    1    2    0  503 -0.24299726483E+03  0.12243426306E+03  0.17726094857E+03  0.36795589340E+03  0.17300946827E+03 0.  0.
        -24    2    5    5    0    0 -0.22375286025E+03  0.46254386656E+02  0.14401311437E+03  0.28250866316E+03  0.82864690281E+02 0.  0.
          4    1    4    4  501    0  0.40208361680E+02 -0.61774147510E+02  0.53282923547E+02  0.90949588187E+02  0.00000000000E+00 0. -1.
         -3    1    4    4    0  501  0.78503916325E+02  0.82264806223E+01  0.52848223011E+02  0.94991970910E+02  0.00000000000E+00 0.  1.
          5    1    3    3  502    0  0.12428498682E+03 -0.68886596170E+02 -0.29183581166E+02  0.14514094009E+03  0.47000000000E+01 0. -1.
         11    1    6    6    0    0 -0.84774693266E+02  0.58472299939E+02  0.70577161800E+02  0.12484748394E+03  0.00000000000E+00 0. -1.
        -12    1    6    6    0    0 -0.13897816698E+03 -0.12217913283E+02  0.73435952565E+02  0.15766117922E+03  0.00000000000E+00 0.  1.
         -5    1    5    5    0  503 -0.19244404580E+02  0.76179876402E+02  0.33247834207E+02  0.85447230240E+02  0.47000000000E+01 0.  1.
<mgrwt>
<rscale>  2 0.32233705E+03</rscale>
<asrwt>0</asrwt>
<pdfrwt beam="1">  1       21 0.73326685E-01 0.32244394E+03</pdfrwt>
<pdfrwt beam="2">  1       21 0.34217683E-01 0.32244394E+03</pdfrwt>
<totfact> 0.12864702E+04</totfact>
</mgrwt>
</event>
<event>
12    1  0.2768653E-001  0.1742624E+03  0.7546771E-02  0.1173813E+00
         21   -1    0    0  504  503  0.00000000000E+00  0.00000000000E+00  0.71162765137E+02  0.71162765137E+02  0.00000000000E+00 0.  1.
         21   -1    0    0  502  504 -0.00000000000E+00 -0.00000000000E+00 -0.48602471751E+03  0.48602471751E+03  0.00000000000E+00 0.  1.
          6    2    1    2  502    0 -0.76453098042E+01 -0.22174977707E+02 -0.30807355024E+03  0.35394446198E+03  0.17267654563E+03 0.  0.
         24    2    3    3    0    0  0.39100589531E+02  0.96011720437E+01 -0.27215692775E+03  0.28681029357E+03  0.81053763448E+02 0.  0.
         -6    2    1    2    0  503  0.76453098042E+01  0.22174977707E+02 -0.10678840213E+03  0.20324302066E+03  0.17132945520E+03 0.  0.
        -24    2    5    5    0    0 -0.33341470293E+02  0.58357900776E+02 -0.37660701205E+02  0.11498289886E+03  0.85354791264E+02 0.  0.
          4    1    4    4  501    0  0.15446567416E+02  0.45163223037E+02 -0.14886928809E+03  0.15633418723E+03  0.00000000000E+00 0. -1.
         -3    1    4    4    0  501  0.23654022115E+02 -0.35562050993E+02 -0.12328763966E+03  0.13047610634E+03  0.00000000000E+00 0.  1.
          5    1    3    3  502    0 -0.46745899335E+02 -0.31776149751E+02 -0.35916622496E+02  0.67134168418E+02  0.47000000000E+01 0. -1.
         13    1    6    6    0    0  0.30734975915E+01 -0.85842165328E+01  0.18294279906E+02  0.20440543980E+02  0.00000000000E+00 0. -1.
        -14    1    6    6    0    0 -0.36414967885E+02  0.66942117309E+02 -0.55954981111E+02  0.94542354884E+02  0.00000000000E+00 0.  1.
         -5    1    5    5    0  503  0.40986780098E+02 -0.36182923069E+02 -0.69127700922E+02  0.88260121795E+02  0.47000000000E+01 0.  1.
<mgrwt>
<rscale>  2 0.17392771E+03</rscale>
<asrwt>0</asrwt>
<pdfrwt beam="1">  1       21 0.10948118E-01 0.17426236E+03</pdfrwt>
<pdfrwt beam="2">  1       21 0.74773035E-01 0.17426236E+03</pdfrwt>
<totfact> 0.11140637E+05</totfact>
</mgrwt>
</event>
<event>
12    1  0.2768653E-001  0.3217870E+03  0.7546771E-02  0.1075228E+00
         21   -1    0    0  504  503  0.00000000000E+00  0.00000000000E+00  0.34278813032E+03  0.34278813032E+03  0.00000000000E+00 0. -1.
         21   -1    0    0  502  504 -0.00000000000E+00 -0.00000000000E+00 -0.48038392206E+03  0.48038392206E+03  0.00000000000E+00 0.  1.
          6    2    1    2  502    0 -0.14185221779E+03  0.22911751274E+03 -0.32205605412E+03  0.45526583575E+03  0.17586924935E+03 0.  0.
         24    2    3    3    0    0 -0.60459024412E+02  0.16762497183E+03 -0.12220335409E+03  0.23083460748E+03  0.81225189702E+02 0.  0.
         -6    2    1    2    0  503  0.14185221779E+03 -0.22911751274E+03  0.18446026239E+03  0.36790621663E+03  0.16944766006E+03 0.  0.
        -24    2    5    5    0    0  0.12666178717E+03 -0.11151196349E+03  0.61433481641E+02  0.19696911365E+03  0.80898904398E+02 0.  0.
          2    1    4    4  501    0 -0.36332483742E+01  0.11233290284E+03 -0.47901093746E+02  0.12217363192E+03  0.00000000000E+00 0. -1.
         -1    1    4    4    0  501 -0.56825776038E+02  0.55292068987E+02 -0.74302260348E+02  0.10866097555E+03  0.00000000000E+00 0.  1.
          5    1    3    3  502    0 -0.81393193380E+02  0.61492540906E+02 -0.19985270003E+03  0.22443122827E+03  0.47000000000E+01 0. -1.
         11    1    6    6    0    0  0.60258874586E+01 -0.41780619722E+02  0.35675052644E+02  0.55268805716E+02  0.00000000000E+00 0. -1.
        -12    1    6    6    0    0  0.12063589971E+03 -0.69731343770E+02  0.25758428996E+02  0.14170030793E+03  0.00000000000E+00 0.  1.
         -5    1    5    5    0  503  0.15190430622E+02 -0.11760554924E+03  0.12302678075E+03  0.17093710299E+03  0.47000000000E+01 0.  1.
<mgrwt>
<rscale>  2 0.32091743E+03</rscale>
<asrwt>0</asrwt>
<pdfrwt beam="1">  1       21 0.52736636E-01 0.32178701E+03</pdfrwt>
<pdfrwt beam="2">  1       21 0.73905218E-01 0.32178701E+03</pdfrwt>
<totfact> 0.51786001E+03</totfact>
</mgrwt>
</event>
<event>
12    1  0.2768653E-001  0.2101783E+03  0.7546771E-02  0.1141947E+00
         21   -1    0    0  504  503  0.00000000000E+00  0.00000000000E+00  0.55510744116E+03  0.55510744116E+03  0.00000000000E+00 0.  1.
         21   -1    0    0  502  504 -0.00000000000E+00 -0.00000000000E+00 -0.13461413384E+03  0.13461413384E+03  0.00000000000E+00 0. -1.
          6    2    1    2  502    0 -0.10503790637E+03 -0.45621253150E+02 -0.13001266111E+02  0.20796183238E+03  0.17310352479E+03 0.  0.
         24    2    3    3    0    0  0.33003747166E+01 -0.15194427436E+02  0.30964582612E+02  0.87056659934E+02  0.79864219549E+02 0.  0.
         -6    2    1    2    0  503  0.10503790637E+03  0.45621253150E+02  0.43349457344E+03  0.48175974262E+03  0.17624030157E+03 0.  0.
        -24    2    5    5    0    0 -0.11485460528E+01 -0.12714761104E+02  0.11308129144E+03  0.13917338196E+03  0.80117834858E+02 0.  0.
          2    1    4    4  501    0  0.31887187839E+02 -0.34081418514E+02  0.13422038794E+02  0.48564256008E+02  0.00000000000E+00 0. -1.
         -1    1    4    4    0  501 -0.28586813122E+02  0.18886991078E+02  0.17542543817E+02  0.38492403926E+02  0.00000000000E+00 0.  1.
          5    1    3    3  502    0 -0.10833828108E+03 -0.30426825713E+02 -0.43965848723E+02  0.12090517245E+03  0.47000000000E+01 0. -1.
         11    1    6    6    0    0 -0.68703309926E+01  0.28060854455E+02  0.14469854331E+02  0.32310829223E+02  0.00000000000E+00 0. -1.
        -12    1    6    6    0    0  0.57217849397E+01 -0.40775615559E+02  0.98611437112E+02  0.10686255273E+03  0.00000000000E+00 0.  1.
         -5    1    5    5    0  503  0.10618645242E+03  0.58336014254E+02  0.32041328199E+03  0.34258636067E+03  0.47000000000E+01 0.  1.
<mgrwt>
<rscale>  2 0.20951937E+03</rscale>
<asrwt>0</asrwt>
<pdfrwt beam="1">  1       21 0.85401144E-01 0.21017827E+03</pdfrwt>
<pdfrwt beam="2">  1       21 0.20709867E-01 0.21017827E+03</pdfrwt>
<totfact> 0.25376520E+04</totfact>
</mgrwt>
</event>
<event>
12    1  0.2768653E-001  0.2146003E+03  0.7546771E-02  0.1139797E+00
         21   -1    0    0  504  503  0.00000000000E+00  0.00000000000E+00  0.54290462397E+02  0.54290462397E+02  0.00000000000E+00 0. -1.
         21   -1    0    0  502  504 -0.00000000000E+00 -0.00000000000E+00 -0.94986875114E+03  0.94986875114E+03  0.00000000000E+00 0.  1.
          6    2    1    2  502    0 -0.64236343849E+02  0.89465731461E+02 -0.64739849337E+03  0.68203965974E+03  0.18418160405E+03 0.  0.
         24    2    3    3    0    0  0.21073836832E+02  0.12464801751E+02 -0.14696736211E+03  0.16856095791E+03  0.78828377660E+02 0.  0.
         -6    2    1    2    0  503  0.64236343849E+02 -0.89465731461E+02 -0.24817979538E+03  0.32211955380E+03  0.17331292833E+03 0.  0.
        -24    2    5    5    0    0  0.26526798833E+01  0.24897924915E+01 -0.58895161190E+02  0.10280441799E+03  0.84183564726E+02 0.  0.
          4    1    4    4  501    0 -0.15928932491E+02  0.32680676959E+01  0.47570247775E+00  0.16267681138E+02  0.00000000000E+00 0. -1.
         -3    1    4    4    0  501  0.37002769323E+02  0.91967340556E+01 -0.14744306459E+03  0.15229327677E+03  0.00000000000E+00 0.  1.
          5    1    3    3  502    0 -0.85310180681E+02  0.77000929709E+02 -0.50043113126E+03  0.51347870183E+03  0.47000000000E+01 0. -1.
         11    1    6    6    0    0  0.38673129840E+02 -0.17493669825E+02 -0.36125945112E+02  0.55737988533E+02  0.00000000000E+00 0. -1.
        -12    1    6    6    0    0 -0.36020449956E+02  0.19983462317E+02 -0.22769216078E+02  0.47066429459E+02  0.00000000000E+00 0.  1.
         -5    1    5    5    0  503  0.61583663966E+02 -0.91955523952E+02 -0.18928463419E+03  0.21931513580E+03  0.47000000000E+01 0.  1.
<mgrwt>
<rscale>  2 0.21224885E+03</rscale>
<asrwt>0</asrwt>
<pdfrwt beam="1">  1       21 0.83523791E-02 0.21460030E+03</pdfrwt>
<pdfrwt beam="2">  1       21 0.14613365E+00 0.21460030E+03</pdfrwt>
<totfact> 0.35171891E+04</totfact>
</mgrwt>
</event>
<event>
12    1  0.2768653E-001  0.2955400E+03  0.7546771E-02  0.1087554E+00
         21   -1    0    0  504  503  0.00000000000E+00  0.00000000000E+00  0.11233708241E+04  0.11233708241E+04  0.00000000000E+00 0.  1.
         21   -1    0    0  502  504 -0.00000000000E+00 -0.00000000000E+00 -0.15980429087E+03  0.15980429087E+03  0.00000000000E+00 0.  1.
          6    2    1    2  502    0 -0.23788983793E+03  0.20709771428E+02  0.21880645676E+02  0.29634889220E+03  0.17413625019E+03 0.  0.
         24    2    3    3    0    0 -0.15327836631E+03  0.74918162594E+02  0.42543278439E+02  0.19365183676E+03  0.81142557740E+02 0.  0.
         -6    2    1    2    0  503  0.23788983793E+03 -0.20709771428E+02  0.94168588754E+03  0.98682622274E+03  0.17330093330E+03 0.  0.
        -24    2    5    5    0    0  0.19084920998E+03  0.21044919694E+02  0.85434542019E+03  0.87909172435E+03  0.77652129492E+02 0.  0.
          4    1    4    4  501    0 -0.12974442389E+03  0.24306040380E+02  0.39361514148E+02  0.13774515572E+03  0.00000000000E+00 0. -1.
         -3    1    4    4    0  501 -0.23533942418E+02  0.50612122213E+02  0.31817642913E+01  0.55906681038E+02  0.00000000000E+00 0.  1.
          5    1    3    3  502    0 -0.84611471625E+02 -0.54208391165E+02 -0.20662632763E+02  0.10269705544E+03  0.47000000000E+01 0. -1.
         13    1    6    6    0    0  0.46489118421E+02  0.77527610663E+01  0.95199376200E+02  0.10622741955E+03  0.00000000000E+00 0. -1.
        -14    1    6    6    0    0  0.14436009156E+03  0.13292158628E+02  0.75914604399E+03  0.77286430480E+03  0.00000000000E+00 0.  1.
         -5    1    5    5    0  503  0.47040627950E+02 -0.41754691123E+02  0.87340467346E+02  0.10773449840E+03  0.47000000000E+01 0.  1.
<mgrwt>
<rscale>  2 0.29541709E+03</rscale>
<asrwt>0</asrwt>
<pdfrwt beam="1">  1       21 0.17282628E+00 0.29554002E+03</pdfrwt>
<pdfrwt beam="2">  1       21 0.24585276E-01 0.29554002E+03</pdfrwt>
<totfact> 0.29466053E+03</totfact>
</mgrwt>
</event>
<event>
12    1  0.2768653E-001  0.1765894E+03  0.7546771E-02  0.1171434E+00
         21   -1    0    0  504  503  0.00000000000E+00  0.00000000000E+00  0.41183527372E+03  0.41183527372E+03  0.00000000000E+00 0. -1.
         21   -1    0    0  502  504 -0.00000000000E+00 -0.00000000000E+00 -0.78825191321E+02  0.78825191321E+02  0.00000000000E+00 0. -1.
          6    2    1    2  502    0 -0.26518124844E+02  0.20895107923E+02  0.11352861734E+03  0.20895860340E+03  0.17214858263E+03 0.  0.
         24    2    3    3    0    0 -0.52289306278E+02 -0.33447924134E+01  0.76690219093E+01  0.97244367487E+02  0.81561595887E+02 0.  0.
         -6    2    1    2    0  503  0.26518124844E+02 -0.20895107923E+02  0.21948146506E+03  0.28170186164E+03  0.17333207686E+03 0.  0.
        -24    2    5    5    0    0  0.39205809297E+02 -0.67564669080E+02  0.91830047184E+02  0.14511489388E+03  0.80768155053E+02 0.  0.
          2    1    4    4  501    0 -0.42209924422E+02  0.33092097211E+02 -0.11503738554E+02  0.54855269740E+02  0.00000000000E+00 0. -1.
         -1    1    4    4    0  501 -0.10079381856E+02 -0.36436889624E+02  0.19172760463E+02  0.42389097748E+02  0.00000000000E+00 0.  1.
          5    1    3    3  502    0  0.25771181433E+02  0.24239900336E+02  0.10585959543E+03  0.11171423592E+03  0.47000000000E+01 0. -1.
         13    1    6    6    0    0  0.28187896313E+02 -0.73157218664E+02  0.10232264422E+03  0.12890484731E+03  0.00000000000E+00 0. -1.
        -14    1    6    6    0    0  0.11017912984E+02  0.55925495838E+01 -0.10492597033E+02  0.16210046572E+02  0.00000000000E+00 0.  1.
         -5    1    5    5    0  503 -0.12687684453E+02  0.46669561157E+02  0.12765141788E+03  0.13658696776E+03  0.47000000000E+01 0.  1.
<mgrwt>
<rscale>  2 0.17629833E+03</rscale>
<asrwt>0</asrwt>
<pdfrwt beam="1">  1       21 0.63359272E-01 0.17658943E+03</pdfrwt>
<pdfrwt beam="2">  1       21 0.12126953E-01 0.17658943E+03</pdfrwt>
<totfact> 0.13342231E+05</totfact>
</mgrwt>
</event>
<event>
12    1  0.2768653E-001  0.2209476E+03  0.7546771E-02  0.1133503E+00
         21   -1    0    0  504  503  0.00000000000E+00  0.00000000000E+00  0.16837008585E+03  0.16837008585E+03  0.00000000000E+00 0.  1.
         21   -1    0    0  502  504 -0.00000000000E+00 -0.00000000000E+00 -0.29137160364E+03  0.29137160364E+03  0.00000000000E+00 0. -1.
          6    2    1    2  502    0  0.10205900490E+03  0.85918565825E+02 -0.87195106722E+02  0.23591153025E+03  0.17393453663E+03 0.  0.
         24    2    3    3    0    0  0.13765004226E+03  0.45295632084E+02 -0.49320277245E+02  0.16977880466E+03  0.73437894475E+02 0.  0.
         -6    2    1    2    0  503 -0.10205900490E+03 -0.85918565825E+02 -0.35806411065E+02  0.22383015924E+03  0.17612438978E+03 0.  0.
        -24    2    5    5    0    0 -0.12928257969E+02 -0.61022568321E+02 -0.71298991511E+02  0.12460358010E+03  0.80942030396E+02 0.  0.
          2    1    4    4  501    0  0.34606668719E+02  0.25159637815E+01 -0.46697276374E+02  0.58177205281E+02  0.00000000000E+00 0. -1.
         -1    1    4    4    0  501  0.10304337354E+03  0.42779668302E+02 -0.26230008706E+01  0.11160159938E+03  0.00000000000E+00 0.  1.
          5    1    3    3  502    0 -0.35591037357E+02  0.40622933741E+02 -0.37874829477E+02  0.66132725589E+02  0.47000000000E+01 0. -1.
         13    1    6    6    0    0 -0.40386248290E+02 -0.56493396628E+02 -0.66903792156E+02  0.96429613286E+02  0.00000000000E+00 0. -1.
        -14    1    6    6    0    0  0.27457990321E+02 -0.45291716925E+01 -0.43951993550E+01  0.28173966814E+02  0.00000000000E+00 0.  1.
         -5    1    5    5    0  503 -0.89130746932E+02 -0.24895997504E+02  0.35492580447E+02  0.99226579137E+02  0.47000000000E+01 0.  1.
<mgrwt>
<rscale>  2 0.22051090E+03</rscale>
<asrwt>0</asrwt>
<pdfrwt beam="1">  1       21 0.25903090E-01 0.22094760E+03</pdfrwt>
<pdfrwt beam="2">  1       21 0.44826401E-01 0.22094760E+03</pdfrwt>
<totfact> 0.66765043E+04</totfact>
</mgrwt>
</event>
<event>
12    1  0.2768653E-001  0.1920571E+03  0.7546771E-02  0.1158820E+00
         21   -1    0    0  504  503  0.00000000000E+00  0.00000000000E+00  0.29462525357E+03  0.29462525357E+03  0.00000000000E+00 0.  1.
         21   -1    0    0  502  504 -0.00000000000E+00 -0.00000000000E+00 -0.37050999436E+03  0.37050999436E+03  0.00000000000E+00 0. -1.
          6    2    1    2  502    0  0.81591716639E+02  0.23808429866E+02 -0.31160580102E+03  0.36107877829E+03  0.16141765500E+03 0.  0.
         24    2    3    3    0    0  0.67338372843E+00  0.18098480010E+02 -0.82624007511E+02  0.11810731518E+03  0.82429381031E+02 0.  0.
         -6    2    1    2    0  503 -0.81591716639E+02 -0.23808429866E+02  0.23572106023E+03  0.30405646964E+03  0.17222621444E+03 0.  0.
        -24    2    5    5    0    0 -0.36203840109E+02  0.48643203617E+02  0.89008177326E+02  0.13418575840E+03  0.80040507422E+02 0.  0.
          2    1    4    4  501    0  0.24640335217E+02  0.39124109640E+02 -0.69837667789E+02  0.83756444032E+02  0.00000000000E+00 0. -1.
         -1    1    4    4    0  501 -0.23966951489E+02 -0.21025629630E+02 -0.12786339722E+02  0.34350871146E+02  0.00000000000E+00 0.  1.
          5    1    3    3  502    0  0.80918332911E+02  0.57099498564E+01 -0.22898179351E+03  0.24297146311E+03  0.47000000000E+01 0. -1.
         11    1    6    6    0    0 -0.54430915538E+02  0.41066367174E+02  0.91691488446E+02  0.11426504335E+03  0.00000000000E+00 0. -1.
        -12    1    6    6    0    0  0.18227075429E+02  0.75768364431E+01 -0.26833111198E+01  0.19920715041E+02  0.00000000000E+00 0.  1.
         -5    1    5    5    0  503 -0.45387876530E+02 -0.72451633483E+02  0.14671288290E+03  0.16987071125E+03  0.47000000000E+01 0.  1.
<mgrwt>
<rscale>  2 0.18960298E+03</rscale>
<asrwt>0</asrwt>
<pdfrwt beam="1">  1       21 0.45326963E-01 0.19205707E+03</pdfrwt>
<pdfrwt beam="2">  1       21 0.57001537E-01 0.19205707E+03</pdfrwt>
<totfact> 0.13504864E+04</totfact>
</mgrwt>
</event>
<event>
12    1  0.2768653E-001  0.1753840E+03  0.7546771E-02  0.1172537E+00
         21   -1    0    0  504  503  0.00000000000E+00  0.00000000000E+00  0.14832810021E+03  0.14832810021E+03  0.00000000000E+00 0.  1.
         21   -1    0    0  502  504 -0.00000000000E+00 -0.00000000000E+00 -0.54724430910E+03  0.54724430910E+03  0.00000000000E+00 0.  1.
          6    2    1    2  502    0  0.30911369498E+02  0.15008770075E+02 -0.47373572741E+03  0.50489599904E+03  0.17121230819E+03 0.  0.
         24    2    3    3    0    0  0.41285398515E+02 -0.39921679191E+02 -0.39756634463E+03  0.41029769246E+03  0.83588117902E+02 0.  0.
         -6    2    1    2    0  503 -0.30911369498E+02 -0.15008770075E+02  0.74819518519E+02  0.19067641028E+03  0.17198475846E+03 0.  0.
        -24    2    5    5    0    0 -0.16823108132E+02  0.54552906776E+02  0.66311230520E+02  0.11903991847E+03  0.80711128666E+02 0.  0.
          2    1    4    4  501    0  0.31592221198E+02 -0.55480162153E+02 -0.37850713131E+03  0.38385383323E+03  0.00000000000E+00 0. -1.
         -1    1    4    4    0  501  0.96931773167E+01  0.15558482962E+02 -0.19059213323E+02  0.26443859232E+02  0.00000000000E+00 0.  1.
          5    1    3    3  502    0 -0.10374029017E+02  0.54930449265E+02 -0.76169382778E+02  0.94598306577E+02  0.47000000000E+01 0. -1.
         11    1    6    6    0    0  0.23015522657E+02  0.31581734534E+02  0.61414246495E+02  0.72793062251E+02  0.00000000000E+00 0. -1.
        -12    1    6    6    0    0 -0.39838630789E+02  0.22971172242E+02  0.48969840247E+01  0.46246856216E+02  0.00000000000E+00 0.  1.
         -5    1    5    5    0  503 -0.14088261366E+02 -0.69561676851E+02  0.85082879988E+01  0.71636491813E+02  0.47000000000E+01 0.  1.
<mgrwt>
<rscale>  2 0.17519430E+03</rscale>
<asrwt>0</asrwt>
<pdfrwt beam="1">  1       21 0.22819708E-01 0.17538396E+03</pdfrwt>
<pdfrwt beam="2">  1       21 0.84191429E-01 0.17538396E+03</pdfrwt>
<totfact> 0.22292583E+04</totfact>
</mgrwt>
</event>
<event>
12    1  0.2768653E-001  0.1822950E+03  0.7546771E-02  0.1166196E+00
         21   -1    0    0  504  503  0.00000000000E+00  0.00000000000E+00  0.98720257778E+02  0.98720257778E+02  0.00000000000E+00 0.  1.
         21   -1    0    0  502  504 -0.00000000000E+00 -0.00000000000E+00 -0.43204479124E+03  0.43204479124E+03  0.00000000000E+00 0.  1.
          6    2    1    2  502    0  0.54391803949E+02  0.17194891945E+02 -0.29345218384E+03  0.34416041555E+03  0.17052294504E+03 0.  0.
         24    2    3    3    0    0  0.81222718853E+02  0.52897004261E+02 -0.16049838059E+03  0.20382744502E+03  0.79941691590E+02 0.  0.
         -6    2    1    2    0  503 -0.54391803949E+02 -0.17194891945E+02 -0.39872349620E+02  0.18660463347E+03  0.17313969020E+03 0.  0.
        -24    2    5    5    0    0  0.21316886809E+02  0.32380861606E+02 -0.34892828215E+02  0.95849761259E+02  0.80416027078E+02 0.  0.
          2    1    4    4  501    0  0.41739715064E+02  0.51719960812E+02 -0.14825879245E+03  0.16247408316E+03  0.00000000000E+00 0. -1.
         -1    1    4    4    0  501  0.39483003789E+02  0.11770434492E+01 -0.12239588143E+02  0.41353361863E+02  0.00000000000E+00 0.  1.
          5    1    3    3  502    0 -0.26830914904E+02 -0.35702112316E+02 -0.13295380325E+03  0.14033297052E+03  0.47000000000E+01 0. -1.
         13    1    6    6    0    0  0.33157667472E+02 -0.17225513315E+02 -0.80711492599E+01  0.38226857987E+02  0.00000000000E+00 0. -1.
        -14    1    6    6    0    0 -0.11840780664E+02  0.49606374921E+02 -0.26821678955E+02  0.57622903272E+02  0.00000000000E+00 0.  1.
         -5    1    5    5    0  503 -0.75708690758E+02 -0.49575753551E+02 -0.49795214051E+01  0.90754872210E+02  0.47000000000E+01 0.  1.
<mgrwt>
<rscale>  2 0.18167099E+03</rscale>
<asrwt>0</asrwt>
<pdfrwt beam="1">  1       21 0.15187732E-01 0.18229505E+03</pdfrwt>
<pdfrwt beam="2">  1       21 0.66468429E-01 0.18229505E+03</pdfrwt>
<totfact> 0.79950101E+04</totfact>
</mgrwt>
</event>
<event>
12    1  0.2768653E-001  0.2016765E+03  0.7546771E-02  0.1148398E+00
         21   -1    0    0  504  503  0.00000000000E+00  0.00000000000E+00  0.12062875504E+04  0.12062875504E+04  0.00000000000E+00 0.  1.
         21   -1    0    0  502  504 -0.00000000000E+00 -0.00000000000E+00 -0.33715340174E+02  0.33715340174E+02  0.00000000000E+00 0. -1.
          6    2    1    2  502    0 -0.91775663638E+01  0.10437035499E+03  0.61068671350E+03  0.64312649742E+03  0.17232536351E+03 0.  0.
         24    2    3    3    0    0 -0.31179792094E+02  0.13209425486E+03  0.55936286285E+03  0.58060497946E+03  0.76120025234E+02 0.  0.
         -6    2    1    2    0  503  0.91775663638E+01 -0.10437035499E+03  0.56188549677E+03  0.59687639321E+03  0.17195557147E+03 0.  0.
        -24    2    5    5    0    0 -0.50512863347E+02 -0.95479844414E+02  0.44872466841E+03  0.46854303179E+03  0.80689494629E+02 0.  0.
          4    1    4    4  501    0 -0.13986834853E+02  0.69786194706E+02  0.14834357151E+03  0.16453437248E+03  0.00000000000E+00 0. -1.
         -3    1    4    4    0  501 -0.17192957241E+02  0.62308060155E+02  0.41101929134E+03  0.41607060698E+03  0.00000000000E+00 0.  1.
          5    1    3    3  502    0  0.22002225730E+02 -0.27723899875E+02  0.51323850654E+02  0.62521517955E+02  0.47000000000E+01 0. -1.
         13    1    6    6    0    0 -0.40650071825E+02 -0.29041140186E+02  0.84389620765E+02  0.98068467182E+02  0.00000000000E+00 0. -1.
        -14    1    6    6    0    0 -0.98627915217E+01 -0.66438704228E+02  0.36433504765E+03  0.37047456461E+03  0.00000000000E+00 0.  1.
         -5    1    5    5    0  503  0.59690429711E+02 -0.88905105723E+01  0.11316082836E+03  0.12833336142E+03  0.47000000000E+01 0.  1.
<mgrwt>
<rscale>  2 0.20159753E+03</rscale>
<asrwt>0</asrwt>
<pdfrwt beam="1">  1       21 0.18558267E+00 0.20167655E+03</pdfrwt>
<pdfrwt beam="2">  1       21 0.51869763E-02 0.20167655E+03</pdfrwt>
<totfact> 0.41925800E+04</totfact>
</mgrwt>
</event>
<event>
12    1  0.2768653E-001  0.2093458E+03  0.7546771E-02  0.1142505E+00
         21   -1    0    0  504  503  0.00000000000E+00  0.00000000000E+00  0.14705333805E+03  0.14705333805E+03  0.00000000000E+00 0. -1.
         21   -1    0    0  502  504 -0.00000000000E+00 -0.00000000000E+00 -0.29765381447E+03  0.29765381447E+03  0.00000000000E+00 0. -1.
          6    2    1    2  502    0  0.10375087482E+03  0.38641438579E+02 -0.96507349141E+02  0.23051972024E+03  0.17767461322E+03 0.  0.
         24    2    3    3    0    0  0.50917908144E+02  0.41340483428E+02  0.17502389755E+02  0.10474644099E+03  0.79773518873E+02 0.  0.
         -6    2    1    2    0  503 -0.10375087482E+03 -0.38641438579E+02 -0.54093127275E+02  0.21418743228E+03  0.17519356417E+03 0.  0.
        -24    2    5    5    0    0 -0.11921224543E+03  0.21158464018E+02 -0.38612166643E+02  0.15033735418E+03  0.80319241714E+02 0.  0.
          4    1    4    4  501    0  0.69369192017E+02  0.17737418357E+02  0.35266871260E+01  0.71687783710E+02  0.00000000000E+00 0. -1.
         -3    1    4    4    0  501 -0.18451283873E+02  0.23603065071E+02  0.13975702629E+02  0.33058657282E+02  0.00000000000E+00 0.  1.
          5    1    3    3  502    0  0.52832966679E+02 -0.26990448495E+01 -0.11400973890E+03  0.12577327925E+03  0.47000000000E+01 0. -1.
         11    1    6    6    0    0 -0.55524408412E+02 -0.23147704939E+02 -0.40861073359E+02  0.72721410117E+02  0.00000000000E+00 0. -1.
        -12    1    6    6    0    0 -0.63687837014E+02  0.44306168957E+02  0.22489067156E+01  0.77615944062E+02  0.00000000000E+00 0.  1.
         -5    1    5    5    0  503  0.15461370603E+02 -0.59799902597E+02 -0.15480960632E+02  0.63850078102E+02  0.47000000000E+01 0.  1.
<mgrwt>
<rscale>  2 0.20881845E+03</rscale>
<asrwt>0</asrwt>
<pdfrwt beam="1">  1       21 0.22623591E-01 0.20934582E+03</pdfrwt>
<pdfrwt beam="2">  1       21 0.45792894E-01 0.20934582E+03</pdfrwt>
<totfact> 0.83119884E+04</totfact>
</mgrwt>
</event>
<event>
12    1  0.2768653E-001  0.2094894E+03  0.7546771E-02  0.1142021E+00
         21   -1    0    0  504  503  0.00000000000E+00  0.00000000000E+00  0.18103492604E+03  0.18103492604E+03  0.00000000000E+00 0. -1.
         21   -1    0    0  502  504 -0.00000000000E+00 -0.00000000000E+00 -0.25057973890E+03  0.25057973890E+03  0.00000000000E+00 0. -1.
          6    2    1    2  502    0  0.11788355944E+03  0.18907988832E+01  0.48542573195E+01  0.20954565355E+03  0.17316381955E+03 0.  0.
         24    2    3    3    0    0  0.14661194523E+01  0.34444799561E+02  0.14330250771E+02  0.88200411593E+02  0.79908465102E+02 0.  0.
         -6    2    1    2    0  503 -0.11788355944E+03 -0.18907988832E+01 -0.74399070175E+02  0.22206901138E+03  0.17285634344E+03 0.  0.
        -24    2    5    5    0    0 -0.12967118051E+03  0.44609168097E+02 -0.69033291083E+02  0.17357079982E+03  0.80973046997E+02 0.  0.
          2    1    4    4  501    0  0.15849388396E+02  0.56361116794E+02  0.47407030205E+00  0.58549153209E+02  0.00000000000E+00 0. -1.
         -1    1    4    4    0  501 -0.14383268944E+02 -0.21916317233E+02  0.13856180469E+02  0.29651258384E+02  0.00000000000E+00 0.  1.
          5    1    3    3  502    0  0.11641743999E+03 -0.32554000678E+02 -0.94759934519E+01  0.12134524196E+03  0.47000000000E+01 0. -1.
         13    1    6    6    0    0 -0.13573314803E+03  0.25942571200E+02 -0.67745307785E+02  0.15390234307E+03  0.00000000000E+00 0. -1.
        -14    1    6    6    0    0  0.60619675250E+01  0.18666596897E+02 -0.12879832989E+01  0.19668456751E+02  0.00000000000E+00 0.  1.
         -5    1    5    5    0  503  0.11787621062E+02 -0.46499966980E+02 -0.53657790917E+01  0.48498211562E+02  0.47000000000E+01 0.  1.
<mgrwt>
<rscale>  2 0.20942587E+03</rscale>
<asrwt>0</asrwt>
<pdfrwt beam="1">  1       21 0.27851527E-01 0.20948942E+03</pdfrwt>
<pdfrwt beam="2">  1       21 0.38550729E-01 0.20948942E+03</pdfrwt>
<totfact> 0.79296216E+04</totfact>
</mgrwt>
</event>
<event>
12    1  0.2768653E-001  0.2277820E+03  0.7546771E-02  0.1128511E+00
         21   -1    0    0  504  503  0.00000000000E+00  0.00000000000E+00  0.66630426950E+03  0.66630426950E+03  0.00000000000E+00 0.  1.
         21   -1    0    0  502  504 -0.00000000000E+00 -0.00000000000E+00 -0.89447584623E+02  0.89447584623E+02  0.00000000000E+00 0.  1.
          6    2    1    2  502    0  0.48119720361E+02 -0.13829670796E+03  0.14823142819E+03  0.27036104641E+03  0.17228189745E+03 0.  0.
         24    2    3    3    0    0 -0.38616216415E+02 -0.57442332317E+02  0.52685328927E+02  0.11800718241E+03  0.79744075045E+02 0.  0.
         -6    2    1    2    0  503 -0.48119720361E+02  0.13829670796E+03  0.42862525669E+03  0.48539080772E+03  0.17447962238E+03 0.  0.
        -24    2    5    5    0    0 -0.39496883757E+02  0.13844595561E+03  0.44024597080E+03  0.47017546735E+03  0.80753754348E+02 0.  0.
          2    1    4    4  501    0 -0.47552884273E+02 -0.40637287442E+01  0.92566064273E+01  0.48615588616E+02  0.00000000000E+00 0. -1.
         -1    1    4    4    0  501  0.89366678577E+01 -0.53378603573E+02  0.43428722499E+02  0.69391593797E+02  0.00000000000E+00 0.  1.
          5    1    3    3  502    0  0.86735936776E+02 -0.80854375646E+02  0.95546099262E+02  0.15235386399E+03  0.47000000000E+01 0. -1.
         11    1    6    6    0    0  0.61462980033E+01  0.33008536106E+01 -0.42801607777E+00  0.69896932312E+01  0.00000000000E+00 0. -1.
        -12    1    6    6    0    0 -0.45643181760E+02  0.13514510200E+03  0.44067398688E+03  0.46318577412E+03  0.00000000000E+00 0.  1.
         -5    1    5    5    0  503 -0.86228366036E+01 -0.14924764358E+00 -0.11620714114E+02  0.15215340366E+02  0.47000000000E+01 0.  1.
<mgrwt>
<rscale>  2 0.22736105E+03</rscale>
<asrwt>0</asrwt>
<pdfrwt beam="1">  1       21 0.10250835E+00 0.22778197E+03</pdfrwt>
<pdfrwt beam="2">  1       21 0.13761167E-01 0.22778197E+03</pdfrwt>
<totfact> 0.34840222E+04</totfact>
</mgrwt>
</event>
<event>
12    1  0.2768653E-001  0.1838810E+03  0.7546771E-02  0.1164254E+00
         21   -1    0    0  504  503  0.00000000000E+00  0.00000000000E+00  0.22321439597E+03  0.22321439597E+03  0.00000000000E+00 0. -1.
         21   -1    0    0  502  504 -0.00000000000E+00 -0.00000000000E+00 -0.17409496622E+03  0.17409496622E+03  0.00000000000E+00 0. -1.
          6    2    1    2  502    0 -0.19550274336E+02 -0.60309890380E+02 -0.47932700973E+02  0.18938788996E+03  0.17190326622E+03 0.  0.
         24    2    3    3    0    0  0.43717129758E+01  0.32470873497E+02 -0.23782463425E+02  0.90464406419E+02  0.80899528813E+02 0.  0.
         -6    2    1    2    0  503  0.19550274336E+02  0.60309890380E+02  0.97052130717E+02  0.20792147223E+03  0.17260569641E+03 0.  0.
        -24    2    5    5    0    0  0.75438914455E+00  0.10454611350E+03  0.68202676138E+02  0.15166749667E+03  0.86145026345E+02 0.  0.
          2    1    4    4  501    0  0.11778648775E+02  0.48402321173E+02 -0.41998245221E+02  0.65156533545E+02  0.00000000000E+00 0. -1.
         -1    1    4    4    0  501 -0.74069357989E+01 -0.15931447676E+02  0.18215781796E+02  0.25307872875E+02  0.00000000000E+00 0.  1.
          5    1    3    3  502    0 -0.23921987312E+02 -0.92780763877E+02 -0.24150237548E+02  0.98923483542E+02  0.47000000000E+01 0. -1.
         13    1    6    6    0    0 -0.31720759623E+02  0.50239613995E+02  0.65357169738E+02  0.88327713893E+02  0.00000000000E+00 0. -1.
        -14    1    6    6    0    0  0.32475148768E+02  0.54306499507E+02  0.28455063997E+01  0.63339782782E+02  0.00000000000E+00 0.  1.
         -5    1    5    5    0  503  0.18795885192E+02 -0.44236223122E+02  0.28849454579E+02  0.56253975555E+02  0.47000000000E+01 0.  1.
<mgrwt>
<rscale>  2 0.18371598E+03</rscale>
<asrwt>0</asrwt>
<pdfrwt beam="1">  1       21 0.34340676E-01 0.18388100E+03</pdfrwt>
<pdfrwt beam="2">  1       21 0.26783841E-01 0.18388100E+03</pdfrwt>
<totfact> 0.10880868E+05</totfact>
</mgrwt>
</event>
<event>
12    1  0.2768653E-001  0.2357739E+03  0.7546771E-02  0.1122690E+00
         21   -1    0    0  504  503  0.00000000000E+00  0.00000000000E+00  0.38318307386E+03  0.38318307386E+03  0.00000000000E+00 0. -1.
         21   -1    0    0  502  504 -0.00000000000E+00 -0.00000000000E+00 -0.16849371831E+03  0.16849371831E+03  0.00000000000E+00 0.  1.
          6    2    1    2  502    0 -0.51156333239E+01 -0.15950922034E+03  0.40583134575E+01  0.23552057306E+03  0.17315920233E+03 0.  0.
         24    2    3    3    0    0 -0.64561250544E+02 -0.13641822834E+03  0.10268841375E+01  0.17150295922E+03  0.81450122376E+02 0.  0.
         -6    2    1    2    0  503  0.51156333239E+01  0.15950922034E+03  0.21063104209E+03  0.31615621910E+03  0.17355102394E+03 0.  0.
        -24    2    5    5    0    0  0.16519616152E+02  0.36729830105E+02  0.24938406539E+02  0.93201796883E+02  0.80266261182E+02 0.  0.
          4    1    4    4  501    0 -0.40091254755E+02 -0.21108630924E+02  0.24204251116E+02  0.51368558276E+02  0.00000000000E+00 0. -1.
         -3    1    4    4    0  501 -0.24469995789E+02 -0.11530959742E+03 -0.23177366979E+02  0.12013440094E+03  0.00000000000E+00 0.  1.
          5    1    3    3  502    0  0.59445617220E+02 -0.23090991996E+02  0.30314293201E+01  0.64017613840E+02  0.47000000000E+01 0. -1.
         13    1    6    6    0    0  0.97903303805E+01  0.61254559956E+02  0.27070286992E+02  0.67681401598E+02  0.00000000000E+00 0. -1.
        -14    1    6    6    0    0  0.67292857711E+01 -0.24524729851E+02 -0.21318804533E+01  0.25520395285E+02  0.00000000000E+00 0.  1.
         -5    1    5    5    0  503 -0.11403982828E+02  0.12277939023E+03  0.18569263555E+03  0.22295442222E+03  0.47000000000E+01 0.  1.
<mgrwt>
<rscale>  2 0.23570177E+03</rscale>
<asrwt>0</asrwt>
<pdfrwt beam="1">  1       21 0.58951242E-01 0.23577387E+03</pdfrwt>
<pdfrwt beam="2">  1       21 0.25922111E-01 0.23577387E+03</pdfrwt>
<totfact> 0.37230963E+04</totfact>
</mgrwt>
</event>
<event>
12    1  0.2768653E-001  0.1807621E+03  0.7546771E-02  0.1167096E+00
         21   -1    0    0  504  503  0.00000000000E+00  0.00000000000E+00  0.17092797715E+03  0.17092797715E+03  0.00000000000E+00 0.  1.
         21   -1    0    0  502  504 -0.00000000000E+00 -0.00000000000E+00 -0.20376933508E+03  0.20376933508E+03  0.00000000000E+00 0.  1.
          6    2    1    2  502    0 -0.58645018891E+01  0.54103388316E+02  0.30409094566E+02  0.18330210004E+03  0.17237568806E+03 0.  0.
         24    2    3    3    0    0 -0.50055618444E+02 -0.17723705833E+02  0.13865351677E+02  0.97233687334E+02  0.80264857124E+02 0.  0.
         -6    2    1    2    0  503  0.58645018891E+01 -0.54103388316E+02 -0.63250452495E+02  0.19139521219E+03  0.17224964005E+03 0.  0.
        -24    2    5    5    0    0  0.45932347363E+02 -0.34794037321E+02  0.18209631383E+02  0.98464493144E+02  0.77738408574E+02 0.  0.
          4    1    4    4  501    0 -0.11497053164E+02 -0.35294320238E+02 -0.20743912701E+02  0.42522713774E+02  0.00000000000E+00 0. -1.
         -3    1    4    4    0  501 -0.38558565281E+02  0.17570614405E+02  0.34609264378E+02  0.54710973560E+02  0.00000000000E+00 0.  1.
          5    1    3    3  502    0  0.44191116555E+02  0.71827094149E+02  0.16543742889E+02  0.86068412702E+02  0.47000000000E+01 0. -1.
         11    1    6    6    0    0  0.44295851119E+00 -0.47335948564E+02 -0.14160500219E+01  0.47359195901E+02  0.00000000000E+00 0. -1.
        -12    1    6    6    0    0  0.45489388852E+02  0.12541911243E+02  0.19625681405E+02  0.51105297244E+02  0.00000000000E+00 0.  1.
         -5    1    5    5    0  503 -0.40067845474E+02 -0.19309350995E+02 -0.81460083878E+02  0.92930719045E+02  0.47000000000E+01 0.  1.
<mgrwt>
<rscale>  2 0.18073207E+03</rscale>
<asrwt>0</asrwt>
<pdfrwt beam="1">  1       21 0.26296612E-01 0.18076213E+03</pdfrwt>
<pdfrwt beam="2">  1       21 0.31349128E-01 0.18076213E+03</pdfrwt>
<totfact> 0.13498513E+05</totfact>
</mgrwt>
</event>
<event>
12    1  0.2768653E-001  0.2073342E+03  0.7546771E-02  0.1143979E+00
         21   -1    0    0  504  503  0.00000000000E+00  0.00000000000E+00  0.83625039843E+02  0.83625039843E+02  0.00000000000E+00 0.  1.
         21   -1    0    0  502  504 -0.00000000000E+00 -0.00000000000E+00 -0.58424831914E+03  0.58424831914E+03  0.00000000000E+00 0.  1.
          6    2    1    2  502    0 -0.50087237192E+02 -0.10418368045E+03 -0.36815636107E+03  0.42183483295E+03  0.17041874747E+03 0.  0.
         24    2    3    3    0    0 -0.86580673191E+02 -0.79007879122E+02 -0.34132542784E+03  0.36980041336E+03  0.80689776901E+02 0.  0.
         -6    2    1    2    0  503  0.50087237192E+02  0.10418368045E+03 -0.13246691823E+03  0.24603852604E+03  0.17211769598E+03 0.  0.
        -24    2    5    5    0    0 -0.38973045512E+02  0.48300829288E+02 -0.68102428118E+02  0.12267116975E+03  0.80983990930E+02 0.  0.
          2    1    4    4  501    0 -0.60512519422E+02 -0.92013577689E+02 -0.29697999646E+03  0.31674182197E+03  0.00000000000E+00 0. -1.
         -1    1    4    4    0  501 -0.26068153769E+02  0.13005698567E+02 -0.44345431382E+02  0.53058591392E+02  0.00000000000E+00 0.  1.
          5    1    3    3  502    0  0.36493435999E+02 -0.25175801331E+02 -0.26830933228E+02  0.52034419585E+02  0.47000000000E+01 0. -1.
         13    1    6    6    0    0 -0.15036112960E+02  0.33550746499E+02  0.11279224315E+02  0.38457225390E+02  0.00000000000E+00 0. -1.
        -14    1    6    6    0    0 -0.23936932552E+02  0.14750082789E+02 -0.79381652433E+02  0.84213944364E+02  0.00000000000E+00 0.  1.
         -5    1    5    5    0  503  0.89060282705E+02  0.55882851165E+02 -0.64364490111E+02  0.12336735629E+03  0.47000000000E+01 0.  1.
<mgrwt>
<rscale>  2 0.20698125E+03</rscale>
<asrwt>0</asrwt>
<pdfrwt beam="1">  1       21 0.12865390E-01 0.20733420E+03</pdfrwt>
<pdfrwt beam="2">  1       21 0.89884360E-01 0.20733420E+03</pdfrwt>
<totfact> 0.54179876E+04</totfact>
</mgrwt>
</event>
<event>
12    1  0.2768653E-001  0.1884618E+03  0.7546771E-02  0.1160024E+00
         21   -1    0    0  504  503  0.00000000000E+00  0.00000000000E+00  0.24065248730E+03  0.24065248730E+03  0.00000000000E+00 0. -1.
         21   -1    0    0  502  504 -0.00000000000E+00 -0.00000000000E+00 -0.18881218982E+03  0.18881218982E+03  0.00000000000E+00 0. -1.
          6    2    1    2  502    0  0.72896108656E+02  0.13585053728E+02 -0.75074111191E+02  0.20286441199E+03  0.17326122225E+03 0.  0.
         24    2    3    3    0    0  0.85153483293E+02  0.63511028661E+02 -0.69997416100E+02  0.15099236711E+03  0.81328286517E+02 0.  0.
         -6    2    1    2    0  503 -0.72896108656E+02 -0.13585053728E+02  0.12691440867E+03  0.22660026513E+03  0.17245873908E+03 0.  0.
        -24    2    5    5    0    0 -0.10253448514E+03  0.30456625200E+02  0.91133704370E+02  0.16240952091E+03  0.81428335032E+02 0.  0.
          2    1    4    4  501    0  0.81960342663E+02  0.12790062237E+02 -0.44451312948E+02  0.94111650099E+02  0.00000000000E+00 0. -1.
         -1    1    4    4    0  501  0.31931406299E+01  0.50720966424E+02 -0.25546103151E+02  0.56880717016E+02  0.00000000000E+00 0.  1.
          5    1    3    3  502    0 -0.12257374637E+02 -0.49925974933E+02 -0.50766950914E+01  0.51872044870E+02  0.47000000000E+01 0. -1.
         11    1    6    6    0    0 -0.56209267084E+02  0.20064390464E+02  0.36450023570E-01  0.59683019356E+02  0.00000000000E+00 0. -1.
        -12    1    6    6    0    0 -0.46325218061E+02  0.10392234737E+02  0.91097254347E+02  0.10272650155E+03  0.00000000000E+00 0.  1.
         -5    1    5    5    0  503  0.29638376489E+02 -0.44041678929E+02  0.35780704299E+02  0.64190744223E+02  0.47000000000E+01 0.  1.
<mgrwt>
<rscale>  2 0.18827715E+03</rscale>
<asrwt>0</asrwt>
<pdfrwt beam="1">  1       21 0.37023460E-01 0.18846179E+03</pdfrwt>
<pdfrwt beam="2">  1       21 0.29048029E-01 0.18846179E+03</pdfrwt>
<totfact> 0.79967011E+04</totfact>
</mgrwt>
</event>
<event>
12    1  0.2768653E-001  0.2002723E+03  0.7546771E-02  0.1149887E+00
         21   -1    0    0  504  503  0.00000000000E+00  0.00000000000E+00  0.49287319249E+03  0.49287319249E+03  0.00000000000E+00 0. -1.
         21   -1    0    0  502  504 -0.00000000000E+00 -0.00000000000E+00 -0.12991649175E+03  0.12991649175E+03  0.00000000000E+00 0. -1.
          6    2    1    2  502    0  0.75513330282E+02  0.63245800115E+02 -0.10775151741E+02  0.19877967585E+03  0.17232226018E+03 0.  0.
         24    2    3    3    0    0 -0.10734631904E+02  0.55021400644E+02  0.23928334499E+02  0.10533036507E+03  0.85903048625E+02 0.  0.
         -6    2    1    2    0  503 -0.75513330282E+02 -0.63245800115E+02  0.37373185248E+03  0.42401000839E+03  0.17437515697E+03 0.  0.
        -24    2    5    5    0    0 -0.10170501267E+03 -0.93350459469E+02  0.31036535452E+03  0.34897869622E+03  0.80007869888E+02 0.  0.
          2    1    4    4  501    0 -0.24862618639E+02 -0.23783600995E+00  0.39076775140E+02  0.46316311672E+02  0.00000000000E+00 0. -1.
         -1    1    4    4    0  501  0.14127986735E+02  0.55259236654E+02 -0.15148440640E+02  0.59014053399E+02  0.00000000000E+00 0.  1.
          5    1    3    3  502    0  0.86247962186E+02  0.82243994705E+01 -0.34703486241E+02  0.93449310780E+02  0.47000000000E+01 0. -1.
         11    1    6    6    0    0 -0.15076344595E+02  0.15363482677E+01  0.10944805609E+03  0.11049223283E+03  0.00000000000E+00 0. -1.
        -12    1    6    6    0    0 -0.86628668078E+02 -0.94886807737E+02  0.20091729842E+03  0.23848646339E+03  0.00000000000E+00 0.  1.
         -5    1    5    5    0  503  0.26191682391E+02  0.30104659354E+02  0.63366497966E+02  0.75031312169E+02  0.47000000000E+01 0.  1.
<mgrwt>
<rscale>  2 0.19982457E+03</rscale>
<asrwt>0</asrwt>
<pdfrwt beam="1">  1       21 0.75826644E-01 0.20027229E+03</pdfrwt>
<pdfrwt beam="2">  1       21 0.19987153E-01 0.20027229E+03</pdfrwt>
<totfact> 0.35708309E+04</totfact>
</mgrwt>
</event>
<event>
12    1  0.2768653E-001  0.2274374E+03  0.7546771E-02  0.1128895E+00
         21   -1    0    0  504  503  0.00000000000E+00  0.00000000000E+00  0.28220942596E+03  0.28220942596E+03  0.00000000000E+00 0. -1.
         21   -1    0    0  502  504 -0.00000000000E+00 -0.00000000000E+00 -0.23441993578E+03  0.23441993578E+03  0.00000000000E+00 0. -1.
          6    2    1    2  502    0 -0.14526694374E+03 -0.13141004170E+02 -0.99128069522E+02  0.24586643424E+03  0.17131479325E+03 0.  0.
         24    2    3    3    0    0 -0.58985200959E+02 -0.53057355685E+02 -0.96418056118E+02  0.15064412368E+03  0.84278547268E+02 0.  0.
         -6    2    1    2    0  503  0.14526694374E+03  0.13141004170E+02  0.14691755971E+03  0.27076292749E+03  0.17450679820E+03 0.  0.
        -24    2    5    5    0    0  0.17574971902E+03  0.58188365519E+00  0.11775696285E+03  0.22649825190E+03  0.80910156907E+02 0.  0.
          4    1    4    4  501    0 -0.26102845036E+02  0.15625976715E+02 -0.57672980025E+02  0.65205078730E+02  0.00000000000E+00 0. -1.
         -3    1    4    4    0  501 -0.32882355922E+02 -0.68683332400E+02 -0.38745076093E+02  0.85439044951E+02  0.00000000000E+00 0.  1.
          5    1    3    3  502    0 -0.86281742786E+02  0.39916351515E+02 -0.27100134037E+01  0.95222310564E+02  0.47000000000E+01 0. -1.
         11    1    6    6    0    0  0.17262724181E+03  0.83483105987E+01  0.12666442638E+03  0.21427490711E+03  0.00000000000E+00 0. -1.
        -12    1    6    6    0    0  0.31224772033E+01 -0.77664269435E+01 -0.89074635299E+01  0.12223344791E+02  0.00000000000E+00 0.  1.
         -5    1    5    5    0  503 -0.30482775272E+02  0.12559120515E+02  0.29160596858E+02  0.44264675595E+02  0.47000000000E+01 0.  1.
<mgrwt>
<rscale>  2 0.22682502E+03</rscale>
<asrwt>0</asrwt>
<pdfrwt beam="1">  1       21 0.43416835E-01 0.22743745E+03</pdfrwt>
<pdfrwt beam="2">  1       21 0.36064605E-01 0.22743745E+03</pdfrwt>
<totfact> 0.37155381E+04</totfact>
</mgrwt>
</event>
<event>
12    1  0.2768653E-001  0.2640641E+03  0.7546771E-02  0.1104727E+00
         21   -1    0    0  504  503  0.00000000000E+00  0.00000000000E+00  0.12434224815E+04  0.12434224815E+04  0.00000000000E+00 0. -1.
         21   -1    0    0  502  504 -0.00000000000E+00 -0.00000000000E+00 -0.60901549745E+02  0.60901549745E+02  0.00000000000E+00 0. -1.
          6    2    1    2  502    0 -0.49914449044E+01 -0.19855568103E+03  0.40769292201E+03  0.48573483549E+03  0.17399867459E+03 0.  0.
         24    2    3    3    0    0  0.56110495775E+02 -0.13871096858E+03  0.19667188025E+03  0.25799198307E+03  0.74100703812E+02 0.  0.
         -6    2    1    2    0  503  0.49914449044E+01  0.19855568103E+03  0.77482800977E+03  0.81858919578E+03  0.17401308495E+03 0.  0.
        -24    2    5    5    0    0 -0.56629104502E+02  0.10105787612E+03  0.52215432216E+03  0.54079611365E+03  0.79973436729E+02 0.  0.
          2    1    4    4  501    0  0.20512870129E+02 -0.12659803502E+03  0.13882482878E+03  0.18899781320E+03  0.00000000000E+00 0. -1.
         -1    1    4    4    0  501  0.35597625646E+02 -0.12112933566E+02  0.57847051472E+02  0.68994169864E+02  0.00000000000E+00 0.  1.
          5    1    3    3  502    0 -0.61101940679E+02 -0.59844712446E+02  0.21102104176E+03  0.22774285242E+03  0.47000000000E+01 0. -1.
         11    1    6    6    0    0  0.45786383441E+01  0.71983001618E+02  0.23901965553E+03  0.24966560072E+03  0.00000000000E+00 0. -1.
        -12    1    6    6    0    0 -0.61207742847E+02  0.29074874500E+02  0.28313466663E+03  0.29113051293E+03  0.00000000000E+00 0.  1.
         -5    1    5    5    0  503  0.61620549407E+02  0.97497804911E+02  0.25267368761E+03  0.27779308213E+03  0.47000000000E+01 0.  1.
<mgrwt>
<rscale>  2 0.26406168E+03</rscale>
<asrwt>0</asrwt>
<pdfrwt beam="1">  1       21 0.19129575E+00 0.26406406E+03</pdfrwt>
<pdfrwt beam="2">  1       21 0.93694702E-02 0.26406406E+03</pdfrwt>
<totfact> 0.13248909E+04</totfact>
</mgrwt>
</event>
<event>
12    1  0.2768653E-001  0.1906500E+03  0.7546771E-02  0.1158297E+00
         21   -1    0    0  504  503  0.00000000000E+00  0.00000000000E+00  0.21693809562E+03  0.21693809562E+03  0.00000000000E+00 0.  1.
         21   -1    0    0  502  504 -0.00000000000E+00 -0.00000000000E+00 -0.26080791703E+03  0.26080791703E+03  0.00000000000E+00 0.  1.
          6    2    1    2  502    0 -0.46669207062E+02  0.67672902536E+02 -0.16608934626E+03  0.25284992555E+03  0.17201679362E+03 0.  0.
         24    2    3    3    0    0 -0.95375599932E+02  0.44982858397E+02 -0.14016594689E+03  0.19300626721E+03  0.80529273572E+02 0.  0.
         -6    2    1    2    0  503  0.46669207062E+02 -0.67672902536E+02  0.12221952485E+03  0.22489608710E+03  0.16994999592E+03 0.  0.
        -24    2    5    5    0    0  0.90541848717E+02 -0.55097063293E+02  0.11973212859E+03  0.17894788193E+03  0.80330872508E+02 0.  0.
          4    1    4    4  501    0 -0.70498753874E+02  0.13512557635E+02 -0.33828623257E+02  0.79353886251E+02  0.00000000000E+00 0. -1.
         -3    1    4    4    0  501 -0.24876846058E+02  0.31470300763E+02 -0.10633732363E+03  0.11365238096E+03  0.00000000000E+00 0.  1.
          5    1    3    3  502    0  0.48706392870E+02  0.22690044139E+02 -0.25923399372E+02  0.59843658347E+02  0.47000000000E+01 0. -1.
         13    1    6    6    0    0  0.79498216418E+02 -0.61922548447E+02  0.58845663069E+02  0.11669267536E+03  0.00000000000E+00 0. -1.
        -14    1    6    6    0    0  0.11043632299E+02  0.68254851534E+01  0.60886465521E+02  0.62255206574E+02  0.00000000000E+00 0.  1.
         -5    1    5    5    0  503 -0.43872641655E+02 -0.12575839243E+02  0.24873962606E+01  0.45948205173E+02  0.47000000000E+01 0.  1.
<mgrwt>
<rscale>  2 0.19018259E+03</rscale>
<asrwt>0</asrwt>
<pdfrwt beam="1">  1       21 0.33375092E-01 0.19064998E+03</pdfrwt>
<pdfrwt beam="2">  1       21 0.40124295E-01 0.19064998E+03</pdfrwt>
<totfact> 0.51801900E+04</totfact>
</mgrwt>
</event>
<event>
12    1  0.2768653E-001  0.1901121E+03  0.7546771E-02  0.1158926E+00
         21   -1    0    0  504  503  0.00000000000E+00  0.00000000000E+00  0.20452665402E+03  0.20452665402E+03  0.00000000000E+00 0. -1.
         21   -1    0    0  502  504 -0.00000000000E+00 -0.00000000000E+00 -0.19239630912E+03  0.19239630912E+03  0.00000000000E+00 0. -1.
          6    2    1    2  502    0 -0.31198553087E+02  0.72019501698E+02 -0.54658334700E+02  0.19542029782E+03  0.17041537755E+03 0.  0.
         24    2    3    3    0    0 -0.17838090815E+02 -0.26382303585E+02 -0.20987557761E+02  0.90457311697E+02  0.82023315175E+02 0.  0.
         -6    2    1    2    0  503  0.31198553087E+02 -0.72019501698E+02  0.66788679600E+02  0.20150266532E+03  0.17315437641E+03 0.  0.
        -24    2    5    5    0    0  0.47667859985E+02 -0.65374753704E+02 -0.18937615146E+02  0.11383010202E+03  0.77798300502E+02 0.  0.
          4    1    4    4  501    0 -0.39485392212E+02  0.11667947603E+02 -0.21972232924E+02  0.46669221325E+02  0.00000000000E+00 0. -1.
         -3    1    4    4    0  501  0.21647301397E+02 -0.38050251189E+02  0.98467516330E+00  0.43788090372E+02  0.00000000000E+00 0.  1.
          5    1    3    3  502    0 -0.13360462272E+02  0.98401805283E+02 -0.33670776939E+02  0.10496298612E+03  0.47000000000E+01 0. -1.
         13    1    6    6    0    0  0.56659800009E+02 -0.17382438624E+02  0.49501344667E+01  0.59472564605E+02  0.00000000000E+00 0. -1.
        -14    1    6    6    0    0 -0.89919400239E+01 -0.47992315081E+02 -0.23887749612E+02  0.54357537414E+02  0.00000000000E+00 0.  1.
         -5    1    5    5    0  503 -0.16469306897E+02 -0.66447479932E+01  0.85726294746E+02  0.87672563304E+02  0.47000000000E+01 0.  1.
<mgrwt>
<rscale>  2 0.18948616E+03</rscale>
<asrwt>0</asrwt>
<pdfrwt beam="1">  1       21 0.31465639E-01 0.19011206E+03</pdfrwt>
<pdfrwt beam="2">  1       21 0.29599432E-01 0.19011206E+03</pdfrwt>
<totfact> 0.10629328E+05</totfact>
</mgrwt>
</event>
<event>
12    1  0.2768653E-001  0.2089938E+03  0.7546771E-02  0.1143146E+00
         21   -1    0    0  504  503  0.00000000000E+00  0.00000000000E+00  0.27300557942E+03  0.27300557942E+03  0.00000000000E+00 0. -1.
         21   -1    0    0  502  504 -0.00000000000E+00 -0.00000000000E+00 -0.30165845443E+03  0.30165845443E+03  0.00000000000E+00 0. -1.
          6    2    1    2  502    0 -0.97213404820E+02  0.65084261074E+02 -0.21320242333E+03  0.29585055375E+03  0.16848106636E+03 0.  0.
         24    2    3    3    0    0 -0.92856872282E+02  0.10674925832E+03 -0.15877238100E+03  0.22700528609E+03  0.79403577138E+02 0.  0.
         -6    2    1    2    0  503  0.97213404820E+02 -0.65084261074E+02  0.18454954833E+03  0.27881348010E+03  0.17318202498E+03 0.  0.
        -24    2    5    5    0    0  0.36709701147E+02 -0.10265015888E+03  0.10499961818E+03  0.17193889835E+03  0.81568423254E+02 0.  0.
          4    1    4    4  501    0 -0.79692249216E+02  0.96420885936E+02 -0.16676085704E+03  0.20846348666E+03  0.00000000000E+00 0. -1.
         -3    1    4    4    0  501 -0.13164623067E+02  0.10328372380E+02  0.79884760419E+01  0.18541799427E+02  0.00000000000E+00 0.  1.
          5    1    3    3  502    0 -0.43565325379E+01 -0.41664997242E+02 -0.54430042336E+02  0.68845267664E+02  0.47000000000E+01 0. -1.
         11    1    6    6    0    0 -0.16244563275E+02 -0.72314418551E+02  0.47105292486E+02  0.87818958924E+02  0.00000000000E+00 0. -1.
        -12    1    6    6    0    0  0.52954264422E+02 -0.30335740328E+02  0.57894325692E+02  0.84119939426E+02  0.00000000000E+00 0.  1.
         -5    1    5    5    0  503  0.60503703673E+02  0.37565897804E+02  0.79549930151E+02  0.10687458174E+03  0.47000000000E+01 0.  1.
<mgrwt>
<rscale>  2 0.20801737E+03</rscale>
<asrwt>0</asrwt>
<pdfrwt beam="1">  1       21 0.42000858E-01 0.20899383E+03</pdfrwt>
<pdfrwt beam="2">  1       21 0.46408993E-01 0.20899383E+03</pdfrwt>
<totfact> 0.24038505E+04</totfact>
</mgrwt>
</event>
<event>
12    1  0.2768653E-001  0.1870256E+03  0.7546771E-02  0.1163621E+00
         21   -1    0    0  504  503  0.00000000000E+00  0.00000000000E+00  0.38840746268E+03  0.38840746268E+03  0.00000000000E+00 0.  1.
         21   -1    0    0  502  504 -0.00000000000E+00 -0.00000000000E+00 -0.14260816111E+03  0.14260816111E+03  0.00000000000E+00 0.  1.
          6    2    1    2  502    0  0.14989428961E+02 -0.35751654885E+02 -0.47668285377E+02  0.18301880291E+03  0.17239707938E+03 0.  0.
         24    2    3    3    0    0 -0.52540422784E+02 -0.14107869472E+02 -0.56684615857E+02  0.11137999681E+03  0.78948274252E+02 0.  0.
         -6    2    1    2    0  503 -0.14989428961E+02  0.35751654885E+02  0.29346758695E+03  0.34799682089E+03  0.18296365473E+03 0.  0.
        -24    2    5    5    0    0  0.31694793054E+01 -0.48141934754E+02  0.20021218516E+03  0.22116409524E+03  0.80628446943E+02 0.  0.
          4    1    4    4  501    0 -0.24976305824E+02  0.30360463361E+02 -0.84328313757E+01  0.40208036922E+02  0.00000000000E+00 0. -1.
         -3    1    4    4    0  501 -0.27564116960E+02 -0.44468332833E+02 -0.48251784481E+02  0.71171959889E+02  0.00000000000E+00 0.  1.
          5    1    3    3  502    0  0.67529851745E+02 -0.21643785413E+02  0.90163304796E+01  0.71638806097E+02  0.47000000000E+01 0. -1.
         13    1    6    6    0    0  0.18140340123E+02 -0.34654305222E+02  0.28806056679E+02  0.48577584457E+02  0.00000000000E+00 0. -1.
        -14    1    6    6    0    0 -0.14970860818E+02 -0.13487629532E+02  0.17140612848E+03  0.17258651079E+03  0.00000000000E+00 0.  1.
         -5    1    5    5    0  503 -0.18158908267E+02  0.83893589639E+02  0.93255401786E+02  0.12683272564E+03  0.47000000000E+01 0.  1.
<mgrwt>
<rscale>  2 0.18438948E+03</rscale>
<asrwt>0</asrwt>
<pdfrwt beam="1">  1       21 0.59754994E-01 0.18702557E+03</pdfrwt>
<pdfrwt beam="2">  1       21 0.21939717E-01 0.18702557E+03</pdfrwt>
<totfact> 0.50855338E+04</totfact>
</mgrwt>
</event>
<event>
12    1  0.2768653E-001  0.2257559E+03  0.7546771E-02  0.1129663E+00
         21   -1    0    0  504  503  0.00000000000E+00  0.00000000000E+00  0.15627145523E+04  0.15627145523E+04  0.00000000000E+00 0.  1.
         21   -1    0    0  502  504 -0.00000000000E+00 -0.00000000000E+00 -0.33186740466E+02  0.33186740466E+02  0.00000000000E+00 0. -1.
          6    2    1    2  502    0  0.56489763198E+02  0.13287410750E+03  0.86963447381E+03  0.89845971123E+03  0.17354858934E+03 0.  0.
         24    2    3    3    0    0  0.40430208527E+02  0.27351873913E+01  0.30550366557E+03  0.31927087619E+03  0.83422537088E+02 0.  0.
         -6    2    1    2    0  503 -0.56489763198E+02 -0.13287410750E+03  0.65989333800E+03  0.69744158152E+03  0.17354803458E+03 0.  0.
        -24    2    5    5    0    0 -0.83909443498E+02 -0.86628648000E+02  0.29569407793E+03  0.32926543832E+03  0.80221093121E+02 0.  0.
          2    1    4    4  501    0  0.38315074387E+02 -0.32074585934E+02  0.11187712641E+03  0.12252883498E+03  0.00000000000E+00 0. -1.
         -1    1    4    4    0  501  0.21151341394E+01  0.34809773325E+02  0.19362653916E+03  0.19674204121E+03  0.00000000000E+00 0.  1.
          5    1    3    3  502    0  0.16059554671E+02  0.13013892011E+03  0.56413080824E+03  0.57918883504E+03  0.47000000000E+01 0. -1.
         11    1    6    6    0    0 -0.52495399847E+02 -0.16267213500E+02  0.60333074968E+02  0.81611697539E+02  0.00000000000E+00 0. -1.
        -12    1    6    6    0    0 -0.31414043651E+02 -0.70361434500E+02  0.23536100297E+03  0.24765374078E+03  0.00000000000E+00 0.  1.
         -5    1    5    5    0  503  0.27419680300E+02 -0.46245459499E+02  0.36419926007E+03  0.36817614320E+03  0.47000000000E+01 0.  1.
<mgrwt>
<rscale>  2 0.22575581E+03</rscale>
<asrwt>0</asrwt>
<pdfrwt beam="1">  1       21 0.24041757E+00 0.22575592E+03</pdfrwt>
<pdfrwt beam="2">  1       21 0.51056536E-02 0.22575592E+03</pdfrwt>
<totfact> 0.19145392E+04</totfact>
</mgrwt>
</event>
<event>
12    1  0.2768653E-001  0.1785481E+03  0.7546771E-02  0.1169529E+00
         21   -1    0    0  504  503  0.00000000000E+00  0.00000000000E+00  0.12077872966E+03  0.12077872966E+03  0.00000000000E+00 0.  1.
         21   -1    0    0  502  504 -0.00000000000E+00 -0.00000000000E+00 -0.26667657891E+03  0.26667657891E+03  0.00000000000E+00 0.  1.
          6    2    1    2  502    0  0.15229673940E+02 -0.36002225396E+02 -0.98681909530E+02  0.20400377344E+03  0.17421629403E+03 0.  0.
         24    2    3    3    0    0  0.40867162552E+02 -0.78220583054E+02 -0.38572452536E+02  0.12606208135E+03  0.81334062182E+02 0.  0.
         -6    2    1    2    0  503 -0.15229673940E+02  0.36002225396E+02 -0.47215939727E+02  0.18345153513E+03  0.17290754054E+03 0.  0.
        -24    2    5    5    0    0 -0.13047436397E+02 -0.43486746954E+02 -0.46380862898E+02  0.10378945984E+03  0.80992189589E+02 0.  0.
          2    1    4    4  501    0 -0.47127269744E+01 -0.79852516478E+01  0.21232070958E+02  0.23168402547E+02  0.00000000000E+00 0. -1.
         -1    1    4    4    0  501  0.45579889526E+02 -0.70235331406E+02 -0.59804523494E+02  0.10289367880E+03  0.00000000000E+00 0.  1.
          5    1    3    3  502    0 -0.25637488611E+02  0.42218357657E+02 -0.60109456993E+02  0.77941692089E+02  0.47000000000E+01 0. -1.
         13    1    6    6    0    0  0.17445356906E+02 -0.52661777405E+02 -0.11680127142E+02  0.56692403787E+02  0.00000000000E+00 0. -1.
        -14    1    6    6    0    0 -0.30492793304E+02  0.91750304513E+01 -0.34700735756E+02  0.47097056057E+02  0.00000000000E+00 0.  1.
         -5    1    5    5    0  503 -0.21822375430E+01  0.79488972350E+02 -0.83507682859E+00  0.79662075289E+02  0.47000000000E+01 0.  1.
<mgrwt>
<rscale>  2 0.17822804E+03</rscale>
<asrwt>0</asrwt>
<pdfrwt beam="1">  1       21 0.18581343E-01 0.17854809E+03</pdfrwt>
<pdfrwt beam="2">  1       21 0.41027166E-01 0.17854809E+03</pdfrwt>
<totfact> 0.15216043E+05</totfact>
</mgrwt>
</event>
<event>
12    1  0.2768653E-001  0.1968478E+03  0.7546771E-02  0.1152587E+00
         21   -1    0    0  504  503  0.00000000000E+00  0.00000000000E+00  0.62701575933E+03  0.62701575933E+03  0.00000000000E+00 0.  1.
         21   -1    0    0  502  504 -0.00000000000E+00 -0.00000000000E+00 -0.62682676405E+02  0.62682676405E+02  0.00000000000E+00 0.  1.
          6    2    1    2  502    0 -0.21423076300E+02 -0.89911575185E+02  0.32769580757E+03  0.38188963271E+03  0.17295117728E+03 0.  0.
         24    2    3    3    0    0 -0.67872031098E+02 -0.72672092824E+02  0.29805553187E+03  0.32396432652E+03  0.78917292766E+02 0.  0.
         -6    2    1    2    0  503  0.21423076300E+02  0.89911575185E+02  0.23663727536E+03  0.30780880302E+03  0.17379879050E+03 0.  0.
        -24    2    5    5    0    0  0.25747103411E+02 -0.99350526437E+01  0.56875317921E+02  0.10207961783E+03  0.80148786531E+02 0.  0.
          4    1    4    4  501    0 -0.66818000972E+02 -0.17653958227E+02  0.19887087952E+03  0.21053725137E+03  0.00000000000E+00 0. -1.
         -3    1    4    4    0  501 -0.10540301256E+01 -0.55018134597E+02  0.99184652351E+02  0.11342707515E+03  0.00000000000E+00 0.  1.
          5    1    3    3  502    0  0.46448954798E+02 -0.17239482361E+02  0.29640275695E+02  0.57925306190E+02  0.47000000000E+01 0. -1.
         13    1    6    6    0    0  0.30499637010E+02 -0.15807210297E+02  0.74973037595E+02  0.82468491688E+02  0.00000000000E+00 0. -1.
        -14    1    6    6    0    0 -0.47525335989E+01  0.58721576537E+01 -0.18097719674E+02  0.19611126141E+02  0.00000000000E+00 0.  1.
         -5    1    5    5    0  503 -0.43240271107E+01  0.99846627829E+02  0.17976195744E+03  0.20572918519E+03  0.47000000000E+01 0.  1.
<mgrwt>
<rscale>  2 0.19666055E+03</rscale>
<asrwt>0</asrwt>
<pdfrwt beam="1">  1       21 0.96463959E-01 0.19684781E+03</pdfrwt>
<pdfrwt beam="2">  1       21 0.96434891E-02 0.19684781E+03</pdfrwt>
<totfact> 0.77170161E+04</totfact>
</mgrwt>
</event>
<event>
12    1  0.2768653E-001  0.1873636E+03  0.7546771E-02  0.1162671E+00
         21   -1    0    0  504  503  0.00000000000E+00  0.00000000000E+00  0.76450271714E+02  0.76450271714E+02  0.00000000000E+00 0. -1.
         21   -1    0    0  502  504 -0.00000000000E+00 -0.00000000000E+00 -0.18831039251E+04  0.18831039251E+04  0.00000000000E+00 0. -1.
          6    2    1    2  502    0  0.67663238288E+02  0.24695626249E+02 -0.17564051302E+04  0.17655695347E+04  0.16458618582E+03 0.  0.
         24    2    3    3    0    0  0.71704037275E+02 -0.33912903020E+02 -0.13724921776E+04  0.13771592710E+04  0.80878465121E+02 0.  0.
         -6    2    1    2    0  503 -0.67663238288E+02 -0.24695626249E+02 -0.50248523120E+02  0.19398466209E+03  0.17296516203E+03 0.  0.
        -24    2    5    5    0    0 -0.10580205514E+03  0.10011695678E+02 -0.22595259294E+02  0.13528235765E+03  0.80600630438E+02 0.  0.
          2    1    4    4  501    0  0.15430625652E+02 -0.44953851612E+02 -0.89052792658E+03  0.89179534704E+03  0.00000000000E+00 0. -1.
         -1    1    4    4    0  501  0.56273411623E+02  0.11040948593E+02 -0.48196425103E+03  0.48536392395E+03  0.00000000000E+00 0.  1.
          5    1    3    3  502    0 -0.40407989870E+01  0.58608529268E+02 -0.38391295262E+03  0.38841026370E+03  0.47000000000E+01 0. -1.
         13    1    6    6    0    0 -0.60545373373E+02  0.18681867982E+02  0.25840844184E+02  0.68428821825E+02  0.00000000000E+00 0. -1.
        -14    1    6    6    0    0 -0.45256681763E+02 -0.86701723044E+01 -0.48436103478E+02  0.66853535824E+02  0.00000000000E+00 0.  1.
         -5    1    5    5    0  503  0.38138816849E+02 -0.34707321926E+02 -0.27653263826E+02  0.58702304437E+02  0.47000000000E+01 0.  1.
<mgrwt>
<rscale>  2 0.18540665E+03</rscale>
<asrwt>0</asrwt>
<pdfrwt beam="1">  1       21 0.11761579E-01 0.18736364E+03</pdfrwt>
<pdfrwt beam="2">  1       21 0.28970832E+00 0.18736364E+03</pdfrwt>
<totfact> 0.23954239E+03</totfact>
</mgrwt>
</event>
<event>
12    1  0.2768653E-001  0.1963969E+03  0.7546771E-02  0.1152957E+00
         21   -1    0    0  504  503  0.00000000000E+00  0.00000000000E+00  0.29040905991E+02  0.29040905991E+02  0.00000000000E+00 0. -1.
         21   -1    0    0  502  504 -0.00000000000E+00 -0.00000000000E+00 -0.18598663399E+04  0.18598663399E+04  0.00000000000E+00 0. -1.
          6    2    1    2  502    0 -0.74726080087E+02  0.51532548683E+02 -0.14235622104E+04  0.14370459719E+04  0.17416132756E+03 0.  0.
         24    2    3    3    0    0  0.41996732905E+01  0.78404884631E+02 -0.83390114793E+03  0.84150113269E+03  0.81043621632E+02 0.  0.
         -6    2    1    2    0  503  0.74726080087E+02 -0.51532548683E+02 -0.40726322351E+03  0.45186127393E+03  0.17342343278E+03 0.  0.
        -24    2    5    5    0    0  0.20090425763E+02 -0.93656838060E+02 -0.29688962670E+03  0.32161561623E+03  0.78217169699E+02 0.  0.
          2    1    4    4  501    0  0.18803949288E+02  0.45784931003E+02 -0.72900816023E+03  0.73068648961E+03  0.00000000000E+00 0. -1.
         -1    1    4    4    0  501 -0.14604275997E+02  0.32619953628E+02 -0.10489298770E+03  0.11081464308E+03  0.00000000000E+00 0.  1.
          5    1    3    3  502    0 -0.78925753378E+02 -0.26872335949E+02 -0.58966106245E+03  0.59554483924E+03  0.47000000000E+01 0. -1.
         11    1    6    6    0    0  0.47960204852E+02 -0.78278051506E+02 -0.22361487453E+03  0.24172556072E+03  0.00000000000E+00 0. -1.
        -12    1    6    6    0    0 -0.27869779089E+02 -0.15378786553E+02 -0.73274752176E+02  0.79890055506E+02  0.00000000000E+00 0.  1.
         -5    1    5    5    0  503  0.54635654324E+02  0.42124289377E+02 -0.11037359680E+03  0.13024565770E+03  0.47000000000E+01 0.  1.
<mgrwt>
<rscale>  2 0.19623322E+03</rscale>
<asrwt>0</asrwt>
<pdfrwt beam="1">  1       21 0.44678299E-02 0.19639694E+03</pdfrwt>
<pdfrwt beam="2">  1       21 0.28613340E+00 0.19639694E+03</pdfrwt>
<totfact> 0.13297038E+04</totfact>
</mgrwt>
</event>
<event>
12    1  0.2768653E-001  0.1897937E+03  0.7546771E-02  0.1158818E+00
         21   -1    0    0  504  503  0.00000000000E+00  0.00000000000E+00  0.31534941627E+03  0.31534941627E+03  0.00000000000E+00 0. -1.
         21   -1    0    0  502  504 -0.00000000000E+00 -0.00000000000E+00 -0.29800969131E+03  0.29800969131E+03  0.00000000000E+00 0. -1.
          6    2    1    2  502    0 -0.15084427010E+02 -0.75293967413E+02 -0.23246866347E+03  0.29963012453E+03  0.17274203473E+03 0.  0.
         24    2    3    3    0    0 -0.53190014323E+02  0.51714167294E+01 -0.10527842832E+03  0.14430414555E+03  0.82971186427E+02 0.  0.
         -6    2    1    2    0  503  0.15084427010E+02  0.75293967413E+02  0.24980838843E+03  0.31372898306E+03  0.17356532607E+03 0.  0.
        -24    2    5    5    0    0 -0.53376751301E+02  0.39546105284E+02  0.10105316126E+03  0.14605355197E+03  0.81895827845E+02 0.  0.
          2    1    4    4  501    0  0.19994047930E+02 -0.13457474732E+01 -0.62416337860E+01  0.20988829915E+02  0.00000000000E+00 0. -1.
         -1    1    4    4    0  501 -0.73184062253E+02  0.65171642026E+01 -0.99036794537E+02  0.12331531563E+03  0.00000000000E+00 0.  1.
          5    1    3    3  502    0  0.38105587313E+02 -0.80465384142E+02 -0.12719023515E+03  0.15532597898E+03  0.47000000000E+01 0. -1.
         11    1    6    6    0    0 -0.90983035973E+01  0.39400082957E+02  0.92505358864E+02  0.10095735280E+03  0.00000000000E+00 0. -1.
        -12    1    6    6    0    0 -0.44278447704E+02  0.14602232708E+00  0.85478023968E+01  0.45096199168E+02  0.00000000000E+00 0.  1.
         -5    1    5    5    0  503  0.68461178311E+02  0.35747862129E+02  0.14875522717E+03  0.16767543109E+03  0.47000000000E+01 0.  1.
<mgrwt>
<rscale>  2 0.18960526E+03</rscale>
<asrwt>0</asrwt>
<pdfrwt beam="1">  1       21 0.48515295E-01 0.18979369E+03</pdfrwt>
<pdfrwt beam="2">  1       21 0.45847645E-01 0.18979369E+03</pdfrwt>
<totfact> 0.18533394E+04</totfact>
</mgrwt>
</event>
<event>
12    1  0.2768653E-001  0.1836140E+03  0.7546771E-02  0.1165409E+00
         21   -1    0    0  504  503  0.00000000000E+00  0.00000000000E+00  0.25868047786E+03  0.25868047786E+03  0.00000000000E+00 0. -1.
         21   -1    0    0  502  504 -0.00000000000E+00 -0.00000000000E+00 -0.16011915424E+03  0.16011915424E+03  0.00000000000E+00 0.  1.
          6    2    1    2  502    0 -0.49605401746E+02 -0.26056747686E+02 -0.46132187666E+02  0.18502557833E+03  0.17019587514E+03 0.  0.
         24    2    3    3    0    0 -0.11732870729E+02 -0.79802504069E+02 -0.37471185145E+02  0.11854221274E+03  0.78371337709E+02 0.  0.
         -6    2    1    2    0  503  0.49605401746E+02  0.26056747686E+02  0.14469351128E+03  0.23377405377E+03  0.17485550042E+03 0.  0.
        -24    2    5    5    0    0 -0.16809375273E+01 -0.44337479781E+02  0.49661426271E+02  0.10478249188E+03  0.80897933725E+02 0.  0.
          2    1    4    4  501    0  0.17536568522E+02  0.74514719468E+01 -0.13764166196E+02  0.23505487461E+02  0.00000000000E+00 0. -1.
         -1    1    4    4    0  501 -0.29269439251E+02 -0.87253976016E+02 -0.23707018949E+02  0.95036725281E+02  0.00000000000E+00 0.  1.
          5    1    3    3  502    0 -0.37872531017E+02  0.53745756383E+02 -0.86610025208E+01  0.66483365585E+02  0.47000000000E+01 0. -1.
         11    1    6    6    0    0 -0.27430059850E+02 -0.16448328832E+01  0.47503867440E+02  0.54879240887E+02  0.00000000000E+00 0. -1.
        -12    1    6    6    0    0  0.25749122322E+02 -0.42692646898E+02  0.21575588304E+01  0.49903250992E+02  0.00000000000E+00 0.  1.
         -5    1    5    5    0  503  0.51286339274E+02  0.70394227467E+02  0.95032085013E+02  0.12899156189E+03  0.47000000000E+01 0.  1.
<mgrwt>
<rscale>  2 0.18249589E+03</rscale>
<asrwt>0</asrwt>
<pdfrwt beam="1">  1       21 0.39796997E-01 0.18361399E+03</pdfrwt>
<pdfrwt beam="2">  1       21 0.24633716E-01 0.18361399E+03</pdfrwt>
<totfact> 0.95138862E+04</totfact>
</mgrwt>
</event>
<event>
12    1  0.2768653E-001  0.1764109E+03  0.7546771E-02  0.1171441E+00
         21   -1    0    0  504  503  0.00000000000E+00  0.00000000000E+00  0.86342726456E+03  0.86342726456E+03  0.00000000000E+00 0.  1.
         21   -1    0    0  502  504 -0.00000000000E+00 -0.00000000000E+00 -0.37672960034E+02  0.37672960034E+02  0.00000000000E+00 0.  1.
          6    2    1    2  502    0 -0.63172652849E+01  0.32997638710E+02  0.31694865956E+03  0.36273577736E+03  0.17318209890E+03 0.  0.
         24    2    3    3    0    0  0.13994863482E+01  0.72789796569E+02  0.29693168156E+03  0.31728543643E+03  0.84860542119E+02 0.  0.
         -6    2    1    2    0  503  0.63172652849E+01 -0.32997638710E+02  0.50880564497E+03  0.53836444723E+03  0.17269725444E+03 0.  0.
        -24    2    5    5    0    0 -0.55764249135E+02 -0.49394601377E+02  0.34215843057E+03  0.35971294603E+03  0.82289329811E+02 0.  0.
          2    1    4    4  501    0  0.91204530902E+01  0.31677530313E+02  0.25813951760E+03  0.26023577605E+03  0.00000000000E+00 0. -1.
         -1    1    4    4    0  501 -0.77209667420E+01  0.41112266256E+02  0.38792163958E+02  0.57049660373E+02  0.00000000000E+00 0.  1.
          5    1    3    3  502    0 -0.77167516331E+01 -0.39792157859E+02  0.20016978000E+02  0.45450340935E+02  0.47000000000E+01 0. -1.
         13    1    6    6    0    0 -0.10664196400E+02  0.22188341863E+02  0.53138320293E+02  0.58563885484E+02  0.00000000000E+00 0. -1.
        -14    1    6    6    0    0 -0.45100052735E+02 -0.71582943240E+02  0.28902011028E+03  0.30114906054E+03  0.00000000000E+00 0.  1.
         -5    1    5    5    0  503  0.62081514420E+02  0.16396962667E+02  0.16664721439E+03  0.17865150121E+03  0.47000000000E+01 0.  1.
<mgrwt>
<rscale>  2 0.17629175E+03</rscale>
<asrwt>0</asrwt>
<pdfrwt beam="1">  1       21 0.13283495E+00 0.17641086E+03</pdfrwt>
<pdfrwt beam="2">  1       21 0.57958407E-02 0.17641086E+03</pdfrwt>
<totfact> 0.86285541E+04</totfact>
</mgrwt>
</event>
<event>
12    1  0.2768653E-001  0.2189414E+03  0.7546771E-02  0.1134742E+00
         21   -1    0    0  504  503  0.00000000000E+00  0.00000000000E+00  0.33918008369E+03  0.33918008369E+03  0.00000000000E+00 0.  1.
         21   -1    0    0  502  504 -0.00000000000E+00 -0.00000000000E+00 -0.14114315219E+03  0.14114315219E+03  0.00000000000E+00 0. -1.
          6    2    1    2  502    0  0.11254378224E+03 -0.75966534401E+02  0.94754786744E+02  0.23856614230E+03  0.17175074198E+03 0.  0.
         24    2    3    3    0    0  0.10748912318E+03 -0.66716303503E+02  0.13250271402E+03  0.19909321027E+03  0.77949729942E+02 0.  0.
         -6    2    1    2    0  503 -0.11254378224E+03  0.75966534401E+02  0.10328214476E+03  0.24175709357E+03  0.17129586567E+03 0.  0.
        -24    2    5    5    0    0 -0.12371521653E+03  0.34572878769E+02  0.12191479322E+03  0.19477304033E+03  0.81071460365E+02 0.  0.
          4    1    4    4  501    0  0.69436527171E+02 -0.30130165870E+02  0.12449830966E+03  0.14570204977E+03  0.00000000000E+00 0. -1.
         -3    1    4    4    0  501  0.38052596007E+02 -0.36586137633E+02  0.80044043613E+01  0.53391160494E+02  0.00000000000E+00 0.  1.
          5    1    3    3  502    0  0.50546590670E+01 -0.92502308977E+01 -0.37747927274E+02  0.39472932035E+02  0.47000000000E+01 0. -1.
         11    1    6    6    0    0 -0.41816736871E+02  0.43594173306E+02  0.19815598559E+02  0.63574754228E+02  0.00000000000E+00 0. -1.
        -12    1    6    6    0    0 -0.81898479657E+02 -0.90212945371E+01  0.10209919466E+03  0.13119828610E+03  0.00000000000E+00 0.  1.
         -5    1    5    5    0  503  0.11171434283E+02  0.41393655632E+02 -0.18632648466E+02  0.46984053245E+02  0.47000000000E+01 0.  1.
<mgrwt>
<rscale>  2 0.21885218E+03</rscale>
<asrwt>0</asrwt>
<pdfrwt beam="1">  1       21 0.52181551E-01 0.21894140E+03</pdfrwt>
<pdfrwt beam="2">  1       21 0.21714331E-01 0.21894140E+03</pdfrwt>
<totfact> 0.68150988E+04</totfact>
</mgrwt>
</event>
<event>
12    1  0.2768653E-001  0.2274517E+03  0.7546771E-02  0.1128737E+00
         21   -1    0    0  504  503  0.00000000000E+00  0.00000000000E+00  0.93187635924E+02  0.93187635924E+02  0.00000000000E+00 0. -1.
         21   -1    0    0  502  504 -0.00000000000E+00 -0.00000000000E+00 -0.57155840545E+03  0.57155840545E+03  0.00000000000E+00 0. -1.
          6    2    1    2  502    0  0.10784310508E+03 -0.10137657931E+03 -0.30271951266E+03  0.37864677451E+03  0.17270474909E+03 0.  0.
         24    2    3    3    0    0  0.57659423821E+02 -0.61739468802E+02 -0.29045446953E+03  0.31336259819E+03  0.81828771931E+02 0.  0.
         -6    2    1    2    0  503 -0.10784310508E+03  0.10137657931E+03 -0.17565125687E+03  0.28609926687E+03  0.17056400651E+03 0.  0.
        -24    2    5    5    0    0 -0.13873650446E+03  0.55871200673E+02 -0.11989517512E+03  0.20763926265E+03  0.79811037106E+02 0.  0.
          2    1    4    4  501    0  0.69281500397E+02 -0.65749015016E+02 -0.19517005028E+03  0.21728830571E+03  0.00000000000E+00 0. -1.
         -1    1    4    4    0  501 -0.11622076576E+02  0.40095462143E+01 -0.95284419247E+02  0.96074292483E+02  0.00000000000E+00 0.  1.
          5    1    3    3  502    0  0.50183681260E+02 -0.39637110505E+02 -0.12265043129E+02  0.65284176314E+02  0.47000000000E+01 0. -1.
         11    1    6    6    0    0 -0.11492547511E+03  0.28816660440E+02 -0.49209621436E+02  0.12829595313E+03  0.00000000000E+00 0. -1.
        -12    1    6    6    0    0 -0.23811029347E+02  0.27054540233E+02 -0.70685553688E+02  0.79343309523E+02  0.00000000000E+00 0.  1.
         -5    1    5    5    0  503  0.30893399375E+02  0.45505378634E+02 -0.55756081750E+02  0.78460004217E+02  0.47000000000E+01 0.  1.
<mgrwt>
<rscale>  2 0.22704532E+03</rscale>
<asrwt>0</asrwt>
<pdfrwt beam="1">  1       21 0.14336559E-01 0.22745170E+03</pdfrwt>
<pdfrwt beam="2">  1       21 0.87932064E-01 0.22745170E+03</pdfrwt>
<totfact> 0.46411919E+04</totfact>
</mgrwt>
</event>
<event>
12    1  0.2768653E-001  0.1903679E+03  0.7546771E-02  0.1158242E+00
         21   -1    0    0  504  503  0.00000000000E+00  0.00000000000E+00  0.22894700109E+03  0.22894700109E+03  0.00000000000E+00 0.  1.
         21   -1    0    0  502  504 -0.00000000000E+00 -0.00000000000E+00 -0.17614051800E+03  0.17614051800E+03  0.00000000000E+00 0.  1.
          6    2    1    2  502    0 -0.50058314130E+02  0.61254763077E+02 -0.38789790788E+02  0.19427965590E+03  0.17315298443E+03 0.  0.
         24    2    3    3    0    0 -0.74120802872E+02  0.65104453381E+02  0.20449235915E+02  0.13005212470E+03  0.82236856826E+02 0.  0.
         -6    2    1    2    0  503  0.50058314130E+02 -0.61254763077E+02  0.91596273885E+02  0.21080786319E+03  0.17260387301E+03 0.  0.
        -24    2    5    5    0    0  0.11948759302E+02 -0.10183688204E+03  0.44705863515E+02  0.13786920997E+03  0.80596410785E+02 0.  0.
          2    1    4    4  501    0  0.84854248795E+01 -0.10142085500E+02  0.12226842714E+02  0.18009997680E+02  0.00000000000E+00 0. -1.
         -1    1    4    4    0  501 -0.82606227752E+02  0.75246538881E+02  0.82223932010E+01  0.11204212702E+03  0.00000000000E+00 0.  1.
          5    1    3    3  502    0  0.24062488743E+02 -0.38496903045E+01 -0.59239026704E+02  0.64227531205E+02  0.47000000000E+01 0. -1.
         13    1    6    6    0    0 -0.29994171334E+02 -0.67299768367E+02  0.38642353879E+02  0.83199402940E+02  0.00000000000E+00 0. -1.
        -14    1    6    6    0    0  0.41942930635E+02 -0.34537113676E+02  0.60635096362E+01  0.54669807028E+02  0.00000000000E+00 0.  1.
         -5    1    5    5    0  503  0.38109554828E+02  0.40582118967E+02  0.46890410370E+02  0.72938653221E+02  0.47000000000E+01 0.  1.
<mgrwt>
<rscale>  2 0.19024295E+03</rscale>
<asrwt>0</asrwt>
<pdfrwt beam="1">  1       21 0.35222616E-01 0.19036790E+03</pdfrwt>
<pdfrwt beam="2">  1       21 0.27098541E-01 0.19036790E+03</pdfrwt>
<totfact> 0.10093999E+05</totfact>
</mgrwt>
</event>
<event>
12    1  0.2768653E-001  0.2092937E+03  0.7546771E-02  0.1142255E+00
         21   -1    0    0  504  503  0.00000000000E+00  0.00000000000E+00  0.14948891765E+03  0.14948891765E+03  0.00000000000E+00 0. -1.
         21   -1    0    0  502  504 -0.00000000000E+00 -0.00000000000E+00 -0.40462503689E+03  0.40462503689E+03  0.00000000000E+00 0. -1.
          6    2    1    2  502    0  0.75760338808E+02 -0.88483423786E+02  0.18381231173E+02  0.21009927726E+03  0.17388183178E+03 0.  0.
         24    2    3    3    0    0  0.90341795992E+02 -0.12255216350E+03  0.11042466084E+02  0.17203032151E+03  0.79321009704E+02 0.  0.
         -6    2    1    2    0  503 -0.75760338808E+02  0.88483423786E+02 -0.27351735042E+03  0.34401467728E+03  0.17310520496E+03 0.  0.
        -24    2    5    5    0    0 -0.11158142423E+03  0.56229056207E+02 -0.14201786336E+03  0.20388010094E+03  0.76065110613E+02 0.  0.
          2    1    4    4  501    0  0.54241795474E+02 -0.10271575334E+03 -0.23215294659E+02  0.11845525850E+03  0.00000000000E+00 0. -1.
         -1    1    4    4    0  501  0.36100000518E+02 -0.19836410158E+02  0.34257760743E+02  0.53575063010E+02  0.00000000000E+00 0.  1.
          5    1    3    3  502    0 -0.14581457184E+02  0.34068739710E+02  0.73387650894E+01  0.38068955752E+02  0.47000000000E+01 0. -1.
         11    1    6    6    0    0 -0.82828389001E+02  0.12148552771E+02 -0.12116092174E+03  0.14726879614E+03  0.00000000000E+00 0. -1.
        -12    1    6    6    0    0 -0.28753035227E+02  0.44080503436E+02 -0.20856941617E+02  0.56611304803E+02  0.00000000000E+00 0.  1.
         -5    1    5    5    0  503  0.35821085420E+02  0.32254367580E+02 -0.13149948706E+03  0.14013457634E+03  0.47000000000E+01 0.  1.
<mgrwt>
<rscale>  2 0.20913228E+03</rscale>
<asrwt>0</asrwt>
<pdfrwt beam="1">  1       21 0.22998295E-01 0.20929366E+03</pdfrwt>
<pdfrwt beam="2">  1       21 0.62250006E-01 0.20929366E+03</pdfrwt>
<totfact> 0.42132277E+04</totfact>
</mgrwt>
</event>
<event>
12    1  0.2768653E-001  0.1794533E+03  0.7546771E-02  0.1168500E+00
         21   -1    0    0  504  503  0.00000000000E+00  0.00000000000E+00  0.10558496802E+04  0.10558496802E+04  0.00000000000E+00 0. -1.
         21   -1    0    0  502  504 -0.00000000000E+00 -0.00000000000E+00 -0.44626064104E+02  0.44626064104E+02  0.00000000000E+00 0. -1.
          6    2    1    2  502    0 -0.46356876476E+02  0.14672367055E+02  0.19410257972E+03  0.26388128823E+03  0.17202698762E+03 0.  0.
         24    2    3    3    0    0 -0.70766920764E+01  0.63377816652E+02  0.66616189711E+02  0.12178968628E+03  0.79549882073E+02 0.  0.
         -6    2    1    2    0  503  0.46356876476E+02 -0.14672367055E+02  0.81712103633E+03  0.83659445603E+03  0.17274043388E+03 0.  0.
        -24    2    5    5    0    0  0.81062395506E+02 -0.17982463933E+02  0.40539289438E+03  0.42336621079E+03  0.89448692831E+02 0.  0.
          2    1    4    4  501    0 -0.10788567696E+02  0.49844694205E+01 -0.16382989326E+02  0.20239576764E+02  0.00000000000E+00 0. -1.
         -1    1    4    4    0  501  0.37118756200E+01  0.58393347231E+02  0.82999179037E+02  0.10155010951E+03  0.00000000000E+00 0.  1.
          5    1    3    3  502    0 -0.39280184400E+02 -0.48705449597E+02  0.12748639001E+03  0.14209160195E+03  0.47000000000E+01 0. -1.
         11    1    6    6    0    0  0.41823983887E+02  0.13782093587E+02  0.60673627078E+02  0.74969865644E+02  0.00000000000E+00 0. -1.
        -12    1    6    6    0    0  0.39238411618E+02 -0.31764557520E+02  0.34471926731E+03  0.34839634515E+03  0.00000000000E+00 0.  1.
         -5    1    5    5    0  503 -0.34705519029E+02  0.33100968781E+01  0.41172814195E+03  0.41322824524E+03  0.47000000000E+01 0.  1.
<mgrwt>
<rscale>  2 0.17928141E+03</rscale>
<asrwt>0</asrwt>
<pdfrwt beam="1">  1       21 0.16243839E+00 0.17945332E+03</pdfrwt>
<pdfrwt beam="2">  1       21 0.68655491E-02 0.17945332E+03</pdfrwt>
<totfact> 0.38101043E+04</totfact>
</mgrwt>
</event>
<event>
12    1  0.2768653E-001  0.2731541E+03  0.7546771E-02  0.1099597E+00
         21   -1    0    0  504  503  0.00000000000E+00  0.00000000000E+00  0.75592833064E+02  0.75592833064E+02  0.00000000000E+00 0.  1.
         21   -1    0    0  502  504 -0.00000000000E+00 -0.00000000000E+00 -0.18269259773E+04  0.18269259773E+04  0.00000000000E+00 0.  1.
          6    2    1    2  502    0 -0.43568080457E+02 -0.20553161973E+03 -0.15223907983E+04  0.15467019371E+04  0.17456149365E+03 0.  0.
         24    2    3    3    0    0 -0.77344562055E+02 -0.16818208502E+03 -0.90887096591E+03  0.93110100044E+03  0.81457015327E+02 0.  0.
         -6    2    1    2    0  503  0.43568080457E+02  0.20553161973E+03 -0.22894234590E+03  0.35581687325E+03  0.17334827717E+03 0.  0.
        -24    2    5    5    0    0 -0.34935632104E+02  0.63299142031E+02 -0.71024081324E+02  0.12920447534E+03  0.80137984428E+02 0.  0.
          2    1    4    4  501    0 -0.14936874625E+02 -0.10791560397E+03 -0.38592905215E+03  0.40101137278E+03  0.00000000000E+00 0. -1.
         -1    1    4    4    0  501 -0.62407687430E+02 -0.60266481050E+02 -0.52294191376E+03  0.53008962767E+03  0.00000000000E+00 0.  1.
          5    1    3    3  502    0  0.33776481598E+02 -0.37349534713E+02 -0.61351983238E+03  0.61560093662E+03  0.47000000000E+01 0. -1.
         13    1    6    6    0    0 -0.31351441373E+02 -0.59220316075E+01 -0.45006312608E+02  0.55168392301E+02  0.00000000000E+00 0. -1.
        -14    1    6    6    0    0 -0.35841907301E+01  0.69221173639E+02 -0.26017768716E+02  0.74036083041E+02  0.00000000000E+00 0.  1.
         -5    1    5    5    0  503  0.78503712561E+02  0.14223247770E+03 -0.15791826458E+03  0.22661239791E+03  0.47000000000E+01 0.  1.
<mgrwt>
<rscale>  2 0.27296042E+03</rscale>
<asrwt>0</asrwt>
<pdfrwt beam="1">  1       21 0.11629666E-01 0.27315406E+03</pdfrwt>
<pdfrwt beam="2">  1       21 0.28106555E+00 0.27315406E+03</pdfrwt>
<totfact> 0.25117113E+03</totfact>
</mgrwt>
</event>
<event>
12    1  0.2768653E-001  0.1836440E+03  0.7546771E-02  0.1164529E+00
         21   -1    0    0  504  503  0.00000000000E+00  0.00000000000E+00  0.33371778370E+03  0.33371778370E+03  0.00000000000E+00 0.  1.
         21   -1    0    0  502  504 -0.00000000000E+00 -0.00000000000E+00 -0.11111936053E+03  0.11111936053E+03  0.00000000000E+00 0.  1.
          6    2    1    2  502    0 -0.61559966382E+02  0.58721446959E+01  0.43035706673E+02  0.18861919193E+03  0.17291910239E+03 0.  0.
         24    2    3    3    0    0 -0.96871638800E+02 -0.15161893917E+01  0.68499077529E+02  0.14421226742E+03  0.81967317983E+02 0.  0.
         -6    2    1    2    0  503  0.61559966382E+02 -0.58721446959E+01  0.17956271650E+03  0.25621795229E+03  0.17199057642E+03 0.  0.
        -24    2    5    5    0    0  0.40662944745E+02 -0.44911846621E+02  0.37919709889E+02  0.10774029350E+03  0.80619584490E+02 0.  0.
          2    1    4    4  501    0 -0.11151805305E+03 -0.56633682281E+01  0.59405911896E+02  0.12648087707E+03  0.00000000000E+00 0. -1.
         -1    1    4    4    0  501  0.14646414247E+02  0.41471788364E+01  0.90931656326E+01  0.17731390352E+02  0.00000000000E+00 0.  1.
          5    1    3    3  502    0  0.35311672418E+02  0.73883340876E+01 -0.25463370856E+02  0.44406924515E+02  0.47000000000E+01 0. -1.
         13    1    6    6    0    0  0.32508635743E+02  0.87013707638E+01 -0.10278099926E+02  0.35187562989E+02  0.00000000000E+00 0. -1.
        -14    1    6    6    0    0  0.81543090021E+01 -0.53613217384E+02  0.48197809816E+02  0.72552730511E+02  0.00000000000E+00 0.  1.
         -5    1    5    5    0  503  0.20897021637E+02  0.39039701925E+02  0.14164300661E+03  0.14847765879E+03  0.47000000000E+01 0.  1.
<mgrwt>
<rscale>  2 0.18342512E+03</rscale>
<asrwt>0</asrwt>
<pdfrwt beam="1">  1       21 0.51341197E-01 0.18364402E+03</pdfrwt>
<pdfrwt beam="2">  1       21 0.17095286E-01 0.18364402E+03</pdfrwt>
<totfact> 0.11169207E+05</totfact>
</mgrwt>
</event>
<event>
12    1  0.2768653E-001  0.2040931E+03  0.7546771E-02  0.1146653E+00
         21   -1    0    0  504  503  0.00000000000E+00  0.00000000000E+00  0.13625102574E+04  0.13625102574E+04  0.00000000000E+00 0. -1.
         21   -1    0    0  502  504 -0.00000000000E+00 -0.00000000000E+00 -0.71712542502E+02  0.71712542502E+02  0.00000000000E+00 0.  1.
          6    2    1    2  502    0 -0.16355986728E+02  0.10612591550E+03  0.99656473614E+02  0.22572313407E+03  0.17172446617E+03 0.  0.
         24    2    3    3    0    0  0.37109246451E+01  0.16188274649E+02 -0.82562908370E+01  0.83741744780E+02  0.81662000237E+02 0.  0.
         -6    2    1    2    0  503  0.16355986728E+02 -0.10612591550E+03  0.11911412413E+04  0.12084996658E+04  0.17356196984E+03 0.  0.
        -24    2    5    5    0    0  0.15904825104E+01 -0.93920663594E+02  0.43098747061E+03  0.44809001744E+03  0.78808903195E+02 0.  0.
          4    1    4    4  501    0 -0.22082923751E+02  0.40978314807E+02  0.17852519675E+01  0.46583955718E+02  0.00000000000E+00 0. -1.
         -3    1    4    4    0  501  0.25793848396E+02 -0.24790040158E+02 -0.10041542804E+02  0.37157789062E+02  0.00000000000E+00 0.  1.
          5    1    3    3  502    0 -0.20066911373E+02  0.89937640854E+02  0.10791276445E+03  0.14198138929E+03  0.47000000000E+01 0. -1.
         11    1    6    6    0    0 -0.19140520757E+02 -0.45673671431E+02  0.33532700108E+03  0.33896407103E+03  0.00000000000E+00 0. -1.
        -12    1    6    6    0    0  0.20731003267E+02 -0.48246992163E+02  0.95660469536E+02  0.10912594642E+03  0.00000000000E+00 0.  1.
         -5    1    5    5    0  503  0.14765504217E+02 -0.12205251909E+02  0.76015377068E+03  0.76040964839E+03  0.47000000000E+01 0.  1.
<mgrwt>
<rscale>  2 0.20370188E+03</rscale>
<asrwt>0</asrwt>
<pdfrwt beam="1">  1       21 0.20961694E+00 0.20409308E+03</pdfrwt>
<pdfrwt beam="2">  1       21 0.11032700E-01 0.20409308E+03</pdfrwt>
<totfact> 0.78748701E+03</totfact>
</mgrwt>
</event>
<event>
12    1  0.2768653E-001  0.2566256E+03  0.7546771E-02  0.1109391E+00
         21   -1    0    0  504  503  0.00000000000E+00  0.00000000000E+00  0.81372809355E+03  0.81372809355E+03  0.00000000000E+00 0.  1.
         21   -1    0    0  502  504 -0.00000000000E+00 -0.00000000000E+00 -0.81162298679E+02  0.81162298679E+02  0.00000000000E+00 0. -1.
          6    2    1    2  502    0 -0.50567841873E+02 -0.18236379845E+03  0.32532974246E+03  0.41354031137E+03  0.17135485456E+03 0.  0.
         24    2    3    3    0    0 -0.54581750232E+02 -0.15411602868E+03  0.15286208105E+03  0.23866540697E+03  0.82845898544E+02 0.  0.
         -6    2    1    2    0  503  0.50567841873E+02  0.18236379845E+03  0.40723605241E+03  0.48135008085E+03  0.17332927145E+03 0.  0.
        -24    2    5    5    0    0 -0.17909470412E+02  0.72431428978E+02  0.10221749603E+03  0.14993994539E+03  0.80414611196E+02 0.  0.
          4    1    4    4  501    0 -0.66438170867E+02 -0.14388938327E+03  0.15634503680E+03  0.22262514614E+03  0.00000000000E+00 0. -1.
         -3    1    4    4    0  501  0.11856420635E+02 -0.10226645420E+02 -0.34829557414E+01  0.16040260830E+02  0.00000000000E+00 0.  1.
          5    1    3    3  502    0  0.40139083590E+01 -0.28247769765E+02  0.17246766141E+03  0.17487490440E+03  0.47000000000E+01 0. -1.
         11    1    6    6    0    0  0.20153989585E+01 -0.17450292352E+02  0.14489088014E+02  0.22770775296E+02  0.00000000000E+00 0. -1.
        -12    1    6    6    0    0 -0.19924869371E+02  0.89881721329E+02  0.87728408013E+02  0.12716917009E+03  0.00000000000E+00 0.  1.
         -5    1    5    5    0  503  0.68477312285E+02  0.10993236947E+03  0.30501855638E+03  0.33141013547E+03  0.47000000000E+01 0.  1.
<mgrwt>
<rscale>  2 0.25629260E+03</rscale>
<asrwt>0</asrwt>
<pdfrwt beam="1">  1       21 0.12518893E+00 0.25662560E+03</pdfrwt>
<pdfrwt beam="2">  1       21 0.12486508E-01 0.25662560E+03</pdfrwt>
<totfact> 0.25068600E+04</totfact>
</mgrwt>
</event>
<event>
12    1  0.2768653E-001  0.2289686E+03  0.7546771E-02  0.1127427E+00
         21   -1    0    0  504  503  0.00000000000E+00  0.00000000000E+00  0.74502497328E+03  0.74502497328E+03  0.00000000000E+00 0. -1.
         21   -1    0    0  502  504 -0.00000000000E+00 -0.00000000000E+00 -0.32074933812E+03  0.32074933812E+03  0.00000000000E+00 0. -1.
          6    2    1    2  502    0 -0.12831460361E+03 -0.77931254415E+02 -0.25874193800E+03  0.34550541934E+03  0.17288344744E+03 0.  0.
         24    2    3    3    0    0 -0.15851847036E+03 -0.79426115016E+02 -0.24343743571E+03  0.31128808506E+03  0.78751975223E+02 0.  0.
         -6    2    1    2    0  503  0.12831460361E+03  0.77931254415E+02  0.68301757316E+03  0.72026889207E+03  0.17244231999E+03 0.  0.
        -24    2    5    5    0    0  0.27900994391E+02  0.51338615639E+02  0.50131292115E+03  0.51091576476E+03  0.79411301593E+02 0.  0.
          2    1    4    4  501    0 -0.16488199020E+03 -0.77481897683E+02 -0.24411386526E+03  0.30459989227E+03  0.00000000000E+00 0. -1.
         -1    1    4    4    0  501  0.63635198403E+01 -0.19442173328E+01  0.67642954787E+00  0.66881927849E+01  0.00000000000E+00 0.  1.
          5    1    3    3  502    0  0.30203866753E+02  0.14948606013E+01 -0.15304502294E+02  0.34217334284E+02  0.47000000000E+01 0. -1.
         13    1    6    6    0    0 -0.11952148904E+02  0.56704626587E+02  0.31894910616E+03  0.32417094389E+03  0.00000000000E+00 0. -1.
        -14    1    6    6    0    0  0.39853143296E+02 -0.53660109480E+01  0.18236381499E+03  0.18674482087E+03  0.00000000000E+00 0.  1.
         -5    1    5    5    0  503  0.10041360922E+03  0.26592638775E+02  0.18170465200E+03  0.20935312731E+03  0.47000000000E+01 0.  1.
<mgrwt>
<rscale>  2 0.22888530E+03</rscale>
<asrwt>0</asrwt>
<pdfrwt beam="1">  1       21 0.11461923E+00 0.22896857E+03</pdfrwt>
<pdfrwt beam="2">  1       21 0.49346052E-01 0.22896857E+03</pdfrwt>
<totfact> 0.22440105E+03</totfact>
</mgrwt>
</event>
<event>
12    1  0.2768653E-001  0.2145975E+03  0.7546771E-02  0.1138004E+00
         21   -1    0    0  504  503  0.00000000000E+00  0.00000000000E+00  0.36152960401E+03  0.36152960401E+03  0.00000000000E+00 0. -1.
         21   -1    0    0  502  504 -0.00000000000E+00 -0.00000000000E+00 -0.23042156848E+03  0.23042156848E+03  0.00000000000E+00 0. -1.
          6    2    1    2  502    0  0.12333696351E+03 -0.31451819536E+02 -0.13244007882E+03  0.25217546487E+03  0.17277403475E+03 0.  0.
         24    2    3    3    0    0  0.14956593192E+03 -0.31894874795E+02 -0.92078436863E+02  0.20380907961E+03  0.98348621583E+02 0.  0.
         -6    2    1    2    0  503 -0.12333696351E+03  0.31451819536E+02  0.26354811435E+03  0.33977570762E+03  0.17259403057E+03 0.  0.
        -24    2    5    5    0    0 -0.12000873260E+03  0.14288498349E+02  0.27960671733E+03  0.31557600835E+03  0.82474502619E+02 0.  0.
          4    1    4    4  501    0  0.13287888079E+03 -0.55535088706E+02 -0.98098008498E+02  0.17425315581E+03  0.00000000000E+00 0. -1.
         -3    1    4    4    0  501  0.16687051123E+02  0.23640213910E+02  0.60195716349E+01  0.29555923799E+02  0.00000000000E+00 0.  1.
          5    1    3    3  502    0 -0.26228968408E+02  0.44305525896E+00 -0.40361641962E+02  0.48366385265E+02  0.47000000000E+01 0. -1.
         13    1    6    6    0    0 -0.17644041107E+02 -0.29603133547E+02  0.77363980859E+02  0.84692639803E+02  0.00000000000E+00 0. -1.
        -14    1    6    6    0    0 -0.10236469149E+03  0.43891631896E+02  0.20224273647E+03  0.23088336854E+03  0.00000000000E+00 0.  1.
         -5    1    5    5    0  503 -0.33282309105E+01  0.17163321188E+02 -0.16058602978E+02  0.24199699271E+02  0.47000000000E+01 0.  1.
<mgrwt>
<rscale>  2 0.21456128E+03</rscale>
<asrwt>0</asrwt>
<pdfrwt beam="1">  1       21 0.55619939E-01 0.21459751E+03</pdfrwt>
<pdfrwt beam="2">  1       21 0.35449472E-01 0.21459751E+03</pdfrwt>
<totfact> 0.23078658E+04</totfact>
</mgrwt>
</event>
<event>
12    1  0.2768653E-001  0.5585374E+03  0.7546771E-02  0.9995400E-01
         21   -1    0    0  504  503  0.00000000000E+00  0.00000000000E+00  0.13068947941E+04  0.13068947941E+04  0.00000000000E+00 0. -1.
         21   -1    0    0  502  504 -0.00000000000E+00 -0.00000000000E+00 -0.34163554118E+03  0.34163554118E+03  0.00000000000E+00 0.  1.
          6    2    1    2  502    0 -0.58072394799E+02  0.52780215125E+03  0.30130379518E+02  0.55929665384E+03  0.17308204218E+03 0.  0.
         24    2    3    3    0    0 -0.12117521005E+01  0.41821948627E+03  0.65012294159E+02  0.43092091189E+03  0.80976705742E+02 0.  0.
         -6    2    1    2    0  503  0.58072394799E+02 -0.52780215125E+03  0.93512887337E+03  0.10892336814E+04  0.17325267389E+03 0.  0.
        -24    2    5    5    0    0 -0.34129233860E+02 -0.29157671931E+03  0.54068306969E+03  0.62028466812E+03  0.78949982980E+02 0.  0.
          2    1    4    4  501    0  0.16718189761E+02  0.23075215070E+03  0.72496089097E+02  0.24244945011E+03  0.00000000000E+00 0. -1.
         -1    1    4    4    0  501 -0.17929941861E+02  0.18746733556E+03 -0.74837949379E+01  0.18847146178E+03  0.00000000000E+00 0.  1.
          5    1    3    3  502    0 -0.56860642699E+02  0.10958266498E+03 -0.34881914641E+02  0.12837574195E+03  0.47000000000E+01 0. -1.
         11    1    6    6    0    0  0.16365085204E+02 -0.14410279832E+02  0.30661376321E+02  0.37624356160E+02  0.00000000000E+00 0. -1.
        -12    1    6    6    0    0 -0.50494319064E+02 -0.27716643948E+03  0.51002169336E+03  0.58266031196E+03  0.00000000000E+00 0.  1.
         -5    1    5    5    0  503  0.92201628659E+02 -0.23622543194E+03  0.39444580368E+03  0.46894901329E+03  0.47000000000E+01 0.  1.
<mgrwt>
<rscale>  2 0.55852415E+03</rscale>
<asrwt>0</asrwt>
<pdfrwt beam="1">  1       21 0.20106074E+00 0.55853738E+03</pdfrwt>
<pdfrwt beam="2">  1       21 0.52559315E-01 0.55853738E+03</pdfrwt>
<totfact> 0.35351521E+02</totfact>
</mgrwt>
</event>
<event>
12    1  0.2768653E-001  0.2889767E+03  0.7546771E-02  0.1091018E+00
         21   -1    0    0  504  503  0.00000000000E+00  0.00000000000E+00  0.15394933274E+03  0.15394933274E+03  0.00000000000E+00 0. -1.
         21   -1    0    0  502  504 -0.00000000000E+00 -0.00000000000E+00 -0.64646107162E+03  0.64646107162E+03  0.00000000000E+00 0.  1.
          6    2    1    2  502    0  0.19611180216E+03  0.12009388870E+03 -0.40862452549E+03  0.50048129334E+03  0.17500040314E+03 0.  0.
         24    2    3    3    0    0  0.12877514299E+03  0.14570798463E+03 -0.34447664274E+03  0.40390309477E+03  0.81606974764E+02 0.  0.
         -6    2    1    2    0  503 -0.19611180216E+03 -0.12009388870E+03 -0.83887213384E+02  0.29992911102E+03  0.17331481766E+03 0.  0.
        -24    2    5    5    0    0 -0.14646964995E+03 -0.11886107987E+03 -0.32913970453E+01  0.20514705205E+03  0.80580177479E+02 0.  0.
          2    1    4    4  501    0 -0.11236436274E+02  0.13812808819E+02 -0.39587904438E+02  0.43407987346E+02  0.00000000000E+00 0. -1.
         -1    1    4    4    0  501  0.14001157926E+03  0.13189517581E+03 -0.30488873830E+03  0.36049510742E+03  0.00000000000E+00 0.  1.
          5    1    3    3  502    0  0.67336659170E+02 -0.25614095929E+02 -0.64147882750E+02  0.96578198574E+02  0.47000000000E+01 0. -1.
         11    1    6    6    0    0 -0.14459319781E+03 -0.78154354630E+02 -0.19425909597E+01  0.16437478413E+03  0.00000000000E+00 0. -1.
        -12    1    6    6    0    0 -0.18764521453E+01 -0.40706725244E+02 -0.13488060855E+01  0.40772267911E+02  0.00000000000E+00 0.  1.
         -5    1    5    5    0  503 -0.49642152204E+02 -0.12328088277E+01 -0.80595816338E+02  0.94782058979E+02  0.47000000000E+01 0.  1.
<mgrwt>
<rscale>  2 0.28872193E+03</rscale>
<asrwt>0</asrwt>
<pdfrwt beam="1">  1       21 0.23684513E-01 0.28897668E+03</pdfrwt>
<pdfrwt beam="2">  1       21 0.99455549E-01 0.28897668E+03</pdfrwt>
<totfact> 0.13227756E+04</totfact>
</mgrwt>
</event>
<event>
12    1  0.2768653E-001  0.2337418E+03  0.7546771E-02  0.1124310E+00
         21   -1    0    0  504  503  0.00000000000E+00  0.00000000000E+00  0.24091779537E+03  0.24091779537E+03  0.00000000000E+00 0.  1.
         21   -1    0    0  502  504 -0.00000000000E+00 -0.00000000000E+00 -0.54880313117E+03  0.54880313117E+03  0.00000000000E+00 0.  1.
          6    2    1    2  502    0 -0.30602933761E+01 -0.15413630356E+03 -0.45691841347E+03  0.51250964992E+03  0.17356364604E+03 0.  0.
         24    2    3    3    0    0  0.57954173839E+02 -0.66817028893E+02 -0.31084194576E+03  0.33165654557E+03  0.74499311107E+02 0.  0.
         -6    2    1    2    0  503  0.30602933761E+01  0.15413630356E+03  0.14903307767E+03  0.27721127662E+03  0.17569253875E+03 0.  0.
        -24    2    5    5    0    0  0.36743630708E+02  0.65226139042E+02  0.14483071114E+03  0.18192573494E+03  0.80724807404E+02 0.  0.
          4    1    4    4  501    0  0.39831206131E+02  0.61663074901E+01 -0.10086680415E+03  0.10862163923E+03  0.00000000000E+00 0. -1.
         -3    1    4    4    0  501  0.18122967708E+02 -0.72983336383E+02 -0.20997514161E+03  0.22303490633E+03  0.00000000000E+00 0.  1.
          5    1    3    3  502    0 -0.61014467215E+02 -0.87319274668E+02 -0.14607646770E+03  0.18085310435E+03  0.47000000000E+01 0. -1.
         13    1    6    6    0    0  0.32615041074E+02  0.68428292917E+00  0.13059799673E+02  0.35139258883E+02  0.00000000000E+00 0. -1.
        -14    1    6    6    0    0  0.41285896343E+01  0.64541856113E+02  0.13177091147E+03  0.14678647605E+03  0.00000000000E+00 0.  1.
         -5    1    5    5    0  503 -0.33683337332E+02  0.88910164518E+02  0.42023665242E+01  0.95285541678E+02  0.47000000000E+01 0.  1.
<mgrwt>
<rscale>  2 0.23334180E+03</rscale>
<asrwt>0</asrwt>
<pdfrwt beam="1">  1       21 0.37064276E-01 0.23374181E+03</pdfrwt>
<pdfrwt beam="2">  1       21 0.84431250E-01 0.23374181E+03</pdfrwt>
<totfact> 0.83086568E+03</totfact>
</mgrwt>
</event>
<event>
12    1  0.2768653E-001  0.2135794E+03  0.7546771E-02  0.1138874E+00
         21   -1    0    0  504  503  0.00000000000E+00  0.00000000000E+00  0.10864868684E+03  0.10864868684E+03  0.00000000000E+00 0. -1.
         21   -1    0    0  502  504 -0.00000000000E+00 -0.00000000000E+00 -0.47807537044E+03  0.47807537044E+03  0.00000000000E+00 0. -1.
          6    2    1    2  502    0  0.10678585359E+02  0.12344195029E+03 -0.28786363829E+03  0.35810060042E+03  0.17325881938E+03 0.  0.
         24    2    3    3    0    0  0.55898784353E+02  0.23966915630E+02 -0.16468520694E+03  0.19337305303E+03  0.81073011026E+02 0.  0.
         -6    2    1    2    0  503 -0.10678585359E+02 -0.12344195029E+03 -0.81563045305E+02  0.22862345686E+03  0.17396610990E+03 0.  0.
        -24    2    5    5    0    0 -0.10342623897E+02  0.37538342443E+01 -0.47811784282E+00  0.77707135894E+02  0.76922748466E+02 0.  0.
          2    1    4    4  501    0  0.65005390581E+02  0.34664282292E+02 -0.85102991592E+02  0.11256035025E+03  0.00000000000E+00 0. -1.
         -1    1    4    4    0  501 -0.91066062279E+01 -0.10697366661E+02 -0.79582215348E+02  0.80812702778E+02  0.00000000000E+00 0.  1.
          5    1    3    3  502    0 -0.45220198994E+02  0.99475034661E+02 -0.12317843135E+03  0.16472754739E+03  0.47000000000E+01 0. -1.
         11    1    6    6    0    0 -0.62509173100E+01 -0.35607918817E+02  0.84764298075E+01  0.37132838728E+02  0.00000000000E+00 0. -1.
        -12    1    6    6    0    0 -0.40917065867E+01  0.39361753062E+02 -0.89545476503E+01  0.40574297166E+02  0.00000000000E+00 0.  1.
         -5    1    5    5    0  503 -0.33596146241E+00 -0.12719578454E+03 -0.81084927462E+02  0.15091632097E+03  0.47000000000E+01 0.  1.
<mgrwt>
<rscale>  2 0.21343531E+03</rscale>
<asrwt>0</asrwt>
<pdfrwt beam="1">  1       21 0.16715182E-01 0.21357939E+03</pdfrwt>
<pdfrwt beam="2">  1       21 0.73550057E-01 0.21357939E+03</pdfrwt>
<totfact> 0.52904822E+04</totfact>
</mgrwt>
</event>
<event>
12    1  0.2768653E-001  0.1749124E+03  0.7546771E-02  0.1173184E+00
         21   -1    0    0  504  503  0.00000000000E+00  0.00000000000E+00  0.27216784087E+03  0.27216784087E+03  0.00000000000E+00 0. -1.
         21   -1    0    0  502  504 -0.00000000000E+00 -0.00000000000E+00 -0.11150472540E+03  0.11150472540E+03  0.00000000000E+00 0. -1.
          6    2    1    2  502    0  0.22431322372E+02 -0.70621652598E+01  0.77320501944E+02  0.18991925961E+03  0.17186572302E+03 0.  0.
         24    2    3    3    0    0  0.68290118435E+02 -0.33642505545E+02  0.78666523622E+02  0.13668914182E+03  0.81854389599E+02 0.  0.
         -6    2    1    2    0  503 -0.22431322372E+02  0.70621652598E+01  0.83342613527E+02  0.19375330667E+03  0.17332430359E+03 0.  0.
        -24    2    5    5    0    0 -0.13791525238E+02 -0.61049619808E+02  0.45932875702E+02  0.11542425814E+03  0.85414682864E+02 0.  0.
          2    1    4    4  501    0  0.65972475106E+02 -0.50117834250E+02  0.34962169728E+02  0.89925069327E+02  0.00000000000E+00 0. -1.
         -1    1    4    4    0  501  0.23176433288E+01  0.16475328704E+02  0.43704353894E+02  0.46764072489E+02  0.00000000000E+00 0.  1.
          5    1    3    3  502    0 -0.45858796062E+02  0.26580340286E+02 -0.13460216780E+01  0.53230117794E+02  0.47000000000E+01 0. -1.
         13    1    6    6    0    0 -0.41172511598E+02 -0.36024554747E+02  0.54641446766E+02  0.77321613800E+02  0.00000000000E+00 0. -1.
        -14    1    6    6    0    0  0.27380986360E+02 -0.25025065061E+02 -0.87085710632E+01  0.38102644335E+02  0.00000000000E+00 0.  1.
         -5    1    5    5    0  503 -0.86397971349E+01  0.68111785068E+02  0.37409737824E+02  0.78329048531E+02  0.47000000000E+01 0.  1.
<mgrwt>
<rscale>  2 0.17454998E+03</rscale>
<asrwt>0</asrwt>
<pdfrwt beam="1">  1       21 0.41871975E-01 0.17491241E+03</pdfrwt>
<pdfrwt beam="2">  1       21 0.17154573E-01 0.17491241E+03</pdfrwt>
<totfact> 0.16937623E+05</totfact>
</mgrwt>
</event>
<event>
12    1  0.2768653E-001  0.1835151E+03  0.7546771E-02  0.1164785E+00
         21   -1    0    0  504  503  0.00000000000E+00  0.00000000000E+00  0.44109781978E+03  0.44109781978E+03  0.00000000000E+00 0.  1.
         21   -1    0    0  502  504 -0.00000000000E+00 -0.00000000000E+00 -0.16599864526E+03  0.16599864526E+03  0.00000000000E+00 0. -1.
          6    2    1    2  502    0 -0.39895790306E+02  0.42605714104E+02 -0.86017611729E+02  0.20267419219E+03  0.17398528010E+03 0.  0.
         24    2    3    3    0    0 -0.87369329904E+02  0.20599481404E+02 -0.21071756394E+02  0.11913937690E+03  0.75448219122E+02 0.  0.
         -6    2    1    2    0  503  0.39895790306E+02 -0.42605714104E+02  0.36111678625E+03  0.40442227285E+03  0.17246773758E+03 0.  0.
        -24    2    5    5    0    0  0.20749998576E+02  0.32000830813E+02  0.13003957259E+03  0.16080070861E+03  0.86556119590E+02 0.  0.
          4    1    4    4  501    0 -0.85850137117E+02 -0.72134858919E+01 -0.27720323395E+02  0.90502468203E+02  0.00000000000E+00 0. -1.
         -3    1    4    4    0  501 -0.15191927865E+01  0.27812967296E+02  0.66485670015E+01  0.28636908697E+02  0.00000000000E+00 0.  1.
          5    1    3    3  502    0  0.47473539598E+02  0.22006232700E+02 -0.64945855335E+02  0.83534815286E+02  0.47000000000E+01 0. -1.
         11    1    6    6    0    0 -0.20370358047E+02  0.45921199492E+02  0.58403741966E+02  0.77037037361E+02  0.00000000000E+00 0. -1.
        -12    1    6    6    0    0  0.41120356623E+02 -0.13920368679E+02  0.71635830620E+02  0.83763671252E+02  0.00000000000E+00 0.  1.
         -5    1    5    5    0  503  0.19145791730E+02 -0.74606544917E+02  0.23107721367E+03  0.24362156424E+03  0.47000000000E+01 0.  1.
<mgrwt>
<rscale>  2 0.18315453E+03</rscale>
<asrwt>0</asrwt>
<pdfrwt beam="1">  1       21 0.67861203E-01 0.18351512E+03</pdfrwt>
<pdfrwt beam="2">  1       21 0.25538253E-01 0.18351512E+03</pdfrwt>
<totfact> 0.28993160E+04</totfact>
</mgrwt>
</event>
<event>
12    1  0.2768653E-001  0.2015470E+03  0.7546771E-02  0.1148734E+00
         21   -1    0    0  504  503  0.00000000000E+00  0.00000000000E+00  0.10239055768E+04  0.10239055768E+04  0.00000000000E+00 0. -1.
         21   -1    0    0  502  504 -0.00000000000E+00 -0.00000000000E+00 -0.19330836709E+03  0.19330836709E+03  0.00000000000E+00 0. -1.
          6    2    1    2  502    0  0.50157910600E+02 -0.83607562908E+02 -0.12746386547E+03  0.23847060909E+03  0.17639488039E+03 0.  0.
         24    2    3    3    0    0 -0.18443588102E+02 -0.95255580722E+01 -0.10423236931E+03  0.13475898255E+03  0.82853451156E+02 0.  0.
         -6    2    1    2    0  503 -0.50157910600E+02  0.83607562908E+02  0.95806107517E+03  0.97874333481E+03  0.17478973395E+03 0.  0.
        -24    2    5    5    0    0 -0.45173302461E+02  0.87017502556E+02  0.96199697403E+03  0.97013779551E+03  0.78207999829E+02 0.  0.
          4    1    4    4  501    0  0.29700534305E+02  0.10017099187E+02 -0.54294775691E+02  0.62692796089E+02  0.00000000000E+00 0. -1.
         -3    1    4    4    0  501 -0.48144122407E+02 -0.19542657260E+02 -0.49937593618E+02  0.72066186464E+02  0.00000000000E+00 0.  1.
          5    1    3    3  502    0  0.68601498701E+02 -0.74082004836E+02 -0.23231496159E+02  0.10371162653E+03  0.47000000000E+01 0. -1.
         13    1    6    6    0    0 -0.22823275160E+02 -0.91830206925E+01  0.27169669429E+03  0.27280821734E+03  0.00000000000E+00 0. -1.
        -14    1    6    6    0    0 -0.22350027302E+02  0.96200523248E+02  0.69030027974E+03  0.69732957818E+03  0.00000000000E+00 0.  1.
         -5    1    5    5    0  503 -0.49846081383E+01 -0.34099396474E+01 -0.39358988569E+01  0.86055392918E+01  0.47000000000E+01 0.  1.
<mgrwt>
<rscale>  2 0.20119525E+03</rscale>
<asrwt>0</asrwt>
<pdfrwt beam="1">  1       21 0.15752393E+00 0.20154700E+03</pdfrwt>
<pdfrwt beam="2">  1       21 0.29739749E-01 0.20154700E+03</pdfrwt>
<totfact> 0.28217639E+03</totfact>
</mgrwt>
</event>
<event>
12    1  0.2768653E-001  0.1827042E+03  0.7546771E-02  0.1166209E+00
         21   -1    0    0  504  503  0.00000000000E+00  0.00000000000E+00  0.39662006385E+03  0.39662006385E+03  0.00000000000E+00 0. -1.
         21   -1    0    0  502  504 -0.00000000000E+00 -0.00000000000E+00 -0.82285511436E+02  0.82285511436E+02  0.00000000000E+00 0. -1.
          6    2    1    2  502    0 -0.26037184946E+02  0.46527940377E+02  0.15479571706E+03  0.23946302562E+03  0.17475137304E+03 0.  0.
         24    2    3    3    0    0  0.27161739451E+02 -0.18824633412E+02  0.36086667458E+02  0.93809282391E+02  0.80036285404E+02 0.  0.
         -6    2    1    2    0  503  0.26037184946E+02 -0.46527940377E+02  0.15953883535E+03  0.23944254967E+03  0.17040337547E+03 0.  0.
        -24    2    5    5    0    0  0.55846415237E+02 -0.68506945693E+02  0.62950067255E+02  0.13588992050E+03  0.81800585716E+02 0.  0.
          2    1    4    4  501    0  0.45030323182E+02  0.57819924037E+01  0.43100955243E+02  0.62600749076E+02  0.00000000000E+00 0. -1.
         -1    1    4    4    0  501 -0.17868583730E+02 -0.24606625815E+02 -0.70142877848E+01  0.31208533315E+02  0.00000000000E+00 0.  1.
          5    1    3    3  502    0 -0.53198924397E+02  0.65352573788E+02  0.11870904960E+03  0.14565374323E+03  0.47000000000E+01 0. -1.
         13    1    6    6    0    0  0.27488354372E+02 -0.44617711979E+02 -0.10650394048E+02  0.53476917841E+02  0.00000000000E+00 0. -1.
        -14    1    6    6    0    0  0.28358060865E+02 -0.23889233714E+02  0.73600461304E+02  0.82413002661E+02  0.00000000000E+00 0.  1.
         -5    1    5    5    0  503 -0.29809230292E+02  0.21979005316E+02  0.96588768099E+02  0.10355262917E+03  0.47000000000E+01 0.  1.
<mgrwt>
<rscale>  2 0.18165667E+03</rscale>
<asrwt>0</asrwt>
<pdfrwt beam="1">  1       21 0.61018470E-01 0.18270421E+03</pdfrwt>
<pdfrwt beam="2">  1       21 0.12659310E-01 0.18270421E+03</pdfrwt>
<totfact> 0.13370166E+05</totfact>
</mgrwt>
</event>
<event>
12    1  0.2768653E-001  0.1898010E+03  0.7546771E-02  0.1158877E+00
         21   -1    0    0  504  503  0.00000000000E+00  0.00000000000E+00  0.14365541080E+03  0.14365541080E+03  0.00000000000E+00 0.  1.
         21   -1    0    0  502  504 -0.00000000000E+00 -0.00000000000E+00 -0.28377136177E+03  0.28377136177E+03  0.00000000000E+00 0.  1.
          6    2    1    2  502    0  0.78853651060E+02  0.16165555816E+02  0.41572983089E+01  0.18984647951E+03  0.17188711171E+03 0.  0.
         24    2    3    3    0    0 -0.45090618057E+01 -0.29752498020E+02 -0.26667891921E+02  0.89696132944E+02  0.80179031104E+02 0.  0.
         -6    2    1    2    0  503 -0.78853651060E+02 -0.16165555816E+02 -0.14427324928E+03  0.23758029306E+03  0.17073488722E+03 0.  0.
        -24    2    5    5    0    0 -0.76987507249E+02 -0.53470299778E+02 -0.15543896252E+03  0.19831339139E+03  0.79879790342E+02 0.  0.
          2    1    4    4  501    0 -0.11051722443E+02 -0.47268031270E+02 -0.43015791771E+02  0.64859584417E+02  0.00000000000E+00 0. -1.
         -1    1    4    4    0  501  0.65426606371E+01  0.17515533250E+02  0.16347899849E+02  0.24836548527E+02  0.00000000000E+00 0.  1.
          5    1    3    3  502    0  0.83362712866E+02  0.45918053836E+02  0.30825190230E+02  0.10015034657E+03  0.47000000000E+01 0. -1.
         11    1    6    6    0    0 -0.41984322607E+01 -0.28306577547E+02 -0.46455416942E+01  0.28990864483E+02  0.00000000000E+00 0. -1.
        -12    1    6    6    0    0 -0.72789074988E+02 -0.25163722231E+02 -0.15079342083E+03  0.16932252691E+03  0.00000000000E+00 0.  1.
         -5    1    5    5    0  503 -0.18661438114E+01  0.37304743962E+02  0.11165713236E+02  0.39266901671E+02  0.47000000000E+01 0.  1.
<mgrwt>
<rscale>  2 0.18953971E+03</rscale>
<asrwt>0</asrwt>
<pdfrwt beam="1">  1       21 0.22100833E-01 0.18980096E+03</pdfrwt>
<pdfrwt beam="2">  1       21 0.43657132E-01 0.18980096E+03</pdfrwt>
<totfact> 0.96601358E+04</totfact>
</mgrwt>
</event>
<event>
12    1  0.2768653E-001  0.2172982E+03  0.7546771E-02  0.1136184E+00
         21   -1    0    0  504  503  0.00000000000E+00  0.00000000000E+00  0.33740475702E+03  0.33740475702E+03  0.00000000000E+00 0.  1.
         21   -1    0    0  502  504 -0.00000000000E+00 -0.00000000000E+00 -0.18771983606E+03  0.18771983606E+03  0.00000000000E+00 0. -1.
          6    2    1    2  502    0 -0.97968330173E+02 -0.84579388592E+02 -0.59057917447E+02  0.22380731980E+03  0.17277271802E+03 0.  0.
         24    2    3    3    0    0 -0.26774978074E+02 -0.30445351295E+01 -0.16666033763E+02  0.10746477593E+03  0.10268764648E+03 0.  0.
         -6    2    1    2    0  503  0.97968330173E+02  0.84579388592E+02  0.20874283841E+03  0.30131727328E+03  0.17454815924E+03 0.  0.
        -24    2    5    5    0    0  0.28080535945E+02  0.22905976870E+02  0.23451154779E+02  0.93849175683E+02  0.83333731710E+02 0.  0.
          2    1    4    4  501    0 -0.95213847945E+01  0.82095950921E+01 -0.59032179996E+02  0.60356047709E+02  0.00000000000E+00 0. -1.
         -1    1    4    4    0  501 -0.17253593280E+02 -0.11254130222E+02  0.42366146232E+02  0.47108728222E+02  0.00000000000E+00 0.  1.
          5    1    3    3  502    0 -0.71193352098E+02 -0.81534853462E+02 -0.42391883684E+02  0.11634254387E+03  0.47000000000E+01 0. -1.
         13    1    6    6    0    0  0.54183757711E+02  0.59001400641E+01 -0.57433777787E+00  0.54507074003E+02  0.00000000000E+00 0. -1.
        -14    1    6    6    0    0 -0.26103221766E+02  0.17005836806E+02  0.24025492557E+02  0.39342101681E+02  0.00000000000E+00 0.  1.
         -5    1    5    5    0  503  0.69887794228E+02  0.61673411722E+02  0.18529168363E+03  0.20746809759E+03  0.47000000000E+01 0.  1.
<mgrwt>
<rscale>  2 0.21694148E+03</rscale>
<asrwt>0</asrwt>
<pdfrwt beam="1">  1       21 0.51908424E-01 0.21729824E+03</pdfrwt>
<pdfrwt beam="2">  1       21 0.28879975E-01 0.21729824E+03</pdfrwt>
<totfact> 0.39930390E+04</totfact>
</mgrwt>
</event>
<event>
12    1  0.2768653E-001  0.1939937E+03  0.7546771E-02  0.1155494E+00
         21   -1    0    0  504  503  0.00000000000E+00  0.00000000000E+00  0.23243217237E+04  0.23243217237E+04  0.00000000000E+00 0.  1.
         21   -1    0    0  502  504 -0.00000000000E+00 -0.00000000000E+00 -0.16791825061E+02  0.16791825061E+02  0.00000000000E+00 0. -1.
          6    2    1    2  502    0  0.42575484368E+02  0.68138867185E+02  0.88734648035E+03  0.90774182351E+03  0.17365444098E+03 0.  0.
         24    2    3    3    0    0  0.87553085563E+02  0.14635954529E+02  0.51738678338E+03  0.53120787597E+03  0.81320169183E+02 0.  0.
         -6    2    1    2    0  503 -0.42575484368E+02 -0.68138867185E+02  0.14201834183E+04  0.14333717252E+04  0.17657288599E+03 0.  0.
        -24    2    5    5    0    0 -0.22270174663E+02 -0.12929004663E+02  0.30368877172E+03  0.31531858683E+03  0.80844426444E+02 0.  0.
          2    1    4    4  501    0  0.59031571953E+02 -0.16384455888E+02  0.15970285987E+03  0.17105022751E+03  0.00000000000E+00 0. -1.
         -1    1    4    4    0  501  0.28521513610E+02  0.31020410417E+02  0.35768392352E+03  0.36015764846E+03  0.00000000000E+00 0.  1.
          5    1    3    3  502    0 -0.44977601195E+02  0.53502912656E+02  0.36995969696E+03  0.37653394754E+03  0.47000000000E+01 0. -1.
         13    1    6    6    0    0  0.29924148543E+02 -0.10311557358E+02  0.92717905031E+02  0.97971387632E+02  0.00000000000E+00 0. -1.
        -14    1    6    6    0    0 -0.52194323206E+02 -0.26174473053E+01  0.21097086669E+03  0.21734719919E+03  0.00000000000E+00 0.  1.
         -5    1    5    5    0  503 -0.20305309705E+02 -0.55209862522E+02  0.11164946466E+04  0.11180531384E+04  0.47000000000E+01 0.  1.
<mgrwt>
<rscale>  2 0.19332715E+03</rscale>
<asrwt>0</asrwt>
<pdfrwt beam="1">  1       21 0.35758770E+00 0.19399371E+03</pdfrwt>
<pdfrwt beam="2">  1       21 0.25833595E-02 0.19399371E+03</pdfrwt>
<totfact> 0.12747193E+04</totfact>
</mgrwt>
</event>
<event>
12    1  0.2768653E-001  0.2205584E+03  0.7546771E-02  0.1134612E+00
         21   -1    0    0  504  503  0.00000000000E+00  0.00000000000E+00  0.40421545530E+02  0.40421545530E+02  0.00000000000E+00 0.  1.
         21   -1    0    0  502  504 -0.00000000000E+00 -0.00000000000E+00 -0.12242054283E+04  0.12242054283E+04  0.00000000000E+00 0.  1.
          6    2    1    2  502    0 -0.79378628825E+02 -0.99265463028E+02 -0.71632879696E+03  0.74775147635E+03  0.17277362695E+03 0.  0.
         24    2    3    3    0    0 -0.11603854294E+03 -0.87319435225E+02 -0.47119247008E+03  0.49955686392E+03  0.80281313000E+02 0.  0.
         -6    2    1    2    0  503  0.79378628825E+02  0.99265463028E+02 -0.46745508583E+03  0.51687549749E+03  0.18025377605E+03 0.  0.
        -24    2    5    5    0    0  0.13468740549E+02  0.59608042258E+02 -0.10377444733E+03  0.14511950062E+03  0.80969178506E+02 0.  0.
          2    1    4    4  501    0 -0.45127447262E+02 -0.54764790603E+02 -0.11672395911E+03  0.13660216476E+03  0.00000000000E+00 0. -1.
         -1    1    4    4    0  501 -0.70911095673E+02 -0.32554644622E+02 -0.35446851097E+03  0.36295469916E+03  0.00000000000E+00 0.  1.
          5    1    3    3  502    0  0.36659914110E+02 -0.11946027803E+02 -0.24513632688E+03  0.24819461243E+03  0.47000000000E+01 0. -1.
         11    1    6    6    0    0 -0.10694386037E+02  0.23461377578E+02 -0.97908242948E+02  0.10124638348E+03  0.00000000000E+00 0. -1.
        -12    1    6    6    0    0  0.24163126586E+02  0.36146664680E+02 -0.58662043838E+01  0.43873117142E+02  0.00000000000E+00 0.  1.
         -5    1    5    5    0  503  0.65909888276E+02  0.39657420770E+02 -0.36368063849E+03  0.37175599687E+03  0.47000000000E+01 0.  1.
<mgrwt>
<rscale>  2 0.21902504E+03</rscale>
<asrwt>0</asrwt>
<pdfrwt beam="1">  1       21 0.62186988E-02 0.22055843E+03</pdfrwt>
<pdfrwt beam="2">  1       21 0.18833931E+00 0.22055843E+03</pdfrwt>
<totfact> 0.29113748E+04</totfact>
</mgrwt>
</event>
<event>
12    1  0.2768653E-001  0.2001826E+03  0.7546771E-02  0.1149758E+00
         21   -1    0    0  504  503  0.00000000000E+00  0.00000000000E+00  0.55821161718E+03  0.55821161718E+03  0.00000000000E+00 0. -1.
         21   -1    0    0  502  504 -0.00000000000E+00 -0.00000000000E+00 -0.71623096105E+02  0.71623096105E+02  0.00000000000E+00 0. -1.
          6    2    1    2  502    0 -0.97314235054E+02 -0.17720315422E+02  0.23047296934E+03  0.30527178138E+03  0.17403735515E+03 0.  0.
         24    2    3    3    0    0 -0.90445726601E+02  0.10193410648E+02  0.24481134687E+03  0.27280592883E+03  0.78779084581E+02 0.  0.
         -6    2    1    2    0  503  0.97314235054E+02  0.17720315422E+02  0.25611555173E+03  0.32456293191E+03  0.17309491906E+03 0.  0.
        -24    2    5    5    0    0  0.23579157410E+02  0.92615138896E+01  0.23146181033E+03  0.24621556460E+03  0.80036131261E+02 0.  0.
          2    1    4    4  501    0 -0.80398011155E+02  0.18974913807E+02  0.11117759744E+03  0.13850756558E+03  0.00000000000E+00 0. -1.
         -1    1    4    4    0  501 -0.10047715447E+02 -0.87815031587E+01  0.13363374944E+03  0.13429836325E+03  0.00000000000E+00 0.  1.
          5    1    3    3  502    0 -0.68685084522E+01 -0.27913726070E+02 -0.14338377530E+02  0.32465852548E+02  0.47000000000E+01 0. -1.
         11    1    6    6    0    0  0.36679022579E+02 -0.26869491174E+02  0.12121964603E+03  0.12946630000E+03  0.00000000000E+00 0. -1.
        -12    1    6    6    0    0 -0.13099865169E+02  0.36131005064E+02  0.11024216430E+03  0.11674926460E+03  0.00000000000E+00 0.  1.
         -5    1    5    5    0  503  0.73735077644E+02  0.84588015326E+01  0.24653741406E+02  0.78347367306E+02  0.47000000000E+01 0.  1.
<mgrwt>
<rscale>  2 0.19997758E+03</rscale>
<asrwt>0</asrwt>
<pdfrwt beam="1">  1       21 0.85878707E-01 0.20018259E+03</pdfrwt>
<pdfrwt beam="2">  1       21 0.11018938E-01 0.20018259E+03</pdfrwt>
<totfact> 0.79694028E+04</totfact>
</mgrwt>
</event>
<event>
12    1  0.2768653E-001  0.2264948E+03  0.7546771E-02  0.1129231E+00
         21   -1    0    0  504  503  0.00000000000E+00  0.00000000000E+00  0.47912164938E+03  0.47912164938E+03  0.00000000000E+00 0.  1.
         21   -1    0    0  502  504 -0.00000000000E+00 -0.00000000000E+00 -0.11881980657E+03  0.11881980657E+03  0.00000000000E+00 0.  1.
          6    2    1    2  502    0  0.85889172368E+02 -0.11804046428E+03  0.85299005088E+02  0.24202444676E+03  0.17317451147E+03 0.  0.
         24    2    3    3    0    0  0.62933993557E+02 -0.83120206044E+02  0.12702859087E+03  0.18278077200E+03  0.80018069927E+02 0.  0.
         -6    2    1    2    0  503 -0.85889172368E+02  0.11804046428E+03  0.27500283772E+03  0.35591700919E+03  0.17245247327E+03 0.  0.
        -24    2    5    5    0    0  0.37072121653E+02  0.64717439947E+02  0.11590294215E+03  0.14783603572E+03  0.53472537058E+02 0.  0.
          4    1    4    4  501    0  0.17789958081E+02 -0.81801404744E+02  0.98905052423E+02  0.12957685681E+03  0.00000000000E+00 0. -1.
         -3    1    4    4    0  501  0.45144035477E+02 -0.13188012999E+01  0.28123538447E+02  0.53203915183E+02  0.00000000000E+00 0.  1.
          5    1    3    3  502    0  0.22955178810E+02 -0.34920258241E+02 -0.41729585783E+02  0.59243674763E+02  0.47000000000E+01 0. -1.
         13    1    6    6    0    0  0.38919720309E+02  0.14520139290E+02  0.52561590346E+02  0.66994774823E+02  0.00000000000E+00 0. -1.
        -14    1    6    6    0    0 -0.18475986561E+01  0.50197300656E+02  0.63341351808E+02  0.80841260893E+02  0.00000000000E+00 0.  1.
         -5    1    5    5    0  503 -0.12296129402E+03  0.53323024338E+02  0.15909989557E+03  0.20808097347E+03  0.47000000000E+01 0.  1.
<mgrwt>
<rscale>  2 0.22635682E+03</rscale>
<asrwt>0</asrwt>
<pdfrwt beam="1">  1       21 0.73711022E-01 0.22649484E+03</pdfrwt>
<pdfrwt beam="2">  1       21 0.18279971E-01 0.22649484E+03</pdfrwt>
<totfact> 0.44350275E+04</totfact>
</mgrwt>
</event>
<event>
12    1  0.2768653E-001  0.1792759E+03  0.7546771E-02  0.1169430E+00
         21   -1    0    0  504  503  0.00000000000E+00  0.00000000000E+00  0.14322085349E+04  0.14322085349E+04  0.00000000000E+00 0. -1.
         21   -1    0    0  502  504 -0.00000000000E+00 -0.00000000000E+00 -0.24402894275E+02  0.24402894275E+02  0.00000000000E+00 0. -1.
          6    2    1    2  502    0  0.25328233491E+02 -0.13854215761E+02  0.46738902199E+03  0.49925921805E+03  0.17312946088E+03 0.  0.
         24    2    3    3    0    0 -0.79102162368E+00 -0.46164232112E+02  0.13224576423E+03  0.16151782902E+03  0.80419555407E+02 0.  0.
         -6    2    1    2    0  503 -0.25328233491E+02  0.13854215761E+02  0.94041661863E+03  0.95735221112E+03  0.17693609251E+03 0.  0.
        -24    2    5    5    0    0 -0.72538660328E+02 -0.30093346985E+02  0.53460840220E+03  0.54642324986E+03  0.81269659266E+02 0.  0.
          4    1    4    4  501    0  0.14445744614E+02 -0.57398923501E+02  0.51107323421E+02  0.78200220357E+02  0.00000000000E+00 0. -1.
         -3    1    4    4    0  501 -0.15236766238E+02  0.11234691390E+02  0.81138440807E+02  0.83317608659E+02  0.00000000000E+00 0.  1.
          5    1    3    3  502    0  0.26119255115E+02  0.32310016351E+02  0.33514325776E+03  0.33774138904E+03  0.47000000000E+01 0. -1.
         11    1    6    6    0    0 -0.15563239829E+02 -0.35637646291E+02  0.37211346204E+03  0.37413992690E+03  0.00000000000E+00 0. -1.
        -12    1    6    6    0    0 -0.56975420499E+02  0.55442993058E+01  0.16249494016E+03  0.17228332297E+03  0.00000000000E+00 0.  1.
         -5    1    5    5    0  503  0.47210426837E+02  0.43947562745E+02  0.40580821644E+03  0.41092896126E+03  0.47000000000E+01 0.  1.
<mgrwt>
<rscale>  2 0.17832944E+03</rscale>
<asrwt>0</asrwt>
<pdfrwt beam="1">  1       21 0.22033971E+00 0.17927588E+03</pdfrwt>
<pdfrwt beam="2">  1       21 0.37542925E-02 0.17927588E+03</pdfrwt>
<totfact> 0.44047593E+04</totfact>
</mgrwt>
</event>
<event>
12    1  0.2768653E-001  0.2984271E+03  0.7546771E-02  0.1086246E+00
         21   -1    0    0  504  503  0.00000000000E+00  0.00000000000E+00  0.36019905700E+03  0.36019905700E+03  0.00000000000E+00 0.  1.
         21   -1    0    0  502  504 -0.00000000000E+00 -0.00000000000E+00 -0.38837786020E+03  0.38837786020E+03  0.00000000000E+00 0. -1.
          6    2    1    2  502    0 -0.54691883772E+02  0.23496954687E+03 -0.24086998171E+03  0.38350628796E+03  0.17566113602E+03 0.  0.
         24    2    3    3    0    0  0.25377589480E+02  0.10305842015E+03 -0.60766913010E+02  0.14629146706E+03  0.80271511792E+02 0.  0.
         -6    2    1    2    0  503  0.54691883772E+02 -0.23496954687E+03  0.21269117851E+03  0.36507062925E+03  0.17273429542E+03 0.  0.
        -24    2    5    5    0    0  0.93835414323E+02 -0.17137560861E+03  0.11207517619E+03  0.23968293092E+03  0.81929103807E+02 0.  0.
          2    1    4    4  501    0  0.26192598067E+02 -0.16837160458E+01 -0.23147008754E+02  0.34995301219E+02  0.00000000000E+00 0. -1.
         -1    1    4    4    0  501 -0.81500858650E+00  0.10474213620E+03 -0.37619904257E+02  0.11129616584E+03  0.00000000000E+00 0.  1.
          5    1    3    3  502    0 -0.80069473252E+02  0.13191112671E+03 -0.18010306870E+03  0.23721482090E+03  0.47000000000E+01 0. -1.
         13    1    6    6    0    0 -0.84604584034E+01 -0.18241061728E+01 -0.46450701739E+01  0.98225962273E+01  0.00000000000E+00 0. -1.
        -14    1    6    6    0    0  0.10229587273E+03 -0.16955150244E+03  0.11672024636E+03  0.22986033469E+03  0.00000000000E+00 0.  1.
         -5    1    5    5    0  503 -0.39143530551E+02 -0.63593938257E+02  0.10061600233E+03  0.12538769832E+03  0.47000000000E+01 0.  1.
<mgrwt>
<rscale>  2 0.29799782E+03</rscale>
<asrwt>0</asrwt>
<pdfrwt beam="1">  1       21 0.55415240E-01 0.29842708E+03</pdfrwt>
<pdfrwt beam="2">  1       21 0.59750440E-01 0.29842708E+03</pdfrwt>
<totfact> 0.75388075E+03</totfact>
</mgrwt>
</event>
<event>
12    1  0.2768653E-001  0.2022971E+03  0.7546771E-02  0.1148002E+00
         21   -1    0    0  504  503  0.00000000000E+00  0.00000000000E+00  0.35542501094E+03  0.35542501094E+03  0.00000000000E+00 0.  1.
         21   -1    0    0  502  504 -0.00000000000E+00 -0.00000000000E+00 -0.22402731845E+03  0.22402731845E+03  0.00000000000E+00 0.  1.
          6    2    1    2  502    0 -0.53591192237E+02  0.89692042325E+02 -0.13683550667E+03  0.24348629383E+03  0.17217706309E+03 0.  0.
         24    2    3    3    0    0 -0.32491777039E+02 -0.22105496191E+02 -0.60323684845E+02  0.10630020190E+03  0.78207527985E+02 0.  0.
         -6    2    1    2    0  503  0.53591192237E+02 -0.89692042325E+02  0.26823319916E+03  0.33596603557E+03  0.17322658451E+03 0.  0.
        -24    2    5    5    0    0  0.33427947882E+02  0.80007632358E+01  0.83359323415E+02  0.12584492617E+03  0.87787976001E+02 0.  0.
          2    1    4    4  501    0  0.14872734997E+02 -0.34658313567E+02 -0.33469754581E+02  0.50424412910E+02  0.00000000000E+00 0. -1.
         -1    1    4    4    0  501 -0.47364512036E+02  0.12552817377E+02 -0.26853930263E+02  0.55875788989E+02  0.00000000000E+00 0.  1.
          5    1    3    3  502    0 -0.21099415198E+02  0.11179753852E+03 -0.76511821829E+02  0.13718609193E+03  0.47000000000E+01 0. -1.
         11    1    6    6    0    0  0.16595740294E+02 -0.14086258691E+01  0.99385281935E+02  0.10077121160E+03  0.00000000000E+00 0. -1.
        -12    1    6    6    0    0  0.16832207589E+02  0.94093891049E+01 -0.16025958520E+02  0.25073714566E+02  0.00000000000E+00 0.  1.
         -5    1    5    5    0  503  0.20163244354E+02 -0.97692805560E+02  0.18487387575E+03  0.21012110940E+03  0.47000000000E+01 0.  1.
<mgrwt>
<rscale>  2 0.20207226E+03</rscale>
<asrwt>0</asrwt>
<pdfrwt beam="1">  1       21 0.54680771E-01 0.20229713E+03</pdfrwt>
<pdfrwt beam="2">  1       21 0.34465741E-01 0.20229713E+03</pdfrwt>
<totfact> 0.25478734E+04</totfact>
</mgrwt>
</event>
<event>
12    1  0.2768653E-001  0.2120474E+03  0.7546771E-02  0.1140224E+00
         21   -1    0    0  504  503  0.00000000000E+00  0.00000000000E+00  0.39725332792E+03  0.39725332792E+03  0.00000000000E+00 0. -1.
         21   -1    0    0  502  504 -0.00000000000E+00 -0.00000000000E+00 -0.11380322493E+03  0.11380322493E+03  0.00000000000E+00 0. -1.
          6    2    1    2  502    0  0.32376447246E+02 -0.11845369350E+03  0.16906705328E+03  0.27012592885E+03  0.17118655641E+03 0.  0.
         24    2    3    3    0    0 -0.27820398767E+02 -0.84442370984E+01  0.67808610357E+02  0.10887735357E+03  0.80068662753E+02 0.  0.
         -6    2    1    2    0  503 -0.32376447246E+02  0.11845369350E+03  0.11438304971E+03  0.24093062399E+03  0.17287154675E+03 0.  0.
        -24    2    5    5    0    0 -0.43521378995E+02  0.53689512435E+02  0.13339131101E+03  0.17235940080E+03  0.84485779975E+02 0.  0.
          2    1    4    4  501    0  0.27378922015E+02  0.53458344661E+01  0.17509988245E+02  0.32936044164E+02  0.00000000000E+00 0. -1.
         -1    1    4    4    0  501 -0.55199320782E+02 -0.13790071565E+02  0.50298622112E+02  0.75941309410E+02  0.00000000000E+00 0.  1.
          5    1    3    3  502    0  0.60196846013E+02 -0.11000945640E+03  0.10125844292E+03  0.16124857528E+03  0.47000000000E+01 0. -1.
         11    1    6    6    0    0 -0.21109890339E+02  0.64679296995E+02  0.47662784688E+02  0.83070933389E+02  0.00000000000E+00 0. -1.
        -12    1    6    6    0    0 -0.22411488656E+02 -0.10989784560E+02  0.85728526318E+02  0.89288467414E+02  0.00000000000E+00 0.  1.
         -5    1    5    5    0  503  0.11144931749E+02  0.64764181062E+02 -0.19008261291E+02  0.68571223189E+02  0.47000000000E+01 0.  1.
<mgrwt>
<rscale>  2 0.21170367E+03</rscale>
<asrwt>0</asrwt>
<pdfrwt beam="1">  1       21 0.61115896E-01 0.21204736E+03</pdfrwt>
<pdfrwt beam="2">  1       21 0.17508189E-01 0.21204736E+03</pdfrwt>
<totfact> 0.72966881E+04</totfact>
</mgrwt>
</event>
<event>
12    1  0.2768653E-001  0.1812176E+03  0.7546771E-02  0.1166679E+00
         21   -1    0    0  504  503  0.00000000000E+00  0.00000000000E+00  0.83104913396E+02  0.83104913396E+02  0.00000000000E+00 0. -1.
         21   -1    0    0  502  504 -0.00000000000E+00 -0.00000000000E+00 -0.74138484098E+03  0.74138484098E+03  0.00000000000E+00 0. -1.
          6    2    1    2  502    0 -0.24541556294E+01  0.50061521476E+02 -0.61113627968E+03  0.63743812497E+03  0.17414830464E+03 0.  0.
         24    2    3    3    0    0  0.17028715253E+02  0.51208268469E+02 -0.60963812032E+03  0.61730775568E+03  0.80609947059E+02 0.  0.
         -6    2    1    2    0  503  0.24541556294E+01 -0.50061521476E+02 -0.47143647902E+02  0.18705162941E+03  0.17393564820E+03 0.  0.
        -24    2    5    5    0    0  0.41406261691E+02 -0.19039939108E+02  0.30974757661E+02  0.94292907838E+02  0.76516135998E+02 0.  0.
          4    1    4    4  501    0  0.44988217831E+02  0.51140693059E+02 -0.39087352029E+03  0.39676368167E+03  0.00000000000E+00 0. -1.
         -3    1    4    4    0  501 -0.27959502578E+02  0.67575410284E-01 -0.21876460004E+03  0.22054407401E+03  0.00000000000E+00 0.  1.
          5    1    3    3  502    0 -0.19482870882E+02 -0.11467469936E+01 -0.14981593604E+01  0.20130369295E+02  0.47000000000E+01 0. -1.
         11    1    6    6    0    0  0.62772423236E+02 -0.80490935575E+01  0.30520245659E+02  0.70261301020E+02  0.00000000000E+00 0. -1.
        -12    1    6    6    0    0 -0.21366161545E+02 -0.10990845551E+02  0.45451200173E+00  0.24031606818E+02  0.00000000000E+00 0.  1.
         -5    1    5    5    0  503 -0.38952106061E+02 -0.31021582367E+02 -0.78118405563E+02  0.92758721568E+02  0.47000000000E+01 0.  1.
<mgrwt>
<rscale>  2 0.18116647E+03</rscale>
<asrwt>0</asrwt>
<pdfrwt beam="1">  1       21 0.12785372E-01 0.18121758E+03</pdfrwt>
<pdfrwt beam="2">  1       21 0.11405920E+00 0.18121758E+03</pdfrwt>
<totfact> 0.31532211E+04</totfact>
</mgrwt>
</event>
<event>
12    1  0.2768653E-001  0.2016388E+03  0.7546771E-02  0.1149101E+00
         21   -1    0    0  504  503  0.00000000000E+00  0.00000000000E+00  0.14486117438E+03  0.14486117438E+03  0.00000000000E+00 0.  1.
         21   -1    0    0  502  504 -0.00000000000E+00 -0.00000000000E+00 -0.70104966380E+03  0.70104966380E+03  0.00000000000E+00 0.  1.
          6    2    1    2  502    0 -0.98202365606E+02 -0.17566291274E+02 -0.60845457419E+03  0.64099546850E+03  0.17523111190E+03 0.  0.
         24    2    3    3    0    0 -0.39264121589E+02 -0.72169695075E+02 -0.27642674615E+03  0.29935264783E+03  0.80312674269E+02 0.  0.
         -6    2    1    2    0  503  0.98202365606E+02  0.17566291274E+02  0.52266084776E+02  0.20491536969E+03  0.17119078806E+03 0.  0.
        -24    2    5    5    0    0  0.56645727828E+02 -0.55810424275E+02  0.39114859305E+02  0.11943940079E+03  0.80076565254E+02 0.  0.
          4    1    4    4  501    0 -0.37248748966E+02 -0.58910336282E+02 -0.27728787395E+03  0.28591338210E+03  0.00000000000E+00 0. -1.
         -3    1    4    4    0  501 -0.20153726230E+01 -0.13259358793E+02  0.86112780744E+00  0.13439265736E+02  0.00000000000E+00 0.  1.
          5    1    3    3  502    0 -0.58938244017E+02  0.54603403801E+02 -0.33202782804E+03  0.34164282066E+03  0.47000000000E+01 0. -1.
         13    1    6    6    0    0  0.10067816719E+02  0.19805579589E+02 -0.43230580254E+00  0.22221809211E+02  0.00000000000E+00 0. -1.
        -14    1    6    6    0    0  0.46577911110E+02 -0.75616003863E+02  0.39547165108E+02  0.97217591575E+02  0.00000000000E+00 0.  1.
         -5    1    5    5    0  503  0.41556637778E+02  0.73376715549E+02  0.13151225470E+02  0.85475968900E+02  0.47000000000E+01 0.  1.
<mgrwt>
<rscale>  2 0.20075781E+03</rscale>
<asrwt>0</asrwt>
<pdfrwt beam="1">  1       21 0.22286335E-01 0.20163884E+03</pdfrwt>
<pdfrwt beam="2">  1       21 0.10785379E+00 0.20163884E+03</pdfrwt>
<totfact> 0.12824258E+04</totfact>
</mgrwt>
</event>
<event>
12    1  0.2768653E-001  0.1989561E+03  0.7546771E-02  0.1151056E+00
         21   -1    0    0  504  503  0.00000000000E+00  0.00000000000E+00  0.51633684083E+02  0.51633684083E+02  0.00000000000E+00 0. -1.
         21   -1    0    0  502  504 -0.00000000000E+00 -0.00000000000E+00 -0.84398840886E+03  0.84398840886E+03  0.00000000000E+00 0. -1.
          6    2    1    2  502    0  0.94832903785E+02  0.10593649636E+02 -0.54024979786E+03  0.57571987625E+03  0.17457957145E+03 0.  0.
         24    2    3    3    0    0  0.29146550252E+02  0.51514778446E+02 -0.42604207129E+03  0.43768100263E+03  0.80929103289E+02 0.  0.
         -6    2    1    2    0  503 -0.94832903785E+02 -0.10593649636E+02 -0.25210492691E+03  0.31990221669E+03  0.17226441599E+03 0.  0.
        -24    2    5    5    0    0 -0.10058599013E+02  0.15922788436E+02 -0.20150160534E+03  0.21756654162E+03  0.79859830154E+02 0.  0.
          4    1    4    4  501    0 -0.16087539758E+01 -0.28905420860E+01 -0.26376007047E+03  0.26378081449E+03  0.00000000000E+00 0. -1.
         -3    1    4    4    0  501  0.30755304228E+02  0.54405320532E+02 -0.16228200083E+03  0.17390018813E+03  0.00000000000E+00 0.  1.
          5    1    3    3  502    0  0.65686353533E+02 -0.40921128810E+02 -0.11420772657E+03  0.13803887362E+03  0.47000000000E+01 0. -1.
         13    1    6    6    0    0 -0.90980972090E+01 -0.10345341989E+02  0.57371810450E+00  0.13788786247E+02  0.00000000000E+00 0. -1.
        -14    1    6    6    0    0 -0.96050180438E+00  0.26268130425E+02 -0.20207532345E+03  0.20377775537E+03  0.00000000000E+00 0.  1.
         -5    1    5    5    0  503 -0.84774304772E+02 -0.26516438072E+02 -0.50603321572E+02  0.10233567507E+03  0.47000000000E+01 0.  1.
<mgrwt>
<rscale>  2 0.19844706E+03</rscale>
<asrwt>0</asrwt>
<pdfrwt beam="1">  1       21 0.79436435E-02 0.19895611E+03</pdfrwt>
<pdfrwt beam="2">  1       21 0.12984437E+00 0.19895611E+03</pdfrwt>
<totfact> 0.52494204E+04</totfact>
</mgrwt>
</event>
<event>
12    1  0.2768653E-001  0.3672202E+03  0.7546771E-02  0.1055825E+00
         21   -1    0    0  504  503  0.00000000000E+00  0.00000000000E+00  0.90548955897E+03  0.90548955897E+03  0.00000000000E+00 0. -1.
         21   -1    0    0  502  504 -0.00000000000E+00 -0.00000000000E+00 -0.42827146527E+03  0.42827146527E+03  0.00000000000E+00 0.  1.
          6    2    1    2  502    0  0.29922547444E+03 -0.12427677944E+03 -0.30016781804E+03  0.47429043576E+03  0.17282967339E+03 0.  0.
         24    2    3    3    0    0  0.19954632432E+03 -0.12730884488E+02 -0.20326478555E+03  0.29599094794E+03  0.79456008275E+02 0.  0.
         -6    2    1    2    0  503 -0.29922547444E+03  0.12427677944E+03  0.77738591174E+03  0.85947058849E+03  0.17140663418E+03 0.  0.
        -24    2    5    5    0    0 -0.28179823065E+03  0.77675205150E+02  0.73080001932E+03  0.79114964788E+03  0.80033847943E+02 0.  0.
          4    1    4    4  501    0  0.98104087882E+02  0.12851516259E+01 -0.46091070360E+02  0.10839949465E+03  0.00000000000E+00 0. -1.
         -3    1    4    4    0  501  0.10144223644E+03 -0.14016036114E+02 -0.15717371519E+03  0.18759145329E+03  0.00000000000E+00 0.  1.
          5    1    3    3  502    0  0.99679150127E+02 -0.11154589495E+03 -0.96903032492E+02  0.17829948782E+03  0.47000000000E+01 0. -1.
         11    1    6    6    0    0 -0.80736425162E+02  0.61208822044E+02  0.24809697944E+03  0.26798694269E+03  0.00000000000E+00 0. -1.
        -12    1    6    6    0    0 -0.20106180549E+03  0.16466383106E+02  0.48270303987E+03  0.52316270519E+03  0.00000000000E+00 0.  1.
         -5    1    5    5    0  503 -0.17427243790E+02  0.46601574288E+02  0.46585892423E+02  0.68320940605E+02  0.47000000000E+01 0.  1.
<mgrwt>
<rscale>  2 0.36705322E+03</rscale>
<asrwt>0</asrwt>
<pdfrwt beam="1">  1       21 0.13930609E+00 0.36722023E+03</pdfrwt>
<pdfrwt beam="2">  1       21 0.65887918E-01 0.36722023E+03</pdfrwt>
<totfact> 0.67035732E+02</totfact>
</mgrwt>
</event>
<event>
12    1  0.2768653E-001  0.1753405E+03  0.7546771E-02  0.1172878E+00
         21   -1    0    0  504  503  0.00000000000E+00  0.00000000000E+00  0.32117078861E+03  0.32117078861E+03  0.00000000000E+00 0.  1.
         21   -1    0    0  502  504 -0.00000000000E+00 -0.00000000000E+00 -0.10018722624E+03  0.10018722624E+03  0.00000000000E+00 0.  1.
          6    2    1    2  502    0 -0.49303237473E+01  0.24075233508E+02  0.60479155895E+02  0.18364816911E+03  0.17165371176E+03 0.  0.
         24    2    3    3    0    0  0.32717931509E+02  0.98061889975E+01  0.95224549706E+02  0.13025969521E+03  0.82056376616E+02 0.  0.
         -6    2    1    2    0  503  0.49303237473E+01 -0.24075233508E+02  0.16050440647E+03  0.23770984574E+03  0.17360985371E+03 0.  0.
        -24    2    5    5    0    0 -0.15068104591E+02  0.13129959791E+02  0.12113764124E+02  0.83352998529E+02  0.80009596065E+02 0.  0.
          2    1    4    4  501    0  0.22021071222E+02 -0.14151471684E+02  0.10019322205E+03  0.10355613682E+03  0.00000000000E+00 0. -1.
         -1    1    4    4    0  501  0.10696860288E+02  0.23957660682E+02 -0.49686723463E+01  0.26703558382E+02  0.00000000000E+00 0.  1.
          5    1    3    3  502    0 -0.37648255257E+02  0.14269044511E+02 -0.34745393811E+02  0.53388473908E+02  0.47000000000E+01 0. -1.
         11    1    6    6    0    0 -0.13557061871E+02 -0.26782682300E+02 -0.16467779523E+02  0.34238775681E+02  0.00000000000E+00 0. -1.
        -12    1    6    6    0    0 -0.15110427194E+01  0.39912642091E+02  0.28581543646E+02  0.49114222848E+02  0.00000000000E+00 0.  1.
         -5    1    5    5    0  503  0.19998428338E+02 -0.37205193299E+02  0.14839064235E+03  0.15435684721E+03  0.47000000000E+01 0.  1.
<mgrwt>
<rscale>  2 0.17485437E+03</rscale>
<asrwt>0</asrwt>
<pdfrwt beam="1">  1       21 0.49410890E-01 0.17534054E+03</pdfrwt>
<pdfrwt beam="2">  1       21 0.15413420E-01 0.17534054E+03</pdfrwt>
<totfact> 0.14664339E+05</totfact>
</mgrwt>
</event>
<event>
12    1  0.2768653E-001  0.2150777E+03  0.7546771E-02  0.1137665E+00
         21   -1    0    0  504  503  0.00000000000E+00  0.00000000000E+00  0.38556628795E+03  0.38556628795E+03  0.00000000000E+00 0.  1.
         21   -1    0    0  502  504 -0.00000000000E+00 -0.00000000000E+00 -0.14300814780E+03  0.14300814780E+03  0.00000000000E+00 0.  1.
          6    2    1    2  502    0  0.99924773221E+02 -0.74152174946E+02  0.14752247368E+02  0.21527914819E+03  0.17505421300E+03 0.  0.
         24    2    3    3    0    0  0.16930100990E+02  0.16285461782E+02  0.38418403805E+02  0.90182150956E+02  0.78134512318E+02 0.  0.
         -6    2    1    2    0  503 -0.99924773221E+02  0.74152174946E+02  0.22780589278E+03  0.31329528756E+03  0.17542778307E+03 0.  0.
        -24    2    5    5    0    0 -0.32729968009E+02 -0.45921541535E+01  0.34554299762E+02  0.94014464380E+02  0.80946780016E+02 0.  0.
          4    1    4    4  501    0 -0.38464569301E+00 -0.27802558537E+02  0.31984719338E+02  0.42381039211E+02  0.00000000000E+00 0. -1.
         -3    1    4    4    0  501  0.17314746683E+02  0.44088020318E+02  0.64336844671E+01  0.47801111745E+02  0.00000000000E+00 0.  1.
          5    1    3    3  502    0  0.82994672232E+02 -0.90437636728E+02 -0.23666156436E+02  0.12509699723E+03  0.47000000000E+01 0. -1.
         13    1    6    6    0    0  0.14946158810E+02  0.21732116091E+02 -0.48180695884E+01  0.26812055638E+02  0.00000000000E+00 0. -1.
        -14    1    6    6    0    0 -0.47676126820E+02 -0.26324270245E+02  0.39372369350E+02  0.67202408742E+02  0.00000000000E+00 0.  1.
         -5    1    5    5    0  503 -0.67194805212E+02  0.78744329100E+02  0.19325159301E+03  0.21928082318E+03  0.47000000000E+01 0.  1.
<mgrwt>
<rscale>  2 0.21500150E+03</rscale>
<asrwt>0</asrwt>
<pdfrwt beam="1">  1       21 0.59317890E-01 0.21507769E+03</pdfrwt>
<pdfrwt beam="2">  1       21 0.22001254E-01 0.21507769E+03</pdfrwt>
<totfact> 0.50706117E+04</totfact>
</mgrwt>
</event>
<event>
12    1  0.2768653E-001  0.3139917E+03  0.7546771E-02  0.1078505E+00
         21   -1    0    0  504  503  0.00000000000E+00  0.00000000000E+00  0.37795393978E+03  0.37795393978E+03  0.00000000000E+00 0. -1.
         21   -1    0    0  502  504 -0.00000000000E+00 -0.00000000000E+00 -0.26397328758E+03  0.26397328758E+03  0.00000000000E+00 0.  1.
          6    2    1    2  502    0 -0.25286037728E+03 -0.68922238040E+02  0.19877483506E+02  0.31413734737E+03  0.17204218485E+03 0.  0.
         24    2    3    3    0    0 -0.26329635807E+03 -0.65190017745E+02  0.43071180914E+02  0.28800543656E+03  0.86702331415E+02 0.  0.
         -6    2    1    2    0  503  0.25286037728E+03  0.68922238040E+02  0.94103168690E+02  0.32778987999E+03  0.17292239233E+03 0.  0.
        -24    2    5    5    0    0  0.20338481043E+03  0.38925458973E+02  0.13195378633E+03  0.25849054575E+03  0.80777398115E+02 0.  0.
          4    1    4    4  501    0 -0.15512485159E+03  0.59092734368E+01  0.20012101589E+02  0.15652195790E+03  0.00000000000E+00 0. -1.
         -3    1    4    4    0  501 -0.10817150648E+03 -0.71099291182E+02  0.23059079325E+02  0.13148347866E+03  0.00000000000E+00 0.  1.
          5    1    3    3  502    0  0.10435980791E+02 -0.37322202950E+01 -0.23193697407E+02  0.26131910815E+02  0.47000000000E+01 0. -1.
         13    1    6    6    0    0  0.47867171104E+01  0.21941803098E+02  0.18804624877E+02  0.29291112998E+02  0.00000000000E+00 0. -1.
        -14    1    6    6    0    0  0.19859809332E+03  0.16983655876E+02  0.11314916145E+03  0.22919943276E+03  0.00000000000E+00 0.  1.
         -5    1    5    5    0  503  0.49475566848E+02  0.29996779067E+02 -0.37850617641E+02  0.69299334233E+02  0.47000000000E+01 0.  1.
<mgrwt>
<rscale>  2 0.31387068E+03</rscale>
<asrwt>0</asrwt>
<pdfrwt beam="1">  1       21 0.58146760E-01 0.31399172E+03</pdfrwt>
<pdfrwt beam="2">  1       21 0.40611275E-01 0.31399172E+03</pdfrwt>
<totfact> 0.15223124E+04</totfact>
</mgrwt>
</event>
<event>
12    1  0.2768653E-001  0.2040776E+03  0.7546771E-02  0.1146633E+00
         21   -1    0    0  504  503  0.00000000000E+00  0.00000000000E+00  0.47976506013E+03  0.47976506013E+03  0.00000000000E+00 0. -1.
         21   -1    0    0  502  504 -0.00000000000E+00 -0.00000000000E+00 -0.12434502379E+03  0.12434502379E+03  0.00000000000E+00 0. -1.
          6    2    1    2  502    0 -0.88403417613E+02  0.59655590989E+02  0.10014537191E+02  0.20292106486E+03  0.17234475283E+03 0.  0.
         24    2    3    3    0    0  0.18108327863E+01  0.13553636225E+02  0.47544700125E+02  0.94779470933E+02  0.80843487246E+02 0.  0.
         -6    2    1    2    0  503  0.88403417613E+02 -0.59655590989E+02  0.34540549914E+03  0.40118901905E+03  0.17399343777E+03 0.  0.
        -24    2    5    5    0    0  0.10232694962E+03 -0.54829463160E+01  0.15976598322E+03  0.20724918291E+03  0.83223717178E+02 0.  0.
          2    1    4    4  501    0 -0.13741978470E+02  0.44922522789E+02  0.26951550905E+02  0.54159589383E+02  0.00000000000E+00 0. -1.
         -1    1    4    4    0  501  0.15552811256E+02 -0.31368886565E+02  0.20593149220E+02  0.40619881549E+02  0.00000000000E+00 0.  1.
          5    1    3    3  502    0 -0.90214250399E+02  0.46101954764E+02 -0.37530162934E+02  0.10814159393E+03  0.47000000000E+01 0. -1.
         11    1    6    6    0    0  0.91797808203E+02 -0.13194517256E+02  0.16794279982E+03  0.19184816102E+03  0.00000000000E+00 0. -1.
        -12    1    6    6    0    0  0.10529141415E+02  0.77115709403E+01 -0.81768165975E+01  0.15401021881E+02  0.00000000000E+00 0.  1.
         -5    1    5    5    0  503 -0.13923532005E+02 -0.54172644673E+02  0.18563951592E+03  0.19393983615E+03  0.47000000000E+01 0.  1.
<mgrwt>
<rscale>  2 0.20372575E+03</rscale>
<asrwt>0</asrwt>
<pdfrwt beam="1">  1       21 0.73810008E-01 0.20407761E+03</pdfrwt>
<pdfrwt beam="2">  1       21 0.19130004E-01 0.20407761E+03</pdfrwt>
<totfact> 0.41075361E+04</totfact>
</mgrwt>
</event>
<event>
12    1  0.2768653E-001  0.2900373E+03  0.7546771E-02  0.1090600E+00
         21   -1    0    0  504  503  0.00000000000E+00  0.00000000000E+00  0.15463854900E+04  0.15463854900E+04  0.00000000000E+00 0. -1.
         21   -1    0    0  502  504 -0.00000000000E+00 -0.00000000000E+00 -0.54275965782E+02  0.54275965782E+02  0.00000000000E+00 0.  1.
          6    2    1    2  502    0 -0.11012410881E+03  0.20310176961E+03  0.80449113009E+03  0.85517694874E+03  0.17533963358E+03 0.  0.
         24    2    3    3    0    0  0.96074490070E+01  0.45356997643E+02  0.23120719313E+03  0.24863295083E+03  0.78816354734E+02 0.  0.
         -6    2    1    2    0  503  0.11012410881E+03 -0.20310176961E+03  0.68761839411E+03  0.74548450702E+03  0.17190243203E+03 0.  0.
        -24    2    5    5    0    0  0.11418324744E+03 -0.70924752311E+02  0.38680333460E+03  0.41685244752E+03  0.77980823659E+02 0.  0.
          4    1    4    4  501    0  0.30504752840E+02 -0.95289254382E+01  0.66807200204E+02  0.74057696190E+02  0.00000000000E+00 0. -1.
         -3    1    4    4    0  501 -0.20897303833E+02  0.54885923081E+02  0.16439999292E+03  0.17457525464E+03  0.00000000000E+00 0.  1.
          5    1    3    3  502    0 -0.11973155781E+03  0.15774477196E+03  0.57328393696E+03  0.60654399791E+03  0.47000000000E+01 0. -1.
         13    1    6    6    0    0  0.62603674269E+02 -0.52417172746E+02  0.32098755065E+03  0.33120958274E+03  0.00000000000E+00 0. -1.
        -14    1    6    6    0    0  0.51579573167E+02 -0.18507579566E+02  0.65815783954E+02  0.85642864775E+02  0.00000000000E+00 0.  1.
         -5    1    5    5    0  503 -0.40591386302E+01 -0.13217701730E+03  0.30081505951E+03  0.32863205950E+03  0.47000000000E+01 0.  1.
<mgrwt>
<rscale>  2 0.28951969E+03</rscale>
<asrwt>0</asrwt>
<pdfrwt beam="1">  1       21 0.23790543E+00 0.29003730E+03</pdfrwt>
<pdfrwt beam="2">  1       21 0.83501498E-02 0.29003730E+03</pdfrwt>
<totfact> 0.80928080E+03</totfact>
</mgrwt>
</event>
<event>
12    1  0.2768653E-001  0.1788250E+03  0.7546771E-02  0.1169839E+00
         21   -1    0    0  504  503  0.00000000000E+00  0.00000000000E+00  0.17235887907E+03  0.17235887907E+03  0.00000000000E+00 0.  1.
         21   -1    0    0  502  504 -0.00000000000E+00 -0.00000000000E+00 -0.22366290514E+03  0.22366290514E+03  0.00000000000E+00 0.  1.
          6    2    1    2  502    0 -0.37682396178E+02  0.67946278774E+01  0.60231340301E+02  0.18526479046E+03  0.17096519611E+03 0.  0.
         24    2    3    3    0    0  0.44115438011E+02 -0.28419876765E+01  0.40366186154E+02  0.10040924033E+03  0.80612268266E+02 0.  0.
         -6    2    1    2    0  503  0.37682396178E+02 -0.67946278774E+01 -0.11153536638E+03  0.21075699375E+03  0.17467753866E+03 0.  0.
        -24    2    5    5    0    0  0.17428435362E+02 -0.30021133500E+02  0.70071707247E+01  0.88184090568E+02  0.80760848014E+02 0.  0.
          2    1    4    4  501    0  0.34599928703E+02  0.84498019405E+01 -0.18208944020E+02  0.40001498240E+02  0.00000000000E+00 0. -1.
         -1    1    4    4    0  501  0.95155093083E+01 -0.11291789617E+02  0.58575130174E+02  0.60407742095E+02  0.00000000000E+00 0.  1.
          5    1    3    3  502    0 -0.81797834190E+02  0.96366155539E+01  0.19865154147E+02  0.84855550124E+02  0.47000000000E+01 0. -1.
         11    1    6    6    0    0 -0.15846088346E+01  0.96940908155E+01  0.34769800200E+02  0.36130671012E+02  0.00000000000E+00 0. -1.
        -12    1    6    6    0    0  0.19013044197E+02 -0.39715224316E+02 -0.27762629475E+02  0.52053419556E+02  0.00000000000E+00 0.  1.
         -5    1    5    5    0  503  0.20253960816E+02  0.23226505623E+02 -0.11854253710E+03  0.12257290318E+03  0.47000000000E+01 0.  1.
<mgrwt>
<rscale>  2 0.17791190E+03</rscale>
<asrwt>0</asrwt>
<pdfrwt beam="1">  1       21 0.26516751E-01 0.17882498E+03</pdfrwt>
<pdfrwt beam="2">  1       21 0.34409678E-01 0.17882498E+03</pdfrwt>
<totfact> 0.11068749E+05</totfact>
</mgrwt>
</event>
<event>
12    1  0.2768653E-001  0.1828118E+03  0.7546771E-02  0.1165739E+00
         21   -1    0    0  504  503  0.00000000000E+00  0.00000000000E+00  0.20453567521E+03  0.20453567521E+03  0.00000000000E+00 0. -1.
         21   -1    0    0  502  504 -0.00000000000E+00 -0.00000000000E+00 -0.34669214620E+03  0.34669214620E+03  0.00000000000E+00 0. -1.
          6    2    1    2  502    0  0.14812345161E+02  0.50735634476E+02 -0.27299778077E+03  0.32855429690E+03  0.17500465002E+03 0.  0.
         24    2    3    3    0    0 -0.24582499565E+02 -0.19758483087E+02 -0.70392274642E+02  0.11039734533E+03  0.78979773289E+02 0.  0.
         -6    2    1    2    0  503 -0.14812345161E+02 -0.50735634476E+02  0.13084130978E+03  0.22267352451E+03  0.17225138605E+03 0.  0.
        -24    2    5    5    0    0 -0.43548064845E+02  0.28621341583E+02  0.68187636318E+02  0.11745544606E+03  0.80191102473E+02 0.  0.
          4    1    4    4  501    0 -0.36230416371E+02  0.84133437965E+01 -0.70726846450E+02  0.79910664076E+02  0.00000000000E+00 0. -1.
         -3    1    4    4    0  501  0.11647916806E+02 -0.28171826883E+02  0.33457180822E+00  0.30486681258E+02  0.00000000000E+00 0.  1.
          5    1    3    3  502    0  0.39394844726E+02  0.70494117562E+02 -0.20260550613E+03  0.21815695156E+03  0.47000000000E+01 0. -1.
         11    1    6    6    0    0 -0.52770639128E+02  0.12900045989E+01  0.71000708950E+02  0.88473188805E+02  0.00000000000E+00 0. -1.
        -12    1    6    6    0    0  0.92225742825E+01  0.27331336984E+02 -0.28130726326E+01  0.28982257251E+02  0.00000000000E+00 0.  1.
         -5    1    5    5    0  503  0.28735719684E+02 -0.79356976059E+02  0.62653673465E+02  0.10521807845E+03  0.47000000000E+01 0.  1.
<mgrwt>
<rscale>  2 0.18214969E+03</rscale>
<asrwt>0</asrwt>
<pdfrwt beam="1">  1       21 0.31467027E-01 0.18281175E+03</pdfrwt>
<pdfrwt beam="2">  1       21 0.53337253E-01 0.18281175E+03</pdfrwt>
<totfact> 0.32472418E+04</totfact>
</mgrwt>
</event>
<event>
12    1  0.2768653E-001  0.2296227E+03  0.7546771E-02  0.1127065E+00
         21   -1    0    0  504  503  0.00000000000E+00  0.00000000000E+00  0.65104997319E+02  0.65104997319E+02  0.00000000000E+00 0.  1.
         21   -1    0    0  502  504 -0.00000000000E+00 -0.00000000000E+00 -0.98971698567E+03  0.98971698567E+03  0.00000000000E+00 0.  1.
          6    2    1    2  502    0 -0.14644352044E+03 -0.38284278866E+02 -0.68984624608E+03  0.72705876159E+03  0.17267081075E+03 0.  0.
         24    2    3    3    0    0 -0.13884272176E+03  0.31178585548E+02 -0.44069161863E+03  0.46824805846E+03  0.69265690923E+02 0.  0.
         -6    2    1    2    0  503  0.14644352044E+03  0.38284278866E+02 -0.23476574227E+03  0.32776322140E+03  0.17147123629E+03 0.  0.
        -24    2    5    5    0    0  0.87306555005E+02 -0.10494838151E+02 -0.21925564708E+03  0.24940994457E+03  0.79998159345E+02 0.  0.
          4    1    4    4  501    0 -0.88308430612E+02  0.20026853825E+02 -0.16958030106E+03  0.19224185887E+03  0.00000000000E+00 0. -1.
         -3    1    4    4    0  501 -0.50534291146E+02  0.11151731723E+02 -0.27111131757E+03  0.27600619959E+03  0.00000000000E+00 0.  1.
          5    1    3    3  502    0 -0.76007986779E+01 -0.69462864414E+02 -0.24915462745E+03  0.25881070313E+03  0.47000000000E+01 0. -1.
         11    1    6    6    0    0  0.70529800615E+02 -0.42377971397E+02 -0.14084722520E+03  0.16312046493E+03  0.00000000000E+00 0. -1.
        -12    1    6    6    0    0  0.16776754390E+02  0.31883133247E+02 -0.78408421881E+02  0.86289479633E+02  0.00000000000E+00 0.  1.
         -5    1    5    5    0  503  0.59136965432E+02  0.48779117017E+02 -0.15510095189E+02  0.78353276831E+02  0.47000000000E+01 0.  1.
<mgrwt>
<rscale>  2 0.22939723E+03</rscale>
<asrwt>0</asrwt>
<pdfrwt beam="1">  1       21 0.10016153E-01 0.22962273E+03</pdfrwt>
<pdfrwt beam="2">  1       21 0.15226415E+00 0.22962273E+03</pdfrwt>
<totfact> 0.22713121E+04</totfact>
</mgrwt>
</event>
<event>
12    1  0.2768653E-001  0.1860739E+03  0.7546771E-02  0.1162486E+00
         21   -1    0    0  504  503  0.00000000000E+00  0.00000000000E+00  0.38861609978E+02  0.38861609978E+02  0.00000000000E+00 0.  1.
         21   -1    0    0  502  504 -0.00000000000E+00 -0.00000000000E+00 -0.93785126838E+03  0.93785126838E+03  0.00000000000E+00 0.  1.
          6    2    1    2  502    0  0.14163342339E+02  0.61838876272E+02 -0.56650896219E+03  0.59570513881E+03  0.17293802729E+03 0.  0.
         24    2    3    3    0    0 -0.31860359444E+02  0.91559613999E+02 -0.34731805052E+03  0.36972228740E+03  0.81648613956E+02 0.  0.
         -6    2    1    2    0  503 -0.14163342339E+02 -0.61838876272E+02 -0.33248069622E+03  0.38100773955E+03  0.17492523361E+03 0.  0.
        -24    2    5    5    0    0 -0.60496877170E+01  0.29060038994E+02 -0.11018720985E+03  0.14066438460E+03  0.82244533507E+02 0.  0.
          4    1    4    4  501    0 -0.56868326752E+02  0.60840964967E+02 -0.27414860551E+03  0.28651891301E+03  0.00000000000E+00 0. -1.
         -3    1    4    4    0  501  0.25007967308E+02  0.30718649032E+02 -0.73169445009E+02  0.83203374392E+02  0.00000000000E+00 0.  1.
          5    1    3    3  502    0  0.46023701783E+02 -0.29720737728E+02 -0.21919091166E+03  0.22598285141E+03  0.47000000000E+01 0. -1.
         11    1    6    6    0    0  0.30007085677E+02  0.99426657007E+01 -0.89481188872E+02  0.94900816404E+02  0.00000000000E+00 0. -1.
        -12    1    6    6    0    0 -0.36056773394E+02  0.19117373293E+02 -0.20706020981E+02  0.45763568196E+02  0.00000000000E+00 0.  1.
         -5    1    5    5    0  503 -0.81136546218E+01 -0.90898915265E+02 -0.22229348637E+03  0.24034335495E+03  0.47000000000E+01 0.  1.
<mgrwt>
<rscale>  2 0.18560538E+03</rscale>
<asrwt>0</asrwt>
<pdfrwt beam="1">  1       21 0.59787095E-02 0.18607387E+03</pdfrwt>
<pdfrwt beam="2">  1       21 0.14428480E+00 0.18607387E+03</pdfrwt>
<totfact> 0.65868349E+04</totfact>
</mgrwt>
</event>
<event>
12    1  0.2768653E-001  0.1754216E+03  0.7546771E-02  0.1172845E+00
         21   -1    0    0  504  503  0.00000000000E+00  0.00000000000E+00  0.38786646777E+02  0.38786646777E+02  0.00000000000E+00 0. -1.
         21   -1    0    0  502  504 -0.00000000000E+00 -0.00000000000E+00 -0.10500385924E+04  0.10500385924E+04  0.00000000000E+00 0. -1.
          6    2    1    2  502    0  0.16299253929E+02  0.10428080283E+01 -0.78206151838E+03  0.80149421320E+03  0.17465967518E+03 0.  0.
         24    2    3    3    0    0  0.77418092021E+02 -0.10105832398E+02 -0.47920036442E+03  0.49229076378E+03  0.81372710561E+02 0.  0.
         -6    2    1    2    0  503 -0.16299253929E+02 -0.10428080283E+01 -0.22919042721E+03  0.28733102594E+03  0.17252279101E+03 0.  0.
        -24    2    5    5    0    0 -0.12200900350E+02  0.57894432989E+02 -0.69410753852E+02  0.11691380587E+03  0.73146140783E+02 0.  0.
          4    1    4    4  501    0  0.74604556787E+02  0.23022054573E+02 -0.36969584236E+03  0.37785032850E+03  0.00000000000E+00 0. -1.
         -3    1    4    4    0  501  0.28135352342E+01 -0.33127886971E+02 -0.10950452206E+03  0.11444043528E+03  0.00000000000E+00 0.  1.
          5    1    3    3  502    0 -0.61118838093E+02  0.11148640426E+02 -0.30286115396E+03  0.30920344941E+03  0.47000000000E+01 0. -1.
         11    1    6    6    0    0  0.10179165956E+02  0.30406085432E+02  0.68762754134E+01  0.32793728278E+02  0.00000000000E+00 0. -1.
        -12    1    6    6    0    0 -0.22380066306E+02  0.27488347557E+02 -0.76287029265E+02  0.84120077588E+02  0.00000000000E+00 0.  1.
         -5    1    5    5    0  503 -0.40983535784E+01 -0.58937241018E+02 -0.15977967336E+03  0.17041722008E+03  0.47000000000E+01 0.  1.
<mgrwt>
<rscale>  2 0.17488734E+03</rscale>
<asrwt>0</asrwt>
<pdfrwt beam="1">  1       21 0.59671762E-02 0.17542165E+03</pdfrwt>
<pdfrwt beam="2">  1       21 0.16154441E+00 0.17542165E+03</pdfrwt>
<totfact> 0.49311613E+04</totfact>
</mgrwt>
</event>
<event>
12    1  0.2768653E-001  0.2425827E+03  0.7546771E-02  0.1118368E+00
         21   -1    0    0  504  503  0.00000000000E+00  0.00000000000E+00  0.25129817639E+03  0.25129817639E+03  0.00000000000E+00 0. -1.
         21   -1    0    0  502  504 -0.00000000000E+00 -0.00000000000E+00 -0.33685644878E+03  0.33685644878E+03  0.00000000000E+00 0.  1.
          6    2    1    2  502    0 -0.13146027757E+03  0.10827214370E+03  0.12099942682E+03  0.26954444457E+03  0.17031936071E+03 0.  0.
         24    2    3    3    0    0 -0.23471766147E+02  0.75439374165E+02  0.46375935773E+02  0.13415513639E+03  0.98004337770E+02 0.  0.
         -6    2    1    2    0  503  0.13146027757E+03 -0.10827214370E+03 -0.20655769920E+03  0.31861018060E+03  0.17274751055E+03 0.  0.
        -24    2    5    5    0    0  0.11310462930E+03 -0.11776768734E+03 -0.22920329991E+03  0.28759392028E+03  0.59280898657E+02 0.  0.
          4    1    4    4  501    0  0.88927570090E+01  0.78939504661E+01  0.57249216596E+02  0.58471090139E+02  0.00000000000E+00 0. -1.
         -3    1    4    4    0  501 -0.32364523156E+02  0.67545423698E+02 -0.10873280823E+02  0.75684046255E+02  0.00000000000E+00 0.  1.
          5    1    3    3  502    0 -0.10798851142E+03  0.32832769533E+02  0.74623491043E+02  0.13538930818E+03  0.47000000000E+01 0. -1.
         13    1    6    6    0    0  0.86934388543E+02 -0.11912573057E+03 -0.19256891535E+03  0.24255167440E+03  0.00000000000E+00 0. -1.
        -14    1    6    6    0    0  0.26170240755E+02  0.13580432246E+01 -0.36634384556E+02  0.45042245885E+02  0.00000000000E+00 0.  1.
         -5    1    5    5    0  503  0.18355648269E+02  0.94955436428E+01  0.22645600707E+02  0.31016260314E+02  0.47000000000E+01 0.  1.
<mgrwt>
<rscale>  2 0.24215077E+03</rscale>
<asrwt>0</asrwt>
<pdfrwt beam="1">  1       21 0.38661258E-01 0.24258270E+03</pdfrwt>
<pdfrwt beam="2">  1       21 0.51824069E-01 0.24258270E+03</pdfrwt>
<totfact> 0.22198370E+04</totfact>
</mgrwt>
</event>
<event>
12    1  0.2768653E-001  0.1908611E+03  0.7546771E-02  0.1158014E+00
         21   -1    0    0  504  503  0.00000000000E+00  0.00000000000E+00  0.49709522147E+03  0.49709522147E+03  0.00000000000E+00 0.  1.
         21   -1    0    0  502  504 -0.00000000000E+00 -0.00000000000E+00 -0.18984625580E+03  0.18984625580E+03  0.00000000000E+00 0. -1.
          6    2    1    2  502    0 -0.48681926610E+02  0.64984804580E+02 -0.11592781690E+03  0.22330970181E+03  0.17272813722E+03 0.  0.
         24    2    3    3    0    0  0.19433045523E+02 -0.11080746017E+02 -0.77687606700E+02  0.11417665873E+03  0.80625795958E+02 0.  0.
         -6    2    1    2    0  503  0.48681926610E+02 -0.64984804580E+02  0.42317678256E+03  0.46363177545E+03  0.17112240972E+03 0.  0.
        -24    2    5    5    0    0 -0.21166969398E+02 -0.75301326121E+02  0.20467926819E+03  0.23396124475E+03  0.82011772977E+02 0.  0.
          2    1    4    4  501    0  0.10430651442E+02  0.32600649581E+02 -0.53301999901E+02  0.63345907808E+02  0.00000000000E+00 0. -1.
         -1    1    4    4    0  501  0.90023940818E+01 -0.43681395598E+02 -0.24385606800E+02  0.50830750925E+02  0.00000000000E+00 0.  1.
          5    1    3    3  502    0 -0.68114972134E+02  0.76065550597E+02 -0.38240210195E+02  0.10913304308E+03  0.47000000000E+01 0. -1.
         13    1    6    6    0    0 -0.16529042041E+02  0.61167809451E+00  0.11583508479E+03  0.11701004337E+03  0.00000000000E+00 0. -1.
        -14    1    6    6    0    0 -0.46379273563E+01 -0.75913004216E+02  0.88844183400E+02  0.11695120138E+03  0.00000000000E+00 0.  1.
         -5    1    5    5    0  503  0.69848896008E+02  0.10316521541E+02  0.21849751437E+03  0.22967053070E+03  0.47000000000E+01 0.  1.
<mgrwt>
<rscale>  2 0.19049709E+03</rscale>
<asrwt>0</asrwt>
<pdfrwt beam="1">  1       21 0.76476187E-01 0.19086111E+03</pdfrwt>
<pdfrwt beam="2">  1       21 0.29207117E-01 0.19086111E+03</pdfrwt>
<totfact> 0.17107153E+04</totfact>
</mgrwt>
</event>
<event>
12    1  0.2768653E-001  0.2096172E+03  0.7546771E-02  0.1143113E+00
         21   -1    0    0  504  503  0.00000000000E+00  0.00000000000E+00  0.15188495464E+03  0.15188495464E+03  0.00000000000E+00 0.  1.
         21   -1    0    0  502  504 -0.00000000000E+00 -0.00000000000E+00 -0.50688840715E+03  0.50688840715E+03  0.00000000000E+00 0.  1.
          6    2    1    2  502    0  0.11521499908E+03  0.29041670529E+02 -0.39598155184E+03  0.44518833379E+03  0.16514644563E+03 0.  0.
         24    2    3    3    0    0  0.23796347714E+02  0.61574050751E+02 -0.19104735999E+03  0.21839362801E+03  0.82698567734E+02 0.  0.
         -6    2    1    2    0  503 -0.11521499908E+03 -0.29041670529E+02  0.40978099337E+02  0.21358502800E+03  0.17268886739E+03 0.  0.
        -24    2    5    5    0    0 -0.86699109258E+02  0.43597777844E+02  0.49247723474E+02  0.13497127528E+03  0.79839871653E+02 0.  0.
          2    1    4    4  501    0 -0.14531635179E+02  0.57815633299E+02 -0.73146032583E+02  0.94361845877E+02  0.00000000000E+00 0. -1.
         -1    1    4    4    0  501  0.38327982893E+02  0.37584174520E+01 -0.11790132741E+03  0.12403178213E+03  0.00000000000E+00 0.  1.
          5    1    3    3  502    0  0.91418651369E+02 -0.32532380221E+02 -0.20493419186E+03  0.22679470579E+03  0.47000000000E+01 0. -1.
         11    1    6    6    0    0 -0.65416822704E+02  0.28254106235E+02 -0.82858314776E+01  0.71737787916E+02  0.00000000000E+00 0. -1.
        -12    1    6    6    0    0 -0.21282286553E+02  0.15343671610E+02  0.57533554951E+02  0.63233487368E+02  0.00000000000E+00 0.  1.
         -5    1    5    5    0  503 -0.28515889825E+02 -0.72639448374E+02 -0.82696241370E+01  0.78613752715E+02  0.47000000000E+01 0.  1.
<mgrwt>
<rscale>  2 0.20805767E+03</rscale>
<asrwt>0</asrwt>
<pdfrwt beam="1">  1       21 0.23366915E-01 0.20961717E+03</pdfrwt>
<pdfrwt beam="2">  1       21 0.77982834E-01 0.20961717E+03</pdfrwt>
<totfact> 0.24849232E+04</totfact>
</mgrwt>
</event>
<event>
12    1  0.2768653E-001  0.2231635E+03  0.7546771E-02  0.1132546E+00
         21   -1    0    0  504  503  0.00000000000E+00  0.00000000000E+00  0.22674093637E+03  0.22674093637E+03  0.00000000000E+00 0. -1.
         21   -1    0    0  502  504 -0.00000000000E+00 -0.00000000000E+00 -0.21471480373E+03  0.21471480373E+03  0.00000000000E+00 0.  1.
          6    2    1    2  502    0  0.11768594272E+03  0.63055517816E+02 -0.29157673999E+01  0.21779259048E+03  0.17204398080E+03 0.  0.
         24    2    3    3    0    0  0.13877025362E+03  0.61482006091E+02 -0.39243417263E+02  0.17549823803E+03  0.78881971256E+02 0.  0.
         -6    2    1    2    0  503 -0.11768594272E+03 -0.63055517816E+02  0.14941900039E+02  0.22366314962E+03  0.17881824482E+03 0.  0.
        -24    2    5    5    0    0 -0.20608169030E+02  0.19712227765E+02  0.36589692724E+02  0.94182221368E+02  0.81964728108E+02 0.  0.
          2    1    4    4  501    0 -0.10573022390E+01  0.15529178130E+02  0.11993790526E+02  0.19650045104E+02  0.00000000000E+00 0. -1.
         -1    1    4    4    0  501  0.13982755586E+03  0.45952827962E+02 -0.51237207790E+02  0.15584819292E+03  0.00000000000E+00 0.  1.
          5    1    3    3  502    0 -0.21084310901E+02  0.15735117248E+01  0.36327649864E+02  0.42294352459E+02  0.47000000000E+01 0. -1.
         13    1    6    6    0    0  0.31286927185E+02  0.11566559331E+02  0.20881266694E+02  0.39353327765E+02  0.00000000000E+00 0. -1.
        -14    1    6    6    0    0 -0.51895096215E+02  0.81456684346E+01  0.15708426030E+02  0.54828893603E+02  0.00000000000E+00 0.  1.
         -5    1    5    5    0  503 -0.97077773688E+02 -0.82767745582E+02 -0.21647792685E+02  0.12948092825E+03  0.47000000000E+01 0.  1.
<mgrwt>
<rscale>  2 0.22180351E+03</rscale>
<asrwt>0</asrwt>
<pdfrwt beam="1">  1       21 0.34883221E-01 0.22316349E+03</pdfrwt>
<pdfrwt beam="2">  1       21 0.33033047E-01 0.22316349E+03</pdfrwt>
<totfact> 0.68979327E+04</totfact>
</mgrwt>
</event>
<event>
12    1  0.2768653E-001  0.2164552E+03  0.7546771E-02  0.1136570E+00
         21   -1    0    0  504  503  0.00000000000E+00  0.00000000000E+00  0.22225860785E+03  0.22225860785E+03  0.00000000000E+00 0. -1.
         21   -1    0    0  502  504 -0.00000000000E+00 -0.00000000000E+00 -0.22585841190E+03  0.22585841190E+03  0.00000000000E+00 0.  1.
          6    2    1    2  502    0 -0.63468204094E+02  0.11343680236E+03 -0.59802395373E+02  0.22456438725E+03  0.17308008686E+03 0.  0.
         24    2    3    3    0    0  0.13941309887E+02  0.20176460559E+02 -0.60644003105E+02  0.10326919975E+03  0.79908590415E+02 0.  0.
         -6    2    1    2    0  503  0.63468204094E+02 -0.11343680236E+03  0.56202591325E+02  0.22355263250E+03  0.17297666654E+03 0.  0.
        -24    2    5    5    0    0 -0.24244475220E+02 -0.29992021030E+02  0.43763126640E+02  0.10176028494E+03  0.83382422810E+02 0.  0.
          4    1    4    4  501    0  0.32734782910E+02  0.42049238775E+02 -0.48227289859E+02  0.71871941541E+02  0.00000000000E+00 0. -1.
         -3    1    4    4    0  501 -0.18793473023E+02 -0.21872778216E+02 -0.12416713246E+02  0.31397258208E+02  0.00000000000E+00 0.  1.
          5    1    3    3  502    0 -0.77409513981E+02  0.93260341797E+02  0.84160773155E+00  0.12129518750E+03  0.47000000000E+01 0. -1.
         11    1    6    6    0    0  0.12178870895E+02 -0.42336335120E+02  0.45409166434E+02  0.63266757178E+02  0.00000000000E+00 0. -1.
        -12    1    6    6    0    0 -0.36423346115E+02  0.12344314089E+02 -0.16460397940E+01  0.38493527762E+02  0.00000000000E+00 0.  1.
         -5    1    5    5    0  503  0.87712679315E+02 -0.83444781326E+02  0.12439464685E+02  0.12179234756E+03  0.47000000000E+01 0.  1.
<mgrwt>
<rscale>  2 0.21643449E+03</rscale>
<asrwt>0</asrwt>
<pdfrwt beam="1">  1       21 0.34193632E-01 0.21645516E+03</pdfrwt>
<pdfrwt beam="2">  1       21 0.34747448E-01 0.21645516E+03</pdfrwt>
<totfact> 0.65100553E+04</totfact>
</mgrwt>
</event>
<event>
12    1  0.2768653E-001  0.2409358E+03  0.7546771E-02  0.1119652E+00
         21   -1    0    0  504  503  0.00000000000E+00  0.00000000000E+00  0.34842222688E+03  0.34842222688E+03  0.00000000000E+00 0.  1.
         21   -1    0    0  502  504 -0.00000000000E+00 -0.00000000000E+00 -0.17881554033E+03  0.17881554033E+03  0.00000000000E+00 0. -1.
          6    2    1    2  502    0  0.14293682182E+03 -0.80238132817E+02  0.11002105746E+02  0.24118690304E+03  0.17658137749E+03 0.  0.
         24    2    3    3    0    0  0.10531099564E+03  0.18565384083E+02  0.29521094512E+02  0.13374910386E+03  0.74714446220E+02 0.  0.
         -6    2    1    2    0  503 -0.14293682182E+03  0.80238132817E+02  0.15860458080E+03  0.28605086416E+03  0.17262847634E+03 0.  0.
        -24    2    5    5    0    0 -0.44130710443E+02 -0.20083587517E+02  0.80324071466E+02  0.12487697248E+03  0.82410143234E+02 0.  0.
          2    1    4    4  501    0  0.42856883962E+02  0.45384045752E+02  0.16165168096E+02  0.64480514664E+02  0.00000000000E+00 0. -1.
         -1    1    4    4    0  501  0.62454111677E+02 -0.26818661669E+02  0.13355926416E+02  0.69268589198E+02  0.00000000000E+00 0.  1.
          5    1    3    3  502    0  0.37625826182E+02 -0.98803516900E+02 -0.18518988766E+02  0.10743779918E+03  0.47000000000E+01 0. -1.
         13    1    6    6    0    0  0.19813390876E+02  0.90799842334E+01  0.35057814562E+02  0.41280345608E+02  0.00000000000E+00 0. -1.
        -14    1    6    6    0    0 -0.63944101319E+02 -0.29163571751E+02  0.45266256904E+02  0.83596626875E+02  0.00000000000E+00 0.  1.
         -5    1    5    5    0  503 -0.98806111377E+02  0.10032172033E+03  0.78280509339E+02  0.16117389168E+03  0.47000000000E+01 0.  1.
<mgrwt>
<rscale>  2 0.24021211E+03</rscale>
<asrwt>0</asrwt>
<pdfrwt beam="1">  1       21 0.53603419E-01 0.24093583E+03</pdfrwt>
<pdfrwt beam="2">  1       21 0.27510083E-01 0.24093583E+03</pdfrwt>
<totfact> 0.40569274E+04</totfact>
</mgrwt>
</event>
<event>
12    1  0.2768653E-001  0.1950522E+03  0.7546771E-02  0.1154301E+00
         21   -1    0    0  504  503  0.00000000000E+00  0.00000000000E+00  0.22584434640E+03  0.22584434640E+03  0.00000000000E+00 0.  1.
         21   -1    0    0  502  504 -0.00000000000E+00 -0.00000000000E+00 -0.25969881697E+03  0.25969881697E+03  0.00000000000E+00 0.  1.
          6    2    1    2  502    0 -0.43909034146E+01 -0.88865932983E+02 -0.16177356249E+03  0.25228650058E+03  0.17193416990E+03 0.  0.
         24    2    3    3    0    0  0.96854357560E+01  0.18299168128E+02 -0.88281557499E+02  0.12149786569E+03  0.80866746889E+02 0.  0.
         -6    2    1    2    0  503  0.43909034146E+01  0.88865932983E+02  0.12791909191E+03  0.23325666279E+03  0.17357690682E+03 0.  0.
        -24    2    5    5    0    0  0.13375698214E+02  0.11313303983E+03  0.14573514386E+03  0.20149000229E+03  0.79884259174E+02 0.  0.
          2    1    4    4  501    0 -0.33591270002E+02 -0.63830679375E+00 -0.22204750041E+02  0.40271972639E+02  0.00000000000E+00 0. -1.
         -1    1    4    4    0  501  0.43276705758E+02  0.18937474922E+02 -0.66076807458E+02  0.81225893049E+02  0.00000000000E+00 0.  1.
          5    1    3    3  502    0 -0.14076339171E+02 -0.10716510111E+03 -0.73492004986E+02  0.13078863489E+03  0.47000000000E+01 0. -1.
         13    1    6    6    0    0 -0.14510739344E+02  0.10145906263E+03  0.83124462026E+02  0.13196279450E+03  0.00000000000E+00 0. -1.
        -14    1    6    6    0    0  0.27886437558E+02  0.11673977202E+02  0.62610681829E+02  0.69527207786E+02  0.00000000000E+00 0.  1.
         -5    1    5    5    0  503 -0.89847947993E+01 -0.24267106849E+02 -0.17816051942E+02  0.31766660498E+02  0.47000000000E+01 0.  1.
<mgrwt>
<rscale>  2 0.19468611E+03</rscale>
<asrwt>0</asrwt>
<pdfrwt beam="1">  1       21 0.34745284E-01 0.19505224E+03</pdfrwt>
<pdfrwt beam="2">  1       21 0.39953664E-01 0.19505224E+03</pdfrwt>
<totfact> 0.48151434E+04</totfact>
</mgrwt>
</event>
<event>
12    1  0.2768653E-001  0.1868304E+03  0.7546771E-02  0.1161415E+00
         21   -1    0    0  504  503  0.00000000000E+00  0.00000000000E+00  0.62183272687E+03  0.62183272687E+03  0.00000000000E+00 0. -1.
         21   -1    0    0  502  504 -0.00000000000E+00 -0.00000000000E+00 -0.74140923892E+02  0.74140923892E+02  0.00000000000E+00 0. -1.
          6    2    1    2  502    0  0.63078955233E+02 -0.30682458575E+02  0.10210556171E+03  0.21291111562E+03  0.17316243694E+03 0.  0.
         24    2    3    3    0    0  0.95836258937E+02 -0.35133237483E+02  0.28641334357E+02  0.13221456626E+03  0.79002737896E+02 0.  0.
         -6    2    1    2    0  503 -0.63078955233E+02  0.30682458575E+02  0.44558624127E+03  0.48306253514E+03  0.17286395398E+03 0.  0.
        -24    2    5    5    0    0 -0.63562015964E+02 -0.39430005221E+02  0.20811105782E+03  0.23540845445E+03  0.80697415406E+02 0.  0.
          4    1    4    4  501    0  0.39034717220E+02 -0.43743710404E+02 -0.14470347265E+02  0.60387186541E+02  0.00000000000E+00 0. -1.
         -3    1    4    4    0  501  0.56801541718E+02  0.86104729213E+01  0.43111681622E+02  0.71827379722E+02  0.00000000000E+00 0.  1.
          5    1    3    3  502    0 -0.32757303704E+02  0.44507789077E+01  0.73464227348E+02  0.80696549361E+02  0.47000000000E+01 0. -1.
         11    1    6    6    0    0 -0.61879507284E+02 -0.47439137154E+02  0.21233527780E+03  0.22619861926E+03  0.00000000000E+00 0. -1.
        -12    1    6    6    0    0 -0.16825086807E+01  0.80091319331E+01 -0.42242199801E+01  0.92098351897E+01  0.00000000000E+00 0.  1.
         -5    1    5    5    0  503  0.48306073083E+00  0.70112463796E+02  0.23747518345E+03  0.24765408069E+03  0.47000000000E+01 0.  1.
<mgrwt>
<rscale>  2 0.18676121E+03</rscale>
<asrwt>0</asrwt>
<pdfrwt beam="1">  1       21 0.95666570E-01 0.18683040E+03</pdfrwt>
<pdfrwt beam="2">  1       21 0.11406296E-01 0.18683040E+03</pdfrwt>
<totfact> 0.58709900E+04</totfact>
</mgrwt>
</event>
<event>
12    1  0.2768653E-001  0.2346069E+03  0.7546771E-02  0.1123825E+00
         21   -1    0    0  504  503  0.00000000000E+00  0.00000000000E+00  0.40473127938E+02  0.40473127938E+02  0.00000000000E+00 0. -1.
         21   -1    0    0  502  504 -0.00000000000E+00 -0.00000000000E+00 -0.18555323047E+04  0.18555323047E+04  0.00000000000E+00 0.  1.
          6    2    1    2  502    0  0.15528722616E+03  0.25120144448E+02 -0.14069965926E+04  0.14264220300E+04  0.17405531181E+03 0.  0.
         24    2    3    3    0    0  0.88358242642E+02 -0.52860474754E+02 -0.75152480794E+03  0.76292687824E+03  0.81648489031E+02 0.  0.
         -6    2    1    2    0  503 -0.15528722616E+03 -0.25120144448E+02 -0.40806258410E+03  0.46958340266E+03  0.17102150522E+03 0.  0.
        -24    2    5    5    0    0 -0.50390751406E+02 -0.37610934871E+02 -0.31438171049E+03  0.32831243487E+03  0.70706327499E+02 0.  0.
          4    1    4    4  501    0 -0.70888118645E+01 -0.31190559471E+02 -0.24002989009E+03  0.24215170945E+03  0.00000000000E+00 0. -1.
         -3    1    4    4    0  501  0.95447054507E+02 -0.21669915283E+02 -0.51149491785E+03  0.52077516879E+03  0.00000000000E+00 0.  1.
          5    1    3    3  502    0  0.66928983520E+02  0.77980619202E+02 -0.65547178471E+03  0.66349515172E+03  0.47000000000E+01 0. -1.
         11    1    6    6    0    0 -0.34351830410E+02 -0.50907041620E+02 -0.14246741680E+03  0.15514038800E+03  0.00000000000E+00 0. -1.
        -12    1    6    6    0    0 -0.16038920996E+02  0.13296106748E+02 -0.17191429369E+03  0.17317204687E+03  0.00000000000E+00 0.  1.
         -5    1    5    5    0  503 -0.10489647476E+03  0.12490790424E+02 -0.93680873609E+02  0.14127096780E+03  0.47000000000E+01 0.  1.
<mgrwt>
<rscale>  2 0.23404441E+03</rscale>
<asrwt>0</asrwt>
<pdfrwt beam="1">  1       21 0.62266362E-02 0.23460690E+03</pdfrwt>
<pdfrwt beam="2">  1       21 0.28546645E+00 0.23460690E+03</pdfrwt>
<totfact> 0.73455965E+03</totfact>
</mgrwt>
</event>
<event>
12    1  0.2768653E-001  0.2098325E+03  0.7546771E-02  0.1142048E+00
         21   -1    0    0  504  503  0.00000000000E+00  0.00000000000E+00  0.37497825580E+03  0.37497825580E+03  0.00000000000E+00 0. -1.
         21   -1    0    0  502  504 -0.00000000000E+00 -0.00000000000E+00 -0.12471263430E+03  0.12471263430E+03  0.00000000000E+00 0. -1.
          6    2    1    2  502    0  0.16842862970E+02  0.11527247577E+03  0.61276804944E+02  0.21859672742E+03  0.17452294035E+03 0.  0.
         24    2    3    3    0    0 -0.57205112663E+02  0.50752867420E+02  0.28092120089E+02  0.11482199125E+03  0.80911334171E+02 0.  0.
         -6    2    1    2    0  503 -0.16842862970E+02 -0.11527247577E+03  0.18898881656E+03  0.28109416268E+03  0.17241151297E+03 0.  0.
        -24    2    5    5    0    0 -0.64191020451E+02 -0.30003494197E+02  0.12255405464E+03  0.16299117869E+03  0.80783236204E+02 0.  0.
          2    1    4    4  501    0  0.13974179350E+02 -0.97947842641E+01  0.95389547607E+01  0.19550118803E+02  0.00000000000E+00 0. -1.
         -1    1    4    4    0  501 -0.71179292013E+02  0.60547651684E+02  0.18553165329E+02  0.95271872447E+02  0.00000000000E+00 0.  1.
          5    1    3    3  502    0  0.74047975633E+02  0.64519608354E+02  0.33184684854E+02  0.10377473617E+03  0.47000000000E+01 0. -1.
         13    1    6    6    0    0 -0.27395599693E+01 -0.17225462793E+02 -0.71874255924E+01  0.18864804370E+02  0.00000000000E+00 0. -1.
        -14    1    6    6    0    0 -0.61451460481E+02 -0.12778031404E+02  0.12974148023E+03  0.14412637432E+03  0.00000000000E+00 0.  1.
         -5    1    5    5    0  503  0.47348157480E+02 -0.85268981577E+02  0.66434761925E+02  0.11810298399E+03  0.47000000000E+01 0.  1.
<mgrwt>
<rscale>  2 0.20939292E+03</rscale>
<asrwt>0</asrwt>
<pdfrwt beam="1">  1       21 0.57688962E-01 0.20983251E+03</pdfrwt>
<pdfrwt beam="2">  1       21 0.19186559E-01 0.20983251E+03</pdfrwt>
<totfact> 0.69757720E+04</totfact>
</mgrwt>
</event>
<event>
12    1  0.2768653E-001  0.1764747E+03  0.7546771E-02  0.1171360E+00
         21   -1    0    0  504  503  0.00000000000E+00  0.00000000000E+00  0.55719430874E+02  0.55719430874E+02  0.00000000000E+00 0. -1.
         21   -1    0    0  502  504 -0.00000000000E+00 -0.00000000000E+00 -0.13685154351E+04  0.13685154351E+04  0.00000000000E+00 0. -1.
          6    2    1    2  502    0 -0.10099214912E+02 -0.35380232266E+02 -0.12048605142E+04  0.12177159683E+04  0.17259654037E+03 0.  0.
         24    2    3    3    0    0 -0.53072704444E+02 -0.75341200029E+02 -0.79094691639E+03  0.79963684156E+03  0.73000311330E+02 0.  0.
         -6    2    1    2    0  503  0.10099214912E+02  0.35380232266E+02 -0.10793549001E+03  0.20651889768E+03  0.17218080647E+03 0.  0.
        -24    2    5    5    0    0 -0.49009872456E+02  0.62469424743E+02 -0.60569143455E+02  0.12593745227E+03  0.76728248505E+02 0.  0.
          4    1    4    4  501    0 -0.30750349182E+02 -0.52737039831E+02 -0.71089945462E+03  0.71351581196E+03  0.00000000000E+00 0. -1.
         -3    1    4    4    0  501 -0.22322355262E+02 -0.22604160198E+02 -0.80047461771E+02  0.86121029596E+02  0.00000000000E+00 0.  1.
          5    1    3    3  502    0  0.42973489532E+02  0.39960967763E+02 -0.41391359786E+03  0.41807912677E+03  0.47000000000E+01 0. -1.
         11    1    6    6    0    0 -0.41059204305E+02  0.16133423186E+02  0.59154126014E+01  0.44509973130E+02  0.00000000000E+00 0. -1.
        -12    1    6    6    0    0 -0.79506681512E+01  0.46336001557E+02 -0.66484556057E+02  0.81427479136E+02  0.00000000000E+00 0.  1.
         -5    1    5    5    0  503  0.59109087368E+02 -0.27089192477E+02 -0.47366346552E+02  0.80581445409E+02  0.47000000000E+01 0.  1.
<mgrwt>
<rscale>  2 0.17637297E+03</rscale>
<asrwt>0</asrwt>
<pdfrwt beam="1">  1       21 0.85722210E-02 0.17647470E+03</pdfrwt>
<pdfrwt beam="2">  1       21 0.21054082E+00 0.17647470E+03</pdfrwt>
<totfact> 0.12420347E+04</totfact>
</mgrwt>
</event>
<event>
12    1  0.2768653E-001  0.1819350E+03  0.7546771E-02  0.1166152E+00
         21   -1    0    0  504  503  0.00000000000E+00  0.00000000000E+00  0.12825343184E+03  0.12825343184E+03  0.00000000000E+00 0. -1.
         21   -1    0    0  502  504 -0.00000000000E+00 -0.00000000000E+00 -0.31431512485E+03  0.31431512485E+03  0.00000000000E+00 0. -1.
          6    2    1    2  502    0 -0.33788982593E+02  0.40916419999E+02 -0.18746615838E+03  0.26062815763E+03  0.17311160342E+03 0.  0.
         24    2    3    3    0    0  0.34442909675E+02  0.44865372258E+02 -0.58472109903E+02  0.11457084049E+03  0.80673875571E+02 0.  0.
         -6    2    1    2    0  503  0.33788982593E+02 -0.40916419999E+02  0.14044653756E+01  0.18194039906E+03  0.17402438771E+03 0.  0.
        -24    2    5    5    0    0  0.16584273080E+02 -0.70738185928E+02  0.50421697996E+02  0.12185613451E+03  0.83831025450E+02 0.  0.
          4    1    4    4  501    0  0.33858228547E+02  0.66666692926E+02 -0.54193646972E+02  0.92345974239E+02  0.00000000000E+00 0. -1.
         -3    1    4    4    0  501  0.58468112734E+00 -0.21801320668E+02 -0.42784629316E+01  0.22224866253E+02  0.00000000000E+00 0.  1.
          5    1    3    3  502    0 -0.68231892268E+02 -0.39489522592E+01 -0.12899404848E+03  0.14605731714E+03  0.47000000000E+01 0. -1.
         13    1    6    6    0    0 -0.20951197877E+02 -0.63712420587E+02  0.12857937704E+02  0.68290202749E+02  0.00000000000E+00 0. -1.
        -14    1    6    6    0    0  0.37535470957E+02 -0.70257653412E+01  0.37563760292E+02  0.53565931765E+02  0.00000000000E+00 0.  1.
         -5    1    5    5    0  503  0.17204709513E+02  0.29821765929E+02 -0.49017232620E+02  0.60084264548E+02  0.47000000000E+01 0.  1.
<mgrwt>
<rscale>  2 0.18171636E+03</rscale>
<asrwt>0</asrwt>
<pdfrwt beam="1">  1       21 0.19731297E-01 0.18193498E+03</pdfrwt>
<pdfrwt beam="2">  1       21 0.48356173E-01 0.18193498E+03</pdfrwt>
<totfact> 0.97096708E+04</totfact>
</mgrwt>
</event>
<event>
12    1  0.2768653E-001  0.1979051E+03  0.7546771E-02  0.1151756E+00
         21   -1    0    0  504  503  0.00000000000E+00  0.00000000000E+00  0.77696282454E+03  0.77696282454E+03  0.00000000000E+00 0.  1.
         21   -1    0    0  502  504 -0.00000000000E+00 -0.00000000000E+00 -0.60812132361E+02  0.60812132361E+02  0.00000000000E+00 0.  1.
          6    2    1    2  502    0  0.60618762795E+02  0.72805191442E+02  0.18332617381E+03  0.26976824921E+03  0.17375612788E+03 0.  0.
         24    2    3    3    0    0  0.19766084789E+02  0.44444070900E+02  0.16388768741E+02  0.95517046432E+02  0.80553962486E+02 0.  0.
         -6    2    1    2    0  503 -0.60618762795E+02 -0.72805191442E+02  0.53282451837E+03  0.56800670769E+03  0.17249470224E+03 0.  0.
        -24    2    5    5    0    0 -0.36451101355E+02 -0.11606593368E+03  0.38141162145E+03  0.40862188083E+03  0.81835400455E+02 0.  0.
          2    1    4    4  501    0 -0.25397577206E+02  0.17316358045E+02 -0.14986288853E+02  0.34197690528E+02  0.00000000000E+00 0. -1.
         -1    1    4    4    0  501  0.45163661995E+02  0.27127712855E+02  0.31375057594E+02  0.61319355905E+02  0.00000000000E+00 0.  1.
          5    1    3    3  502    0  0.40852678006E+02  0.28361120542E+02  0.16693740507E+03  0.17425120278E+03  0.47000000000E+01 0. -1.
         13    1    6    6    0    0  0.63257625878E+01 -0.25644814187E+02  0.19757903338E+03  0.19933676580E+03  0.00000000000E+00 0. -1.
        -14    1    6    6    0    0 -0.42776863943E+02 -0.90421119494E+02  0.18383258807E+03  0.20928511504E+03  0.00000000000E+00 0.  1.
         -5    1    5    5    0  503 -0.24167661441E+02  0.43260742238E+02  0.15141289692E+03  0.15938482686E+03  0.47000000000E+01 0.  1.
<mgrwt>
<rscale>  2 0.19762786E+03</rscale>
<asrwt>0</asrwt>
<pdfrwt beam="1">  1       21 0.11953274E+00 0.19790508E+03</pdfrwt>
<pdfrwt beam="2">  1       21 0.93557132E-02 0.19790508E+03</pdfrwt>
<totfact> 0.48522592E+04</totfact>
</mgrwt>
</event>
<event>
12    1  0.2768653E-001  0.1751318E+03  0.7546771E-02  0.1173466E+00
         21   -1    0    0  504  503  0.00000000000E+00  0.00000000000E+00  0.92464030211E+02  0.92464030211E+02  0.00000000000E+00 0.  1.
         21   -1    0    0  502  504 -0.00000000000E+00 -0.00000000000E+00 -0.73969163701E+03  0.73969163701E+03  0.00000000000E+00 0.  1.
          6    2    1    2  502    0 -0.32837351030E+01 -0.14299896312E+02 -0.63645082205E+03  0.66010665152E+03  0.17451610970E+03 0.  0.
         24    2    3    3    0    0  0.28237605150E+02  0.29781107951E+02 -0.19516494651E+03  0.21548091702E+03  0.81598973761E+02 0.  0.
         -6    2    1    2    0  503  0.32837351030E+01  0.14299896312E+02 -0.10776784743E+02  0.17204901569E+03  0.17108318082E+03 0.  0.
        -24    2    5    5    0    0  0.64121273649E+02  0.30458966422E+02 -0.17068862213E+02  0.10861399475E+03  0.80413726618E+02 0.  0.
          2    1    4    4  501    0  0.25203206892E+02  0.32372893719E+02 -0.31391362945E+02  0.51658721944E+02  0.00000000000E+00 0. -1.
         -1    1    4    4    0  501  0.30343982576E+01 -0.25917857675E+01 -0.16377358357E+03  0.16382219508E+03  0.00000000000E+00 0.  1.
          5    1    3    3  502    0 -0.31521340253E+02 -0.44081004264E+02 -0.44128587554E+03  0.44462573450E+03  0.47000000000E+01 0. -1.
         11    1    6    6    0    0  0.48807454890E+02  0.49655808349E+02  0.11901185687E+02  0.70636429527E+02  0.00000000000E+00 0. -1.
        -12    1    6    6    0    0  0.15313818759E+02 -0.19196841928E+02 -0.28970047900E+02  0.37977565223E+02  0.00000000000E+00 0.  1.
         -5    1    5    5    0  503 -0.60837538546E+02 -0.16159070109E+02  0.62920774700E+01  0.63435020943E+02  0.47000000000E+01 0.  1.
<mgrwt>
<rscale>  2 0.17427030E+03</rscale>
<asrwt>0</asrwt>
<pdfrwt beam="1">  1       21 0.14225235E-01 0.17513179E+03</pdfrwt>
<pdfrwt beam="2">  1       21 0.11379871E+00 0.17513179E+03</pdfrwt>
<totfact> 0.26256314E+04</totfact>
</mgrwt>
</event>
<event>
12    1  0.2768653E-001  0.1830661E+03  0.7546771E-02  0.1166821E+00
         21   -1    0    0  504  503  0.00000000000E+00  0.00000000000E+00  0.13121036885E+03  0.13121036885E+03  0.00000000000E+00 0.  1.
         21   -1    0    0  502  504 -0.00000000000E+00 -0.00000000000E+00 -0.50530804868E+03  0.50530804868E+03  0.00000000000E+00 0.  1.
          6    2    1    2  502    0 -0.39305130195E+02 -0.31612404067E+02 -0.41371974285E+03  0.44921360905E+03  0.16758461618E+03 0.  0.
         24    2    3    3    0    0 -0.66403303887E+02  0.97879533394E+01 -0.36214707603E+03  0.37758867922E+03  0.83171528748E+02 0.  0.
         -6    2    1    2    0  503  0.39305130195E+02  0.31612404067E+02  0.39622063020E+02  0.18730480848E+03  0.17597995923E+03 0.  0.
        -24    2    5    5    0    0  0.84224290379E+02  0.11240019963E+02 -0.94916718929E+01  0.11754082105E+03  0.80657818211E+02 0.  0.
          4    1    4    4  501    0 -0.55719714856E+02  0.43689086367E+02 -0.25819283147E+03  0.26772553318E+03  0.00000000000E+00 0. -1.
         -3    1    4    4    0  501 -0.10683589031E+02 -0.33901133028E+02 -0.10395424456E+03  0.10986314604E+03  0.00000000000E+00 0.  1.
          5    1    3    3  502    0  0.27098173692E+02 -0.41400357407E+02 -0.51572666814E+02  0.71624929830E+02  0.47000000000E+01 0. -1.
         13    1    6    6    0    0  0.51010218968E+02  0.43922438935E+01 -0.45199114495E+02  0.68295638197E+02  0.00000000000E+00 0. -1.
        -14    1    6    6    0    0  0.33214071411E+02  0.68477760693E+01  0.35707442602E+02  0.49245182850E+02  0.00000000000E+00 0.  1.
         -5    1    5    5    0  503 -0.44919160184E+02  0.20372384104E+02  0.49113734913E+02  0.69763987435E+02  0.47000000000E+01 0.  1.
<mgrwt>
<rscale>  2 0.18101818E+03</rscale>
<asrwt>0</asrwt>
<pdfrwt beam="1">  1       21 0.20186211E-01 0.18306606E+03</pdfrwt>
<pdfrwt beam="2">  1       21 0.77739699E-01 0.18306606E+03</pdfrwt>
<totfact> 0.33455026E+04</totfact>
</mgrwt>
</event>
<event>
12    1  0.2768653E-001  0.1777786E+03  0.7546771E-02  0.1170366E+00
         21   -1    0    0  504  503  0.00000000000E+00  0.00000000000E+00  0.67599699261E+02  0.67599699261E+02  0.00000000000E+00 0. -1.
         21   -1    0    0  502  504 -0.00000000000E+00 -0.00000000000E+00 -0.46566498018E+03  0.46566498018E+03  0.00000000000E+00 0. -1.
          6    2    1    2  502    0 -0.37504329650E+02  0.21878748136E+01 -0.21700109536E+03  0.27951389506E+03  0.17212547925E+03 0.  0.
         24    2    3    3    0    0 -0.76148095191E+02  0.14877908968E+01 -0.21491368551E+03  0.24052315241E+03  0.76568588222E+02 0.  0.
         -6    2    1    2    0  503  0.37504329650E+02 -0.21878748136E+01 -0.18106418556E+03  0.25375078438E+03  0.17376380447E+03 0.  0.
        -24    2    5    5    0    0 -0.39425500121E+02 -0.62205262403E+01 -0.14012472635E+03  0.16638608724E+03  0.80351266860E+02 0.  0.
          4    1    4    4  501    0 -0.81591177278E+02  0.63821092587E+01 -0.11955290545E+03  0.14488184403E+03  0.00000000000E+00 0. -1.
         -3    1    4    4    0  501  0.54430820870E+01 -0.48943183619E+01 -0.95360780055E+02  0.95641308374E+02  0.00000000000E+00 0.  1.
          5    1    3    3  502    0  0.38643765541E+02  0.70008391677E+00 -0.20874098482E+01  0.38990742652E+02  0.47000000000E+01 0. -1.
         11    1    6    6    0    0  0.62160961560E+01 -0.14913261351E+02 -0.10962162226E+03  0.11080589010E+03  0.00000000000E+00 0. -1.
        -12    1    6    6    0    0 -0.45641596277E+02  0.86927351107E+01 -0.30503104095E+02  0.55580197137E+02  0.00000000000E+00 0.  1.
         -5    1    5    5    0  503  0.76929829771E+02  0.40326514267E+01 -0.40939459211E+02  0.87364697141E+02  0.47000000000E+01 0.  1.
<mgrwt>
<rscale>  2 0.17737697E+03</rscale>
<asrwt>0</asrwt>
<pdfrwt beam="1">  1       21 0.10399954E-01 0.17777857E+03</pdfrwt>
<pdfrwt beam="2">  1       21 0.71640765E-01 0.17777857E+03</pdfrwt>
<totfact> 0.13397849E+05</totfact>
</mgrwt>
</event>
<event>
12    1  0.2768653E-001  0.1744935E+03  0.7546771E-02  0.1173305E+00
         21   -1    0    0  504  503  0.00000000000E+00  0.00000000000E+00  0.38429844561E+02  0.38429844561E+02  0.00000000000E+00 0. -1.
         21   -1    0    0  502  504 -0.00000000000E+00 -0.00000000000E+00 -0.95684280385E+03  0.95684280385E+03  0.00000000000E+00 0. -1.
          6    2    1    2  502    0  0.12724775109E+02  0.16782580082E+02 -0.66601156370E+03  0.68842666770E+03  0.17296328777E+03 0.  0.
         24    2    3    3    0    0  0.62255517168E+02  0.46754658770E+02 -0.36278618364E+03  0.37968836262E+03  0.80546198749E+02 0.  0.
         -6    2    1    2    0  503 -0.12724775109E+02 -0.16782580082E+02 -0.25240139558E+03  0.30684598071E+03  0.17321782959E+03 0.  0.
        -24    2    5    5    0    0 -0.50490565112E+02  0.35565602874E+02 -0.95769161376E+02  0.13736933351E+03  0.76709792368E+02 0.  0.
          4    1    4    4  501    0  0.26471850843E+02  0.36440772409E+02 -0.31918850391E+03  0.32235072484E+03  0.00000000000E+00 0. -1.
         -3    1    4    4    0  501  0.35783666325E+02  0.10313886361E+02 -0.43597679737E+02  0.57337637778E+02  0.00000000000E+00 0.  1.
          5    1    3    3  502    0 -0.49530742060E+02 -0.29972078688E+02 -0.30322538006E+03  0.30873830508E+03  0.47000000000E+01 0. -1.
         13    1    6    6    0    0 -0.20189557136E+02  0.57565040528E+02 -0.61077537625E+02  0.86323911581E+02  0.00000000000E+00 0. -1.
        -14    1    6    6    0    0 -0.30301007976E+02 -0.21999437654E+02 -0.34691623751E+02  0.51045421929E+02  0.00000000000E+00 0.  1.
         -5    1    5    5    0  503  0.37765790003E+02 -0.52348182956E+02 -0.15663223421E+03  0.16947664720E+03  0.47000000000E+01 0.  1.
<mgrwt>
<rscale>  2 0.17443032E+03</rscale>
<asrwt>0</asrwt>
<pdfrwt beam="1">  1       21 0.59122841E-02 0.17449353E+03</pdfrwt>
<pdfrwt beam="2">  1       21 0.14720658E+00 0.17449353E+03</pdfrwt>
<totfact> 0.64115822E+04</totfact>
</mgrwt>
</event>
<event>
12    1  0.2768653E-001  0.1943423E+03  0.7546771E-02  0.1158033E+00
         21   -1    0    0  504  503  0.00000000000E+00  0.00000000000E+00  0.13269889515E+03  0.13269889515E+03  0.00000000000E+00 0.  1.
         21   -1    0    0  502  504 -0.00000000000E+00 -0.00000000000E+00 -0.26456838307E+03  0.26456838307E+03  0.00000000000E+00 0.  1.
          6    2    1    2  502    0  0.44313144969E+02 -0.20648010047E+02 -0.53594466241E+02  0.20159687148E+03  0.18809289365E+03 0.  0.
         24    2    3    3    0    0  0.74809948144E+02 -0.17126612559E+02  0.27399791293E+02  0.11485233276E+03  0.80934915690E+02 0.  0.
         -6    2    1    2    0  503 -0.44313144969E+02  0.20648010047E+02 -0.78275021684E+02  0.19567040675E+03  0.17253965898E+03 0.  0.
        -24    2    5    5    0    0 -0.13740151525E+02 -0.49533241536E+02 -0.70142970785E+02  0.11854494887E+03  0.80563855234E+02 0.  0.
          4    1    4    4  501    0  0.20087953456E+02 -0.45301772890E+02  0.17246027621E+02  0.52470963110E+02  0.00000000000E+00 0. -1.
         -3    1    4    4    0  501  0.54721994688E+02  0.28175160330E+02  0.10153763673E+02  0.62381369647E+02  0.00000000000E+00 0.  1.
          5    1    3    3  502    0 -0.30496803174E+02 -0.35213974876E+01 -0.80994257534E+02  0.86744538719E+02  0.47000000000E+01 0. -1.
         13    1    6    6    0    0  0.14725758260E+02  0.16720590652E+02 -0.91019962264E+01  0.24068079345E+02  0.00000000000E+00 0. -1.
        -14    1    6    6    0    0 -0.28465909785E+02 -0.66253832187E+02 -0.61040974558E+02  0.94476869521E+02  0.00000000000E+00 0.  1.
         -5    1    5    5    0  503 -0.30572993444E+02  0.70181251583E+02 -0.81320508990E+01  0.77125457883E+02  0.47000000000E+01 0.  1.
<mgrwt>
<rscale>  2 0.19047584E+03</rscale>
<asrwt>0</asrwt>
<pdfrwt beam="1">  1       21 0.20415215E-01 0.19434231E+03</pdfrwt>
<pdfrwt beam="2">  1       21 0.40702828E-01 0.19434231E+03</pdfrwt>
<totfact> 0.12909499E+05</totfact>
</mgrwt>
</event>
<event>
12    1  0.2768653E-001  0.1880366E+03  0.7546771E-02  0.1160592E+00
         21   -1    0    0  504  503  0.00000000000E+00  0.00000000000E+00  0.33279317412E+03  0.33279317412E+03  0.00000000000E+00 0. -1.
         21   -1    0    0  502  504 -0.00000000000E+00 -0.00000000000E+00 -0.29856264329E+03  0.29856264329E+03  0.00000000000E+00 0.  1.
          6    2    1    2  502    0  0.15998727609E+02 -0.71382304259E+02 -0.23682878443E+03  0.30146052021E+03  0.17157849360E+03 0.  0.
         24    2    3    3    0    0  0.10928886442E+02 -0.89401056999E+02 -0.82765649561E+02  0.14619327233E+03  0.80064540061E+02 0.  0.
         -6    2    1    2    0  503 -0.15998727609E+02  0.71382304259E+02  0.27105931525E+03  0.32989529720E+03  0.17322344554E+03 0.  0.
        -24    2    5    5    0    0 -0.23278564314E+02  0.10606572532E+03  0.26265865541E+03  0.29317205109E+03  0.71891951109E+02 0.  0.
          4    1    4    4  501    0 -0.69908215562E+01 -0.96014209902E+02 -0.50531048869E+02  0.10872436244E+03  0.00000000000E+00 0. -1.
         -3    1    4    4    0  501  0.17919707998E+02  0.66131529032E+01 -0.32234600692E+02  0.37468909883E+02  0.00000000000E+00 0.  1.
          5    1    3    3  502    0  0.50698411663E+01  0.18018752740E+02 -0.15406313487E+03  0.15526724788E+03  0.47000000000E+01 0. -1.
         13    1    6    6    0    0 -0.30832210870E+02  0.54266686988E+02  0.20936401525E+03  0.21846919560E+03  0.00000000000E+00 0. -1.
        -14    1    6    6    0    0  0.75536465558E+01  0.51799038337E+02  0.53294640155E+02  0.74702855489E+02  0.00000000000E+00 0.  1.
         -5    1    5    5    0  503  0.72798367059E+01 -0.34683421066E+02  0.84006598433E+01  0.36723246113E+02  0.47000000000E+01 0.  1.
<mgrwt>
<rscale>  2 0.18765686E+03</rscale>
<asrwt>0</asrwt>
<pdfrwt beam="1">  1       21 0.51198950E-01 0.18803658E+03</pdfrwt>
<pdfrwt beam="2">  1       21 0.45932714E-01 0.18803658E+03</pdfrwt>
<totfact> 0.16521469E+04</totfact>
</mgrwt>
</event>
<event>
12    1  0.2768653E-001  0.2174289E+03  0.7546771E-02  0.1135974E+00
         21   -1    0    0  504  503  0.00000000000E+00  0.00000000000E+00  0.39301084817E+02  0.39301084817E+02  0.00000000000E+00 0. -1.
         21   -1    0    0  502  504 -0.00000000000E+00 -0.00000000000E+00 -0.17016588267E+04  0.17016588267E+04  0.00000000000E+00 0. -1.
          6    2    1    2  502    0  0.11208513044E+03 -0.68286712328E+02 -0.13057679933E+04  0.13237467201E+04  0.17334697963E+03 0.  0.
         24    2    3    3    0    0  0.11261745853E+03 -0.10707925485E+03 -0.10683988079E+04  0.10831820410E+04  0.87513783487E+02 0.  0.
         -6    2    1    2    0  503 -0.11208513044E+03  0.68286712328E+02 -0.35658974861E+03  0.41721319136E+03  0.17229174872E+03 0.  0.
        -24    2    5    5    0    0 -0.98947058143E+01  0.89408669763E+02 -0.20923846278E+03  0.23659339341E+03  0.64061564675E+02 0.  0.
          4    1    4    4  501    0  0.12106577682E+03 -0.99560817134E+02 -0.10496302380E+04  0.10612694828E+04  0.00000000000E+00 0. -1.
         -3    1    4    4    0  501 -0.84483182950E+01 -0.75184377144E+01 -0.18768569946E+02  0.21912558169E+02  0.00000000000E+00 0.  1.
          5    1    3    3  502    0 -0.53232808399E+00  0.38792542521E+02 -0.23736918532E+03  0.24056467918E+03  0.47000000000E+01 0. -1.
         13    1    6    6    0    0 -0.19212269189E+02  0.31494943989E+02 -0.28630311784E+02  0.46698367606E+02  0.00000000000E+00 0. -1.
        -14    1    6    6    0    0  0.93175633744E+01  0.57913725775E+02 -0.18060815100E+03  0.18989502581E+03  0.00000000000E+00 0.  1.
         -5    1    5    5    0  503 -0.10219042463E+03 -0.21121957435E+02 -0.14735128583E+03  0.18061979794E+03  0.47000000000E+01 0.  1.
<mgrwt>
<rscale>  2 0.21721851E+03</rscale>
<asrwt>0</asrwt>
<pdfrwt beam="1">  1       21 0.60463204E-02 0.21742890E+03</pdfrwt>
<pdfrwt beam="2">  1       21 0.26179368E+00 0.21742890E+03</pdfrwt>
<totfact> 0.10786966E+04</totfact>
</mgrwt>
</event>
<event>
12    1  0.2768653E-001  0.1761711E+03  0.7546771E-02  0.1171569E+00
         21   -1    0    0  504  503  0.00000000000E+00  0.00000000000E+00  0.33030378000E+03  0.33030378000E+03  0.00000000000E+00 0. -1.
         21   -1    0    0  502  504 -0.00000000000E+00 -0.00000000000E+00 -0.10980448340E+03  0.10980448340E+03  0.00000000000E+00 0. -1.
          6    2    1    2  502    0 -0.24265424573E+02 -0.14037010081E+02  0.26630223657E+02  0.17817250580E+03  0.17392649175E+03 0.  0.
         24    2    3    3    0    0 -0.61692458477E+01 -0.74513174333E+02  0.11083673183E+01  0.10992081514E+03  0.80567266184E+02 0.  0.
         -6    2    1    2    0  503  0.24265424573E+02  0.14037010081E+02  0.19386907294E+03  0.26193575760E+03  0.17389443690E+03 0.  0.
        -24    2    5    5    0    0  0.46715922678E+01  0.76153361725E+02  0.12517207887E+03  0.16715323600E+03  0.80318096974E+02 0.  0.
          4    1    4    4  501    0  0.11733219953E+02 -0.34551616374E+02  0.37985721766E+02  0.52672551700E+02  0.00000000000E+00 0. -1.
         -3    1    4    4    0  501 -0.17902465801E+02 -0.39961557958E+02 -0.36877354448E+02  0.57248263443E+02  0.00000000000E+00 0.  1.
          5    1    3    3  502    0 -0.18096178725E+02  0.60476164252E+02  0.25521856339E+02  0.68251690661E+02  0.47000000000E+01 0. -1.
         11    1    6    6    0    0  0.73255356303E+01  0.40988873892E+02  0.50281624688E+01  0.41940835388E+02  0.00000000000E+00 0. -1.
        -12    1    6    6    0    0 -0.26539433625E+01  0.35164487832E+02  0.12014391640E+03  0.12521240061E+03  0.00000000000E+00 0.  1.
         -5    1    5    5    0  503  0.19593832305E+02 -0.62116351644E+02  0.68696994073E+02  0.94782521599E+02  0.47000000000E+01 0.  1.
<mgrwt>
<rscale>  2 0.17616323E+03</rscale>
<asrwt>0</asrwt>
<pdfrwt beam="1">  1       21 0.50815966E-01 0.17617115E+03</pdfrwt>
<pdfrwt beam="2">  1       21 0.16892998E-01 0.17617115E+03</pdfrwt>
<totfact> 0.11696025E+05</totfact>
</mgrwt>
</event>
<event>
12    1  0.2768653E-001  0.2009529E+03  0.7546771E-02  0.1149069E+00
         21   -1    0    0  504  503  0.00000000000E+00  0.00000000000E+00  0.12035591605E+03  0.12035591605E+03  0.00000000000E+00 0. -1.
         21   -1    0    0  502  504 -0.00000000000E+00 -0.00000000000E+00 -0.33842145753E+03  0.33842145753E+03  0.00000000000E+00 0. -1.
          6    2    1    2  502    0 -0.31021293435E+02 -0.86206348275E+02 -0.84442725018E+02  0.21797395348E+03  0.17885249637E+03 0.  0.
         24    2    3    3    0    0 -0.16374786989E+02 -0.10569303696E+03 -0.11636591917E+03  0.17753348473E+03  0.80857648658E+02 0.  0.
         -6    2    1    2    0  503  0.31021293435E+02  0.86206348275E+02 -0.13362281646E+03  0.24080342011E+03  0.17814986648E+03 0.  0.
        -24    2    5    5    0    0 -0.72737139267E+01  0.11523553470E+03 -0.13111942771E+03  0.19245511912E+03  0.80712658119E+02 0.  0.
          2    1    4    4  501    0  0.25427567503E+02 -0.11876624916E+02 -0.42864534274E+02  0.51234594827E+02  0.00000000000E+00 0. -1.
         -1    1    4    4    0  501 -0.41802354491E+02 -0.93816412048E+02 -0.73501384894E+02  0.12629888991E+03  0.00000000000E+00 0.  1.
          5    1    3    3  502    0 -0.14646506447E+02  0.19486688690E+02  0.31923194151E+02  0.40440468741E+02  0.47000000000E+01 0. -1.
         13    1    6    6    0    0 -0.31241818373E+01  0.91830617578E+01  0.11265590384E+02  0.14866158283E+02  0.00000000000E+00 0. -1.
        -14    1    6    6    0    0 -0.41495320893E+01  0.10605247294E+03 -0.14238501809E+03  0.17758896084E+03  0.00000000000E+00 0.  1.
         -5    1    5    5    0  503  0.38295007362E+02 -0.29029186426E+02 -0.25033887515E+01  0.48348300990E+02  0.47000000000E+01 0.  1.
<mgrwt>
<rscale>  2 0.20079645E+03</rscale>
<asrwt>0</asrwt>
<pdfrwt beam="1">  1       21 0.18516295E-01 0.20095291E+03</pdfrwt>
<pdfrwt beam="2">  1       21 0.52064839E-01 0.20095291E+03</pdfrwt>
<totfact> 0.92964414E+04</totfact>
</mgrwt>
</event>
<event>
12    1  0.2768653E-001  0.1757831E+03  0.7546771E-02  0.1172513E+00
         21   -1    0    0  504  503  0.00000000000E+00  0.00000000000E+00  0.14142019389E+03  0.14142019389E+03  0.00000000000E+00 0.  1.
         21   -1    0    0  502  504 -0.00000000000E+00 -0.00000000000E+00 -0.71702037466E+03  0.71702037466E+03  0.00000000000E+00 0.  1.
          6    2    1    2  502    0  0.17957650895E+02 -0.29206207504E+01 -0.64725149307E+03  0.67069678577E+03  0.17483899997E+03 0.  0.
         24    2    3    3    0    0 -0.33124295624E+02 -0.45544025743E+02 -0.49333704175E+03  0.50295332617E+03  0.80057069029E+02 0.  0.
         -6    2    1    2    0  503 -0.17957650895E+02  0.29206207504E+01  0.71651312303E+02  0.18774378278E+03  0.17257696882E+03 0.  0.
        -24    2    5    5    0    0 -0.53804019054E+02  0.53803923210E+02  0.57232830645E+02  0.12368088250E+03  0.78940668691E+02 0.  0.
          4    1    4    4  501    0 -0.19410757302E+02 -0.55498712098E+02 -0.18428224026E+03  0.19343430053E+03  0.00000000000E+00 0. -1.
         -3    1    4    4    0  501 -0.13713538323E+02  0.99546863543E+01 -0.30905480148E+03  0.30951902564E+03  0.00000000000E+00 0.  1.
          5    1    3    3  502    0  0.51081946519E+02  0.42623404993E+02 -0.15391445132E+03  0.16774345960E+03  0.47000000000E+01 0. -1.
         11    1    6    6    0    0  0.19379078957E+02  0.13859971655E+01  0.74079523992E+01  0.20792966313E+02  0.00000000000E+00 0. -1.
        -12    1    6    6    0    0 -0.73183098011E+02  0.52417926045E+02  0.49824878246E+02  0.10288791619E+03  0.00000000000E+00 0.  1.
         -5    1    5    5    0  503  0.35846368160E+02 -0.50883302460E+02  0.14418481658E+02  0.64062900284E+02  0.47000000000E+01 0.  1.
<mgrwt>
<rscale>  2 0.17521791E+03</rscale>
<asrwt>0</asrwt>
<pdfrwt beam="1">  1       21 0.21756953E-01 0.17578306E+03</pdfrwt>
<pdfrwt beam="2">  1       21 0.11031083E+00 0.17578306E+03</pdfrwt>
<totfact> 0.12936241E+04</totfact>
</mgrwt>
</event>
<event>
12    1  0.2768653E-001  0.1953008E+03  0.7546771E-02  0.1154271E+00
         21   -1    0    0  504  503  0.00000000000E+00  0.00000000000E+00  0.91350399437E+03  0.91350399437E+03  0.00000000000E+00 0.  1.
         21   -1    0    0  502  504 -0.00000000000E+00 -0.00000000000E+00 -0.72718564291E+02  0.72718564291E+02  0.00000000000E+00 0.  1.
          6    2    1    2  502    0  0.58578064728E+02  0.65081494477E+02  0.94651624560E+02  0.21495214546E+03  0.17198402314E+03 0.  0.
         24    2    3    3    0    0  0.72376099500E+02 -0.13296210684E+02  0.42670481660E+02  0.11978082810E+03  0.84330230512E+02 0.  0.
         -6    2    1    2    0  503 -0.58578064728E+02 -0.65081494477E+02  0.74613380552E+03  0.77127041321E+03  0.17457205950E+03 0.  0.
        -24    2    5    5    0    0 -0.92536951932E+02 -0.43635763770E+01  0.41071447273E+03  0.42868014713E+03  0.80611178905E+02 0.  0.
          2    1    4    4  501    0  0.14864384435E+02 -0.43870946999E+02  0.12370030045E+02  0.47944004406E+02  0.00000000000E+00 0. -1.
         -1    1    4    4    0  501  0.57511715065E+02  0.30574736315E+02  0.30300451615E+02  0.71836823695E+02  0.00000000000E+00 0.  1.
          5    1    3    3  502    0 -0.13798034772E+02  0.78377705161E+02  0.51981142900E+02  0.95171317355E+02  0.47000000000E+01 0. -1.
         13    1    6    6    0    0 -0.68958870551E+01  0.18591910483E+02  0.18681093022E+03  0.18786041638E+03  0.00000000000E+00 0. -1.
        -14    1    6    6    0    0 -0.85641064877E+02 -0.22955486860E+02  0.22390354251E+03  0.24081973075E+03  0.00000000000E+00 0.  1.
         -5    1    5    5    0  503  0.33958887204E+02 -0.60717918100E+02  0.33541933280E+03  0.34259026608E+03  0.47000000000E+01 0.  1.
<mgrwt>
<rscale>  2 0.19472074E+03</rscale>
<asrwt>0</asrwt>
<pdfrwt beam="1">  1       21 0.14053907E+00 0.19530078E+03</pdfrwt>
<pdfrwt beam="2">  1       21 0.11187472E-01 0.19530078E+03</pdfrwt>
<totfact> 0.23521995E+04</totfact>
</mgrwt>
</event>
<event>
12    1  0.2768653E-001  0.2144539E+03  0.7546771E-02  0.1138849E+00
         21   -1    0    0  504  503  0.00000000000E+00  0.00000000000E+00  0.18498941172E+03  0.18498941172E+03  0.00000000000E+00 0.  1.
         21   -1    0    0  502  504 -0.00000000000E+00 -0.00000000000E+00 -0.24431933161E+03  0.24431933161E+03  0.00000000000E+00 0.  1.
          6    2    1    2  502    0 -0.10052948065E+03  0.64209086418E+02 -0.36531203607E+02  0.21754309276E+03  0.17821752191E+03 0.  0.
         24    2    3    3    0    0 -0.15030135455E+02  0.31730774684E+02  0.42129269898E+02  0.96818037976E+02  0.79787906738E+02 0.  0.
         -6    2    1    2    0  503  0.10052948065E+03 -0.64209086418E+02 -0.22798716290E+02  0.21176565057E+03  0.17348177437E+03 0.  0.
        -24    2    5    5    0    0 -0.21193813742E+01 -0.27656662413E+01 -0.38357443414E+02  0.91033522501E+02  0.82484350434E+02 0.  0.
          2    1    4    4  501    0  0.13743246489E+02 -0.51664364573E+01  0.47503122625E+02  0.49720373579E+02  0.00000000000E+00 0. -1.
         -1    1    4    4    0  501 -0.28773381944E+02  0.36897211141E+02 -0.53738527274E+01  0.47097664397E+02  0.00000000000E+00 0.  1.
          5    1    3    3  502    0 -0.85499345194E+02  0.32478311734E+02 -0.78660473504E+02  0.12072505479E+03  0.47000000000E+01 0. -1.
         13    1    6    6    0    0  0.36252116334E+02  0.15607577064E+02 -0.13250049739E+02  0.41633835021E+02  0.00000000000E+00 0. -1.
        -14    1    6    6    0    0 -0.38371497708E+02 -0.18373243305E+02 -0.25107393674E+02  0.49399687479E+02  0.00000000000E+00 0.  1.
         -5    1    5    5    0  503  0.10264886202E+03 -0.61443420176E+02  0.15558727123E+02  0.12073212807E+03  0.47000000000E+01 0.  1.
<mgrwt>
<rscale>  2 0.21346733E+03</rscale>
<asrwt>0</asrwt>
<pdfrwt beam="1">  1       21 0.28459909E-01 0.21445388E+03</pdfrwt>
<pdfrwt beam="2">  1       21 0.37587590E-01 0.21445388E+03</pdfrwt>
<totfact> 0.79846883E+04</totfact>
</mgrwt>
</event>
<event>
12    1  0.2768653E-001  0.2157792E+03  0.7546771E-02  0.1137193E+00
         21   -1    0    0  504  503  0.00000000000E+00  0.00000000000E+00  0.78929388955E+02  0.78929388955E+02  0.00000000000E+00 0.  1.
         21   -1    0    0  502  504 -0.00000000000E+00 -0.00000000000E+00 -0.79790240120E+03  0.79790240120E+03  0.00000000000E+00 0.  1.
          6    2    1    2  502    0  0.72332065696E+02 -0.10829567541E+03 -0.58466892100E+03  0.62321618885E+03  0.17204880071E+03 0.  0.
         24    2    3    3    0    0 -0.20768348084E+02 -0.77116924583E+02 -0.24911555401E+03  0.27356214034E+03  0.79995881358E+02 0.  0.
         -6    2    1    2    0  503 -0.72332065696E+02  0.10829567541E+03 -0.13430409125E+03  0.25361560130E+03  0.17124077569E+03 0.  0.
        -24    2    5    5    0    0 -0.67209967531E+02  0.40177207096E+02 -0.11785870139E+02  0.11326188344E+03  0.80981231152E+02 0.  0.
          4    1    4    4  501    0 -0.19740899682E+02  0.10232797503E+02 -0.27589248195E+02  0.35434162625E+02  0.00000000000E+00 0. -1.
         -3    1    4    4    0  501 -0.10274484012E+01 -0.87349722086E+02 -0.22152630582E+03  0.23812797771E+03  0.00000000000E+00 0.  1.
          5    1    3    3  502    0  0.93100413779E+02 -0.31178750832E+02 -0.33555336699E+03  0.34965404852E+03  0.47000000000E+01 0. -1.
         11    1    6    6    0    0 -0.42989468475E+02 -0.20210144583E+02 -0.70875234912E+01  0.48028921840E+02  0.00000000000E+00 0. -1.
        -12    1    6    6    0    0 -0.24220499056E+02  0.60387351679E+02 -0.46983466477E+01  0.65232961596E+02  0.00000000000E+00 0.  1.
         -5    1    5    5    0  503 -0.51220981645E+01  0.68118468319E+02 -0.12251822111E+03  0.14035371787E+03  0.47000000000E+01 0.  1.
<mgrwt>
<rscale>  2 0.21561811E+03</rscale>
<asrwt>0</asrwt>
<pdfrwt beam="1">  1       21 0.12142983E-01 0.21577922E+03</pdfrwt>
<pdfrwt beam="2">  1       21 0.12275422E+00 0.21577922E+03</pdfrwt>
<totfact> 0.28288399E+04</totfact>
</mgrwt>
</event>
<event>
12    1  0.2768653E-001  0.1735715E+03  0.7546771E-02  0.1174181E+00
         21   -1    0    0  504  503  0.00000000000E+00  0.00000000000E+00  0.60055677489E+02  0.60055677489E+02  0.00000000000E+00 0.  1.
         21   -1    0    0  502  504 -0.00000000000E+00 -0.00000000000E+00 -0.19647392647E+04  0.19647392647E+04  0.00000000000E+00 0.  1.
          6    2    1    2  502    0  0.14047447689E+01  0.11925245354E+02 -0.18259889749E+04  0.18342170881E+04  0.17312540210E+03 0.  0.
         24    2    3    3    0    0 -0.29008047356E+02  0.63404976150E+02 -0.96298293484E+03  0.96912945331E+03  0.83750263628E+02 0.  0.
         -6    2    1    2    0  503 -0.14047447689E+01 -0.11925245354E+02 -0.78694612340E+02  0.19057785417E+03  0.17315568632E+03 0.  0.
        -24    2    5    5    0    0 -0.35915991475E+02  0.24259724176E+02 -0.10068483660E+03  0.13575050577E+03  0.80076656002E+02 0.  0.
          2    1    4    4  501    0 -0.58458377542E+02  0.36262269553E+02 -0.63144884126E+03  0.63518499134E+03  0.00000000000E+00 0. -1.
         -1    1    4    4    0  501  0.29450330186E+02  0.27142706597E+02 -0.33153409358E+03  0.33394446197E+03  0.00000000000E+00 0.  1.
          5    1    3    3  502    0  0.30412792125E+02 -0.51479730797E+02 -0.86300604007E+03  0.86508763475E+03  0.47000000000E+01 0. -1.
         13    1    6    6    0    0 -0.85548904424E+01  0.35456187380E+02 -0.99709439161E+02  0.10617108661E+03  0.00000000000E+00 0. -1.
        -14    1    6    6    0    0 -0.27361101032E+02 -0.11196463204E+02 -0.97539743694E+00  0.29579419165E+02  0.00000000000E+00 0.  1.
         -5    1    5    5    0  503  0.34511246706E+02 -0.36184969530E+02  0.21990224258E+02  0.54827348395E+02  0.47000000000E+01 0.  1.
<mgrwt>
<rscale>  2 0.17356398E+03</rscale>
<asrwt>0</asrwt>
<pdfrwt beam="1">  1       21 0.92393351E-02 0.17357153E+03</pdfrwt>
<pdfrwt beam="2">  1       21 0.30226757E+00 0.17357153E+03</pdfrwt>
<totfact> 0.31664383E+03</totfact>
</mgrwt>
</event>
<event>
12    1  0.2768653E-001  0.2076408E+03  0.7546771E-02  0.1143715E+00
         21   -1    0    0  504  503  0.00000000000E+00  0.00000000000E+00  0.37482292354E+03  0.37482292354E+03  0.00000000000E+00 0. -1.
         21   -1    0    0  502  504 -0.00000000000E+00 -0.00000000000E+00 -0.12156494130E+03  0.12156494130E+03  0.00000000000E+00 0.  1.
          6    2    1    2  502    0 -0.41207660700E+02  0.10657170495E+03  0.66313239990E+02  0.21797283543E+03  0.17337563725E+03 0.  0.
         24    2    3    3    0    0  0.41912964152E+02  0.56819975781E+02  0.55420950823E+02  0.12037670439E+03  0.80211364267E+02 0.  0.
         -6    2    1    2    0  503  0.41207660700E+02 -0.10657170495E+03  0.18694474224E+03  0.27841502941E+03  0.17178763736E+03 0.  0.
        -24    2    5    5    0    0 -0.30921831693E+02 -0.33238600823E+02  0.13468644110E+03  0.16294456620E+03  0.79683938018E+02 0.  0.
          4    1    4    4  501    0  0.48341283931E+02 -0.81730850407E+00  0.31111515403E+02  0.57493252786E+02  0.00000000000E+00 0. -1.
         -3    1    4    4    0  501 -0.64283197796E+01  0.57637284285E+02  0.24309435420E+02  0.62883451602E+02  0.00000000000E+00 0.  1.
          5    1    3    3  502    0 -0.83120624851E+02  0.49751729174E+02  0.10892289167E+02  0.97596131044E+02  0.47000000000E+01 0. -1.
         13    1    6    6    0    0  0.15019291961E+02 -0.27206702563E+02  0.10095926019E+03  0.10563406654E+03  0.00000000000E+00 0. -1.
        -14    1    6    6    0    0 -0.45941123654E+02 -0.60318982591E+01  0.33727180908E+02  0.57310499659E+02  0.00000000000E+00 0.  1.
         -5    1    5    5    0  503  0.72129492392E+02 -0.73333104132E+02  0.52258301144E+02  0.11547046321E+03  0.47000000000E+01 0.  1.
<mgrwt>
<rscale>  2 0.20730900E+03</rscale>
<asrwt>0</asrwt>
<pdfrwt beam="1">  1       21 0.57665065E-01 0.20764082E+03</pdfrwt>
<pdfrwt beam="2">  1       21 0.18702299E-01 0.20764082E+03</pdfrwt>
<totfact> 0.73292869E+04</totfact>
</mgrwt>
</event>
<event>
12    1  0.2768653E-001  0.2139223E+03  0.7546771E-02  0.1140088E+00
         21   -1    0    0  504  503  0.00000000000E+00  0.00000000000E+00  0.21761075452E+03  0.21761075452E+03  0.00000000000E+00 0.  1.
         21   -1    0    0  502  504 -0.00000000000E+00 -0.00000000000E+00 -0.29158137672E+03  0.29158137672E+03  0.00000000000E+00 0.  1.
          6    2    1    2  502    0  0.94606742887E+02 -0.82115819574E+02 -0.17724069421E+03  0.27164745321E+03  0.16335431285E+03 0.  0.
         24    2    3    3    0    0  0.77634268634E+02 -0.12113337612E+03 -0.13543650604E+03  0.21181339310E+03  0.76298701504E+02 0.  0.
         -6    2    1    2    0  503 -0.94606742887E+02  0.82115819574E+02  0.10327007201E+03  0.23754467803E+03  0.17340508259E+03 0.  0.
        -24    2    5    5    0    0 -0.78735435858E+02  0.83641923543E+02  0.79145402506E+01  0.14075110998E+03  0.80950569979E+02 0.  0.
          4    1    4    4  501    0  0.76465749194E+02 -0.70690101228E+02 -0.57459995554E+02  0.11893591678E+03  0.00000000000E+00 0. -1.
         -3    1    4    4    0  501  0.11685194396E+01 -0.50443274890E+02 -0.77976510488E+02  0.92877476318E+02  0.00000000000E+00 0.  1.
          5    1    3    3  502    0  0.16972474253E+02  0.39017556545E+02 -0.41804188168E+02  0.59834060111E+02  0.47000000000E+01 0. -1.
         11    1    6    6    0    0 -0.61799455559E+02  0.89641467658E+01 -0.66666884540E+01  0.62801061851E+02  0.00000000000E+00 0. -1.
        -12    1    6    6    0    0 -0.16935980299E+02  0.74677776777E+02  0.14581228705E+02  0.77950048130E+02  0.00000000000E+00 0.  1.
         -5    1    5    5    0  503 -0.15871307029E+02 -0.15261039689E+01  0.95355531755E+02  0.96793568053E+02  0.47000000000E+01 0.  1.
<mgrwt>
<rscale>  2 0.21187746E+03</rscale>
<asrwt>0</asrwt>
<pdfrwt beam="1">  1       21 0.33478577E-01 0.21392234E+03</pdfrwt>
<pdfrwt beam="2">  1       21 0.44858674E-01 0.21392234E+03</pdfrwt>
<totfact> 0.40545946E+04</totfact>
</mgrwt>
</event>
<event>
12    1  0.2768653E-001  0.2761312E+03  0.7546771E-02  0.1097936E+00
         21   -1    0    0  504  503  0.00000000000E+00  0.00000000000E+00  0.32955982055E+03  0.32955982055E+03  0.00000000000E+00 0.  1.
         21   -1    0    0  502  504 -0.00000000000E+00 -0.00000000000E+00 -0.48243305353E+03  0.48243305353E+03  0.00000000000E+00 0.  1.
          6    2    1    2  502    0  0.12034794289E+03 -0.17769836659E+03 -0.36978149384E+03  0.46150492499E+03  0.17374724676E+03 0.  0.
         24    2    3    3    0    0  0.11990417493E+03 -0.54303809554E+02 -0.20640960196E+03  0.25671508469E+03  0.77277396606E+02 0.  0.
         -6    2    1    2    0  503 -0.12034794289E+03  0.17769836659E+03  0.21690826086E+03  0.35048794909E+03  0.17243048449E+03 0.  0.
        -24    2    5    5    0    0 -0.21992021041E+02  0.70460369115E+02  0.16129631674E+03  0.19463977363E+03  0.80123823431E+02 0.  0.
          4    1    4    4  501    0  0.49570911276E+02 -0.64730957610E+02 -0.10952861345E+03  0.13654262808E+03  0.00000000000E+00 0. -1.
         -3    1    4    4    0  501  0.70333263651E+02  0.10427148056E+02 -0.96880988512E+02  0.12017245661E+03  0.00000000000E+00 0.  1.
          5    1    3    3  502    0  0.44376796010E+00 -0.12339455704E+03 -0.16337189188E+03  0.20478984030E+03  0.47000000000E+01 0. -1.
         13    1    6    6    0    0  0.17064381051E+02 -0.92137099208E+01  0.20530968684E+02  0.28241923204E+02  0.00000000000E+00 0. -1.
        -14    1    6    6    0    0 -0.39056402091E+02  0.79674079035E+02  0.14076534805E+03  0.16639785043E+03  0.00000000000E+00 0.  1.
         -5    1    5    5    0  503 -0.98355921847E+02  0.10723799748E+03  0.55611944120E+02  0.15584817546E+03  0.47000000000E+01 0.  1.
<mgrwt>
<rscale>  2 0.27592432E+03</rscale>
<asrwt>0</asrwt>
<pdfrwt beam="1">  1       21 0.50701511E-01 0.27613121E+03</pdfrwt>
<pdfrwt beam="2">  1       21 0.74220470E-01 0.27613121E+03</pdfrwt>
<totfact> 0.57046326E+03</totfact>
</mgrwt>
</event>
<event>
12    1  0.2768653E-001  0.1879049E+03  0.7546771E-02  0.1160701E+00
         21   -1    0    0  504  503  0.00000000000E+00  0.00000000000E+00  0.31379917324E+03  0.31379917324E+03  0.00000000000E+00 0.  1.
         21   -1    0    0  502  504 -0.00000000000E+00 -0.00000000000E+00 -0.11649493583E+03  0.11649493583E+03  0.00000000000E+00 0. -1.
          6    2    1    2  502    0  0.62815611826E+02  0.28110820833E+02  0.14218389169E+03  0.23447150183E+03  0.17327609985E+03 0.  0.
         24    2    3    3    0    0  0.77130705100E+02 -0.57378030508E+01  0.25999866888E+02  0.11252286981E+03  0.77481191903E+02 0.  0.
         -6    2    1    2    0  503 -0.62815611826E+02 -0.28110820833E+02  0.55120345722E+02  0.19582260724E+03  0.17484913970E+03 0.  0.
        -24    2    5    5    0    0 -0.59326797324E+01 -0.75305294759E+02  0.52006106555E+02  0.12169585890E+03  0.79994767625E+02 0.  0.
          4    1    4    4  501    0  0.33820522664E+02  0.17692151849E+02 -0.21750657140E+02  0.43930980826E+02  0.00000000000E+00 0. -1.
         -3    1    4    4    0  501  0.43310182436E+02 -0.23429954899E+02  0.47750524028E+02  0.68591888982E+02  0.00000000000E+00 0.  1.
          5    1    3    3  502    0 -0.14315093274E+02  0.33848623883E+02  0.11618402480E+03  0.12194863202E+03  0.47000000000E+01 0. -1.
         11    1    6    6    0    0 -0.85931233716E+01 -0.26079595535E+02 -0.20325043318E+02  0.34162764209E+02  0.00000000000E+00 0. -1.
        -12    1    6    6    0    0  0.26604436392E+01 -0.49225699224E+02  0.72331149874E+02  0.87533094693E+02  0.00000000000E+00 0.  1.
         -5    1    5    5    0  503 -0.56882932094E+02  0.47194473927E+02  0.31142391669E+01  0.74126748333E+02  0.47000000000E+01 0.  1.
<mgrwt>
<rscale>  2 0.18753809E+03</rscale>
<asrwt>0</asrwt>
<pdfrwt beam="1">  1       21 0.48276796E-01 0.18790487E+03</pdfrwt>
<pdfrwt beam="2">  1       21 0.17922298E-01 0.18790487E+03</pdfrwt>
<totfact> 0.11619721E+05</totfact>
</mgrwt>
</event>
<event>
12    1  0.2768653E-001  0.2413101E+03  0.7546771E-02  0.1118952E+00
         21   -1    0    0  504  503  0.00000000000E+00  0.00000000000E+00  0.59553829094E+03  0.59553829094E+03  0.00000000000E+00 0. -1.
         21   -1    0    0  502  504 -0.00000000000E+00 -0.00000000000E+00 -0.10014402638E+03  0.10014402638E+03  0.00000000000E+00 0. -1.
          6    2    1    2  502    0 -0.16145393103E+03 -0.46633183026E+02  0.19352132784E+03  0.30932356920E+03  0.17317199696E+03 0.  0.
         24    2    3    3    0    0 -0.87078861029E+02 -0.92084943722E+02  0.12886263725E+03  0.20069415396E+03  0.87236455995E+02 0.  0.
         -6    2    1    2    0  503  0.16145393103E+03  0.46633183026E+02  0.30187293672E+03  0.38635874812E+03  0.17292711390E+03 0.  0.
        -24    2    5    5    0    0  0.17671118193E+03  0.50697361153E+02  0.20004679304E+03  0.28320859162E+03  0.79945748594E+02 0.  0.
          4    1    4    4  501    0 -0.56350053895E+01 -0.30016346250E+02 -0.62386495271E+01  0.31171382322E+02  0.00000000000E+00 0. -1.
         -3    1    4    4    0  501 -0.81443855640E+02 -0.62068597472E+02  0.13510128678E+03  0.16952277163E+03  0.00000000000E+00 0.  1.
          5    1    3    3  502    0 -0.74375070000E+02  0.45451760696E+02  0.64658690587E+02  0.10862941524E+03  0.47000000000E+01 0. -1.
         13    1    6    6    0    0  0.11514825316E+03  0.16620274888E+02  0.17157810037E+03  0.20730267309E+03  0.00000000000E+00 0. -1.
        -14    1    6    6    0    0  0.61562928763E+02  0.34077086265E+02  0.28468692672E+02  0.75905918535E+02  0.00000000000E+00 0.  1.
         -5    1    5    5    0  503 -0.15257250897E+02 -0.40641781268E+01  0.10182614368E+03  0.10315015650E+03  0.47000000000E+01 0.  1.
<mgrwt>
<rscale>  2 0.24126617E+03</rscale>
<asrwt>0</asrwt>
<pdfrwt beam="1">  1       21 0.91621273E-01 0.24131010E+03</pdfrwt>
<pdfrwt beam="2">  1       21 0.15406774E-01 0.24131010E+03</pdfrwt>
<totfact> 0.36747210E+04</totfact>
</mgrwt>
</event>
<event>
12    1  0.2768653E-001  0.1963673E+03  0.7546771E-02  0.1153078E+00
         21   -1    0    0  504  503  0.00000000000E+00  0.00000000000E+00  0.32575813421E+03  0.32575813421E+03  0.00000000000E+00 0. -1.
         21   -1    0    0  502  504 -0.00000000000E+00 -0.00000000000E+00 -0.14973271204E+03  0.14973271204E+03  0.00000000000E+00 0. -1.
          6    2    1    2  502    0 -0.34828475704E+01 -0.91038887803E+02 -0.22126206294E+02  0.19652096222E+03  0.17271569202E+03 0.  0.
         24    2    3    3    0    0 -0.50819699487E+02 -0.19524031105E+01  0.49115308888E+00  0.93027898447E+02  0.77894126379E+02 0.  0.
         -6    2    1    2    0  503  0.34828475704E+01  0.91038887803E+02  0.19815162846E+03  0.27896988402E+03  0.17395378413E+03 0.  0.
        -24    2    5    5    0    0 -0.26761736122E+02  0.90645327870E+02  0.21280386455E+03  0.24503365332E+03  0.76310159919E+02 0.  0.
          2    1    4    4  501    0 -0.47709391864E+02  0.14627071761E+02 -0.29968869767E+02  0.58208852037E+02  0.00000000000E+00 0. -1.
         -1    1    4    4    0  501 -0.31103076231E+01 -0.16579474872E+02  0.30460022856E+02  0.34819046411E+02  0.00000000000E+00 0.  1.
          5    1    3    3  502    0  0.47336851917E+02 -0.89086484692E+02 -0.22617359383E+02  0.10349306378E+03  0.47000000000E+01 0. -1.
         11    1    6    6    0    0 -0.32677013067E+00  0.56560779724E+02  0.46485453153E+02  0.73212880947E+02  0.00000000000E+00 0. -1.
        -12    1    6    6    0    0 -0.26434965991E+02  0.34084548147E+02  0.16631841139E+03  0.17182077237E+03  0.00000000000E+00 0.  1.
         -5    1    5    5    0  503  0.30244583692E+02  0.39355993229E+00 -0.14652236090E+02  0.33936230707E+02  0.47000000000E+01 0.  1.
<mgrwt>
<rscale>  2 0.19609277E+03</rscale>
<asrwt>0</asrwt>
<pdfrwt beam="1">  1       21 0.50116636E-01 0.19636733E+03</pdfrwt>
<pdfrwt beam="2">  1       21 0.23035802E-01 0.19636733E+03</pdfrwt>
<totfact> 0.66992385E+04</totfact>
</mgrwt>
</event>
<event>
12    1  0.2768653E-001  0.2627310E+03  0.7546771E-02  0.1105957E+00
         21   -1    0    0  504  503  0.00000000000E+00  0.00000000000E+00  0.40635231552E+03  0.40635231552E+03  0.00000000000E+00 0.  1.
         21   -1    0    0  502  504 -0.00000000000E+00 -0.00000000000E+00 -0.17034684070E+03  0.17034684070E+03  0.00000000000E+00 0. -1.
          6    2    1    2  502    0  0.13075134766E+03 -0.14995864415E+03  0.84480718796E+02  0.27597932338E+03  0.17159278894E+03 0.  0.
         24    2    3    3    0    0  0.11485012569E+03 -0.17749909997E+03  0.55967223504E+02  0.23300915954E+03  0.80401843625E+02 0.  0.
         -6    2    1    2    0  503 -0.13075134766E+03  0.14995864415E+03  0.15152475602E+03  0.30071983284E+03  0.16700046799E+03 0.  0.
        -24    2    5    5    0    0 -0.36377265677E+02  0.66901195387E+02  0.10239648472E+02  0.11154113753E+03  0.80854805414E+02 0.  0.
          4    1    4    4  501    0  0.69055538385E+01 -0.40283671537E+02 -0.16374264461E+02  0.44029278928E+02  0.00000000000E+00 0. -1.
         -3    1    4    4    0  501  0.10794457186E+03 -0.13721542844E+03  0.72341487965E+02  0.18897988061E+03  0.00000000000E+00 0.  1.
          5    1    3    3  502    0  0.15901221964E+02  0.27540455824E+02  0.28513495292E+02  0.42970163843E+02  0.47000000000E+01 0. -1.
         11    1    6    6    0    0 -0.18781399393E+02  0.83050144046E+02 -0.98225508834E+00  0.85152992985E+02  0.00000000000E+00 0. -1.
        -12    1    6    6    0    0 -0.17595866284E+02 -0.16148948659E+02  0.11221903560E+02  0.26388144546E+02  0.00000000000E+00 0.  1.
         -5    1    5    5    0  503 -0.94374081981E+02  0.83057448760E+02  0.14128510754E+03  0.18917869531E+03  0.47000000000E+01 0.  1.
<mgrwt>
<rscale>  2 0.26198385E+03</rscale>
<asrwt>0</asrwt>
<pdfrwt beam="1">  1       21 0.62515740E-01 0.26273103E+03</pdfrwt>
<pdfrwt beam="2">  1       21 0.26207206E-01 0.26273103E+03</pdfrwt>
<totfact> 0.31729700E+04</totfact>
</mgrwt>
</event>
<event>
12    1  0.2768653E-001  0.2115975E+03  0.7546771E-02  0.1141310E+00
         21   -1    0    0  504  503  0.00000000000E+00  0.00000000000E+00  0.40114426934E+03  0.40114426934E+03  0.00000000000E+00 0. -1.
         21   -1    0    0  502  504 -0.00000000000E+00 -0.00000000000E+00 -0.14766210975E+03  0.14766210975E+03  0.00000000000E+00 0.  1.
          6    2    1    2  502    0 -0.11680227232E+03  0.42840629530E+02 -0.12591878839E+02  0.21197186223E+03  0.17115906230E+03 0.  0.
         24    2    3    3    0    0 -0.17440912349E+02  0.65304356343E+02 -0.30310523409E+02  0.10846660032E+03  0.79230241548E+02 0.  0.
         -6    2    1    2    0  503  0.11680227232E+03 -0.42840629530E+02  0.26607403843E+03  0.33683451686E+03  0.16487573339E+03 0.  0.
        -24    2    5    5    0    0  0.79807517234E+02 -0.22092604019E+02  0.66755501042E+02  0.13299864707E+03  0.79843723879E+02 0.  0.
          4    1    4    4  501    0 -0.46827217796E+02  0.21816936152E+02 -0.15052999128E+02  0.53808547763E+02  0.00000000000E+00 0. -1.
         -3    1    4    4    0  501  0.29386305447E+02  0.43487420191E+02 -0.15257524280E+02  0.54658052562E+02  0.00000000000E+00 0.  1.
          5    1    3    3  502    0 -0.99361359971E+02 -0.22463726813E+02  0.17718644570E+02  0.10350526191E+03  0.47000000000E+01 0. -1.
         11    1    6    6    0    0  0.21443136622E+02 -0.37174103023E+01  0.68409370955E+02  0.71787668035E+02  0.00000000000E+00 0. -1.
        -12    1    6    6    0    0  0.58364380612E+02 -0.18375193716E+02 -0.16538699122E+01  0.61210979032E+02  0.00000000000E+00 0.  1.
         -5    1    5    5    0  503  0.36994755086E+02 -0.20748025511E+02  0.19931853739E+03  0.20383586979E+03  0.47000000000E+01 0.  1.
<mgrwt>
<rscale>  2 0.21032370E+03</rscale>
<asrwt>0</asrwt>
<pdfrwt beam="1">  1       21 0.61714503E-01 0.21159753E+03</pdfrwt>
<pdfrwt beam="2">  1       21 0.22717248E-01 0.21159753E+03</pdfrwt>
<totfact> 0.43890324E+04</totfact>
</mgrwt>
</event>
<event>
12    1  0.2768653E-001  0.2766204E+03  0.7546771E-02  0.1097550E+00
         21   -1    0    0  504  503  0.00000000000E+00  0.00000000000E+00  0.60689317016E+03  0.60689317016E+03  0.00000000000E+00 0. -1.
         21   -1    0    0  502  504 -0.00000000000E+00 -0.00000000000E+00 -0.18229679901E+03  0.18229679901E+03  0.00000000000E+00 0.  1.
          6    2    1    2  502    0 -0.16382103253E+03  0.14024474676E+03 -0.68253714647E+01  0.27670463521E+03  0.17324245945E+03 0.  0.
         24    2    3    3    0    0 -0.14766477878E+03  0.12334400606E+03 -0.61340094550E+02  0.21720165541E+03  0.79970752106E+02 0.  0.
         -6    2    1    2    0  503  0.16382103253E+03 -0.14024474676E+03  0.43142174262E+03  0.51248533396E+03  0.17323561363E+03 0.  0.
        -24    2    5    5    0    0  0.11129822433E+03 -0.11694725830E+02  0.20740747915E+03  0.24887912482E+03  0.79993093529E+02 0.  0.
          4    1    4    4  501    0 -0.10287811299E+03  0.87624482433E+02 -0.79891899624E+02  0.15698621493E+03  0.00000000000E+00 0. -1.
         -3    1    4    4    0  501 -0.44786665787E+02  0.35719523626E+02  0.18551805074E+02  0.60215440477E+02  0.00000000000E+00 0.  1.
          5    1    3    3  502    0 -0.16156253750E+02  0.16900740697E+02  0.54514723085E+02  0.59502979794E+02  0.47000000000E+01 0. -1.
         11    1    6    6    0    0  0.98512356832E+02 -0.17402287332E+02  0.21177322519E+03  0.23421234588E+03  0.00000000000E+00 0. -1.
        -12    1    6    6    0    0  0.12785867498E+02  0.57075615027E+01 -0.43657460439E+01  0.14666778941E+02  0.00000000000E+00 0.  1.
         -5    1    5    5    0  503  0.52522808196E+02 -0.12855002093E+03  0.22401426347E+03  0.26360620915E+03  0.47000000000E+01 0.  1.
<mgrwt>
<rscale>  2 0.27661937E+03</rscale>
<asrwt>0</asrwt>
<pdfrwt beam="1">  1       21 0.93368179E-01 0.27662044E+03</pdfrwt>
<pdfrwt beam="2">  1       21 0.28045662E-01 0.27662044E+03</pdfrwt>
<totfact> 0.11150375E+04</totfact>
</mgrwt>
</event>
<event>
12    1  0.2768653E-001  0.1781826E+03  0.7546771E-02  0.1169785E+00
         21   -1    0    0  504  503  0.00000000000E+00  0.00000000000E+00  0.43057166672E+02  0.43057166672E+02  0.00000000000E+00 0. -1.
         21   -1    0    0  502  504 -0.00000000000E+00 -0.00000000000E+00 -0.91949797911E+03  0.91949797911E+03  0.00000000000E+00 0. -1.
          6    2    1    2  502    0 -0.11832953833E+02 -0.36365914733E+02 -0.65533849167E+03  0.67913001829E+03  0.17403029772E+03 0.  0.
         24    2    3    3    0    0 -0.10606257246E+02  0.24916968296E+02 -0.17433702904E+03  0.19421601191E+03  0.81197977702E+02 0.  0.
         -6    2    1    2    0  503  0.11832953833E+02  0.36365914733E+02 -0.22110232077E+03  0.28342512750E+03  0.17315042043E+03 0.  0.
        -24    2    5    5    0    0  0.52356746156E+02 -0.18068849450E+02 -0.71325335758E+02  0.11892419578E+03  0.77381836581E+02 0.  0.
          2    1    4    4  501    0 -0.45773084509E+02  0.18246801191E+02 -0.11141880143E+03  0.12182885672E+03  0.00000000000E+00 0. -1.
         -1    1    4    4    0  501  0.35166827263E+02  0.66701671049E+01 -0.62918227616E+02  0.72387155182E+02  0.00000000000E+00 0.  1.
          5    1    3    3  502    0 -0.12266965867E+01 -0.61282883029E+02 -0.48100146263E+03  0.48491400638E+03  0.47000000000E+01 0. -1.
         11    1    6    6    0    0  0.18754945548E+02 -0.28515428990E+02 -0.76109873092E+02  0.83412172104E+02  0.00000000000E+00 0. -1.
        -12    1    6    6    0    0  0.33601800608E+02  0.10446579540E+02  0.47845373335E+01  0.35512023678E+02  0.00000000000E+00 0.  1.
         -5    1    5    5    0  503 -0.40523792323E+02  0.54434764184E+02 -0.14977698501E+03  0.16450093172E+03  0.47000000000E+01 0.  1.
<mgrwt>
<rscale>  2 0.17796740E+03</rscale>
<asrwt>0</asrwt>
<pdfrwt beam="1">  1       21 0.66241805E-02 0.17818261E+03</pdfrwt>
<pdfrwt beam="2">  1       21 0.14146121E+00 0.17818261E+03</pdfrwt>
<totfact> 0.58400039E+04</totfact>
</mgrwt>
</event>
<event>
12    1  0.2768653E-001  0.1728729E+03  0.7546771E-02  0.1175506E+00
         21   -1    0    0  504  503  0.00000000000E+00  0.00000000000E+00  0.36346019822E+03  0.36346019822E+03  0.00000000000E+00 0. -1.
         21   -1    0    0  502  504 -0.00000000000E+00 -0.00000000000E+00 -0.81770905518E+02  0.81770905518E+02  0.00000000000E+00 0. -1.
          6    2    1    2  502    0  0.79653024209E+01 -0.80775858490E+01  0.16036456599E+03  0.23403276538E+03  0.17007600598E+03 0.  0.
         24    2    3    3    0    0 -0.29058933124E+02  0.46601547239E+02  0.56498132766E+02  0.11086244605E+03  0.77989211686E+02 0.  0.
         -6    2    1    2    0  503 -0.79653024209E+01  0.80775858490E+01  0.12132472672E+03  0.21119833836E+03  0.17250030544E+03 0.  0.
        -24    2    5    5    0    0  0.13423907561E+02  0.67148176795E+02  0.10416148814E+03  0.14590285784E+03  0.75821826496E+02 0.  0.
          2    1    4    4  501    0  0.85488742537E+01  0.24723890135E+02 -0.12733413657E+02  0.29094566808E+02  0.00000000000E+00 0. -1.
         -1    1    4    4    0  501 -0.37607807378E+02  0.21877657104E+02  0.69231546422E+02  0.81767879245E+02  0.00000000000E+00 0.  1.
          5    1    3    3  502    0  0.37024235545E+02 -0.54679133088E+02  0.10386643322E+03  0.12317031933E+03  0.47000000000E+01 0. -1.
         13    1    6    6    0    0 -0.15516610915E+02 -0.10681438826E+01  0.54557668866E+02  0.56731343873E+02  0.00000000000E+00 0. -1.
        -14    1    6    6    0    0  0.28940518476E+02  0.68216320677E+02  0.49603819271E+02  0.89171513964E+02  0.00000000000E+00 0.  1.
         -5    1    5    5    0  503 -0.21389209982E+02 -0.59070590946E+02  0.17163238584E+02  0.65295480525E+02  0.47000000000E+01 0.  1.
<mgrwt>
<rscale>  2 0.17226498E+03</rscale>
<asrwt>0</asrwt>
<pdfrwt beam="1">  1       21 0.55916953E-01 0.17287293E+03</pdfrwt>
<pdfrwt beam="2">  1       21 0.12580140E-01 0.17287293E+03</pdfrwt>
<totfact> 0.16343612E+05</totfact>
</mgrwt>
</event>
<event>
12    1  0.2768653E-001  0.3994271E+03  0.7546771E-02  0.1044038E+00
         21   -1    0    0  504  503  0.00000000000E+00  0.00000000000E+00  0.27973561456E+03  0.27973561456E+03  0.00000000000E+00 0. -1.
         21   -1    0    0  502  504 -0.00000000000E+00 -0.00000000000E+00 -0.61682568201E+03  0.61682568201E+03  0.00000000000E+00 0.  1.
          6    2    1    2  502    0  0.32147320511E+03  0.16248663917E+03 -0.44301816178E+02  0.40187643561E+03  0.17261254029E+03 0.  0.
         24    2    3    3    0    0  0.28182844989E+03  0.18855180788E+03 -0.19728989498E+02  0.34823863693E+03  0.76823536763E+02 0.  0.
         -6    2    1    2    0  503 -0.32147320511E+03 -0.16248663917E+03 -0.29278825127E+03  0.49468486096E+03  0.17100064931E+03 0.  0.
        -24    2    5    5    0    0 -0.30202658078E+03 -0.15830056602E+03 -0.30995425608E+03  0.46799298716E+03  0.81649681383E+02 0.  0.
          4    1    4    4  501    0  0.25429219528E+03  0.19331079888E+03 -0.22120789107E+02  0.32019199686E+03  0.00000000000E+00 0. -1.
         -3    1    4    4    0  501  0.27536254613E+02 -0.47589910071E+01  0.23917996096E+01  0.28046640064E+02  0.00000000000E+00 0.  1.
          5    1    3    3  502    0  0.39644755221E+02 -0.26065168707E+02 -0.24572826680E+02  0.53637798681E+02  0.47000000000E+01 0. -1.
         13    1    6    6    0    0 -0.21272867865E+01 -0.19640151006E+02 -0.23526066570E+02  0.30720297669E+02  0.00000000000E+00 0. -1.
        -14    1    6    6    0    0 -0.29989929399E+03 -0.13866041501E+03 -0.28642818951E+03  0.43727268949E+03  0.00000000000E+00 0.  1.
         -5    1    5    5    0  503 -0.19446624333E+02 -0.41860731550E+01  0.17166004801E+02  0.26691873805E+02  0.47000000000E+01 0.  1.
<mgrwt>
<rscale>  2 0.39925352E+03</rscale>
<asrwt>0</asrwt>
<pdfrwt beam="1">  1       21 0.43036249E-01 0.39942711E+03</pdfrwt>
<pdfrwt beam="2">  1       21 0.94896258E-01 0.39942711E+03</pdfrwt>
<totfact> 0.43006020E+03</totfact>
</mgrwt>
</event>
<event>
12    1  0.2768653E-001  0.1905667E+03  0.7546771E-02  0.1158764E+00
         21   -1    0    0  504  503  0.00000000000E+00  0.00000000000E+00  0.26593576836E+03  0.26593576836E+03  0.00000000000E+00 0.  1.
         21   -1    0    0  502  504 -0.00000000000E+00 -0.00000000000E+00 -0.21096301796E+03  0.21096301796E+03  0.00000000000E+00 0.  1.
          6    2    1    2  502    0  0.49804664285E+02 -0.48780370308E+02 -0.11636332762E+03  0.22328475697E+03  0.17735734991E+03 0.  0.
         24    2    3    3    0    0  0.14781905746E+02 -0.77513825459E+02 -0.13472348969E+03  0.17417884478E+03  0.77207210935E+02 0.  0.
         -6    2    1    2    0  503 -0.49804664285E+02  0.48780370308E+02  0.17133607801E+03  0.25361402935E+03  0.17350502916E+03 0.  0.
        -24    2    5    5    0    0 -0.33809732783E+01  0.12800596911E+02  0.17681080741E+03  0.19443830931E+03  0.79805439972E+02 0.  0.
          2    1    4    4  501    0  0.12551159577E+02 -0.28932624432E+02 -0.11893866736E+03  0.12304891287E+03  0.00000000000E+00 0. -1.
         -1    1    4    4    0  501  0.22307461697E+01 -0.48581201026E+02 -0.15784822323E+02  0.51129931913E+02  0.00000000000E+00 0.  1.
          5    1    3    3  502    0  0.35022758538E+02  0.28733455151E+02  0.18360162071E+02  0.49105912188E+02  0.47000000000E+01 0. -1.
         11    1    6    6    0    0  0.27415213783E+02 -0.20390658872E+02  0.94642618015E+02  0.10062106172E+03  0.00000000000E+00 0. -1.
        -12    1    6    6    0    0 -0.30796187061E+02  0.33191255783E+02  0.82168189393E+02  0.93817247594E+02  0.00000000000E+00 0.  1.
         -5    1    5    5    0  503 -0.46423691006E+02  0.35979773397E+02 -0.54747293989E+01  0.59175720041E+02  0.47000000000E+01 0.  1.
<mgrwt>
<rscale>  2 0.18966531E+03</rscale>
<asrwt>0</asrwt>
<pdfrwt beam="1">  1       21 0.40913195E-01 0.19056668E+03</pdfrwt>
<pdfrwt beam="2">  1       21 0.32455849E-01 0.19056668E+03</pdfrwt>
<totfact> 0.52618803E+04</totfact>
</mgrwt>
</event>
<event>
12    1  0.2768653E-001  0.2972895E+03  0.7546771E-02  0.1086992E+00
         21   -1    0    0  504  503  0.00000000000E+00  0.00000000000E+00  0.41006535295E+02  0.41006535295E+02  0.00000000000E+00 0.  1.
         21   -1    0    0  502  504 -0.00000000000E+00 -0.00000000000E+00 -0.23808796490E+04  0.23808796490E+04  0.00000000000E+00 0. -1.
          6    2    1    2  502    0 -0.13726189937E+03 -0.19959795289E+03 -0.77393743912E+03  0.82798041696E+03  0.16700969852E+03 0.  0.
         24    2    3    3    0    0 -0.14522271874E+03 -0.12716057718E+03 -0.49507737874E+03  0.53971739242E+03  0.94518793470E+02 0.  0.
         -6    2    1    2    0  503  0.13726189937E+03  0.19959795289E+03 -0.15659356746E+04  0.15939057674E+04  0.17233945098E+03 0.  0.
        -24    2    5    5    0    0  0.15470530157E+03  0.15450348747E+03 -0.10224192911E+04  0.10482227713E+04  0.74998089151E+02 0.  0.
          4    1    4    4  501    0 -0.96064204403E+02 -0.29316133590E+02 -0.29509985024E+03  0.31172373774E+03  0.00000000000E+00 0. -1.
         -3    1    4    4    0  501 -0.49158514338E+02 -0.97844443593E+02 -0.19997752850E+03  0.22799365469E+03  0.00000000000E+00 0.  1.
          5    1    3    3  502    0  0.79608193751E+01 -0.72437375703E+02 -0.27886006038E+03  0.28826302454E+03  0.47000000000E+01 0. -1.
         13    1    6    6    0    0  0.10486843028E+03  0.58879098258E+02 -0.62308392994E+03  0.63458468279E+03  0.00000000000E+00 0. -1.
        -14    1    6    6    0    0  0.49836871294E+02  0.95624389210E+02 -0.39933536120E+03  0.41363808850E+03  0.00000000000E+00 0.  1.
         -5    1    5    5    0  503 -0.17443402210E+02  0.45094465417E+02 -0.54351638348E+03  0.54568299607E+03  0.47000000000E+01 0.  1.
<mgrwt>
<rscale>  2 0.29652215E+03</rscale>
<asrwt>0</asrwt>
<pdfrwt beam="1">  1       21 0.63086972E-02 0.29728952E+03</pdfrwt>
<pdfrwt beam="2">  1       21 0.36628921E+00 0.29728952E+03</pdfrwt>
<totfact> 0.22552157E+03</totfact>
</mgrwt>
</event>
<event>
12    1  0.2768653E-001  0.1991640E+03  0.7546771E-02  0.1150542E+00
         21   -1    0    0  504  503  0.00000000000E+00  0.00000000000E+00  0.47577290460E+03  0.47577290460E+03  0.00000000000E+00 0.  1.
         21   -1    0    0  502  504 -0.00000000000E+00 -0.00000000000E+00 -0.94943438500E+02  0.94943438500E+02  0.00000000000E+00 0.  1.
          6    2    1    2  502    0 -0.96015203973E+02 -0.20622855789E+02  0.29103426731E+03  0.35265738703E+03  0.17326876898E+03 0.  0.
         24    2    3    3    0    0 -0.94217597990E+02  0.45144230777E+02  0.17131269492E+03  0.21596837519E+03  0.79870785013E+02 0.  0.
         -6    2    1    2    0  503  0.96015203973E+02  0.20622855789E+02  0.89795198791E+02  0.21805895607E+03  0.17274926634E+03 0.  0.
        -24    2    5    5    0    0  0.96085142197E+02 -0.29928297414E+02  0.10329938378E+03  0.16552442463E+03  0.81237398549E+02 0.  0.
          4    1    4    4  501    0 -0.80667173438E+02  0.30564465242E+02  0.65533843287E+02  0.10833311600E+03  0.00000000000E+00 0. -1.
         -3    1    4    4    0  501 -0.13550424553E+02  0.14579765535E+02  0.10577885164E+03  0.10763525920E+03  0.00000000000E+00 0.  1.
          5    1    3    3  502    0 -0.17976059830E+01 -0.65767086566E+02  0.11972157239E+03  0.13668901184E+03  0.47000000000E+01 0. -1.
         11    1    6    6    0    0  0.63202332197E+02 -0.58064767685E+02  0.73289200944E+02  0.11285990881E+03  0.00000000000E+00 0. -1.
        -12    1    6    6    0    0  0.32882810000E+02  0.28136470272E+02  0.30010182831E+02  0.52664515819E+02  0.00000000000E+00 0.  1.
         -5    1    5    5    0  503 -0.69938223974E-01  0.50551153203E+02 -0.13504184984E+02  0.52534531440E+02  0.47000000000E+01 0.  1.
<mgrwt>
<rscale>  2 0.19905093E+03</rscale>
<asrwt>0</asrwt>
<pdfrwt beam="1">  1       21 0.73195830E-01 0.19916397E+03</pdfrwt>
<pdfrwt beam="2">  1       21 0.14606683E-01 0.19916397E+03</pdfrwt>
<totfact> 0.68901413E+04</totfact>
</mgrwt>
</event>
<event>
12    1  0.2768653E-001  0.1896837E+03  0.7546771E-02  0.1161632E+00
         21   -1    0    0  504  503  0.00000000000E+00  0.00000000000E+00  0.18955849130E+04  0.18955849130E+04  0.00000000000E+00 0. -1.
         21   -1    0    0  502  504 -0.00000000000E+00 -0.00000000000E+00 -0.20789744373E+02  0.20789744373E+02  0.00000000000E+00 0. -1.
          6    2    1    2  502    0 -0.26904836608E+02 -0.76779395257E+02  0.59917276689E+03  0.62848064031E+03  0.17135041550E+03 0.  0.
         24    2    3    3    0    0 -0.61108306884E+02 -0.41887777490E+01  0.23634725384E+03  0.25685755431E+03  0.79774731450E+02 0.  0.
         -6    2    1    2    0  503  0.26904836608E+02  0.76779395257E+02  0.12756224017E+04  0.12878940170E+04  0.15760565221E+03 0.  0.
        -24    2    5    5    0    0 -0.22827676828E+02  0.24599132098E+02  0.35288187767E+03  0.36233026048E+03  0.75042507548E+02 0.  0.
          4    1    4    4  501    0 -0.34903842206E+02  0.23274021602E+02  0.43976048910E+02  0.60777061133E+02  0.00000000000E+00 0. -1.
         -3    1    4    4    0  501 -0.26204464678E+02 -0.27462799351E+02  0.19237120493E+03  0.19608049317E+03  0.00000000000E+00 0.  1.
          5    1    3    3  502    0  0.34203470276E+02 -0.72590617508E+02  0.36282551305E+03  0.37162308600E+03  0.47000000000E+01 0. -1.
         13    1    6    6    0    0  0.11688190768E+02  0.11145715120E+02  0.28100277643E+03  0.28146651867E+03  0.00000000000E+00 0. -1.
        -14    1    6    6    0    0 -0.34515867596E+02  0.13453416978E+02  0.71879101242E+02  0.80863741811E+02  0.00000000000E+00 0.  1.
         -5    1    5    5    0  503  0.49732513436E+02  0.52180263158E+02  0.92274052405E+03  0.92556375657E+03  0.47000000000E+01 0.  1.
<mgrwt>
<rscale>  2 0.18652616E+03</rscale>
<asrwt>0</asrwt>
<pdfrwt beam="1">  1       21 0.29162831E+00 0.18968371E+03</pdfrwt>
<pdfrwt beam="2">  1       21 0.31984237E-02 0.18968371E+03</pdfrwt>
<totfact> 0.21765350E+04</totfact>
</mgrwt>
</event>
<event>
12    1  0.2768653E-001  0.1915881E+03  0.7546771E-02  0.1157143E+00
         21   -1    0    0  504  503  0.00000000000E+00  0.00000000000E+00  0.11879887629E+04  0.11879887629E+04  0.00000000000E+00 0.  1.
         21   -1    0    0  502  504 -0.00000000000E+00 -0.00000000000E+00 -0.43029748438E+02  0.43029748438E+02  0.00000000000E+00 0.  1.
          6    2    1    2  502    0 -0.70583116882E+02  0.33216870944E+02  0.24411639140E+03  0.31002804378E+03  0.17446844550E+03 0.  0.
         24    2    3    3    0    0  0.10475215920E+02 -0.24407686123E+02  0.68507507117E+02  0.10815775589E+03  0.79368484535E+02 0.  0.
         -6    2    1    2    0  503  0.70583116882E+02 -0.33216870944E+02  0.90084262308E+03  0.92099046758E+03  0.17498763643E+03 0.  0.
        -24    2    5    5    0    0  0.75305657328E+02 -0.65884629290E+02  0.41883291638E+03  0.43782907407E+03  0.79130018660E+02 0.  0.
          2    1    4    4  501    0 -0.17612008010E+02 -0.44374381356E+01  0.71304586267E+02  0.73581367928E+02  0.00000000000E+00 0. -1.
         -1    1    4    4    0  501  0.28087223930E+02 -0.19970247987E+02 -0.27970791498E+01  0.34576387963E+02  0.00000000000E+00 0.  1.
          5    1    3    3  502    0 -0.81058332802E+02  0.57624557067E+02  0.17560888428E+03  0.20187028789E+03  0.47000000000E+01 0. -1.
         13    1    6    6    0    0  0.91399486625E+02 -0.53096629346E+02  0.32447946290E+03  0.34126242109E+03  0.00000000000E+00 0. -1.
        -14    1    6    6    0    0 -0.16093829297E+02 -0.12787999944E+02  0.94353453484E+02  0.96566652983E+02  0.00000000000E+00 0.  1.
         -5    1    5    5    0  503 -0.47225404460E+01  0.32667758346E+02  0.48200970670E+03  0.48316139351E+03  0.47000000000E+01 0.  1.
<mgrwt>
<rscale>  2 0.19146949E+03</rscale>
<asrwt>0</asrwt>
<pdfrwt beam="1">  1       21 0.18276748E+00 0.19158813E+03</pdfrwt>
<pdfrwt beam="2">  1       21 0.66199622E-02 0.19158813E+03</pdfrwt>
<totfact> 0.29046980E+04</totfact>
</mgrwt>
</event>
<event>
12    1  0.2768653E-001  0.1988297E+03  0.7546771E-02  0.1150986E+00
         21   -1    0    0  504  503  0.00000000000E+00  0.00000000000E+00  0.83632484750E+03  0.83632484750E+03  0.00000000000E+00 0. -1.
         21   -1    0    0  502  504 -0.00000000000E+00 -0.00000000000E+00 -0.50873703738E+02  0.50873703738E+02  0.00000000000E+00 0. -1.
          6    2    1    2  502    0  0.69265420696E+02  0.67690609920E+02  0.51426011224E+03  0.55092810871E+03  0.17227478267E+03 0.  0.
         24    2    3    3    0    0 -0.76980770243E+01  0.81349604217E+01  0.35837515870E+03  0.36710084166E+03  0.78770778873E+02 0.  0.
         -6    2    1    2    0  503 -0.69265420696E+02 -0.67690609920E+02  0.27119103152E+03  0.33627044254E+03  0.17364768288E+03 0.  0.
        -24    2    5    5    0    0  0.27446568351E+02 -0.34045094357E+02  0.94781041576E+02  0.13224151298E+03  0.81191066926E+02 0.  0.
          4    1    4    4  501    0  0.86102836885E+01  0.14093191737E+02  0.12304840987E+02  0.20595245817E+02  0.00000000000E+00 0. -1.
         -3    1    4    4    0  501 -0.16308360713E+02 -0.59582313156E+01  0.34607031771E+03  0.34650559584E+03  0.00000000000E+00 0.  1.
          5    1    3    3  502    0  0.76963497721E+02  0.59555649499E+02  0.15588495354E+03  0.18382726705E+03  0.47000000000E+01 0. -1.
         11    1    6    6    0    0  0.83358302552E+01 -0.70762270227E+01  0.98386160192E+02  0.98991896498E+02  0.00000000000E+00 0. -1.
        -12    1    6    6    0    0  0.19110738095E+02 -0.26968867334E+02 -0.36051186162E+01  0.33249616480E+02  0.00000000000E+00 0.  1.
         -5    1    5    5    0  503 -0.96711989047E+02 -0.33645515563E+02  0.17640998995E+03  0.20402892956E+03  0.47000000000E+01 0.  1.
<mgrwt>
<rscale>  2 0.19852951E+03</rscale>
<asrwt>0</asrwt>
<pdfrwt beam="1">  1       21 0.12866535E+00 0.19882966E+03</pdfrwt>
<pdfrwt beam="2">  1       21 0.78267243E-02 0.19882966E+03</pdfrwt>
<totfact> 0.55124406E+04</totfact>
</mgrwt>
</event>
<event>
12    1  0.2768653E-001  0.1933856E+03  0.7546771E-02  0.1155706E+00
         21   -1    0    0  504  503  0.00000000000E+00  0.00000000000E+00  0.91793015418E+03  0.91793015418E+03  0.00000000000E+00 0.  1.
         21   -1    0    0  502  504 -0.00000000000E+00 -0.00000000000E+00 -0.40500978404E+02  0.40500978404E+02  0.00000000000E+00 0.  1.
          6    2    1    2  502    0 -0.55301852633E+02 -0.61870065369E+02  0.43277727145E+03  0.47401913240E+03  0.17467618984E+03 0.  0.
         24    2    3    3    0    0 -0.22296222709E+02  0.34208920267E+02  0.21736244741E+03  0.23580456629E+03  0.81792347845E+02 0.  0.
         -6    2    1    2    0  503  0.55301852633E+02  0.61870065369E+02  0.44465190433E+03  0.48441200019E+03  0.17335936668E+03 0.  0.
        -24    2    5    5    0    0  0.39758396969E+02  0.10299306927E+03  0.39334552425E+03  0.41668360806E+03  0.81952579770E+02 0.  0.
          4    1    4    4  501    0  0.16919688326E+02 -0.12074940335E+02  0.18267761986E+02  0.27672931993E+02  0.00000000000E+00 0. -1.
         -3    1    4    4    0  501 -0.39215911034E+02  0.46283860602E+02  0.19909468542E+03  0.20813163429E+03  0.00000000000E+00 0.  1.
          5    1    3    3  502    0 -0.33005629925E+02 -0.96078985636E+02  0.21541482405E+03  0.23821456611E+03  0.47000000000E+01 0. -1.
         11    1    6    6    0    0 -0.19473752610E+02  0.60967586115E+02  0.16112379861E+03  0.17336998609E+03  0.00000000000E+00 0. -1.
        -12    1    6    6    0    0  0.59232149579E+02  0.42025483157E+02  0.23222172564E+03  0.24331362198E+03  0.00000000000E+00 0.  1.
         -5    1    5    5    0  503  0.15543455665E+02 -0.41123003903E+02  0.51306380071E+02  0.67728392126E+02  0.47000000000E+01 0.  1.
<mgrwt>
<rscale>  2 0.19308771E+03</rscale>
<asrwt>0</asrwt>
<pdfrwt beam="1">  1       21 0.14122001E+00 0.19338555E+03</pdfrwt>
<pdfrwt beam="2">  1       21 0.62309205E-02 0.19338555E+03</pdfrwt>
<totfact> 0.64645115E+04</totfact>
</mgrwt>
</event>
<event>
12    1  0.2768653E-001  0.2024094E+03  0.7546771E-02  0.1148645E+00
         21   -1    0    0  504  503  0.00000000000E+00  0.00000000000E+00  0.76097897858E+02  0.76097897858E+02  0.00000000000E+00 0. -1.
         21   -1    0    0  502  504 -0.00000000000E+00 -0.00000000000E+00 -0.52913615923E+03  0.52913615923E+03  0.00000000000E+00 0. -1.
          6    2    1    2  502    0 -0.10188072595E+03 -0.25475458779E+02 -0.20872769785E+03  0.29075214825E+03  0.17303432764E+03 0.  0.
         24    2    3    3    0    0 -0.98243653038E+02  0.96462441684E+01 -0.21914086628E+03  0.25364033889E+03  0.81029851598E+02 0.  0.
         -6    2    1    2    0  503  0.10188072595E+03  0.25475458779E+02 -0.24431056352E+03  0.31448190884E+03  0.16787655650E+03 0.  0.
        -24    2    5    5    0    0  0.78165939572E+02  0.64461886201E+02 -0.23445384760E+03  0.26756093843E+03  0.79718255341E+02 0.  0.
          4    1    4    4  501    0 -0.98405240108E+02 -0.15026155023E+02 -0.19591873594E+03  0.21975788429E+03  0.00000000000E+00 0. -1.
         -3    1    4    4    0  501  0.16158707030E+00  0.24672399191E+02 -0.23222130339E+02  0.33882454600E+02  0.00000000000E+00 0.  1.
          5    1    3    3  502    0 -0.36370729081E+01 -0.35121702947E+02  0.10413168425E+02  0.37111809359E+02  0.47000000000E+01 0. -1.
         13    1    6    6    0    0  0.37472923731E+02 -0.14379919166E+02 -0.69342711108E+02  0.80121243575E+02  0.00000000000E+00 0. -1.
        -14    1    6    6    0    0  0.40693015841E+02  0.78841805367E+02 -0.16511113649E+03  0.18743969485E+03  0.00000000000E+00 0.  1.
         -5    1    5    5    0  503  0.23714786374E+02 -0.38986427423E+02 -0.98567159190E+01  0.46920970415E+02  0.47000000000E+01 0.  1.
<mgrwt>
<rscale>  2 0.20130255E+03</rscale>
<asrwt>0</asrwt>
<pdfrwt beam="1">  1       21 0.11707369E-01 0.20240939E+03</pdfrwt>
<pdfrwt beam="2">  1       21 0.81405566E-01 0.20240939E+03</pdfrwt>
<totfact> 0.80737662E+04</totfact>
</mgrwt>
</event>
<event>
12    1  0.2768653E-001  0.1817597E+03  0.7546771E-02  0.1166176E+00
         21   -1    0    0  504  503  0.00000000000E+00  0.00000000000E+00  0.28303569499E+03  0.28303569499E+03  0.00000000000E+00 0. -1.
         21   -1    0    0  502  504 -0.00000000000E+00 -0.00000000000E+00 -0.21597548026E+03  0.21597548026E+03  0.00000000000E+00 0. -1.
          6    2    1    2  502    0 -0.14244159985E+02 -0.54689560885E+02 -0.13574767908E+03  0.22685685675E+03  0.17275056271E+03 0.  0.
         24    2    3    3    0    0 -0.71854402923E+02 -0.56975628324E+02 -0.73076757031E+02  0.14156969086E+03  0.79325200972E+02 0.  0.
         -6    2    1    2    0  503  0.14244159985E+02  0.54689560885E+02  0.20280789381E+03  0.27215431850E+03  0.17246184252E+03 0.  0.
        -24    2    5    5    0    0 -0.52018807797E+02  0.42903703553E+02  0.79246931041E+02  0.13137403276E+03  0.80202096371E+02 0.  0.
          2    1    4    4  501    0 -0.33746304793E+02 -0.72595596226E+02 -0.49109545131E+02  0.93918481150E+02  0.00000000000E+00 0. -1.
         -1    1    4    4    0  501 -0.38108098131E+02  0.15619967902E+02 -0.23967211899E+02  0.47651209708E+02  0.00000000000E+00 0.  1.
          5    1    3    3  502    0  0.57610242938E+02  0.22860674397E+01 -0.62670922046E+02  0.85287165891E+02  0.47000000000E+01 0. -1.
         13    1    6    6    0    0  0.14991073287E+02  0.22728949473E+02  0.22404840110E+01  0.27319538632E+02  0.00000000000E+00 0. -1.
        -14    1    6    6    0    0 -0.67009881084E+02  0.20174754080E+02  0.77006447030E+02  0.10405449413E+03  0.00000000000E+00 0.  1.
         -5    1    5    5    0  503  0.66262967782E+02  0.11785857332E+02  0.12356096277E+03  0.14078028574E+03  0.47000000000E+01 0.  1.
<mgrwt>
<rscale>  2 0.18169110E+03</rscale>
<asrwt>0</asrwt>
<pdfrwt beam="1">  1       21 0.43543953E-01 0.18175973E+03</pdfrwt>
<pdfrwt beam="2">  1       21 0.33226997E-01 0.18175973E+03</pdfrwt>
<totfact> 0.44445417E+04</totfact>
</mgrwt>
</event>
<event>
12    1  0.2768653E-001  0.1814443E+03  0.7546771E-02  0.1166480E+00
         21   -1    0    0  504  503  0.00000000000E+00  0.00000000000E+00  0.28910256991E+02  0.28910256991E+02  0.00000000000E+00 0. -1.
         21   -1    0    0  502  504 -0.00000000000E+00 -0.00000000000E+00 -0.13927015999E+04  0.13927015999E+04  0.00000000000E+00 0. -1.
          6    2    1    2  502    0 -0.52491996934E+02  0.79192744854E+01 -0.98690338730E+03  0.10034442410E+04  0.17350482514E+03 0.  0.
         24    2    3    3    0    0  0.49521576584E+01 -0.22241908371E+02 -0.82037859683E+03  0.82466470168E+03  0.80818325363E+02 0.  0.
         -6    2    1    2    0  503  0.52491996934E+02 -0.79192744854E+01 -0.37688795559E+03  0.41816761584E+03  0.17320940857E+03 0.  0.
        -24    2    5    5    0    0  0.45476469081E+02  0.14986395770E+02 -0.38186210047E+03  0.39325337336E+03  0.80850792112E+02 0.  0.
          2    1    4    4  501    0 -0.35445142564E+02 -0.24920433151E+02 -0.44902945637E+03  0.45111510594E+03  0.00000000000E+00 0. -1.
         -1    1    4    4    0  501  0.40397300222E+02  0.26785247799E+01 -0.37134914046E+03  0.37354959574E+03  0.00000000000E+00 0.  1.
          5    1    3    3  502    0 -0.57444154592E+02  0.30161182856E+02 -0.16652479047E+03  0.17877953935E+03  0.47000000000E+01 0. -1.
         11    1    6    6    0    0  0.17847912498E+02 -0.24317777668E+02 -0.53691652205E+02  0.61584866710E+02  0.00000000000E+00 0. -1.
        -12    1    6    6    0    0  0.27628556583E+02  0.39304173437E+02 -0.32817044826E+03  0.33166850665E+03  0.00000000000E+00 0.  1.
         -5    1    5    5    0  503  0.70155278529E+01 -0.22905670255E+02  0.49741448830E+01  0.24914242477E+02  0.47000000000E+01 0.  1.
<mgrwt>
<rscale>  2 0.18137368E+03</rscale>
<asrwt>0</asrwt>
<pdfrwt beam="1">  1       21 0.44477313E-02 0.18144434E+03</pdfrwt>
<pdfrwt beam="2">  1       21 0.21426181E+00 0.18144434E+03</pdfrwt>
<totfact> 0.36077491E+04</totfact>
</mgrwt>
</event>
<event>
12    1  0.2768653E-001  0.1949111E+03  0.7546771E-02  0.1154557E+00
         21   -1    0    0  504  503  0.00000000000E+00  0.00000000000E+00  0.21479096169E+03  0.21479096169E+03  0.00000000000E+00 0. -1.
         21   -1    0    0  502  504 -0.00000000000E+00 -0.00000000000E+00 -0.46508393752E+03  0.46508393752E+03  0.00000000000E+00 0. -1.
          6    2    1    2  502    0  0.86652884427E+02  0.18424144507E+02 -0.39336221842E+03  0.43809160919E+03  0.17129580172E+03 0.  0.
         24    2    3    3    0    0  0.40911171848E+02 -0.45906028233E+02 -0.29392826688E+03  0.31104879707E+03  0.81095256805E+02 0.  0.
         -6    2    1    2    0  503 -0.86652884427E+02 -0.18424144507E+02  0.14306924259E+03  0.24178329002E+03  0.17361503298E+03 0.  0.
        -24    2    5    5    0    0 -0.75105705632E+02  0.43418714683E+02  0.13286608091E+03  0.17787655267E+03  0.80377986592E+02 0.  0.
          2    1    4    4  501    0  0.22587450871E+02 -0.14085500214E+02 -0.25902016339E+03  0.26038440678E+03  0.00000000000E+00 0. -1.
         -1    1    4    4    0  501  0.18323720977E+02 -0.31820528019E+02 -0.34908103494E+02  0.50664390289E+02  0.00000000000E+00 0.  1.
          5    1    3    3  502    0  0.45741712579E+02  0.64330172739E+02 -0.99433951534E+02  0.12704281212E+03  0.47000000000E+01 0. -1.
         13    1    6    6    0    0  0.20095961242E+01  0.19042404722E+02  0.77583619275E+02  0.79911636411E+02  0.00000000000E+00 0. -1.
        -14    1    6    6    0    0 -0.77115301756E+02  0.24376309961E+02  0.55282461637E+02  0.97964916255E+02  0.00000000000E+00 0.  1.
         -5    1    5    5    0  503 -0.11547178795E+02 -0.61842859189E+02  0.10203161680E+02  0.63906737353E+02  0.47000000000E+01 0.  1.
<mgrwt>
<rscale>  2 0.19439334E+03</rscale>
<asrwt>0</asrwt>
<pdfrwt beam="1">  1       21 0.33044764E-01 0.19491114E+03</pdfrwt>
<pdfrwt beam="2">  1       21 0.71551374E-01 0.19491114E+03</pdfrwt>
<totfact> 0.15543045E+04</totfact>
</mgrwt>
</event>
<event>
12    1  0.2768653E-001  0.3073088E+03  0.7546771E-02  0.1081734E+00
         21   -1    0    0  504  503  0.00000000000E+00  0.00000000000E+00  0.48522129599E+03  0.48522129599E+03  0.00000000000E+00 0. -1.
         21   -1    0    0  502  504 -0.00000000000E+00 -0.00000000000E+00 -0.19465237357E+03  0.19465237357E+03  0.00000000000E+00 0. -1.
          6    2    1    2  502    0 -0.47113449101E+02 -0.24847854370E+03  0.12795151630E+03  0.33219115445E+03  0.17325734850E+03 0.  0.
         24    2    3    3    0    0 -0.24465164659E+02 -0.25643596685E+03  0.14115226759E+03  0.30439519781E+03  0.79840618916E+02 0.  0.
         -6    2    1    2    0  503  0.47113449101E+02  0.24847854370E+03  0.16261740612E+03  0.34768251511E+03  0.17457791032E+03 0.  0.
        -24    2    5    5    0    0  0.84791336404E+02  0.98885380533E+02  0.78043545969E+02  0.17169227254E+03  0.80122107875E+02 0.  0.
          2    1    4    4  501    0 -0.44631055652E+02 -0.18923340000E+03  0.76331308114E+02  0.20887239981E+03  0.00000000000E+00 0. -1.
         -1    1    4    4    0  501  0.20165890993E+02 -0.67202566851E+02  0.64820959473E+02  0.95522798001E+02  0.00000000000E+00 0.  1.
          5    1    3    3  502    0 -0.22648284442E+02  0.79574231488E+01 -0.13200751284E+02  0.27795956645E+02  0.47000000000E+01 0. -1.
         13    1    6    6    0    0  0.82037566669E+01  0.58337688788E+02  0.64098753878E+01  0.59259379503E+02  0.00000000000E+00 0. -1.
        -14    1    6    6    0    0  0.76587579738E+02  0.40547691745E+02  0.71633670581E+02  0.11243289304E+03  0.00000000000E+00 0.  1.
         -5    1    5    5    0  503 -0.37677887304E+02  0.14959316317E+03  0.84573860151E+02  0.17599024257E+03  0.47000000000E+01 0.  1.
<mgrwt>
<rscale>  2 0.30712158E+03</rscale>
<asrwt>0</asrwt>
<pdfrwt beam="1">  1       21 0.74649430E-01 0.30730882E+03</pdfrwt>
<pdfrwt beam="2">  1       21 0.29946519E-01 0.30730882E+03</pdfrwt>
<totfact> 0.16202622E+04</totfact>
</mgrwt>
</event>
<event>
12    1  0.2768653E-001  0.1765766E+03  0.7546771E-02  0.1173230E+00
         21   -1    0    0  504  503  0.00000000000E+00  0.00000000000E+00  0.16467308703E+03  0.16467308703E+03  0.00000000000E+00 0. -1.
         21   -1    0    0  502  504 -0.00000000000E+00 -0.00000000000E+00 -0.24550563682E+03  0.24550563682E+03  0.00000000000E+00 0. -1.
          6    2    1    2  502    0  0.15398541272E+02  0.85733253399E+01 -0.14505446930E+03  0.22228580218E+03  0.16750988571E+03 0.  0.
         24    2    3    3    0    0  0.15487745176E+02  0.37729574495E+02 -0.18685124446E+02  0.92511397388E+02  0.80906326878E+02 0.  0.
         -6    2    1    2    0  503 -0.15398541272E+02 -0.85733253399E+01  0.64221919499E+02  0.18789292167E+03  0.17569484366E+03 0.  0.
        -24    2    5    5    0    0 -0.11989603614E+02  0.64194919562E+02  0.40491021300E+02  0.11113301122E+03  0.80288760639E+02 0.  0.
          4    1    4    4  501    0  0.88328784325E+01  0.51298903903E+02 -0.40513453757E+02  0.65961634443E+02  0.00000000000E+00 0. -1.
         -3    1    4    4    0  501  0.66548667433E+01 -0.13569329407E+02  0.21828329311E+02  0.26549762945E+02  0.00000000000E+00 0.  1.
          5    1    3    3  502    0 -0.89203903824E-01 -0.29156249155E+02 -0.12636934485E+03  0.12977440480E+03  0.47000000000E+01 0. -1.
         11    1    6    6    0    0 -0.46107673612E+02  0.36564804482E+02  0.29732051698E+02  0.65931004777E+02  0.00000000000E+00 0. -1.
        -12    1    6    6    0    0  0.34118069999E+02  0.27630115080E+02  0.10758969603E+02  0.45202006445E+02  0.00000000000E+00 0.  1.
         -5    1    5    5    0  503 -0.34089376583E+01 -0.72768244902E+02  0.23730898199E+02  0.76759910444E+02  0.47000000000E+01 0.  1.
<mgrwt>
<rscale>  2 0.17450490E+03</rscale>
<asrwt>0</asrwt>
<pdfrwt beam="1">  1       21 0.25334321E-01 0.17657660E+03</pdfrwt>
<pdfrwt beam="2">  1       21 0.37770098E-01 0.17657660E+03</pdfrwt>
<totfact> 0.10043919E+05</totfact>
</mgrwt>
</event>
<event>
12    1  0.2768653E-001  0.1808627E+03  0.7546771E-02  0.1166987E+00
         21   -1    0    0  504  503  0.00000000000E+00  0.00000000000E+00  0.48661872537E+03  0.48661872537E+03  0.00000000000E+00 0.  1.
         21   -1    0    0  502  504 -0.00000000000E+00 -0.00000000000E+00 -0.36625025550E+03  0.36625025550E+03  0.00000000000E+00 0.  1.
          6    2    1    2  502    0  0.18501261512E+02  0.46055857584E+02 -0.32514847352E+03  0.37206566861E+03  0.17391921466E+03 0.  0.
         24    2    3    3    0    0  0.28248103503E+02  0.68836868684E+02 -0.32918837643E+03  0.34652381646E+03  0.78595790947E+02 0.  0.
         -6    2    1    2    0  503 -0.18501261512E+02 -0.46055857584E+02  0.44551694339E+03  0.48080331226E+03  0.17384774816E+03 0.  0.
        -24    2    5    5    0    0 -0.42588521241E+02 -0.92015847508E+02  0.33700095678E+03  0.36042754184E+03  0.77831033088E+02 0.  0.
          2    1    4    4  501    0  0.16227206258E+02 -0.14637504254E+02 -0.98710821482E+02  0.10110096454E+03  0.00000000000E+00 0. -1.
         -1    1    4    4    0  501  0.12020897246E+02  0.83474372937E+02 -0.23047755495E+03  0.24542285192E+03  0.00000000000E+00 0.  1.
          5    1    3    3  502    0 -0.97468419910E+01 -0.22781011099E+02  0.40399029144E+01  0.25541852146E+02  0.47000000000E+01 0. -1.
         13    1    6    6    0    0  0.14450630185E+02 -0.60804523715E+02  0.15277567188E+03  0.16506488644E+03  0.00000000000E+00 0. -1.
        -14    1    6    6    0    0 -0.57039151425E+02 -0.31211323793E+02  0.18422528491E+03  0.19536265541E+03  0.00000000000E+00 0.  1.
         -5    1    5    5    0  503  0.24087259728E+02  0.45959989923E+02  0.10851598661E+03  0.12037577042E+03  0.47000000000E+01 0.  1.
<mgrwt>
<rscale>  2 0.18084556E+03</rscale>
<asrwt>0</asrwt>
<pdfrwt beam="1">  1       21 0.74864419E-01 0.18086274E+03</pdfrwt>
<pdfrwt beam="2">  1       21 0.56346193E-01 0.18086274E+03</pdfrwt>
<totfact> 0.47753089E+03</totfact>
</mgrwt>
</event>
<event>
12    1  0.2768653E-001  0.1738103E+03  0.7546771E-02  0.1174059E+00
         21   -1    0    0  504  503  0.00000000000E+00  0.00000000000E+00  0.26005559468E+03  0.26005559468E+03  0.00000000000E+00 0. -1.
         21   -1    0    0  502  504 -0.00000000000E+00 -0.00000000000E+00 -0.18799745975E+03  0.18799745975E+03  0.00000000000E+00 0. -1.
          6    2    1    2  502    0  0.44835619613E+01  0.16827293857E+02 -0.10280227386E+03  0.20150447918E+03  0.17243110935E+03 0.  0.
         24    2    3    3    0    0 -0.39393358460E+02  0.90196859143E+01 -0.25949537541E+01  0.91733171955E+02  0.82310689629E+02 0.  0.
         -6    2    1    2    0  503 -0.44835619613E+01 -0.16827293857E+02  0.17486040878E+03  0.24654857525E+03  0.17293576048E+03 0.  0.
        -24    2    5    5    0    0 -0.21356994209E+02 -0.39702390067E+02  0.19161469225E+03  0.21322022760E+03  0.81940674857E+02 0.  0.
          2    1    4    4  501    0  0.13982798656E+02  0.24017823063E+02  0.17406145339E+02  0.32792504913E+02  0.00000000000E+00 0. -1.
         -1    1    4    4    0  501 -0.53376157116E+02 -0.14998137149E+02 -0.20001099093E+02  0.58940667042E+02  0.00000000000E+00 0.  1.
          5    1    3    3  502    0  0.43876920421E+02  0.78076079426E+01 -0.10020732010E+03  0.10977130722E+03  0.47000000000E+01 0. -1.
         11    1    6    6    0    0  0.18958044907E+02 -0.36321153692E+02  0.43827945747E+02  0.59996020706E+02  0.00000000000E+00 0. -1.
        -12    1    6    6    0    0 -0.40315039116E+02 -0.33812363748E+01  0.14778674650E+03  0.15322420690E+03  0.00000000000E+00 0.  1.
         -5    1    5    5    0  503  0.16873432248E+02  0.22875096210E+02 -0.16754283465E+02  0.33328347647E+02  0.47000000000E+01 0.  1.
<mgrwt>
<rscale>  2 0.17368469E+03</rscale>
<asrwt>0</asrwt>
<pdfrwt beam="1">  1       21 0.40008553E-01 0.17381035E+03</pdfrwt>
<pdfrwt beam="2">  1       21 0.28922686E-01 0.17381035E+03</pdfrwt>
<totfact> 0.69451401E+04</totfact>
</mgrwt>
</event>
<event>
12    1  0.2768653E-001  0.2334964E+03  0.7546771E-02  0.1124269E+00
         21   -1    0    0  504  503  0.00000000000E+00  0.00000000000E+00  0.13702816257E+04  0.13702816257E+04  0.00000000000E+00 0.  1.
         21   -1    0    0  502  504 -0.00000000000E+00 -0.00000000000E+00 -0.42628927552E+02  0.42628927552E+02  0.00000000000E+00 0.  1.
          6    2    1    2  502    0  0.14500299264E+03  0.59264510543E+02  0.47987134110E+03  0.53366381859E+03  0.17315431610E+03 0.  0.
         24    2    3    3    0    0  0.98374179079E+02  0.80959716687E+02  0.44971146295E+03  0.47385883157E+03  0.77909161878E+02 0.  0.
         -6    2    1    2    0  503 -0.14500299264E+03 -0.59264510543E+02  0.84778135710E+03  0.87924673471E+03  0.17263673123E+03 0.  0.
        -24    2    5    5    0    0 -0.21494124671E+02 -0.45281662605E+02  0.23147772836E+03  0.25051609819E+03  0.81633022497E+02 0.  0.
          4    1    4    4  501    0  0.62877229144E+02  0.92642893020E+02  0.33830181787E+03  0.35634866570E+03  0.00000000000E+00 0. -1.
         -3    1    4    4    0  501  0.35496949935E+02 -0.11683176333E+02  0.11140964509E+03  0.11751016587E+03  0.00000000000E+00 0.  1.
          5    1    3    3  502    0  0.46628813558E+02 -0.21695206144E+02  0.30159878142E+02  0.59804987024E+02  0.47000000000E+01 0. -1.
         11    1    6    6    0    0  0.19983720838E+02 -0.13702843926E+02  0.16121738672E+03  0.16302810436E+03  0.00000000000E+00 0. -1.
        -12    1    6    6    0    0 -0.41477845510E+02 -0.31578818680E+02  0.70260341645E+02  0.87487993836E+02  0.00000000000E+00 0.  1.
         -5    1    5    5    0  503 -0.12350886797E+03 -0.13982847937E+02  0.61630362874E+03  0.62873063652E+03  0.47000000000E+01 0.  1.
<mgrwt>
<rscale>  2 0.23340045E+03</rscale>
<asrwt>0</asrwt>
<pdfrwt beam="1">  1       21 0.21081252E+00 0.23349640E+03</pdfrwt>
<pdfrwt beam="2">  1       21 0.65582976E-02 0.23349640E+03</pdfrwt>
<totfact> 0.18832873E+04</totfact>
</mgrwt>
</event>
<event>
12    1  0.2768653E-001  0.1859567E+03  0.7546771E-02  0.1162341E+00
         21   -1    0    0  504  503  0.00000000000E+00  0.00000000000E+00  0.89384881833E+02  0.89384881833E+02  0.00000000000E+00 0. -1.
         21   -1    0    0  502  504 -0.00000000000E+00 -0.00000000000E+00 -0.39039589850E+03  0.39039589850E+03  0.00000000000E+00 0. -1.
          6    2    1    2  502    0  0.11911505986E+02  0.65729135361E+02 -0.17838605070E+03  0.25768486935E+03  0.17354453491E+03 0.  0.
         24    2    3    3    0    0  0.12549787799E+02  0.56439586588E+00 -0.17435133027E+03  0.19222328026E+03  0.79959911158E+02 0.  0.
         -6    2    1    2    0  503 -0.11911505986E+02 -0.65729135361E+02 -0.12262496597E+03  0.22209591098E+03  0.17270642196E+03 0.  0.
        -24    2    5    5    0    0  0.39925012205E+02 -0.88987410874E+02 -0.10067265279E+03  0.16100609144E+03  0.79216239296E+02 0.  0.
          4    1    4    4  501    0 -0.21781621430E+02  0.85268340395E+01 -0.14347192285E+03  0.14536622227E+03  0.00000000000E+00 0. -1.
         -3    1    4    4    0  501  0.34331409229E+02 -0.79624381737E+01 -0.30879407419E+02  0.46857057994E+02  0.00000000000E+00 0.  1.
          5    1    3    3  502    0 -0.63828181337E+00  0.65164739495E+02 -0.40347204362E+01  0.65461589090E+02  0.47000000000E+01 0. -1.
         13    1    6    6    0    0  0.45198731219E+02 -0.14284477730E+02 -0.57661565759E+02  0.74644676794E+02  0.00000000000E+00 0. -1.
        -14    1    6    6    0    0 -0.52737190141E+01 -0.74702933143E+02 -0.43011087027E+02  0.86361414646E+02  0.00000000000E+00 0.  1.
         -5    1    5    5    0  503 -0.51836518191E+02  0.23258275512E+02 -0.21952313180E+02  0.61089819544E+02  0.47000000000E+01 0.  1.
<mgrwt>
<rscale>  2 0.18576095E+03</rscale>
<asrwt>0</asrwt>
<pdfrwt beam="1">  1       21 0.13751520E-01 0.18595674E+03</pdfrwt>
<pdfrwt beam="2">  1       21 0.60060908E-01 0.18595674E+03</pdfrwt>
<totfact> 0.11903723E+05</totfact>
</mgrwt>
</event>
<event>
12    1  0.2768653E-001  0.2105554E+03  0.7546771E-02  0.1142094E+00
         21   -1    0    0  504  503  0.00000000000E+00  0.00000000000E+00  0.17602472898E+03  0.17602472898E+03  0.00000000000E+00 0.  1.
         21   -1    0    0  502  504 -0.00000000000E+00 -0.00000000000E+00 -0.32011261631E+03  0.32011261631E+03  0.00000000000E+00 0.  1.
          6    2    1    2  502    0 -0.10239453811E+02  0.11355889116E+03 -0.19196361017E+03  0.28492739346E+03  0.17701164859E+03 0.  0.
         24    2    3    3    0    0  0.49931392168E+02  0.19838442982E+02 -0.60678849453E+02  0.11270128768E+03  0.78313151710E+02 0.  0.
         -6    2    1    2    0  503  0.10239453811E+02 -0.11355889116E+03  0.47875722843E+02  0.21120995182E+03  0.17122234298E+03 0.  0.
        -24    2    5    5    0    0 -0.52072275916E+02 -0.10314894482E+03  0.21140625784E+02  0.14244968670E+03  0.80583872134E+02 0.  0.
          2    1    4    4  501    0  0.10603817406E+02 -0.64309898554E+01  0.17429059012E+02  0.21390901620E+02  0.00000000000E+00 0. -1.
         -1    1    4    4    0  501  0.39327574762E+02  0.26269432837E+02 -0.78107908465E+02  0.91310386063E+02  0.00000000000E+00 0.  1.
          5    1    3    3  502    0 -0.60170845979E+02  0.93720448180E+02 -0.13128476072E+03  0.17222610578E+03  0.47000000000E+01 0. -1.
         13    1    6    6    0    0 -0.49286019302E+02 -0.28739905051E+02  0.34681200058E+02  0.66767353389E+02  0.00000000000E+00 0. -1.
        -14    1    6    6    0    0 -0.27862566138E+01 -0.74409039764E+02 -0.13540574274E+02  0.75682333316E+02  0.00000000000E+00 0.  1.
         -5    1    5    5    0  503  0.62311729727E+02 -0.10409946346E+02  0.26735097058E+02  0.68760265119E+02  0.47000000000E+01 0.  1.
<mgrwt>
<rscale>  2 0.20933407E+03</rscale>
<asrwt>0</asrwt>
<pdfrwt beam="1">  1       21 0.27080728E-01 0.21055544E+03</pdfrwt>
<pdfrwt beam="2">  1       21 0.49248095E-01 0.21055544E+03</pdfrwt>
<totfact> 0.50662819E+04</totfact>
</mgrwt>
</event>
<event>
12    1  0.2768653E-001  0.1764264E+03  0.7546771E-02  0.1171589E+00
         21   -1    0    0  504  503  0.00000000000E+00  0.00000000000E+00  0.30139199419E+02  0.30139199419E+02  0.00000000000E+00 0.  1.
         21   -1    0    0  502  504 -0.00000000000E+00 -0.00000000000E+00 -0.10282648396E+04  0.10282648396E+04  0.00000000000E+00 0.  1.
          6    2    1    2  502    0  0.11759257075E+02 -0.33181686127E+02 -0.52472231216E+03  0.55358808568E+03  0.17287845241E+03 0.  0.
         24    2    3    3    0    0 -0.53146400107E+02  0.58770535112E+01 -0.23870530473E+03  0.25767230710E+03  0.80967374515E+02 0.  0.
         -6    2    1    2    0  503 -0.11759257075E+02  0.33181686127E+02 -0.47340332797E+03  0.50481595329E+03  0.17172399756E+03 0.  0.
        -24    2    5    5    0    0  0.31110251818E+02 -0.33781417381E+02 -0.30227144864E+03  0.31605668293E+03  0.80092235773E+02 0.  0.
          4    1    4    4  501    0 -0.18505449471E+02  0.29050305469E+01 -0.24723789714E+01  0.18894536787E+02  0.00000000000E+00 0. -1.
         -3    1    4    4    0  501 -0.34640950636E+02  0.29720229642E+01 -0.23623292576E+03  0.23877777031E+03  0.00000000000E+00 0.  1.
          5    1    3    3  502    0  0.64905657182E+02 -0.39058739638E+02 -0.28601700743E+03  0.29591577859E+03  0.47000000000E+01 0. -1.
         11    1    6    6    0    0 -0.13921740090E+02  0.17766989025E+02 -0.54122729530E+02  0.58640861163E+02  0.00000000000E+00 0. -1.
        -12    1    6    6    0    0  0.45031991908E+02 -0.51548406407E+02 -0.24814871911E+03  0.25741582176E+03  0.00000000000E+00 0.  1.
         -5    1    5    5    0  503 -0.42869508893E+02  0.66963103508E+02 -0.17113187933E+03  0.18875927036E+03  0.47000000000E+01 0.  1.
<mgrwt>
<rscale>  2 0.17614291E+03</rscale>
<asrwt>0</asrwt>
<pdfrwt beam="1">  1       21 0.46368001E-02 0.17642637E+03</pdfrwt>
<pdfrwt beam="2">  1       21 0.15819459E+00 0.17642637E+03</pdfrwt>
<totfact> 0.79979698E+04</totfact>
</mgrwt>
</event>
<event>
12    1  0.2768653E-001  0.1928312E+03  0.7546771E-02  0.1156208E+00
         21   -1    0    0  504  503  0.00000000000E+00  0.00000000000E+00  0.49391330968E+03  0.49391330968E+03  0.00000000000E+00 0.  1.
         21   -1    0    0  502  504 -0.00000000000E+00 -0.00000000000E+00 -0.78714319288E+02  0.78714319288E+02  0.00000000000E+00 0.  1.
          6    2    1    2  502    0 -0.73157584996E+02  0.35959885337E+02  0.27208385775E+03  0.33348686993E+03  0.17475331520E+03 0.  0.
         24    2    3    3    0    0  0.17075948503E+01 -0.20665784543E+02  0.19464256658E+03  0.21170630818E+03  0.80646398969E+02 0.  0.
         -6    2    1    2    0  503  0.73157584996E+02 -0.35959885337E+02  0.14311513264E+03  0.23914075903E+03  0.17338170562E+03 0.  0.
        -24    2    5    5    0    0 -0.34914411154E+02 -0.31026598651E+02  0.14109787129E+02  0.70711655729E+02  0.51179939751E+02 0.  0.
          4    1    4    4  501    0  0.26989804245E+02  0.20773605296E+02  0.93706505907E+02  0.99704069423E+02  0.00000000000E+00 0. -1.
         -3    1    4    4    0  501 -0.25282209395E+02 -0.41439389839E+02  0.10093606068E+03  0.11200223876E+03  0.00000000000E+00 0.  1.
          5    1    3    3  502    0 -0.74865179846E+02  0.56625669880E+02  0.77441291162E+02  0.12178056175E+03  0.47000000000E+01 0. -1.
         11    1    6    6    0    0 -0.34028045020E+02 -0.83724082911E+00 -0.58116378216E+01  0.34530913024E+02  0.00000000000E+00 0. -1.
        -12    1    6    6    0    0 -0.88636613445E+00 -0.30189357822E+02  0.19921424951E+02  0.36180742705E+02  0.00000000000E+00 0.  1.
         -5    1    5    5    0  503  0.10807199615E+03 -0.49332866859E+01  0.12900534551E+03  0.16842910331E+03  0.47000000000E+01 0.  1.
<mgrwt>
<rscale>  2 0.19251990E+03</rscale>
<asrwt>0</asrwt>
<pdfrwt beam="1">  1       21 0.75986661E-01 0.19283119E+03</pdfrwt>
<pdfrwt beam="2">  1       21 0.12109896E-01 0.19283119E+03</pdfrwt>
<totfact> 0.89146133E+04</totfact>
</mgrwt>
</event>
<event>
12    1  0.2768653E-001  0.1962147E+03  0.7546771E-02  0.1153280E+00
         21   -1    0    0  504  503  0.00000000000E+00  0.00000000000E+00  0.20104374673E+03  0.20104374673E+03  0.00000000000E+00 0.  1.
         21   -1    0    0  502  504 -0.00000000000E+00 -0.00000000000E+00 -0.24374070625E+03  0.24374070625E+03  0.00000000000E+00 0.  1.
          6    2    1    2  502    0  0.87689027611E+02 -0.23262478470E+02 -0.12571439926E+03  0.23303287062E+03  0.17398189601E+03 0.  0.
         24    2    3    3    0    0  0.94847741206E+02  0.40070332002E+02 -0.97458917923E+02  0.16315616285E+03  0.80746314318E+02 0.  0.
         -6    2    1    2    0  503 -0.87689027611E+02  0.23262478470E+02  0.83017439748E+02  0.21175158235E+03  0.17238424771E+03 0.  0.
        -24    2    5    5    0    0 -0.12951282839E+02  0.68408657198E+02  0.71426424404E+02  0.12354529242E+03  0.72898731598E+02 0.  0.
          2    1    4    4  501    0  0.47571541197E+02  0.61995569192E+02 -0.65981601588E+02  0.10227450259E+03  0.00000000000E+00 0. -1.
         -1    1    4    4    0  501  0.47276200010E+02 -0.21925237191E+02 -0.31477316335E+02  0.60881660267E+02  0.00000000000E+00 0.  1.
          5    1    3    3  502    0 -0.71587135950E+01 -0.63332810471E+02 -0.28255481341E+02  0.69876707767E+02  0.47000000000E+01 0. -1.
         13    1    6    6    0    0  0.34306997277E+00  0.23164619201E+01  0.53816286746E+02  0.53867210916E+02  0.00000000000E+00 0. -1.
        -14    1    6    6    0    0 -0.13294352812E+02  0.66092195278E+02  0.17610137658E+02  0.69678081501E+02  0.00000000000E+00 0.  1.
         -5    1    5    5    0  503 -0.74737744772E+02 -0.45146178728E+02  0.11591015344E+02  0.88206289935E+02  0.47000000000E+01 0.  1.
<mgrwt>
<rscale>  2 0.19585993E+03</rscale>
<asrwt>0</asrwt>
<pdfrwt beam="1">  1       21 0.30929807E-01 0.19621470E+03</pdfrwt>
<pdfrwt beam="2">  1       21 0.37498570E-01 0.19621470E+03</pdfrwt>
<totfact> 0.68752201E+04</totfact>
</mgrwt>
</event>
<event>
12    1  0.2768653E-001  0.2579682E+03  0.7546771E-02  0.1108960E+00
         21   -1    0    0  504  503  0.00000000000E+00  0.00000000000E+00  0.45912430988E+03  0.45912430988E+03  0.00000000000E+00 0. -1.
         21   -1    0    0  502  504 -0.00000000000E+00 -0.00000000000E+00 -0.18151170440E+03  0.18151170440E+03  0.00000000000E+00 0.  1.
          6    2    1    2  502    0 -0.52506917701E+02 -0.17870378600E+03 -0.99650216679E+01  0.25430906949E+03  0.17286347686E+03 0.  0.
         24    2    3    3    0    0 -0.41457933283E+02 -0.16145735918E+03  0.47616425268E+02  0.19301280268E+03  0.84849154240E+02 0.  0.
         -6    2    1    2    0  503  0.52506917701E+02  0.17870378600E+03  0.28757762714E+03  0.38632694479E+03  0.17848136345E+03 0.  0.
        -24    2    5    5    0    0  0.36535121756E+02  0.18254476293E+03  0.15829524851E+03  0.25592036982E+03  0.76029233801E+02 0.  0.
          2    1    4    4  501    0 -0.57088968050E+02 -0.15944966815E+03  0.51040845415E+02  0.17688559819E+03  0.00000000000E+00 0. -1.
         -1    1    4    4    0  501  0.15631034767E+02 -0.20076910311E+01 -0.34244201470E+01  0.16127204485E+02  0.00000000000E+00 0.  1.
          5    1    3    3  502    0 -0.11048984419E+02 -0.17246426818E+02 -0.57581446936E+02  0.61296266818E+02  0.47000000000E+01 0. -1.
         13    1    6    6    0    0 -0.98916420240E+01  0.75657275553E+02  0.99516441325E+02  0.12540091714E+03  0.00000000000E+00 0. -1.
        -14    1    6    6    0    0  0.46426763780E+02  0.10688748738E+03  0.58778807184E+02  0.13051945268E+03  0.00000000000E+00 0.  1.
         -5    1    5    5    0  503  0.15971795946E+02 -0.38409769311E+01  0.12928237863E+03  0.13040657497E+03  0.47000000000E+01 0.  1.
<mgrwt>
<rscale>  2 0.25699918E+03</rscale>
<asrwt>0</asrwt>
<pdfrwt beam="1">  1       21 0.70634509E-01 0.25796825E+03</pdfrwt>
<pdfrwt beam="2">  1       21 0.27924878E-01 0.25796825E+03</pdfrwt>
<totfact> 0.21485211E+04</totfact>
</mgrwt>
</event>
<event>
12    1  0.2768653E-001  0.1732448E+03  0.7546771E-02  0.1175719E+00
         21   -1    0    0  504  503  0.00000000000E+00  0.00000000000E+00  0.80057814408E+03  0.80057814408E+03  0.00000000000E+00 0.  1.
         21   -1    0    0  502  504 -0.00000000000E+00 -0.00000000000E+00 -0.13157500153E+03  0.13157500153E+03  0.00000000000E+00 0.  1.
          6    2    1    2  502    0  0.12743623125E+00 -0.11356525760E+02 -0.60445059780E+02  0.18348667081E+03  0.17287210936E+03 0.  0.
         24    2    3    3    0    0 -0.16089191357E+02  0.53585996050E+02 -0.58951536365E+02  0.11636863477E+03  0.83282978261E+02 0.  0.
         -6    2    1    2    0  503 -0.12743623125E+00  0.11356525760E+02  0.72944820233E+03  0.74866647480E+03  0.16816011322E+03 0.  0.
        -24    2    5    5    0    0  0.41418989421E+02 -0.48442933739E+01  0.22006318302E+03  0.23731164698E+03  0.78422021208E+02 0.  0.
          4    1    4    4  501    0 -0.83310681193E+01  0.39304800582E+02  0.13291922235E+02  0.42319608239E+02  0.00000000000E+00 0. -1.
         -3    1    4    4    0  501 -0.77581232372E+01  0.14281195467E+02 -0.72243458600E+02  0.74049026534E+02  0.00000000000E+00 0.  1.
          5    1    3    3  502    0  0.16216627588E+02 -0.64942521810E+02 -0.14935234144E+01  0.67118036037E+02  0.47000000000E+01 0. -1.
         11    1    6    6    0    0  0.31431560183E+02 -0.40791699475E+02  0.12549424328E+03  0.13564921975E+03  0.00000000000E+00 0. -1.
        -12    1    6    6    0    0  0.99874292383E+01  0.35947406101E+02  0.94568939736E+02  0.10166242723E+03  0.00000000000E+00 0.  1.
         -5    1    5    5    0  503 -0.41546425653E+02  0.16200819134E+02  0.50938501931E+03  0.51135482781E+03  0.47000000000E+01 0.  1.
<mgrwt>
<rscale>  2 0.17205723E+03</rscale>
<asrwt>0</asrwt>
<pdfrwt beam="1">  1       21 0.12316587E+00 0.17324478E+03</pdfrwt>
<pdfrwt beam="2">  1       21 0.20242308E-01 0.17324478E+03</pdfrwt>
<totfact> 0.11330124E+04</totfact>
</mgrwt>
</event>
<event>
12    1  0.2768653E-001  0.1998755E+03  0.7546771E-02  0.1150585E+00
         21   -1    0    0  504  503  0.00000000000E+00  0.00000000000E+00  0.11746749532E+03  0.11746749532E+03  0.00000000000E+00 0.  1.
         21   -1    0    0  502  504 -0.00000000000E+00 -0.00000000000E+00 -0.43339454531E+03  0.43339454531E+03  0.00000000000E+00 0. -1.
          6    2    1    2  502    0 -0.18821962250E+02 -0.98810213215E+02 -0.25129643672E+02  0.19799756657E+03  0.16868258025E+03 0.  0.
         24    2    3    3    0    0 -0.72340486405E+02 -0.53466221305E+02  0.85952331854E+01  0.12002470367E+03  0.78995371155E+02 0.  0.
         -6    2    1    2    0  503  0.18821962250E+02  0.98810213215E+02 -0.29079740632E+03  0.35286447406E+03  0.17272081819E+03 0.  0.
        -24    2    5    5    0    0  0.57323313930E+02  0.12594933661E+03 -0.21738928600E+03  0.26551615852E+03  0.63965076816E+02 0.  0.
          2    1    4    4  501    0 -0.38404827586E+01  0.18426892960E+02  0.86679388326E+01  0.20722761775E+02  0.00000000000E+00 0. -1.
         -1    1    4    4    0  501 -0.68500003646E+02 -0.71893114265E+02 -0.72705647230E-01  0.99301941896E+02  0.00000000000E+00 0.  1.
          5    1    3    3  502    0  0.53518524155E+02 -0.45343991911E+02 -0.33724876857E+02  0.77972862902E+02  0.47000000000E+01 0. -1.
         13    1    6    6    0    0  0.37927429809E+02  0.19735076129E+02 -0.80716027463E+02  0.91340244423E+02  0.00000000000E+00 0. -1.
        -14    1    6    6    0    0  0.19395884121E+02  0.10621426049E+03 -0.13667325854E+03  0.17417591409E+03  0.00000000000E+00 0.  1.
         -5    1    5    5    0  503 -0.38501351680E+02 -0.27139123400E+02 -0.73408120318E+02  0.87348315546E+02  0.47000000000E+01 0.  1.
<mgrwt>
<rscale>  2 0.19899997E+03</rscale>
<asrwt>0</asrwt>
<pdfrwt beam="1">  1       21 0.18071922E-01 0.19987548E+03</pdfrwt>
<pdfrwt beam="2">  1       21 0.66676084E-01 0.19987548E+03</pdfrwt>
<totfact> 0.57262226E+04</totfact>
</mgrwt>
</event>
<event>
12    1  0.2768653E-001  0.2190090E+03  0.7546771E-02  0.1135135E+00
         21   -1    0    0  504  503  0.00000000000E+00  0.00000000000E+00  0.77542661836E+03  0.77542661836E+03  0.00000000000E+00 0.  1.
         21   -1    0    0  502  504 -0.00000000000E+00 -0.00000000000E+00 -0.61173755446E+02  0.61173755446E+02  0.00000000000E+00 0.  1.
          6    2    1    2  502    0 -0.12249047086E+02 -0.13322664355E+03  0.37444592499E+03  0.43379106154E+03  0.17339422315E+03 0.  0.
         24    2    3    3    0    0  0.55955888493E+02 -0.85890017620E+02  0.27389098377E+03  0.30330713304E+03  0.80441216923E+02 0.  0.
         -6    2    1    2    0  503  0.12249047086E+02  0.13322664355E+03  0.33980693792E+03  0.40280931227E+03  0.16996237609E+03 0.  0.
        -24    2    5    5    0    0 -0.27252757799E+00  0.28045378403E+01  0.91979955741E+02  0.12243987994E+03  0.80766776815E+02 0.  0.
          2    1    4    4  501    0  0.55007472521E+02 -0.47712864483E+02  0.24451369388E+03  0.25512601977E+03  0.00000000000E+00 0. -1.
         -1    1    4    4    0  501  0.94841597209E+00 -0.38177153137E+02  0.29377289887E+02  0.48181113266E+02  0.00000000000E+00 0.  1.
          5    1    3    3  502    0 -0.68204935579E+02 -0.47336625928E+02  0.10055494122E+03  0.13048392849E+03  0.47000000000E+01 0. -1.
         13    1    6    6    0    0  0.31067169705E+02  0.75329758960E+01  0.84004847111E+01  0.33052729127E+02  0.00000000000E+00 0. -1.
        -14    1    6    6    0    0 -0.31339697283E+02 -0.47284380557E+01  0.83579471030E+02  0.89387150810E+02  0.00000000000E+00 0.  1.
         -5    1    5    5    0  503  0.12521574664E+02  0.13042210571E+03  0.24782698218E+03  0.28036943233E+03  0.47000000000E+01 0.  1.
<mgrwt>
<rscale>  2 0.21832910E+03</rscale>
<asrwt>0</asrwt>
<pdfrwt beam="1">  1       21 0.11929640E+00 0.21900898E+03</pdfrwt>
<pdfrwt beam="2">  1       21 0.94113476E-02 0.21900898E+03</pdfrwt>
<totfact> 0.47730097E+04</totfact>
</mgrwt>
</event>
<event>
12    1  0.2768653E-001  0.1742058E+03  0.7546771E-02  0.1173733E+00
         21   -1    0    0  504  503  0.00000000000E+00  0.00000000000E+00  0.83729043049E+03  0.83729043049E+03  0.00000000000E+00 0.  1.
         21   -1    0    0  502  504 -0.00000000000E+00 -0.00000000000E+00 -0.41491173359E+02  0.41491173359E+02  0.00000000000E+00 0.  1.
          6    2    1    2  502    0 -0.16857227703E+02  0.24864040202E+02  0.23842454700E+03  0.29481736965E+03  0.17078826135E+03 0.  0.
         24    2    3    3    0    0  0.17047483054E+02 -0.24321068312E+00  0.23882197128E+03  0.25236561580E+03  0.79760856589E+02 0.  0.
         -6    2    1    2    0  503  0.16857227703E+02 -0.24864040202E+02  0.55737471013E+03  0.58396423420E+03  0.17159624910E+03 0.  0.
        -24    2    5    5    0    0  0.44209685495E+02 -0.74200539021E+02  0.37025722621E+03  0.38847180506E+03  0.79747811750E+02 0.  0.
          4    1    4    4  501    0 -0.79231942888E+01  0.19966463814E+02  0.20345980836E+03  0.20459064080E+03  0.00000000000E+00 0. -1.
         -3    1    4    4    0  501  0.24970677343E+02 -0.20209674497E+02  0.35362162921E+02  0.47774975005E+02  0.00000000000E+00 0.  1.
          5    1    3    3  502    0 -0.33904710757E+02  0.25107250885E+02 -0.39742428322E+00  0.42451753845E+02  0.47000000000E+01 0. -1.
         13    1    6    6    0    0  0.32010350358E+02 -0.50538075540E+02  0.97299357350E+02  0.11421875743E+03  0.00000000000E+00 0. -1.
        -14    1    6    6    0    0  0.12199335138E+02 -0.23662463481E+02  0.27295786886E+03  0.27425304762E+03  0.00000000000E+00 0.  1.
         -5    1    5    5    0  503 -0.27352457793E+02  0.49336498820E+02  0.18711748392E+03  0.19549242914E+03  0.47000000000E+01 0.  1.
<mgrwt>
<rscale>  2 0.17400650E+03</rscale>
<asrwt>0</asrwt>
<pdfrwt beam="1">  1       21 0.12881390E+00 0.17420580E+03</pdfrwt>
<pdfrwt beam="2">  1       21 0.63832581E-02 0.17420580E+03</pdfrwt>
<totfact> 0.79131904E+04</totfact>
</mgrwt>
</event>
<event>
12    1  0.2768653E-001  0.1917136E+03  0.7546771E-02  0.1157120E+00
         21   -1    0    0  504  503  0.00000000000E+00  0.00000000000E+00  0.14999500021E+04  0.14999500021E+04  0.00000000000E+00 0.  1.
         21   -1    0    0  502  504 -0.00000000000E+00 -0.00000000000E+00 -0.26875069791E+02  0.26875069791E+02  0.00000000000E+00 0.  1.
          6    2    1    2  502    0  0.44077572994E+02 -0.71657829904E+02  0.50600871102E+03  0.54110896067E+03  0.17226843778E+03 0.  0.
         24    2    3    3    0    0  0.55830697054E+02 -0.65194417602E+02  0.51439363425E+03  0.52460718618E+03  0.56960600487E+02 0.  0.
         -6    2    1    2    0  503 -0.44077572994E+02  0.71657829904E+02  0.96706622124E+03  0.98571611118E+03  0.17129360334E+03 0.  0.
        -24    2    5    5    0    0  0.38039829394E+01  0.62544140135E+02  0.29871271283E+03  0.31557119779E+03  0.80185137744E+02 0.  0.
          4    1    4    4  501    0  0.84131300474E+01 -0.53308222490E+02  0.25521050916E+03  0.26085427221E+03  0.00000000000E+00 0. -1.
         -3    1    4    4    0  501  0.47417567006E+02 -0.11886195112E+02  0.25918312509E+03  0.26375291397E+03  0.00000000000E+00 0.  1.
          5    1    3    3  502    0 -0.11753124059E+02 -0.64634123022E+01 -0.83849232310E+01  0.16501774490E+02  0.47000000000E+01 0. -1.
         11    1    6    6    0    0  0.41068801258E+02  0.23280268193E+02  0.12489328001E+03  0.13351759703E+03  0.00000000000E+00 0. -1.
        -12    1    6    6    0    0 -0.37264818319E+02  0.39263871942E+02  0.17381943281E+03  0.18205360076E+03  0.00000000000E+00 0.  1.
         -5    1    5    5    0  503 -0.47881555934E+02  0.91136897688E+01  0.66835350841E+03  0.67014491339E+03  0.47000000000E+01 0.  1.
<mgrwt>
<rscale>  2 0.19149432E+03</rscale>
<asrwt>0</asrwt>
<pdfrwt beam="1">  1       21 0.23076147E+00 0.19171357E+03</pdfrwt>
<pdfrwt beam="2">  1       21 0.41346273E-02 0.19171357E+03</pdfrwt>
<totfact> 0.32100327E+04</totfact>
</mgrwt>
</event>
<event>
12    1  0.2768653E-001  0.1810590E+03  0.7546771E-02  0.1169543E+00
         21   -1    0    0  504  503  0.00000000000E+00  0.00000000000E+00  0.25796750285E+03  0.25796750285E+03  0.00000000000E+00 0.  1.
         21   -1    0    0  502  504 -0.00000000000E+00 -0.00000000000E+00 -0.20708833257E+03  0.20708833257E+03  0.00000000000E+00 0.  1.
          6    2    1    2  502    0 -0.41015133789E+01  0.37902246828E+01 -0.12536488519E+03  0.22022425967E+03  0.18097287612E+03 0.  0.
         24    2    3    3    0    0  0.64490293777E+00  0.74201131450E+02 -0.93846621779E+02  0.14279225602E+03  0.77950087574E+02 0.  0.
         -6    2    1    2    0  503  0.41015133789E+01 -0.37902246828E+01  0.17624405547E+03  0.24483157575E+03  0.16985094989E+03 0.  0.
        -24    2    5    5    0    0 -0.44297347106E+02 -0.47294829239E+02  0.10777334983E+03  0.15025130379E+03  0.82227145896E+02 0.  0.
          2    1    4    4  501    0  0.17955857409E+02  0.56008279032E+02 -0.15939556372E+02  0.60937751786E+02  0.00000000000E+00 0. -1.
         -1    1    4    4    0  501 -0.17310954471E+02  0.18192852419E+02 -0.77907065407E+02  0.81854504238E+02  0.00000000000E+00 0.  1.
          5    1    3    3  502    0 -0.47464163166E+01 -0.70410906768E+02 -0.31518263412E+02  0.77432003643E+02  0.47000000000E+01 0. -1.
         11    1    6    6    0    0 -0.31635539506E+02 -0.15905127347E+02  0.11075070284E+03  0.11627337879E+03  0.00000000000E+00 0. -1.
        -12    1    6    6    0    0 -0.12661807600E+02 -0.31389701892E+02 -0.29773530007E+01  0.33977925003E+02  0.00000000000E+00 0.  1.
         -5    1    5    5    0  503  0.48398860485E+02  0.43504604556E+02  0.68470705639E+02  0.94580271963E+02  0.47000000000E+01 0.  1.
<mgrwt>
<rscale>  2 0.17821357E+03</rscale>
<asrwt>0</asrwt>
<pdfrwt beam="1">  1       21 0.39687308E-01 0.18105902E+03</pdfrwt>
<pdfrwt beam="2">  1       21 0.31859743E-01 0.18105902E+03</pdfrwt>
<totfact> 0.58278158E+04</totfact>
</mgrwt>
</event>
<event>
12    1  0.2768653E-001  0.4311137E+03  0.7546771E-02  0.1033520E+00
         21   -1    0    0  504  503  0.00000000000E+00  0.00000000000E+00  0.57147487140E+03  0.57147487140E+03  0.00000000000E+00 0.  1.
         21   -1    0    0  502  504 -0.00000000000E+00 -0.00000000000E+00 -0.45082116747E+03  0.45082116747E+03  0.00000000000E+00 0.  1.
          6    2    1    2  502    0 -0.32482147091E+03  0.22438531956E+03 -0.20957189917E+03  0.47935307223E+03  0.17320862374E+03 0.  0.
         24    2    3    3    0    0 -0.19631189284E+03  0.99521088392E+02 -0.49259260371E+02  0.23887849969E+03  0.78699787654E+02 0.  0.
         -6    2    1    2    0  503  0.32482147091E+03 -0.22438531956E+03  0.33022560310E+03  0.54294296664E+03  0.17285935464E+03 0.  0.
        -24    2    5    5    0    0  0.15612528187E+03 -0.14848809979E+03  0.25455166228E+03  0.34302441452E+03  0.80283128777E+02 0.  0.
          4    1    4    4  501    0 -0.88064388274E+02  0.23910537378E+02  0.14251012284E+02  0.92358765858E+02  0.00000000000E+00 0. -1.
         -3    1    4    4    0  501 -0.10824750456E+03  0.75610551014E+02 -0.63510272655E+02  0.14651973383E+03  0.00000000000E+00 0.  1.
          5    1    3    3  502    0 -0.12850957807E+03  0.12486423116E+03 -0.16031263880E+03  0.24047457254E+03  0.47000000000E+01 0. -1.
         11    1    6    6    0    0  0.58882893815E+02 -0.10437064908E+02  0.83094127382E+02  0.10237559042E+03  0.00000000000E+00 0. -1.
        -12    1    6    6    0    0  0.97242388057E+02 -0.13805103488E+03  0.17145753490E+03  0.24064882410E+03  0.00000000000E+00 0.  1.
         -5    1    5    5    0  503  0.16869618904E+03 -0.75897219765E+02  0.75673940817E+02  0.19991855212E+03  0.47000000000E+01 0.  1.
<mgrwt>
<rscale>  2 0.43107860E+03</rscale>
<asrwt>0</asrwt>
<pdfrwt beam="1">  1       21 0.87919212E-01 0.43111366E+03</pdfrwt>
<pdfrwt beam="2">  1       21 0.69357102E-01 0.43111366E+03</pdfrwt>
<totfact> 0.18195063E+03</totfact>
</mgrwt>
</event>
<event>
12    1  0.2768653E-001  0.2155915E+03  0.7546771E-02  0.1137410E+00
         21   -1    0    0  504  503  0.00000000000E+00  0.00000000000E+00  0.27841328318E+03  0.27841328318E+03  0.00000000000E+00 0.  1.
         21   -1    0    0  502  504 -0.00000000000E+00 -0.00000000000E+00 -0.18530197838E+03  0.18530197838E+03  0.00000000000E+00 0.  1.
          6    2    1    2  502    0  0.14625153878E+02 -0.12719932510E+03 -0.27880856955E+02  0.21738682552E+03  0.17345352776E+03 0.  0.
         24    2    3    3    0    0 -0.35477357365E+02 -0.13879280503E+03 -0.25028694794E+02  0.16566743613E+03  0.79354761783E+02 0.  0.
         -6    2    1    2    0  503 -0.14625153878E+02  0.12719932510E+03  0.12099216175E+03  0.24632843604E+03  0.17217732651E+03 0.  0.
        -24    2    5    5    0    0 -0.63338524830E+02  0.48309632609E+02  0.97349366195E+02  0.15052839495E+03  0.82681976618E+02 0.  0.
          2    1    4    4  501    0 -0.41676638039E+02 -0.91928593108E+02 -0.49519330974E+02  0.11242763241E+03  0.00000000000E+00 0. -1.
         -1    1    4    4    0  501  0.61992806741E+01 -0.46864211921E+02  0.24490636179E+02  0.53239803721E+02  0.00000000000E+00 0.  1.
          5    1    3    3  502    0  0.50102511243E+02  0.11593479932E+02 -0.28521621605E+01  0.51719389389E+02  0.47000000000E+01 0. -1.
         13    1    6    6    0    0  0.41421336018E+01  0.20799784708E+01  0.60732504639E+02  0.60909118373E+02  0.00000000000E+00 0. -1.
        -14    1    6    6    0    0 -0.67480658432E+02  0.46229654138E+02  0.36616861556E+02  0.89619276578E+02  0.00000000000E+00 0.  1.
         -5    1    5    5    0  503  0.48713370952E+02  0.78889692488E+02  0.23642795557E+02  0.95800041086E+02  0.47000000000E+01 0.  1.
<mgrwt>
<rscale>  2 0.21533467E+03</rscale>
<asrwt>0</asrwt>
<pdfrwt beam="1">  1       21 0.42832813E-01 0.21559149E+03</pdfrwt>
<pdfrwt beam="2">  1       21 0.28507997E-01 0.21559149E+03</pdfrwt>
<totfact> 0.61046118E+04</totfact>
</mgrwt>
</event>
<event>
12    1  0.2768653E-001  0.2047684E+03  0.7546771E-02  0.1145884E+00
         21   -1    0    0  504  503  0.00000000000E+00  0.00000000000E+00  0.39664658926E+03  0.39664658926E+03  0.00000000000E+00 0.  1.
         21   -1    0    0  502  504 -0.00000000000E+00 -0.00000000000E+00 -0.13783599251E+03  0.13783599251E+03  0.00000000000E+00 0.  1.
          6    2    1    2  502    0  0.19878248429E+02 -0.10809098828E+03 -0.21131247058E-01  0.20476841031E+03  0.17277527284E+03 0.  0.
         24    2    3    3    0    0  0.68890146379E+02 -0.25317417242E+02  0.43217613325E+01  0.10836000342E+03  0.79601437398E+02 0.  0.
         -6    2    1    2    0  503 -0.19878248429E+02  0.10809098828E+03  0.25883172800E+03  0.32971417147E+03  0.17215912680E+03 0.  0.
        -24    2    5    5    0    0 -0.27242474393E+01  0.86270903988E+02  0.66886421918E+02  0.13571554685E+03  0.80590482193E+02 0.  0.
          4    1    4    4  501    0  0.72062828128E+02  0.35420363531E+01  0.20654417445E+02  0.75047999170E+02  0.00000000000E+00 0. -1.
         -3    1    4    4    0  501 -0.31726817494E+01 -0.28859453595E+02 -0.16332656113E+02  0.33312004248E+02  0.00000000000E+00 0.  1.
          5    1    3    3  502    0 -0.49011897950E+02 -0.82773571039E+02 -0.43428925795E+01  0.96408406890E+02  0.47000000000E+01 0. -1.
         13    1    6    6    0    0  0.20785319204E+01 -0.13201891536E+02  0.23610456828E+02  0.27130497723E+02  0.00000000000E+00 0. -1.
        -14    1    6    6    0    0 -0.48027793597E+01  0.99472795524E+02  0.43275965090E+02  0.10858504912E+03  0.00000000000E+00 0.  1.
         -5    1    5    5    0  503 -0.17154000990E+02  0.21820084293E+02  0.19194530608E+03  0.19399862462E+03  0.47000000000E+01 0.  1.
<mgrwt>
<rscale>  2 0.20463838E+03</rscale>
<asrwt>0</asrwt>
<pdfrwt beam="1">  1       21 0.61022551E-01 0.20476841E+03</pdfrwt>
<pdfrwt beam="2">  1       21 0.21205538E-01 0.20476841E+03</pdfrwt>
<totfact> 0.51385082E+04</totfact>
</mgrwt>
</event>
<event>
12    1  0.2768653E-001  0.2567061E+03  0.7546771E-02  0.1109442E+00
         21   -1    0    0  504  503  0.00000000000E+00  0.00000000000E+00  0.55884295699E+03  0.55884295699E+03  0.00000000000E+00 0. -1.
         21   -1    0    0  502  504 -0.00000000000E+00 -0.00000000000E+00 -0.22825508220E+03  0.22825508220E+03  0.00000000000E+00 0.  1.
          6    2    1    2  502    0  0.20650590838E+01 -0.18933951957E+03 -0.10977385313E+03  0.27737609922E+03  0.17039214609E+03 0.  0.
         24    2    3    3    0    0 -0.10532164130E+01 -0.15443775102E+03 -0.14661770074E+03  0.22631323408E+03  0.76608103651E+02 0.  0.
         -6    2    1    2    0  503 -0.20650590838E+01  0.18933951957E+03  0.44036172792E+03  0.50972193997E+03  0.17333287783E+03 0.  0.
        -24    2    5    5    0    0  0.25373944266E+02  0.33129097243E+02  0.98491684034E+02  0.13282432543E+03  0.78742081946E+02 0.  0.
          4    1    4    4  501    0 -0.27483727394E+02 -0.88972404485E+02 -0.47259181388E+02  0.10442640594E+03  0.00000000000E+00 0. -1.
         -3    1    4    4    0  501  0.26430510981E+02 -0.65465346539E+02 -0.99358519349E+02  0.12188682815E+03  0.00000000000E+00 0.  1.
          5    1    3    3  502    0  0.31182754968E+01 -0.34901768546E+02  0.36843847608E+02  0.51062865140E+02  0.47000000000E+01 0. -1.
         13    1    6    6    0    0  0.37576361892E+02  0.46530835965E+02  0.97858898191E+02  0.11468855925E+03  0.00000000000E+00 0. -1.
        -14    1    6    6    0    0 -0.12202417626E+02 -0.13401738722E+02  0.63278584229E+00  0.18135766171E+02  0.00000000000E+00 0.  1.
         -5    1    5    5    0  503 -0.27439003350E+02  0.15621042233E+03  0.34187004388E+03  0.37689761455E+03  0.47000000000E+01 0.  1.
<mgrwt>
<rscale>  2 0.25621053E+03</rscale>
<asrwt>0</asrwt>
<pdfrwt beam="1">  1       21 0.85975839E-01 0.25670607E+03</pdfrwt>
<pdfrwt beam="2">  1       21 0.35116167E-01 0.25670607E+03</pdfrwt>
<totfact> 0.87621193E+03</totfact>
</mgrwt>
</event>
<event>
12    1  0.2768653E-001  0.2527931E+03  0.7546771E-02  0.1111658E+00
         21   -1    0    0  504  503  0.00000000000E+00  0.00000000000E+00  0.12288453732E+03  0.12288453732E+03  0.00000000000E+00 0.  1.
         21   -1    0    0  502  504 -0.00000000000E+00 -0.00000000000E+00 -0.62680673691E+03  0.62680673691E+03  0.00000000000E+00 0. -1.
          6    2    1    2  502    0 -0.14296080633E+03 -0.11546468270E+03 -0.40739648026E+03  0.47909640374E+03  0.17260239527E+03 0.  0.
         24    2    3    3    0    0 -0.72278220395E+02 -0.10307574841E+01 -0.11579629635E+03  0.15793615021E+03  0.79434511955E+02 0.  0.
         -6    2    1    2    0  503  0.14296080633E+03  0.11546468270E+03 -0.96525719335E+02  0.27059487048E+03  0.17359286950E+03 0.  0.
        -24    2    5    5    0    0  0.22416192898E+02 -0.98080318894E+00 -0.32626409276E+02  0.91163081669E+02  0.82114415288E+02 0.  0.
          2    1    4    4  501    0  0.15703625011E+02  0.71764435636E+01 -0.94961319250E+01  0.19704864939E+02  0.00000000000E+00 0. -1.
         -1    1    4    4    0  501 -0.87981845407E+02 -0.82072010477E+01 -0.10630016443E+03  0.13823128527E+03  0.00000000000E+00 0.  1.
          5    1    3    3  502    0 -0.70682585932E+02 -0.11443392522E+03 -0.29160018390E+03  0.32116025353E+03  0.47000000000E+01 0. -1.
         13    1    6    6    0    0  0.27039692018E+02  0.15335395254E+02 -0.54947080784E+02  0.63130824315E+02  0.00000000000E+00 0. -1.
        -14    1    6    6    0    0 -0.46234991208E+01 -0.16316198443E+02  0.22320671508E+02  0.28032257353E+02  0.00000000000E+00 0.  1.
         -5    1    5    5    0  503  0.12054461343E+03  0.11644548589E+03 -0.63899310058E+02  0.17943178882E+03  0.47000000000E+01 0.  1.
<mgrwt>
<rscale>  2 0.25262318E+03</rscale>
<asrwt>0</asrwt>
<pdfrwt beam="1">  1       21 0.18905314E-01 0.25279314E+03</pdfrwt>
<pdfrwt beam="2">  1       21 0.96431804E-01 0.25279314E+03</pdfrwt>
<totfact> 0.22186442E+04</totfact>
</mgrwt>
</event>
<event>
12    1  0.2768653E-001  0.1898615E+03  0.7546771E-02  0.1159071E+00
         21   -1    0    0  504  503  0.00000000000E+00  0.00000000000E+00  0.14630284115E+02  0.14630284115E+02  0.00000000000E+00 0. -1.
         21   -1    0    0  502  504 -0.00000000000E+00 -0.00000000000E+00 -0.25200123266E+04  0.25200123266E+04  0.00000000000E+00 0. -1.
          6    2    1    2  502    0  0.42589326120E+02 -0.67440778376E+02 -0.14768709354E+04  0.14887542373E+04  0.16993913583E+03 0.  0.
         24    2    3    3    0    0  0.35989877554E+02  0.46096275024E+01 -0.40825364719E+03  0.41768009774E+03  0.80430738251E+02 0.  0.
         -6    2    1    2    0  503 -0.42589326120E+02  0.67440778376E+02 -0.10285111071E+04  0.10458883735E+04  0.17229417581E+03 0.  0.
        -24    2    5    5    0    0  0.49018535616E+01  0.99810464123E+02 -0.72774228004E+03  0.73964143709E+03  0.86455031011E+02 0.  0.
          4    1    4    4  501    0  0.55481963951E+02 -0.12534309130E+02 -0.33864408725E+03  0.34338779107E+03  0.00000000000E+00 0. -1.
         -3    1    4    4    0  501 -0.19492086397E+02  0.17143936632E+02 -0.69609559940E+02  0.74292306670E+02  0.00000000000E+00 0.  1.
          5    1    3    3  502    0  0.65994485655E+01 -0.72050405878E+02 -0.10686172882E+04  0.10710741395E+04  0.47000000000E+01 0. -1.
         11    1    6    6    0    0 -0.16880071335E+02  0.48634729676E+02 -0.13812757757E+03  0.14740929897E+03  0.00000000000E+00 0. -1.
        -12    1    6    6    0    0  0.21781924896E+02  0.51175734447E+02 -0.58961470247E+03  0.59223213811E+03  0.00000000000E+00 0.  1.
         -5    1    5    5    0  503 -0.47491179681E+02 -0.32369685747E+02 -0.30076882711E+03  0.30624693641E+03  0.47000000000E+01 0.  1.
<mgrwt>
<rscale>  2 0.18932561E+03</rscale>
<asrwt>0</asrwt>
<pdfrwt beam="1">  1       21 0.22508131E-02 0.18986151E+03</pdfrwt>
<pdfrwt beam="2">  1       21 0.38769418E+00 0.18986151E+03</pdfrwt>
<totfact> 0.10571925E+04</totfact>
</mgrwt>
</event>
<event>
12    1  0.2768653E-001  0.2087395E+03  0.7546771E-02  0.1142717E+00
         21   -1    0    0  504  503  0.00000000000E+00  0.00000000000E+00  0.27972879842E+03  0.27972879842E+03  0.00000000000E+00 0. -1.
         21   -1    0    0  502  504 -0.00000000000E+00 -0.00000000000E+00 -0.16263901224E+03  0.16263901224E+03  0.00000000000E+00 0. -1.
          6    2    1    2  502    0 -0.54220731588E+02  0.10165925616E+03  0.11369694785E+02  0.20904891198E+03  0.17406230363E+03 0.  0.
         24    2    3    3    0    0 -0.95214529525E+02  0.37524731032E+02  0.18711274383E+02  0.13243482989E+03  0.81944861391E+02 0.  0.
         -6    2    1    2    0  503  0.54220731588E+02 -0.10165925616E+03  0.10572009140E+03  0.23331889868E+03  0.17316604360E+03 0.  0.
        -24    2    5    5    0    0 -0.29438056240E+02 -0.61694108051E+02  0.90008392291E+02  0.13916501754E+03  0.81195007854E+02 0.  0.
          2    1    4    4  501    0 -0.94875001119E+02  0.38938818623E+02  0.40745557645E+02  0.11035260713E+03  0.00000000000E+00 0. -1.
         -1    1    4    4    0  501 -0.33952840613E+00 -0.14140875907E+01 -0.22034283262E+02  0.22082222762E+02  0.00000000000E+00 0.  1.
          5    1    3    3  502    0  0.40993797938E+02  0.64134525132E+02 -0.73415795973E+01  0.76614082089E+02  0.47000000000E+01 0. -1.
         13    1    6    6    0    0 -0.77005557705E+01 -0.52106067545E+02  0.73771537476E+01  0.53186118787E+02  0.00000000000E+00 0. -1.
        -14    1    6    6    0    0 -0.21737500469E+02 -0.95880405059E+01  0.82631238544E+02  0.85978898752E+02  0.00000000000E+00 0.  1.
         -5    1    5    5    0  503  0.83658787828E+02 -0.39965148113E+02  0.15711699108E+02  0.94153881138E+02  0.47000000000E+01 0.  1.
<mgrwt>
<rscale>  2 0.20855255E+03</rscale>
<asrwt>0</asrwt>
<pdfrwt beam="1">  1       21 0.43035200E-01 0.20873950E+03</pdfrwt>
<pdfrwt beam="2">  1       21 0.25021387E-01 0.20873950E+03</pdfrwt>
<totfact> 0.77973868E+04</totfact>
</mgrwt>
</event>
<event>
12    1  0.2768653E-001  0.1769858E+03  0.7546771E-02  0.1171275E+00
         21   -1    0    0  504  503  0.00000000000E+00  0.00000000000E+00  0.22913225946E+03  0.22913225946E+03  0.00000000000E+00 0.  1.
         21   -1    0    0  502  504 -0.00000000000E+00 -0.00000000000E+00 -0.29307182021E+03  0.29307182021E+03  0.00000000000E+00 0.  1.
          6    2    1    2  502    0  0.37942802854E+02  0.79693681113E+01 -0.22358266163E+03  0.28385579559E+03  0.17053368873E+03 0.  0.
         24    2    3    3    0    0  0.23357693908E+00  0.48970927147E+02 -0.57346299179E+02  0.10847127015E+03  0.77969302647E+02 0.  0.
         -6    2    1    2    0  503 -0.37942802854E+02 -0.79693681113E+01  0.15964310087E+03  0.23834828408E+03  0.17268705148E+03 0.  0.
        -24    2    5    5    0    0 -0.57217298222E+02 -0.39676142257E+02  0.41558616050E+02  0.11448198013E+03  0.80814539073E+02 0.  0.
          4    1    4    4  501    0 -0.21505173265E+02  0.58579333182E+02 -0.22589036554E+02  0.66364714462E+02  0.00000000000E+00 0. -1.
         -3    1    4    4    0  501  0.21738750204E+02 -0.96084060351E+01 -0.34757262625E+02  0.42106555691E+02  0.00000000000E+00 0.  1.
          5    1    3    3  502    0  0.37709225915E+02 -0.41001559036E+02 -0.16623636245E+03  0.17538452543E+03  0.47000000000E+01 0. -1.
         11    1    6    6    0    0 -0.76933766346E+02 -0.39429478780E+02  0.38057268857E+02  0.94455512882E+02  0.00000000000E+00 0. -1.
        -12    1    6    6    0    0  0.19716468123E+02 -0.24666347608E+00  0.35013471925E+01  0.20026467244E+02  0.00000000000E+00 0.  1.
         -5    1    5    5    0  503  0.19274495369E+02  0.31706774145E+02  0.11808448482E+03  0.12386630395E+03  0.47000000000E+01 0.  1.
<mgrwt>
<rscale>  2 0.17645837E+03</rscale>
<asrwt>0</asrwt>
<pdfrwt beam="1">  1       21 0.35251117E-01 0.17698583E+03</pdfrwt>
<pdfrwt beam="2">  1       21 0.45087972E-01 0.17698583E+03</pdfrwt>
<totfact> 0.36914005E+04</totfact>
</mgrwt>
</event>
<event>
12    1  0.2768653E-001  0.1884046E+03  0.7546771E-02  0.1159933E+00
         21   -1    0    0  504  503  0.00000000000E+00  0.00000000000E+00  0.65808786878E+03  0.65808786878E+03  0.00000000000E+00 0. -1.
         21   -1    0    0  502  504 -0.00000000000E+00 -0.00000000000E+00 -0.62396132179E+02  0.62396132179E+02  0.00000000000E+00 0. -1.
          6    2    1    2  502    0  0.74857489399E+02  0.42004028553E+01  0.16504760283E+03  0.25047356075E+03  0.17284387848E+03 0.  0.
         24    2    3    3    0    0  0.19630693432E+02  0.34083136346E+01  0.96327551985E+01  0.85469041827E+02  0.82554142305E+02 0.  0.
         -6    2    1    2    0  503 -0.74857489399E+02 -0.42004028553E+01  0.43064413377E+03  0.47001044022E+03  0.17272566937E+03 0.  0.
        -24    2    5    5    0    0 -0.11584401742E+03 -0.18718609538E+02  0.30329503946E+03  0.33536068854E+03  0.81906579349E+02 0.  0.
          4    1    4    4  501    0 -0.27105061137E+02  0.21089135558E+02  0.89750444849E+01  0.35496301234E+02  0.00000000000E+00 0. -1.
         -3    1    4    4    0  501  0.46735754569E+02 -0.17680821923E+02  0.65771071355E+00  0.49972740593E+02  0.00000000000E+00 0.  1.
          5    1    3    3  502    0  0.55226795967E+02  0.79208922062E+00  0.15541484763E+03  0.16500451892E+03  0.47000000000E+01 0. -1.
         13    1    6    6    0    0 -0.10174334710E+03 -0.46982071913E+01  0.15328350871E+03  0.18403699594E+03  0.00000000000E+00 0. -1.
        -14    1    6    6    0    0 -0.14100670323E+02 -0.14020402346E+02  0.15001153075E+03  0.15132369261E+03  0.00000000000E+00 0.  1.
         -5    1    5    5    0  503  0.40986528026E+02  0.14518206682E+02  0.12734909431E+03  0.13464975167E+03  0.47000000000E+01 0.  1.
<mgrwt>
<rscale>  2 0.18837748E+03</rscale>
<asrwt>0</asrwt>
<pdfrwt beam="1">  1       21 0.10124428E+00 0.18840460E+03</pdfrwt>
<pdfrwt beam="2">  1       21 0.95994054E-02 0.18840460E+03</pdfrwt>
<totfact> 0.69657852E+04</totfact>
</mgrwt>
</event>
<event>
12    1  0.2768653E-001  0.1755993E+03  0.7546771E-02  0.1172221E+00
         21   -1    0    0  504  503  0.00000000000E+00  0.00000000000E+00  0.62584504542E+03  0.62584504542E+03  0.00000000000E+00 0.  1.
         21   -1    0    0  502  504 -0.00000000000E+00 -0.00000000000E+00 -0.68235988099E+02  0.68235988099E+02  0.00000000000E+00 0.  1.
          6    2    1    2  502    0 -0.66028523362E+01 -0.22378183892E+02  0.95561937531E+02  0.19991794262E+03  0.17404229113E+03 0.  0.
         24    2    3    3    0    0  0.26458998852E+02 -0.65560391638E+02  0.22697615379E+02  0.10887351109E+03  0.79624218057E+02 0.  0.
         -6    2    1    2    0  503  0.66028523362E+01  0.22378183892E+02  0.46204711979E+03  0.49416309090E+03  0.17368142885E+03 0.  0.
        -24    2    5    5    0    0  0.52763896189E+02  0.65003508956E+02  0.25386329155E+03  0.27665365054E+03  0.71282442724E+02 0.  0.
          2    1    4    4  501    0  0.27170737601E+02 -0.38805858024E+02  0.51214498651E+02  0.69764378237E+02  0.00000000000E+00 0. -1.
         -1    1    4    4    0  501 -0.71173874867E+00 -0.26754533615E+02 -0.28516883272E+02  0.39109132853E+02  0.00000000000E+00 0.  1.
          5    1    3    3  502    0 -0.33061851189E+02  0.43182207746E+02  0.72864322151E+02  0.91044431529E+02  0.47000000000E+01 0. -1.
         13    1    6    6    0    0  0.35238366957E+02  0.22142734813E+02  0.20559719811E+03  0.20976713537E+03  0.00000000000E+00 0. -1.
        -14    1    6    6    0    0  0.17525529232E+02  0.42860774143E+02  0.48266093439E+02  0.66886515164E+02  0.00000000000E+00 0.  1.
         -5    1    5    5    0  503 -0.46161043852E+02 -0.42625325064E+02  0.20818382824E+03  0.21750944036E+03  0.47000000000E+01 0.  1.
<mgrwt>
<rscale>  2 0.17550978E+03</rscale>
<asrwt>0</asrwt>
<pdfrwt beam="1">  1       21 0.96283849E-01 0.17559926E+03</pdfrwt>
<pdfrwt beam="2">  1       21 0.10497845E-01 0.17559926E+03</pdfrwt>
<totfact> 0.67367768E+04</totfact>
</mgrwt>
</event>
<event>
12    1  0.2768653E-001  0.3039738E+03  0.7546771E-02  0.1084435E+00
         21   -1    0    0  504  503  0.00000000000E+00  0.00000000000E+00  0.16126542351E+03  0.16126542351E+03  0.00000000000E+00 0. -1.
         21   -1    0    0  502  504 -0.00000000000E+00 -0.00000000000E+00 -0.57910612467E+03  0.57910612467E+03  0.00000000000E+00 0. -1.
          6    2    1    2  502    0 -0.19918536825E+03  0.13059139911E+03 -0.13737639629E+03  0.33357512768E+03  0.18886812093E+03 0.  0.
         24    2    3    3    0    0 -0.38525404872E+02  0.21040901740E+02  0.75227177305E+01  0.91024558621E+02  0.79384838751E+02 0.  0.
         -6    2    1    2    0  503  0.19918536825E+03 -0.13059139911E+03 -0.28046430487E+03  0.40679642050E+03  0.17347673326E+03 0.  0.
        -24    2    5    5    0    0  0.12855899721E+03 -0.13352901944E+02 -0.18747696118E+03  0.24126187550E+03  0.79711767270E+02 0.  0.
          2    1    4    4  501    0  0.93830685054E+01  0.55978466140E+01 -0.27574787103E+02  0.29660525030E+02  0.00000000000E+00 0. -1.
         -1    1    4    4    0  501 -0.47908473377E+02  0.15443055126E+02  0.35097504834E+02  0.61364033591E+02  0.00000000000E+00 0.  1.
          5    1    3    3  502    0 -0.16065996338E+03  0.10955049737E+03 -0.14489911402E+03  0.24255056906E+03  0.47000000000E+01 0. -1.
         11    1    6    6    0    0  0.12823752656E+03 -0.32678448248E+02 -0.15937811730E+03  0.20715725541E+03  0.00000000000E+00 0. -1.
        -12    1    6    6    0    0  0.32147064829E+00  0.19325546303E+02 -0.28098843888E+02  0.34104620085E+02  0.00000000000E+00 0.  1.
         -5    1    5    5    0  503  0.70626371041E+02 -0.11723849717E+03 -0.92987343686E+02  0.16553454501E+03  0.47000000000E+01 0.  1.
<mgrwt>
<rscale>  2 0.30161752E+03</rscale>
<asrwt>0</asrwt>
<pdfrwt beam="1">  1       21 0.24810066E-01 0.30397383E+03</pdfrwt>
<pdfrwt beam="2">  1       21 0.89093248E-01 0.30397383E+03</pdfrwt>
<totfact> 0.15592734E+04</totfact>
</mgrwt>
</event>
<event>
12    1  0.2768653E-001  0.2492751E+03  0.7546771E-02  0.1113876E+00
         21   -1    0    0  504  503  0.00000000000E+00  0.00000000000E+00  0.24685708955E+03  0.24685708955E+03  0.00000000000E+00 0.  1.
         21   -1    0    0  502  504 -0.00000000000E+00 -0.00000000000E+00 -0.25160335275E+03  0.25160335275E+03  0.00000000000E+00 0.  1.
          6    2    1    2  502    0 -0.17912515515E+03 -0.57171506204E+01 -0.14560540678E+02  0.24969996616E+03  0.17326152700E+03 0.  0.
         24    2    3    3    0    0 -0.18656555613E+03  0.25160893954E+02  0.16934204662E+02  0.20472417059E+03  0.78647577315E+02 0.  0.
         -6    2    1    2    0  503  0.17912515515E+03  0.57171506204E+01  0.98142774765E+01  0.24876047614E+03  0.17224095746E+03 0.  0.
        -24    2    5    5    0    0  0.14992177220E+02  0.11105273710E+02  0.17597241328E+02  0.84287588279E+02  0.80290984260E+02 0.  0.
          2    1    4    4  501    0 -0.12121472922E+03 -0.10681784582E+02  0.37629045181E+02  0.12736976149E+03  0.00000000000E+00 0. -1.
         -1    1    4    4    0  501 -0.65350826906E+02  0.35842678537E+02 -0.20694840519E+02  0.77354409093E+02  0.00000000000E+00 0.  1.
          5    1    3    3  502    0  0.74404009778E+01 -0.30878044575E+02 -0.31494745339E+02  0.44975795573E+02  0.47000000000E+01 0. -1.
         13    1    6    6    0    0  0.85614049459E+01 -0.64145255436E+01 -0.30699708150E+02  0.32510242587E+02  0.00000000000E+00 0. -1.
        -14    1    6    6    0    0  0.64307722742E+01  0.17519799254E+02  0.48296949478E+02  0.51777345691E+02  0.00000000000E+00 0.  1.
         -5    1    5    5    0  503  0.16413297793E+03 -0.53881230898E+01 -0.77829638517E+01  0.16447288786E+03  0.47000000000E+01 0.  1.
<mgrwt>
<rscale>  2 0.24909782E+03</rscale>
<asrwt>0</asrwt>
<pdfrwt beam="1">  1       21 0.37978014E-01 0.24927508E+03</pdfrwt>
<pdfrwt beam="2">  1       21 0.38708208E-01 0.24927508E+03</pdfrwt>
<totfact> 0.41915477E+04</totfact>
</mgrwt>
</event>
<event>
12    1  0.2768653E-001  0.2828815E+03  0.7546771E-02  0.1094466E+00
         21   -1    0    0  504  503  0.00000000000E+00  0.00000000000E+00  0.66283188399E+03  0.66283188399E+03  0.00000000000E+00 0. -1.
         21   -1    0    0  502  504 -0.00000000000E+00 -0.00000000000E+00 -0.12752585757E+03  0.12752585757E+03  0.00000000000E+00 0. -1.
          6    2    1    2  502    0  0.21836966745E+03 -0.38478560378E+02  0.16836686839E+03  0.32703683602E+03  0.17158023916E+03 0.  0.
         24    2    3    3    0    0  0.13650656288E+03 -0.53811264933E+02  0.17636179482E+03  0.24323547226E+03  0.80810385171E+02 0.  0.
         -6    2    1    2    0  503 -0.21836966745E+03  0.38478560378E+02  0.36693915802E+03  0.46332090555E+03  0.17565877307E+03 0.  0.
        -24    2    5    5    0    0 -0.10357487927E+03  0.46873314381E+02  0.29560422995E+03  0.32782523310E+03  0.84632496591E+02 0.  0.
          4    1    4    4  501    0  0.11125693252E+02 -0.39675958051E+02  0.39362232838E+02  0.56985507558E+02  0.00000000000E+00 0. -1.
         -3    1    4    4    0  501  0.12538086962E+03 -0.14135306882E+02  0.13699956198E+03  0.18624996470E+03  0.00000000000E+00 0.  1.
          5    1    3    3  502    0  0.81863104569E+02  0.15332704555E+02 -0.79949264307E+01  0.83801363756E+02  0.47000000000E+01 0. -1.
         11    1    6    6    0    0 -0.58405630360E+02  0.53159700178E+02  0.10243061684E+03  0.12934141892E+03  0.00000000000E+00 0. -1.
        -12    1    6    6    0    0 -0.45169248909E+02 -0.62863857970E+01  0.19317361311E+03  0.19848381419E+03  0.00000000000E+00 0.  1.
         -5    1    5    5    0  503 -0.11479478818E+03 -0.83947540028E+01  0.71334928075E+02  0.13549567244E+03  0.47000000000E+01 0.  1.
<mgrwt>
<rscale>  2 0.28225075E+03</rscale>
<asrwt>0</asrwt>
<pdfrwt beam="1">  1       21 0.10197413E+00 0.28288145E+03</pdfrwt>
<pdfrwt beam="2">  1       21 0.19619363E-01 0.28288145E+03</pdfrwt>
<totfact> 0.17856888E+04</totfact>
</mgrwt>
</event>
<event>
12    1  0.2768653E-001  0.1970667E+03  0.7546771E-02  0.1152287E+00
         21   -1    0    0  504  503  0.00000000000E+00  0.00000000000E+00  0.10463167203E+03  0.10463167203E+03  0.00000000000E+00 0.  1.
         21   -1    0    0  502  504 -0.00000000000E+00 -0.00000000000E+00 -0.40820688865E+03  0.40820688865E+03  0.00000000000E+00 0.  1.
          6    2    1    2  502    0 -0.21236412313E+02  0.92231365496E+02 -0.22940099460E+03  0.30227483316E+03  0.17259098601E+03 0.  0.
         24    2    3    3    0    0 -0.51971389940E+02 -0.28769521234E+01 -0.13031114425E+03  0.16145182591E+03  0.79852335887E+02 0.  0.
         -6    2    1    2    0  503  0.21236412313E+02 -0.92231365496E+02 -0.74174222025E+02  0.21056372752E+03  0.17285154945E+03 0.  0.
        -24    2    5    5    0    0  0.68208986376E+02 -0.48156443675E+02 -0.25425339968E+01  0.11411576136E+03  0.77745955657E+02 0.  0.
          2    1    4    4  501    0  0.73981229353E+01 -0.43311594827E+01  0.74992961228E+01  0.11389934494E+02  0.00000000000E+00 0. -1.
         -1    1    4    4    0  501 -0.59369512876E+02  0.14542073593E+01 -0.13781044038E+03  0.15006189142E+03  0.00000000000E+00 0.  1.
          5    1    3    3  502    0  0.30734977628E+02  0.95108317620E+02 -0.99089850343E+02  0.14082300725E+03  0.47000000000E+01 0. -1.
         11    1    6    6    0    0  0.14282491979E+02 -0.17507707254E+01 -0.33551584149E+02  0.36507034584E+02  0.00000000000E+00 0. -1.
        -12    1    6    6    0    0  0.53926494398E+02 -0.46405672950E+02  0.31009050152E+02  0.77608726772E+02  0.00000000000E+00 0.  1.
         -5    1    5    5    0  503 -0.46972574063E+02 -0.44074921821E+02 -0.71631688029E+02  0.96447966166E+02  0.47000000000E+01 0.  1.
<mgrwt>
<rscale>  2 0.19700951E+03</rscale>
<asrwt>0</asrwt>
<pdfrwt beam="1">  1       21 0.16097180E-01 0.19706666E+03</pdfrwt>
<pdfrwt beam="2">  1       21 0.62801060E-01 0.19706666E+03</pdfrwt>
<totfact> 0.80831159E+04</totfact>
</mgrwt>
</event>
<event>
12    1  0.2768653E-001  0.1731771E+03  0.7546771E-02  0.1174745E+00
         21   -1    0    0  504  503  0.00000000000E+00  0.00000000000E+00  0.28393984804E+02  0.28393984804E+02  0.00000000000E+00 0.  1.
         21   -1    0    0  502  504 -0.00000000000E+00 -0.00000000000E+00 -0.10532694154E+04  0.10532694154E+04  0.00000000000E+00 0.  1.
          6    2    1    2  502    0 -0.39721853964E+01 -0.11287192031E+02 -0.49379661439E+03  0.52306246144E+03  0.17209318179E+03 0.  0.
         24    2    3    3    0    0 -0.77930825289E+01 -0.22532031941E+02 -0.50135971908E+03  0.50821873441E+03  0.79726341239E+02 0.  0.
         -6    2    1    2    0  503  0.39721853964E+01  0.11287192031E+02 -0.53107881622E+03  0.55860093879E+03  0.17276319288E+03 0.  0.
        -24    2    5    5    0    0  0.66109467928E+02 -0.15570721312E+02 -0.27947052583E+03  0.29800314297E+03  0.78033257663E+02 0.  0.
          2    1    4    4  501    0  0.28794026830E+02 -0.23707321093E+02 -0.13573803416E+03  0.14076912648E+03  0.00000000000E+00 0. -1.
         -1    1    4    4    0  501 -0.36587109359E+02  0.11752891526E+01 -0.36562168493E+03  0.36744960793E+03  0.00000000000E+00 0.  1.
          5    1    3    3  502    0  0.38208971324E+01  0.11244839910E+02  0.75631046898E+01  0.14843727027E+02  0.47000000000E+01 0. -1.
         11    1    6    6    0    0  0.58442179732E+02  0.19040393401E+02 -0.22309953318E+03  0.23141181184E+03  0.00000000000E+00 0. -1.
        -12    1    6    6    0    0  0.76672881967E+01 -0.34611114713E+02 -0.56370992651E+02  0.66591331136E+02  0.00000000000E+00 0.  1.
         -5    1    5    5    0  503 -0.62137282532E+02  0.26857913343E+02 -0.25160829039E+03  0.26059779581E+03  0.47000000000E+01 0.  1.
<mgrwt>
<rscale>  2 0.17300973E+03</rscale>
<asrwt>0</asrwt>
<pdfrwt beam="1">  1       21 0.43683054E-02 0.17317708E+03</pdfrwt>
<pdfrwt beam="2">  1       21 0.16204145E+00 0.17317708E+03</pdfrwt>
<totfact> 0.83043693E+04</totfact>
</mgrwt>
</event>
<event>
12    1  0.2768653E-001  0.1806658E+03  0.7546771E-02  0.1167407E+00
         21   -1    0    0  504  503  0.00000000000E+00  0.00000000000E+00  0.10287056078E+04  0.10287056078E+04  0.00000000000E+00 0.  1.
         21   -1    0    0  502  504 -0.00000000000E+00 -0.00000000000E+00 -0.87860635926E+02  0.87860635926E+02  0.00000000000E+00 0.  1.
          6    2    1    2  502    0 -0.16741526333E+02 -0.44899393359E+02  0.23001751867E+02  0.18111110819E+03  0.17313555005E+03 0.  0.
         24    2    3    3    0    0  0.91373890908E+01 -0.49609329108E+02 -0.48885490439E+02  0.10441842689E+03  0.77258263538E+02 0.  0.
         -6    2    1    2    0  503  0.16741526333E+02  0.44899393359E+02  0.91784321998E+03  0.93545513551E+03  0.17419500527E+03 0.  0.
        -24    2    5    5    0    0 -0.45742633613E+01  0.93101914853E+02  0.53484207989E+03  0.54881601529E+03  0.80337275233E+02 0.  0.
          4    1    4    4  501    0  0.16974284982E+02  0.14127438658E+02  0.24293863688E+01  0.22217398404E+02  0.00000000000E+00 0. -1.
         -3    1    4    4    0  501 -0.78368958912E+01 -0.63736767766E+02 -0.51314876808E+02  0.82201028487E+02  0.00000000000E+00 0.  1.
          5    1    3    3  502    0 -0.25878915424E+02  0.47099357488E+01  0.71887242306E+02  0.76692681298E+02  0.47000000000E+01 0. -1.
         13    1    6    6    0    0 -0.14919069873E+02 -0.85554437014E+01  0.40107390654E+02  0.43639168735E+02  0.00000000000E+00 0. -1.
        -14    1    6    6    0    0  0.10344806511E+02  0.10165735855E+03  0.49473468923E+03  0.50517684656E+03  0.00000000000E+00 0.  1.
         -5    1    5    5    0  503  0.21315789695E+02 -0.48202521494E+02  0.38300114010E+03  0.38663912022E+03  0.47000000000E+01 0.  1.
<mgrwt>
<rscale>  2 0.18040994E+03</rscale>
<asrwt>0</asrwt>
<pdfrwt beam="1">  1       21 0.15826239E+00 0.18066581E+03</pdfrwt>
<pdfrwt beam="2">  1       21 0.13517022E-01 0.18066581E+03</pdfrwt>
<totfact> 0.12392027E+04</totfact>
</mgrwt>
</event>
<event>
12    1  0.2768653E-001  0.2902123E+03  0.7546771E-02  0.1090261E+00
         21   -1    0    0  504  503  0.00000000000E+00  0.00000000000E+00  0.24073578884E+03  0.24073578884E+03  0.00000000000E+00 0. -1.
         21   -1    0    0  502  504 -0.00000000000E+00 -0.00000000000E+00 -0.35657341834E+03  0.35657341834E+03  0.00000000000E+00 0. -1.
          6    2    1    2  502    0 -0.82783636416E+02 -0.21736609836E+03 -0.99535465359E+02  0.30663940746E+03  0.17326068846E+03 0.  0.
         24    2    3    3    0    0  0.65036499962E+01 -0.60674736765E+02 -0.61883488479E+02  0.12234571880E+03  0.86111483661E+02 0.  0.
         -6    2    1    2    0  503  0.82783636416E+02  0.21736609836E+03 -0.16302164142E+02  0.29066979973E+03  0.17355696686E+03 0.  0.
        -24    2    5    5    0    0  0.70584642560E+02  0.13698116246E+03  0.54785958989E+02  0.18256723444E+03  0.81137310505E+02 0.  0.
          2    1    4    4  501    0  0.28168710569E+02 -0.63138780481E+02 -0.70644742435E+02  0.98846656440E+02  0.00000000000E+00 0. -1.
         -1    1    4    4    0  501 -0.21665060573E+02  0.24640437157E+01  0.87612539554E+01  0.23499062363E+02  0.00000000000E+00 0.  1.
          5    1    3    3  502    0 -0.89287286412E+02 -0.15669136160E+03 -0.37651976880E+02  0.18429368865E+03  0.47000000000E+01 0. -1.
         13    1    6    6    0    0  0.43478683914E+02  0.94312160973E+02 -0.53715012099E+01  0.10399054134E+03  0.00000000000E+00 0. -1.
        -14    1    6    6    0    0  0.27105958646E+02  0.42669001485E+02  0.60157460199E+02  0.78576693106E+02  0.00000000000E+00 0.  1.
         -5    1    5    5    0  503  0.12198993855E+02  0.80384935905E+02 -0.71088123132E+02  0.10810256529E+03  0.47000000000E+01 0.  1.
<mgrwt>
<rscale>  2 0.29016801E+03</rscale>
<asrwt>0</asrwt>
<pdfrwt beam="1">  1       21 0.37036275E-01 0.29021229E+03</pdfrwt>
<pdfrwt beam="2">  1       21 0.54857449E-01 0.29021229E+03</pdfrwt>
<totfact> 0.21007068E+04</totfact>
</mgrwt>
</event>
<event>
12    1  0.2768653E-001  0.2026343E+03  0.7546771E-02  0.1148789E+00
         21   -1    0    0  504  503  0.00000000000E+00  0.00000000000E+00  0.43715645106E+03  0.43715645106E+03  0.00000000000E+00 0.  1.
         21   -1    0    0  502  504 -0.00000000000E+00 -0.00000000000E+00 -0.11137356095E+03  0.11137356095E+03  0.00000000000E+00 0.  1.
          6    2    1    2  502    0 -0.62510087128E+02  0.86484688600E+02  0.48129607402E+02  0.20827169547E+03  0.17226005825E+03 0.  0.
         24    2    3    3    0    0 -0.72543115285E+02  0.11880646342E+03  0.52346418983E+02  0.17384452188E+03  0.90023835072E+02 0.  0.
         -6    2    1    2    0  503  0.62510087128E+02 -0.86484688600E+02  0.27765328270E+03  0.34025831654E+03  0.16521883739E+03 0.  0.
        -24    2    5    5    0    0 -0.53481528337E+01 -0.21463503436E+02  0.20399928316E+03  0.22076146764E+03  0.81428700979E+02 0.  0.
          2    1    4    4  501    0 -0.62077141888E+02  0.18587184518E+02  0.24790898012E+02  0.69380426617E+02  0.00000000000E+00 0. -1.
         -1    1    4    4    0  501 -0.10465973397E+02  0.10021927890E+03  0.27555520971E+02  0.10446409526E+03  0.00000000000E+00 0.  1.
          5    1    3    3  502    0  0.10033028157E+02 -0.32321774820E+02 -0.42168115815E+01  0.34427173590E+02  0.47000000000E+01 0. -1.
         11    1    6    6    0    0 -0.36162288487E+02 -0.20491691146E+02  0.56889189777E+02  0.70455662854E+02  0.00000000000E+00 0. -1.
        -12    1    6    6    0    0  0.30814135653E+02 -0.97181229040E+00  0.14711009339E+03  0.15030580478E+03  0.00000000000E+00 0.  1.
         -5    1    5    5    0  503  0.67858239962E+02 -0.65021185164E+02  0.73653999537E+02  0.11949684891E+03  0.47000000000E+01 0.  1.
<mgrwt>
<rscale>  2 0.20112988E+03</rscale>
<asrwt>0</asrwt>
<pdfrwt beam="1">  1       21 0.67254838E-01 0.20263425E+03</pdfrwt>
<pdfrwt beam="2">  1       21 0.17134394E-01 0.20263425E+03</pdfrwt>
<totfact> 0.61917667E+04</totfact>
</mgrwt>
</event>
<event>
12    1  0.2768653E-001  0.1805905E+03  0.7546771E-02  0.1168164E+00
         21   -1    0    0  504  503  0.00000000000E+00  0.00000000000E+00  0.16757559089E+04  0.16757559089E+04  0.00000000000E+00 0.  1.
         21   -1    0    0  502  504 -0.00000000000E+00 -0.00000000000E+00 -0.53847270259E+02  0.53847270259E+02  0.00000000000E+00 0.  1.
          6    2    1    2  502    0 -0.12311048464E+02 -0.51781860589E+02  0.11886103643E+03  0.21619637376E+03  0.17256883567E+03 0.  0.
         24    2    3    3    0    0 -0.70339654889E+02 -0.45166183456E+02  0.98541698065E+02  0.15417982872E+03  0.84102925914E+02 0.  0.
         -6    2    1    2    0  503  0.12311048464E+02  0.51781860589E+02  0.15030476022E+04  0.15134068054E+04  0.16856791248E+03 0.  0.
        -24    2    5    5    0    0  0.32202025122E+01 -0.29521338886E+02  0.69046157093E+03  0.69669939025E+03  0.88153163828E+02 0.  0.
          2    1    4    4  501    0 -0.44729129133E+00 -0.45369597910E+02  0.21659048623E+02  0.50276384827E+02  0.00000000000E+00 0. -1.
         -1    1    4    4    0  501 -0.69892363598E+02  0.20341445397E+00  0.76882649442E+02  0.10390344389E+03  0.00000000000E+00 0.  1.
          5    1    3    3  502    0  0.58028606426E+02 -0.66156771333E+01  0.20319338367E+02  0.62016545045E+02  0.47000000000E+01 0. -1.
         11    1    6    6    0    0 -0.28206756478E+02  0.13903273188E+02  0.13302785404E+03  0.13669430152E+03  0.00000000000E+00 0. -1.
        -12    1    6    6    0    0  0.31426958990E+02 -0.43424612075E+02  0.55743371689E+03  0.56000508873E+03  0.00000000000E+00 0.  1.
         -5    1    5    5    0  503  0.90908459515E+01  0.81303199475E+02  0.81258603124E+03  0.81670741510E+03  0.47000000000E+01 0.  1.
<mgrwt>
<rscale>  2 0.17962801E+03</rscale>
<asrwt>0</asrwt>
<pdfrwt beam="1">  1       21 0.25780856E+00 0.18059049E+03</pdfrwt>
<pdfrwt beam="2">  1       21 0.82841967E-02 0.18059049E+03</pdfrwt>
<totfact> 0.68435013E+03</totfact>
</mgrwt>
</event>
<event>
12    1  0.2768653E-001  0.2080379E+03  0.7546771E-02  0.1143286E+00
         21   -1    0    0  504  503  0.00000000000E+00  0.00000000000E+00  0.54000309737E+03  0.54000309737E+03  0.00000000000E+00 0.  1.
         21   -1    0    0  502  504 -0.00000000000E+00 -0.00000000000E+00 -0.86173551876E+02  0.86173551876E+02  0.00000000000E+00 0.  1.
          6    2    1    2  502    0  0.88911156839E+02 -0.76750957617E+02  0.14168704405E+03  0.25105970905E+03  0.17076257128E+03 0.  0.
         24    2    3    3    0    0  0.10700367795E+03 -0.53963373258E+02  0.47642731949E+02  0.15250497319E+03  0.81400885691E+02 0.  0.
         -6    2    1    2    0  503 -0.88911156839E+02  0.76750957617E+02  0.31214250144E+03  0.37511694020E+03  0.17170869027E+03 0.  0.
        -24    2    5    5    0    0 -0.32620592117E+02  0.10064711442E+03  0.27001389619E+03  0.30070885350E+03  0.79525881101E+02 0.  0.
          4    1    4    4  501    0  0.36310762432E+02  0.17412521584E+02  0.30676752707E+02  0.50623418819E+02  0.00000000000E+00 0. -1.
         -3    1    4    4    0  501  0.70692915518E+02 -0.71375894842E+02  0.16965979243E+02  0.10188155437E+03  0.00000000000E+00 0.  1.
          5    1    3    3  502    0 -0.18092521111E+02 -0.22787584359E+02  0.94044312105E+02  0.98554735860E+02  0.47000000000E+01 0. -1.
         13    1    6    6    0    0  0.11525447994E+02  0.60757460894E+02  0.77149516639E+02  0.98875441457E+02  0.00000000000E+00 0. -1.
        -14    1    6    6    0    0 -0.44146040111E+02  0.39889653522E+02  0.19286437955E+03  0.20183341204E+03  0.00000000000E+00 0.  1.
         -5    1    5    5    0  503 -0.56290564723E+02 -0.23896156798E+02  0.42128605252E+02  0.74408086704E+02  0.47000000000E+01 0.  1.
<mgrwt>
<rscale>  2 0.20784260E+03</rscale>
<asrwt>0</asrwt>
<pdfrwt beam="1">  1       21 0.83077398E-01 0.20803792E+03</pdfrwt>
<pdfrwt beam="2">  1       21 0.13257470E-01 0.20803792E+03</pdfrwt>
<totfact> 0.61495061E+04</totfact>
</mgrwt>
</event>
<event>
12    1  0.2768653E-001  0.2480389E+03  0.7546771E-02  0.1114642E+00
         21   -1    0    0  504  503  0.00000000000E+00  0.00000000000E+00  0.16168362167E+03  0.16168362167E+03  0.00000000000E+00 0. -1.
         21   -1    0    0  502  504 -0.00000000000E+00 -0.00000000000E+00 -0.41188716415E+03  0.41188716415E+03  0.00000000000E+00 0.  1.
          6    2    1    2  502    0 -0.27425858246E+02  0.17477595320E+03 -0.20520933272E+03  0.32148393492E+03  0.17303825778E+03 0.  0.
         24    2    3    3    0    0 -0.24608607398E+02  0.12498779965E+03 -0.22226462396E+03  0.26857108114E+03  0.80630818791E+02 0.  0.
         -6    2    1    2    0  503  0.27425858246E+02 -0.17477595320E+03 -0.44994209763E+02  0.25208685090E+03  0.17385191965E+03 0.  0.
        -24    2    5    5    0    0  0.59353264752E+02 -0.13110207833E+03 -0.68829580273E+02  0.19278270669E+03  0.10824553524E+03 0.  0.
          2    1    4    4  501    0  0.24101997130E+02  0.35191251778E+02 -0.10332114333E+03  0.11177919810E+03  0.00000000000E+00 0. -1.
         -1    1    4    4    0  501 -0.48710604528E+02  0.89796547875E+02 -0.11894348063E+03  0.15679188304E+03  0.00000000000E+00 0.  1.
          5    1    3    3  502    0 -0.28172508478E+01  0.49788153549E+02  0.17055291238E+02  0.52912853782E+02  0.47000000000E+01 0. -1.
         13    1    6    6    0    0  0.61550964498E+01  0.19221491193E+02 -0.12104837212E+02  0.23534613231E+02  0.00000000000E+00 0. -1.
        -14    1    6    6    0    0  0.53198168302E+02 -0.15032356952E+03 -0.56724743061E+02  0.16924809346E+03  0.00000000000E+00 0.  1.
         -5    1    5    5    0  503 -0.31927406506E+02 -0.43673874871E+02  0.23835370510E+02  0.59304144204E+02  0.47000000000E+01 0.  1.
<mgrwt>
<rscale>  2 0.24789638E+03</rscale>
<asrwt>0</asrwt>
<pdfrwt beam="1">  1       21 0.24874404E-01 0.24803891E+03</pdfrwt>
<pdfrwt beam="2">  1       21 0.63367255E-01 0.24803891E+03</pdfrwt>
<totfact> 0.34279698E+04</totfact>
</mgrwt>
</event>
<event>
12    1  0.2768653E-001  0.1781720E+03  0.7546771E-02  0.1169628E+00
         21   -1    0    0  504  503  0.00000000000E+00  0.00000000000E+00  0.38551619209E+02  0.38551619209E+02  0.00000000000E+00 0.  1.
         21   -1    0    0  502  504 -0.00000000000E+00 -0.00000000000E+00 -0.83179422547E+03  0.83179422547E+03  0.00000000000E+00 0.  1.
          6    2    1    2  502    0  0.49530993925E+01  0.43529674415E+02 -0.44213894588E+03  0.47662128983E+03  0.17251562452E+03 0.  0.
         24    2    3    3    0    0 -0.15988031614E+02 -0.26366693632E+02 -0.12577902461E+03  0.15192185494E+03  0.79429637334E+02 0.  0.
         -6    2    1    2    0  503 -0.49530993925E+01 -0.43529674415E+02 -0.35110366038E+03  0.39372455485E+03  0.17270170529E+03 0.  0.
        -24    2    5    5    0    0  0.49211422202E+02 -0.11015778223E+02 -0.28977285572E+03  0.30555139314E+03  0.82766143406E+02 0.  0.
          2    1    4    4  501    0  0.10596954146E+02 -0.34768240712E+02 -0.11726649736E+03  0.12277034414E+03  0.00000000000E+00 0. -1.
         -1    1    4    4    0  501 -0.26584985760E+02  0.84015470802E+01 -0.85125272583E+01  0.29151510793E+02  0.00000000000E+00 0.  1.
          5    1    3    3  502    0  0.20941131007E+02  0.69896368048E+02 -0.31635992127E+03  0.32469943489E+03  0.47000000000E+01 0. -1.
         11    1    6    6    0    0  0.37275854107E+02 -0.17531381875E+02 -0.47402876622E+02  0.62800249696E+02  0.00000000000E+00 0. -1.
        -12    1    6    6    0    0  0.11935568095E+02  0.65156036522E+01 -0.24236997909E+03  0.24275114344E+03  0.00000000000E+00 0.  1.
         -5    1    5    5    0  503 -0.54164521595E+02 -0.32513896193E+02 -0.61330804660E+02  0.88173161707E+02  0.47000000000E+01 0.  1.
<mgrwt>
<rscale>  2 0.17812685E+03</rscale>
<asrwt>0</asrwt>
<pdfrwt beam="1">  1       21 0.59310185E-02 0.17817195E+03</pdfrwt>
<pdfrwt beam="2">  1       21 0.12796834E+00 0.17817195E+03</pdfrwt>
<totfact> 0.91052892E+04</totfact>
</mgrwt>
</event>
<event>
12    1  0.2768653E-001  0.1756350E+03  0.7546771E-02  0.1173051E+00
         21   -1    0    0  504  503  0.00000000000E+00  0.00000000000E+00  0.50380897053E+03  0.50380897053E+03  0.00000000000E+00 0.  1.
         21   -1    0    0  502  504 -0.00000000000E+00 -0.00000000000E+00 -0.60314272739E+02  0.60314272739E+02  0.00000000000E+00 0.  1.
          6    2    1    2  502    0 -0.15150336315E+02 -0.33746399364E+01  0.19650158583E+03  0.26105025582E+03  0.17115327034E+03 0.  0.
         24    2    3    3    0    0 -0.49824929420E+02  0.50557190568E+02  0.12960307519E+03  0.16826841238E+03  0.80490672713E+02 0.  0.
         -6    2    1    2    0  503  0.15150336315E+02  0.33746399364E+01  0.24699311196E+03  0.30307298744E+03  0.17494775642E+03 0.  0.
        -24    2    5    5    0    0  0.75548433261E+02  0.13073544237E+02  0.18710904540E+03  0.21733973668E+03  0.79676112732E+02 0.  0.
          2    1    4    4  501    0  0.17545067417E+02  0.10676072294E+02  0.60334955273E+02  0.63734721605E+02  0.00000000000E+00 0. -1.
         -1    1    4    4    0  501 -0.67369996837E+02  0.39881118275E+02  0.69268119921E+02  0.10453369077E+03  0.00000000000E+00 0.  1.
          5    1    3    3  502    0  0.34674593105E+02 -0.53931830505E+02  0.66898510633E+02  0.92781843448E+02  0.47000000000E+01 0. -1.
         11    1    6    6    0    0 -0.46766015956E+01 -0.22362413619E+02  0.40595984617E+02  0.46583066799E+02  0.00000000000E+00 0. -1.
        -12    1    6    6    0    0  0.80225034857E+02  0.35435957857E+02  0.14651306078E+03  0.17075666988E+03  0.00000000000E+00 0.  1.
         -5    1    5    5    0  503 -0.60398096947E+02 -0.96989043011E+01  0.59884066560E+02  0.85733250768E+02  0.47000000000E+01 0.  1.
<mgrwt>
<rscale>  2 0.17468241E+03</rscale>
<asrwt>0</asrwt>
<pdfrwt beam="1">  1       21 0.77509070E-01 0.17563496E+03</pdfrwt>
<pdfrwt beam="2">  1       21 0.92791192E-02 0.17563496E+03</pdfrwt>
<totfact> 0.13756648E+05</totfact>
</mgrwt>
</event>
<event>
12    1  0.2768653E-001  0.2199227E+03  0.7546771E-02  0.1133989E+00
         21   -1    0    0  504  503  0.00000000000E+00  0.00000000000E+00  0.40058948964E+02  0.40058948964E+02  0.00000000000E+00 0.  1.
         21   -1    0    0  502  504 -0.00000000000E+00 -0.00000000000E+00 -0.17324529347E+04  0.17324529347E+04  0.00000000000E+00 0.  1.
          6    2    1    2  502    0  0.10651188998E+03  0.83281072429E+02 -0.13344224218E+04  0.13523814108E+04  0.17312354137E+03 0.  0.
         24    2    3    3    0    0  0.36166290025E+02 -0.25100924408E+02 -0.53855841726E+03  0.54608322496E+03  0.78890194814E+02 0.  0.
         -6    2    1    2    0  503 -0.10651188998E+03 -0.83281072429E+02 -0.35797156392E+03  0.42013047291E+03  0.17345158967E+03 0.  0.
        -24    2    5    5    0    0 -0.68501566768E+02 -0.11140432415E+02 -0.30476230604E+03  0.32265036347E+03  0.80041364179E+02 0.  0.
          2    1    4    4  501    0  0.77163236974E+01 -0.49825434375E+02 -0.36597635338E+03  0.36943308838E+03  0.00000000000E+00 0. -1.
         -1    1    4    4    0  501  0.28449966328E+02  0.24724509967E+02 -0.17258206389E+03  0.17665013658E+03  0.00000000000E+00 0.  1.
          5    1    3    3  502    0  0.70345599956E+02  0.10838199684E+03 -0.79586400455E+03  0.80629818580E+03  0.47000000000E+01 0. -1.
         13    1    6    6    0    0  0.15490131459E+01  0.11501833470E+02 -0.15831783309E+03  0.15874264672E+03  0.00000000000E+00 0. -1.
        -14    1    6    6    0    0 -0.70050579914E+02 -0.22642265885E+02 -0.14644447295E+03  0.16390771675E+03  0.00000000000E+00 0.  1.
         -5    1    5    5    0  503 -0.38010323213E+02 -0.72140640014E+02 -0.53209257879E+02  0.97480109440E+02  0.47000000000E+01 0.  1.
<mgrwt>
<rscale>  2 0.21985797E+03</rscale>
<asrwt>0</asrwt>
<pdfrwt beam="1">  1       21 0.61629161E-02 0.21992265E+03</pdfrwt>
<pdfrwt beam="2">  1       21 0.26653118E+00 0.21992265E+03</pdfrwt>
<totfact> 0.97713029E+03</totfact>
</mgrwt>
</event>
<event>
12    1  0.2768653E-001  0.2780101E+03  0.7546771E-02  0.1096836E+00
         21   -1    0    0  504  503  0.00000000000E+00  0.00000000000E+00  0.99803877360E+03  0.99803877360E+03  0.00000000000E+00 0. -1.
         21   -1    0    0  502  504 -0.00000000000E+00 -0.00000000000E+00 -0.96441854563E+02  0.96441854563E+02  0.00000000000E+00 0.  1.
          6    2    1    2  502    0  0.20618410668E+03 -0.67196422751E+02  0.20692631608E+03  0.34624479135E+03  0.17331967623E+03 0.  0.
         24    2    3    3    0    0  0.12983291849E+03 -0.91073518888E+02  0.19729251189E+03  0.26553221586E+03  0.80200061396E+02 0.  0.
         -6    2    1    2    0  503 -0.20618410668E+03  0.67196422751E+02  0.69467060296E+03  0.74823583682E+03  0.17396084563E+03 0.  0.
        -24    2    5    5    0    0 -0.22251429692E+03  0.79737083765E+02  0.67347921896E+03  0.71831748045E+03  0.80840147783E+02 0.  0.
          2    1    4    4  501    0  0.47109433424E+02 -0.11104348139E+02  0.11291587431E+03  0.12285194315E+03  0.00000000000E+00 0. -1.
         -1    1    4    4    0  501  0.82723485063E+02 -0.79969170749E+02  0.84376637575E+02  0.14268027271E+03  0.00000000000E+00 0.  1.
          5    1    3    3  502    0  0.76351188190E+02  0.23877096137E+02  0.96338041969E+01  0.80712575484E+02  0.47000000000E+01 0. -1.
         11    1    6    6    0    0 -0.18922701525E+03  0.80623276757E+02  0.48335142950E+03  0.52529570763E+03  0.00000000000E+00 0. -1.
        -12    1    6    6    0    0 -0.33287281670E+02 -0.88619299164E+00  0.19012778946E+03  0.19302177282E+03  0.00000000000E+00 0.  1.
         -5    1    5    5    0  503  0.16330190241E+02 -0.12540661014E+02  0.21191383998E+02  0.29918356368E+02  0.47000000000E+01 0.  1.
<mgrwt>
<rscale>  2 0.27790987E+03</rscale>
<asrwt>0</asrwt>
<pdfrwt beam="1">  1       21 0.15354442E+00 0.27801011E+03</pdfrwt>
<pdfrwt beam="2">  1       21 0.14837209E-01 0.27801011E+03</pdfrwt>
<totfact> 0.10644478E+04</totfact>
</mgrwt>
</event>
<event>
12    1  0.2768653E-001  0.2499931E+03  0.7546771E-02  0.1113540E+00
         21   -1    0    0  504  503  0.00000000000E+00  0.00000000000E+00  0.32429940391E+03  0.32429940391E+03  0.00000000000E+00 0.  1.
         21   -1    0    0  502  504 -0.00000000000E+00 -0.00000000000E+00 -0.72827065775E+03  0.72827065775E+03  0.00000000000E+00 0.  1.
          6    2    1    2  502    0  0.18003753875E+03 -0.42566847474E+01 -0.65392457107E+03  0.70008133146E+03  0.17339230457E+03 0.  0.
         24    2    3    3    0    0  0.12899829129E+02  0.82149441967E+01 -0.24616287031E+03  0.25919330700E+03  0.79693919304E+02 0.  0.
         -6    2    1    2    0  503 -0.18003753875E+03  0.42566847474E+01  0.24995331723E+03  0.35248873020E+03  0.17128925653E+03 0.  0.
        -24    2    5    5    0    0 -0.12567436752E+03  0.59314683439E+02  0.21211892080E+03  0.26623173537E+03  0.81071709178E+02 0.  0.
          4    1    4    4  501    0  0.55755838712E+01  0.19342985694E+02 -0.96826366923E+01  0.22338121774E+02  0.00000000000E+00 0. -1.
         -3    1    4    4    0  501  0.73242452575E+01 -0.11128041497E+02 -0.23648023362E+03  0.23685518523E+03  0.00000000000E+00 0.  1.
          5    1    3    3  502    0  0.16713770962E+03 -0.12471628944E+02 -0.40776170076E+03  0.44088802446E+03  0.47000000000E+01 0. -1.
         13    1    6    6    0    0 -0.47307345787E+02  0.20222112770E+02  0.15076660876E+03  0.15930313596E+03  0.00000000000E+00 0. -1.
        -14    1    6    6    0    0 -0.78367021733E+02  0.39092570669E+02  0.61352312042E+02  0.10692859940E+03  0.00000000000E+00 0.  1.
         -5    1    5    5    0  503 -0.54363171229E+02 -0.55057998691E+02  0.37834396421E+02  0.86256994838E+02  0.47000000000E+01 0.  1.
<mgrwt>
<rscale>  2 0.24962875E+03</rscale>
<asrwt>0</asrwt>
<pdfrwt beam="1">  1       21 0.49892216E-01 0.24999305E+03</pdfrwt>
<pdfrwt beam="2">  1       21 0.11204164E+00 0.24999305E+03</pdfrwt>
<totfact> 0.22826245E+03</totfact>
</mgrwt>
</event>
<event>
12    1  0.2768653E-001  0.1727514E+03  0.7546771E-02  0.1176727E+00
         21   -1    0    0  504  503  0.00000000000E+00  0.00000000000E+00  0.66884810935E+02  0.66884810935E+02  0.00000000000E+00 0. -1.
         21   -1    0    0  502  504 -0.00000000000E+00 -0.00000000000E+00 -0.47091218563E+03  0.47091218563E+03  0.00000000000E+00 0. -1.
          6    2    1    2  502    0 -0.58457254488E+01  0.53815281182E+01 -0.12569547349E+03  0.21364079453E+03  0.17256854777E+03 0.  0.
         24    2    3    3    0    0  0.40409583462E+02  0.53867866949E+02 -0.69833416141E+02  0.12627296231E+03  0.80829904584E+02 0.  0.
         -6    2    1    2    0  503  0.58457254488E+01 -0.53815281182E+01 -0.27833190121E+03  0.32415620204E+03  0.16596825823E+03 0.  0.
        -24    2    5    5    0    0  0.59099394155E+02 -0.21939975311E+02 -0.22338297780E+03  0.24572400465E+03  0.80661209899E+02 0.  0.
          4    1    4    4  501    0  0.39097526320E+02  0.55331276660E+02 -0.12485791710E+02  0.68891666664E+02  0.00000000000E+00 0. -1.
         -3    1    4    4    0  501  0.13120571415E+01 -0.14634097112E+01 -0.57347624431E+02  0.57381295644E+02  0.00000000000E+00 0.  1.
          5    1    3    3  502    0 -0.46255308911E+02 -0.48486338830E+02 -0.55862057346E+02  0.87367832218E+02  0.47000000000E+01 0. -1.
         13    1    6    6    0    0  0.70015755987E+02 -0.24293885858E+02 -0.11528803346E+03  0.13705374725E+03  0.00000000000E+00 0. -1.
        -14    1    6    6    0    0 -0.10916361831E+02  0.23539105472E+01 -0.10809494434E+03  0.10867025739E+03  0.00000000000E+00 0.  1.
         -5    1    5    5    0  503 -0.53253668706E+02  0.16558447193E+02 -0.54948923413E+02  0.78432197396E+02  0.47000000000E+01 0.  1.
<mgrwt>
<rscale>  2 0.17107899E+03</rscale>
<asrwt>0</asrwt>
<pdfrwt beam="1">  1       21 0.10289971E-01 0.17275137E+03</pdfrwt>
<pdfrwt beam="2">  1       21 0.72448029E-01 0.17275137E+03</pdfrwt>
<totfact> 0.13342466E+05</totfact>
</mgrwt>
</event>
<event>
12    1  0.2768653E-001  0.1793602E+03  0.7546771E-02  0.1168536E+00
         21   -1    0    0  504  503  0.00000000000E+00  0.00000000000E+00  0.11647524241E+03  0.11647524241E+03  0.00000000000E+00 0. -1.
         21   -1    0    0  502  504 -0.00000000000E+00 -0.00000000000E+00 -0.39978722486E+03  0.39978722486E+03  0.00000000000E+00 0. -1.
          6    2    1    2  502    0 -0.46502025894E+02  0.76369559376E+01 -0.28571312938E+03  0.33734565223E+03  0.17305876249E+03 0.  0.
         24    2    3    3    0    0  0.31376734745E+02 -0.11952501853E+02 -0.89247971136E+02  0.12504987597E+03  0.80900613995E+02 0.  0.
         -6    2    1    2    0  503  0.46502025894E+02 -0.76369559376E+01  0.24011469339E+01  0.17891681504E+03  0.17258244316E+03 0.  0.
        -24    2    5    5    0    0  0.18501734397E+02 -0.51384349953E+02 -0.45304209463E+02  0.10823625310E+03  0.81730957987E+02 0.  0.
          2    1    4    4  501    0  0.93202318960E+01 -0.25009284700E+02 -0.95087101325E+02  0.98761773385E+02  0.00000000000E+00 0. -1.
         -1    1    4    4    0  501  0.22056502849E+02  0.13056782847E+02  0.58391301888E+01  0.26288102587E+02  0.00000000000E+00 0.  1.
          5    1    3    3  502    0 -0.77878760639E+02  0.19589457791E+02 -0.19646515824E+03  0.21229577626E+03  0.47000000000E+01 0. -1.
         11    1    6    6    0    0  0.51060674389E+02 -0.29743343385E+02 -0.29779889936E+02  0.66171752201E+02  0.00000000000E+00 0. -1.
        -12    1    6    6    0    0 -0.32558939993E+02 -0.21641006569E+02 -0.15524319527E+02  0.42064500895E+02  0.00000000000E+00 0.  1.
         -5    1    5    5    0  503  0.28000291498E+02  0.43747394016E+02  0.47705356397E+02  0.70680561940E+02  0.47000000000E+01 0.  1.
<mgrwt>
<rscale>  2 0.17924525E+03</rscale>
<asrwt>0</asrwt>
<pdfrwt beam="1">  1       21 0.17919268E-01 0.17936024E+03</pdfrwt>
<pdfrwt beam="2">  1       21 0.61505727E-01 0.17936024E+03</pdfrwt>
<totfact> 0.69946588E+04</totfact>
</mgrwt>
</event>
<event>
12    1  0.2768653E-001  0.2022514E+03  0.7546771E-02  0.1147869E+00
         21   -1    0    0  504  503  0.00000000000E+00  0.00000000000E+00  0.30541051082E+03  0.30541051082E+03  0.00000000000E+00 0. -1.
         21   -1    0    0  502  504 -0.00000000000E+00 -0.00000000000E+00 -0.22741028509E+03  0.22741028509E+03  0.00000000000E+00 0. -1.
          6    2    1    2  502    0  0.92747883891E+02 -0.48125010047E+02 -0.13184210009E+03  0.24142897409E+03  0.17316877206E+03 0.  0.
         24    2    3    3    0    0  0.30617536934E+02 -0.19550236747E+02  0.40277584433E+01  0.89246826187E+02  0.81419456039E+02 0.  0.
         -6    2    1    2    0  503 -0.92747883891E+02  0.48125010047E+02  0.20984232582E+03  0.29139182182E+03  0.17308149976E+03 0.  0.
        -24    2    5    5    0    0 -0.70415888451E+01 -0.25731612275E+02  0.11790247941E+03  0.14553094623E+03  0.81034324914E+02 0.  0.
          4    1    4    4  501    0  0.53546503123E+02 -0.32549056730E+02  0.58690834898E+00  0.62665888265E+02  0.00000000000E+00 0. -1.
         -3    1    4    4    0  501 -0.22928966189E+02  0.12998819983E+02  0.34408500944E+01  0.26580937922E+02  0.00000000000E+00 0.  1.
          5    1    3    3  502    0  0.62130346958E+02 -0.28574773300E+02 -0.13586985854E+03  0.15218214790E+03  0.47000000000E+01 0. -1.
         11    1    6    6    0    0 -0.32566860982E+02  0.12926598987E+02  0.29822591926E+02  0.46011785281E+02  0.00000000000E+00 0. -1.
        -12    1    6    6    0    0  0.25525272137E+02 -0.38658211262E+02  0.88079887487E+02  0.99519160946E+02  0.00000000000E+00 0.  1.
         -5    1    5    5    0  503 -0.85706295046E+02  0.73856622321E+02  0.91939846406E+02  0.14586087559E+03  0.47000000000E+01 0.  1.
<mgrwt>
<rscale>  2 0.20223267E+03</rscale>
<asrwt>0</asrwt>
<pdfrwt beam="1">  1       21 0.46986232E-01 0.20225135E+03</pdfrwt>
<pdfrwt beam="2">  1       21 0.34986198E-01 0.20225135E+03</pdfrwt>
<totfact> 0.33967343E+04</totfact>
</mgrwt>
</event>
<event>
12    1  0.2768653E-001  0.2564178E+03  0.7546771E-02  0.1109339E+00
         21   -1    0    0  504  503  0.00000000000E+00  0.00000000000E+00  0.54414406096E+03  0.54414406096E+03  0.00000000000E+00 0. -1.
         21   -1    0    0  502  504 -0.00000000000E+00 -0.00000000000E+00 -0.27435901522E+03  0.27435901522E+03  0.00000000000E+00 0. -1.
          6    2    1    2  502    0 -0.28822029441E+02 -0.18702881187E+03 -0.17130524496E+03  0.30837572139E+03  0.17303066994E+03 0.  0.
         24    2    3    3    0    0 -0.62716019750E+02 -0.18335379650E+03 -0.10594217993E+03  0.23450604840E+03  0.78850665341E+02 0.  0.
         -6    2    1    2    0  503  0.28822029441E+02  0.18702881187E+03  0.44109029070E+03  0.51012735480E+03  0.17279695517E+03 0.  0.
        -24    2    5    5    0    0  0.19604425364E+01  0.17169689829E+03  0.24337663681E+03  0.30995395157E+03  0.85764774428E+02 0.  0.
          4    1    4    4  501    0 -0.81480211693E+02 -0.14623286786E+03 -0.89050957301E+02  0.18961315760E+03  0.00000000000E+00 0. -1.
         -3    1    4    4    0  501  0.18764191944E+02 -0.37120928639E+02 -0.16891222631E+02  0.44892890799E+02  0.00000000000E+00 0.  1.
          5    1    3    3  502    0  0.33893990309E+02 -0.36750153744E+01 -0.65363065030E+02  0.73869672986E+02  0.47000000000E+01 0. -1.
         13    1    6    6    0    0  0.14733264935E+02  0.27177130709E+02  0.10501979142E+03  0.10947521235E+03  0.00000000000E+00 0. -1.
        -14    1    6    6    0    0 -0.12772822399E+02  0.14451976758E+03  0.13835684539E+03  0.20047873923E+03  0.00000000000E+00 0.  1.
         -5    1    5    5    0  503  0.26861586904E+02  0.15331913576E+02  0.19771365389E+03  0.20017340323E+03  0.47000000000E+01 0.  1.
<mgrwt>
<rscale>  2 0.25637840E+03</rscale>
<asrwt>0</asrwt>
<pdfrwt beam="1">  1       21 0.83714471E-01 0.25641782E+03</pdfrwt>
<pdfrwt beam="2">  1       21 0.42209079E-01 0.25641782E+03</pdfrwt>
<totfact> 0.64219625E+03</totfact>
</mgrwt>
</event>
<event>
12    1  0.2768653E-001  0.2111888E+03  0.7546771E-02  0.1140991E+00
         21   -1    0    0  504  503  0.00000000000E+00  0.00000000000E+00  0.30189090416E+03  0.30189090416E+03  0.00000000000E+00 0. -1.
         21   -1    0    0  502  504 -0.00000000000E+00 -0.00000000000E+00 -0.16951709130E+03  0.16951709130E+03  0.00000000000E+00 0. -1.
          6    2    1    2  502    0 -0.13376268650E+02 -0.11521882454E+03 -0.20499855878E+02  0.21218146341E+03  0.17648350414E+03 0.  0.
         24    2    3    3    0    0 -0.75010402911E+02 -0.79147660341E+02 -0.47264179313E+01  0.13889581177E+03  0.85899911628E+02 0.  0.
         -6    2    1    2    0  503  0.13376268650E+02  0.11521882454E+03  0.15287366873E+03  0.25922653205E+03  0.17428061922E+03 0.  0.
        -24    2    5    5    0    0 -0.58656349842E+02  0.78504361345E+02  0.10125058859E+03  0.16318652821E+03  0.82308317752E+02 0.  0.
          2    1    4    4  501    0 -0.85187296633E+02 -0.51696977962E+02 -0.25669306988E+02  0.10289978795E+03  0.00000000000E+00 0. -1.
         -1    1    4    4    0  501  0.10176893722E+02 -0.27450682379E+02  0.20942889057E+02  0.35996023821E+02  0.00000000000E+00 0.  1.
          5    1    3    3  502    0  0.61634134261E+02 -0.36071164195E+02 -0.15773437947E+02  0.73285651645E+02  0.47000000000E+01 0. -1.
         11    1    6    6    0    0 -0.18597303108E+02  0.57574849220E+02  0.99572693741E+01  0.61317780121E+02  0.00000000000E+00 0. -1.
        -12    1    6    6    0    0 -0.40059046734E+02  0.20929512125E+02  0.91293319215E+02  0.10186874808E+03  0.00000000000E+00 0.  1.
         -5    1    5    5    0  503  0.72032618492E+02  0.36714463190E+02  0.51623080142E+02  0.96040003839E+02  0.47000000000E+01 0.  1.
<mgrwt>
<rscale>  2 0.21072800E+03</rscale>
<asrwt>0</asrwt>
<pdfrwt beam="1">  1       21 0.46444754E-01 0.21118885E+03</pdfrwt>
<pdfrwt beam="2">  1       21 0.26079553E-01 0.21118885E+03</pdfrwt>
<totfact> 0.61505503E+04</totfact>
</mgrwt>
</event>
<event>
12    1  0.2768653E-001  0.2257987E+03  0.7546771E-02  0.1130769E+00
         21   -1    0    0  504  503  0.00000000000E+00  0.00000000000E+00  0.26327844959E+03  0.26327844959E+03  0.00000000000E+00 0.  1.
         21   -1    0    0  502  504 -0.00000000000E+00 -0.00000000000E+00 -0.71736510442E+03  0.71736510442E+03  0.00000000000E+00 0.  1.
          6    2    1    2  502    0 -0.13043779517E+03  0.36346750100E+02 -0.64891975966E+03  0.68708218571E+03  0.18069302918E+03 0.  0.
         24    2    3    3    0    0 -0.38612772442E+02 -0.46446219755E+02 -0.32072289017E+03  0.33633756950E+03  0.81311689537E+02 0.  0.
         -6    2    1    2    0  503  0.13043779517E+03 -0.36346750100E+02  0.19483310483E+03  0.29356136829E+03  0.17286767646E+03 0.  0.
        -24    2    5    5    0    0  0.96133519852E+01  0.22202504912E+02  0.90158302410E+02  0.12325145785E+03  0.80480026139E+02 0.  0.
          4    1    4    4  501    0  0.86817711303E+01 -0.49280200771E+02 -0.21044869227E+03  0.21631588804E+03  0.00000000000E+00 0. -1.
         -3    1    4    4    0  501 -0.47294543572E+02  0.28339810161E+01 -0.11027419789E+03  0.12002168146E+03  0.00000000000E+00 0.  1.
          5    1    3    3  502    0 -0.91825022730E+02  0.82792969855E+02 -0.32819686949E+03  0.35074461621E+03  0.47000000000E+01 0. -1.
         11    1    6    6    0    0 -0.17940604841E+02  0.22373516302E+02 -0.31010617601E+00  0.28679883187E+02  0.00000000000E+00 0. -1.
        -12    1    6    6    0    0  0.27553956826E+02 -0.17101139069E+00  0.90468408586E+02  0.94571574660E+02  0.00000000000E+00 0.  1.
         -5    1    5    5    0  503  0.12082444319E+03 -0.58549255011E+02  0.10467480242E+03  0.17030991044E+03  0.47000000000E+01 0.  1.
<mgrwt>
<rscale>  2 0.22422946E+03</rscale>
<asrwt>0</asrwt>
<pdfrwt beam="1">  1       21 0.40504377E-01 0.22579875E+03</pdfrwt>
<pdfrwt beam="2">  1       21 0.11036386E+00 0.22579875E+03</pdfrwt>
<totfact> 0.37058454E+03</totfact>
</mgrwt>
</event>
<event>
12    1  0.2768653E-001  0.1923672E+03  0.7546771E-02  0.1156607E+00
         21   -1    0    0  504  503  0.00000000000E+00  0.00000000000E+00  0.54802622571E+02  0.54802622571E+02  0.00000000000E+00 0.  1.
         21   -1    0    0  502  504 -0.00000000000E+00 -0.00000000000E+00 -0.11790169272E+04  0.11790169272E+04  0.00000000000E+00 0.  1.
          6    2    1    2  502    0  0.22226696548E+02  0.80119994549E+02 -0.96800604999E+03  0.98693508463E+03  0.17347019597E+03 0.  0.
         24    2    3    3    0    0 -0.37569101284E+02  0.15657024675E+02 -0.67750399754E+03  0.68338188600E+03  0.79640163426E+02 0.  0.
         -6    2    1    2    0  503 -0.22226696548E+02 -0.80119994549E+02 -0.15620825467E+03  0.24688446517E+03  0.17215597797E+03 0.  0.
        -24    2    5    5    0    0  0.40266776144E+02  0.50110780548E-01 -0.87378258857E+02  0.12403358711E+03  0.78281254702E+02 0.  0.
          4    1    4    4  501    0 -0.55797279225E+02  0.18757085376E+02 -0.31798455999E+03  0.32338729878E+03  0.00000000000E+00 0. -1.
         -3    1    4    4    0  501  0.18228177941E+02 -0.31000607004E+01 -0.35951943755E+03  0.35999458721E+03  0.00000000000E+00 0.  1.
          5    1    3    3  502    0  0.59795797832E+02  0.64462969874E+02 -0.29050205245E+03  0.30355319863E+03  0.47000000000E+01 0. -1.
         13    1    6    6    0    0  0.47834975044E+02 -0.19382764175E+02 -0.23265185567E+02  0.56614002190E+02  0.00000000000E+00 0. -1.
        -14    1    6    6    0    0 -0.75681989000E+01  0.19432874956E+02 -0.64113073291E+02  0.67419584917E+02  0.00000000000E+00 0.  1.
         -5    1    5    5    0  503 -0.62493472692E+02 -0.80170105330E+02 -0.68829995813E+02  0.12285087807E+03  0.47000000000E+01 0.  1.
<mgrwt>
<rscale>  2 0.19207047E+03</rscale>
<asrwt>0</asrwt>
<pdfrwt beam="1">  1       21 0.84311727E-02 0.19236722E+03</pdfrwt>
<pdfrwt beam="2">  1       21 0.18138722E+00 0.19236722E+03</pdfrwt>
<totfact> 0.19503015E+04</totfact>
</mgrwt>
</event>
<event>
12    1  0.2768653E-001  0.2343173E+03  0.7546771E-02  0.1123640E+00
         21   -1    0    0  504  503  0.00000000000E+00  0.00000000000E+00  0.96116346752E+03  0.96116346752E+03  0.00000000000E+00 0.  1.
         21   -1    0    0  502  504 -0.00000000000E+00 -0.00000000000E+00 -0.75558770739E+02  0.75558770739E+02  0.00000000000E+00 0. -1.
          6    2    1    2  502    0  0.89013504255E+02 -0.13039939229E+03  0.18671863916E+03  0.29960194244E+03  0.17311865370E+03 0.  0.
         24    2    3    3    0    0 -0.17119078906E+02 -0.74924856819E+02  0.61800998281E+02  0.12648909978E+03  0.79204368200E+02 0.  0.
         -6    2    1    2    0  503 -0.89013504255E+02  0.13039939229E+03  0.69888605763E+03  0.73712029582E+03  0.17313926045E+03 0.  0.
        -24    2    5    5    0    0  0.16084158013E+02  0.62970385627E+02  0.39500695640E+03  0.40855251329E+03  0.81613055958E+02 0.  0.
          4    1    4    4  501    0  0.11781038365E+02 -0.44213517987E+02 -0.65025857386E+01  0.46215924301E+02  0.00000000000E+00 0. -1.
         -3    1    4    4    0  501 -0.28900117271E+02 -0.30711338833E+02  0.68303584020E+02  0.80273175477E+02  0.00000000000E+00 0.  1.
          5    1    3    3  502    0  0.10613258316E+03 -0.55474535475E+02  0.12491764087E+03  0.17311284267E+03  0.47000000000E+01 0. -1.
         11    1    6    6    0    0  0.37703075486E+02  0.20808061273E+01  0.10958217134E+03  0.11590558196E+03  0.00000000000E+00 0. -1.
        -12    1    6    6    0    0 -0.21618917473E+02  0.60889579500E+02  0.28542478507E+03  0.29264693133E+03  0.00000000000E+00 0.  1.
         -5    1    5    5    0  503 -0.10509766227E+03  0.67429006667E+02  0.30387910122E+03  0.32856778253E+03  0.47000000000E+01 0.  1.
<mgrwt>
<rscale>  2 0.23431352E+03</rscale>
<asrwt>0</asrwt>
<pdfrwt beam="1">  1       21 0.14787129E+00 0.23431733E+03</pdfrwt>
<pdfrwt beam="2">  1       21 0.11624427E-01 0.23431733E+03</pdfrwt>
<totfact> 0.18770053E+04</totfact>
</mgrwt>
</event>
<event>
12    1  0.2768653E-001  0.2127382E+03  0.7546771E-02  0.1139754E+00
         21   -1    0    0  504  503  0.00000000000E+00  0.00000000000E+00  0.49691176313E+02  0.49691176313E+02  0.00000000000E+00 0.  1.
         21   -1    0    0  502  504 -0.00000000000E+00 -0.00000000000E+00 -0.10373616565E+04  0.10373616565E+04  0.00000000000E+00 0. -1.
          6    2    1    2  502    0  0.21593315985E+02 -0.11991334357E+03 -0.69092706902E+03  0.72293690254E+03  0.17439056476E+03 0.  0.
         24    2    3    3    0    0 -0.10769797207E+01 -0.12027063380E+03 -0.31870568132E+03  0.34999599378E+03  0.80359810303E+02 0.  0.
         -6    2    1    2    0  503 -0.21593315985E+02  0.11991334357E+03 -0.29674341114E+03  0.36411593026E+03  0.17227384407E+03 0.  0.
        -24    2    5    5    0    0  0.80227706020E+01  0.83701235991E+02 -0.76225217845E+02  0.13864133547E+03  0.79629606998E+02 0.  0.
          2    1    4    4  501    0  0.25911339266E+02 -0.52268951763E+01 -0.54749960577E+02  0.60797007483E+02  0.00000000000E+00 0. -1.
         -1    1    4    4    0  501 -0.26988318987E+02 -0.11504373862E+03 -0.26395572075E+03  0.28919898629E+03  0.00000000000E+00 0.  1.
          5    1    3    3  502    0  0.22670295705E+02  0.35729023497E+00 -0.37222138770E+03  0.37294090876E+03  0.47000000000E+01 0. -1.
         13    1    6    6    0    0  0.35187828826E+02  0.93629791341E+01 -0.28293648140E+02  0.46112679393E+02  0.00000000000E+00 0. -1.
        -14    1    6    6    0    0 -0.27165058224E+02  0.74338256857E+02 -0.47931569704E+02  0.92528656075E+02  0.00000000000E+00 0.  1.
         -5    1    5    5    0  503 -0.29616086587E+02  0.36212107576E+02 -0.22051819330E+03  0.22547459479E+03  0.47000000000E+01 0.  1.
<mgrwt>
<rscale>  2 0.21230397E+03</rscale>
<asrwt>0</asrwt>
<pdfrwt beam="1">  1       21 0.76447962E-02 0.21273822E+03</pdfrwt>
<pdfrwt beam="2">  1       21 0.15959410E+00 0.21273822E+03</pdfrwt>
<totfact> 0.32501713E+04</totfact>
</mgrwt>
</event>
<event>
12    1  0.2768653E-001  0.1981812E+03  0.7546771E-02  0.1153960E+00
         21   -1    0    0  504  503  0.00000000000E+00  0.00000000000E+00  0.11447799166E+04  0.11447799166E+04  0.00000000000E+00 0.  1.
         21   -1    0    0  502  504 -0.00000000000E+00 -0.00000000000E+00 -0.11483906772E+03  0.11483906772E+03  0.00000000000E+00 0. -1.
          6    2    1    2  502    0 -0.69412247058E+02  0.64971018320E+02 -0.23648971708E+02  0.18755215818E+03  0.15992887454E+03 0.  0.
         24    2    3    3    0    0 -0.66926400050E+02  0.39427251574E+02  0.39328704445E+02  0.11938368197E+03  0.81682711370E+02 0.  0.
         -6    2    1    2    0  503  0.69412247058E+02 -0.64971018320E+02  0.10535898206E+04  0.10720668261E+04  0.17388638939E+03 0.  0.
        -24    2    5    5    0    0  0.67913440575E+02  0.17243464615E+02  0.74698233934E+03  0.75458973220E+03  0.80706109857E+02 0.  0.
          2    1    4    4  501    0 -0.23728801641E+02 -0.22621446110E+01  0.52734537577E+02  0.57871450466E+02  0.00000000000E+00 0. -1.
         -1    1    4    4    0  501 -0.43197598409E+02  0.41689396185E+02 -0.13405833132E+02  0.61512231503E+02  0.00000000000E+00 0.  1.
          5    1    3    3  502    0 -0.24858470081E+01  0.25543766747E+02 -0.62977676153E+02  0.68168476208E+02  0.47000000000E+01 0. -1.
         13    1    6    6    0    0  0.35099092354E+02  0.38018612056E+02  0.21291969614E+03  0.21911676830E+03  0.00000000000E+00 0. -1.
        -14    1    6    6    0    0  0.32814348221E+02 -0.20775147441E+02  0.53406264321E+03  0.53547296390E+03  0.00000000000E+00 0.  1.
         -5    1    5    5    0  503  0.14988064827E+01 -0.82214482936E+02  0.30660748123E+03  0.31747709393E+03  0.47000000000E+01 0.  1.
<mgrwt>
<rscale>  2 0.19507752E+03</rscale>
<asrwt>0</asrwt>
<pdfrwt beam="1">  1       21 0.17611998E+00 0.19818115E+03</pdfrwt>
<pdfrwt beam="2">  1       21 0.17667550E-01 0.19818115E+03</pdfrwt>
<totfact> 0.55945170E+03</totfact>
</mgrwt>
</event>
<event>
12    1  0.2768653E-001  0.1906705E+03  0.7546771E-02  0.1158296E+00
         21   -1    0    0  504  503  0.00000000000E+00  0.00000000000E+00  0.46843087168E+02  0.46843087168E+02  0.00000000000E+00 0. -1.
         21   -1    0    0  502  504 -0.00000000000E+00 -0.00000000000E+00 -0.11143646204E+04  0.11143646204E+04  0.00000000000E+00 0.  1.
          6    2    1    2  502    0  0.72643997367E+02  0.18357127381E+02 -0.85546191598E+03  0.87603315354E+03  0.17321911537E+03 0.  0.
         24    2    3    3    0    0  0.76399573560E+02  0.34941778296E+02 -0.31699565073E+03  0.33727795513E+03  0.78818485938E+02 0.  0.
         -6    2    1    2    0  503 -0.72643997367E+02 -0.18357127381E+02 -0.21205961726E+03  0.28517455404E+03  0.17533143049E+03 0.  0.
        -24    2    5    5    0    0 -0.11596949722E+03  0.76300882151E+01 -0.15691559445E+03  0.21023866435E+03  0.77914373999E+02 0.  0.
          4    1    4    4  501    0  0.89605129908E+01  0.28893951836E+02 -0.30760979417E+02  0.43143818798E+02  0.00000000000E+00 0. -1.
         -3    1    4    4    0  501  0.67439060569E+02  0.60478264597E+01 -0.28623467131E+03  0.29413413633E+03  0.00000000000E+00 0.  1.
          5    1    3    3  502    0 -0.37555761931E+01 -0.16584650915E+02 -0.53846626525E+03  0.53875519840E+03  0.47000000000E+01 0. -1.
         13    1    6    6    0    0 -0.36446394581E+01  0.13242946476E+02  0.36423102137E+01  0.14210047567E+02  0.00000000000E+00 0. -1.
        -14    1    6    6    0    0 -0.11232485776E+03 -0.56128582612E+01 -0.16055790467E+03  0.19602861679E+03  0.00000000000E+00 0.  1.
         -5    1    5    5    0  503  0.43325499849E+02 -0.25987215596E+02 -0.55144022810E+02  0.74935889687E+02  0.47000000000E+01 0.  1.
<mgrwt>
<rscale>  2 0.19018351E+03</rscale>
<asrwt>0</asrwt>
<pdfrwt beam="1">  1       21 0.72066292E-02 0.19067051E+03</pdfrwt>
<pdfrwt beam="2">  1       21 0.17144070E+00 0.19067051E+03</pdfrwt>
<totfact> 0.30028129E+04</totfact>
</mgrwt>
</event>
<event>
12    1  0.2768653E-001  0.1766264E+03  0.7546771E-02  0.1171473E+00
         21   -1    0    0  504  503  0.00000000000E+00  0.00000000000E+00  0.15375700196E+03  0.15375700196E+03  0.00000000000E+00 0.  1.
         21   -1    0    0  502  504 -0.00000000000E+00 -0.00000000000E+00 -0.24653674043E+03  0.24653674043E+03  0.00000000000E+00 0.  1.
          6    2    1    2  502    0 -0.25277925171E+02  0.22619382556E+02 -0.13235525507E+03  0.22071428969E+03  0.17333861128E+03 0.  0.
         24    2    3    3    0    0  0.39245787495E+02 -0.35966966420E+02 -0.58066392482E+02  0.10609930425E+03  0.71073918683E+02 0.  0.
         -6    2    1    2    0  503  0.25277925171E+02 -0.22619382556E+02  0.39575516601E+02  0.17957945271E+03  0.17184862045E+03 0.  0.
        -24    2    5    5    0    0  0.20496423068E+02 -0.26975356422E+02  0.88941394101E+02  0.12957028223E+03  0.87921062543E+02 0.  0.
          2    1    4    4  501    0  0.35278051808E+02 -0.30780869580E+02  0.84566650464E+00  0.46826467124E+02  0.00000000000E+00 0. -1.
         -1    1    4    4    0  501  0.39677356866E+01 -0.51860968393E+01 -0.58912058987E+02  0.59272837126E+02  0.00000000000E+00 0.  1.
          5    1    3    3  502    0 -0.64523712666E+02  0.58586348975E+02 -0.74288862588E+02  0.11461498544E+03  0.47000000000E+01 0. -1.
         13    1    6    6    0    0 -0.20093122444E+02  0.95431830062E+01 -0.31936106011E+01  0.22472317640E+02  0.00000000000E+00 0. -1.
        -14    1    6    6    0    0  0.40589545512E+02 -0.36518539429E+02  0.92135004702E+02  0.10709796459E+03  0.00000000000E+00 0.  1.
         -5    1    5    5    0  503  0.47815021031E+01  0.43559738668E+01 -0.49365877500E+02  0.50009170480E+02  0.47000000000E+01 0.  1.
<mgrwt>
<rscale>  2 0.17625975E+03</rscale>
<asrwt>0</asrwt>
<pdfrwt beam="1">  1       21 0.23654924E-01 0.17662640E+03</pdfrwt>
<pdfrwt beam="2">  1       21 0.37928729E-01 0.17662640E+03</pdfrwt>
<totfact> 0.11346932E+05</totfact>
</mgrwt>
</event>
<event>
12    1  0.2768653E-001  0.1757629E+03  0.7546771E-02  0.1172284E+00
         21   -1    0    0  504  503  0.00000000000E+00  0.00000000000E+00  0.37973836506E+03  0.37973836506E+03  0.00000000000E+00 0.  1.
         21   -1    0    0  502  504 -0.00000000000E+00 -0.00000000000E+00 -0.94872126500E+02  0.94872126500E+02  0.00000000000E+00 0.  1.
          6    2    1    2  502    0  0.10203533233E+02 -0.21577310864E+02  0.51374990293E+02  0.18311738516E+03  0.17413470271E+03 0.  0.
         24    2    3    3    0    0  0.63780099011E+02  0.10309283773E+02  0.21299344611E+01  0.10352863695E+03  0.80866925788E+02 0.  0.
         -6    2    1    2    0  503 -0.10203533233E+02  0.21577310864E+02  0.23349124827E+03  0.29149310640E+03  0.17285941000E+03 0.  0.
        -24    2    5    5    0    0  0.12304424840E+02  0.14987724066E+02  0.25000248222E+03  0.26242866631E+03  0.77404993665E+02 0.  0.
          4    1    4    4  501    0  0.50232238326E+02  0.43981869145E+02 -0.32053160669E+01  0.66842775465E+02  0.00000000000E+00 0. -1.
         -3    1    4    4    0  501  0.13547860685E+02 -0.33672585372E+02  0.53352505280E+01  0.36685861486E+02  0.00000000000E+00 0.  1.
          5    1    3    3  502    0 -0.53576565778E+02 -0.31886594637E+02  0.49245055831E+02  0.79588748212E+02  0.47000000000E+01 0. -1.
         13    1    6    6    0    0  0.76711955844E+01 -0.31686246845E+02  0.91645847683E+02  0.97271922353E+02  0.00000000000E+00 0. -1.
        -14    1    6    6    0    0  0.46332292557E+01  0.46673970911E+02  0.15835663453E+03  0.16515674396E+03  0.00000000000E+00 0.  1.
         -5    1    5    5    0  503 -0.22507958073E+02  0.65895867979E+01 -0.16511233951E+02  0.29064440083E+02  0.47000000000E+01 0.  1.
<mgrwt>
<rscale>  2 0.17544617E+03</rscale>
<asrwt>0</asrwt>
<pdfrwt beam="1">  1       21 0.58421286E-01 0.17576287E+03</pdfrwt>
<pdfrwt beam="2">  1       21 0.14595712E-01 0.17576287E+03</pdfrwt>
<totfact> 0.11381373E+05</totfact>
</mgrwt>
</event>
<event>
12    1  0.2768653E-001  0.2046559E+03  0.7546771E-02  0.1146064E+00
         21   -1    0    0  504  503  0.00000000000E+00  0.00000000000E+00  0.35372896873E+03  0.35372896873E+03  0.00000000000E+00 0.  1.
         21   -1    0    0  502  504 -0.00000000000E+00 -0.00000000000E+00 -0.15161276838E+03  0.15161276838E+03  0.00000000000E+00 0.  1.
          6    2    1    2  502    0 -0.70919580802E+02  0.80072055366E+02 -0.17979323968E+02  0.20544414827E+03  0.17447899867E+03 0.  0.
         24    2    3    3    0    0 -0.87689144775E+02  0.10011777107E+03 -0.50154143686E+02  0.16372654985E+03  0.81104813677E+02 0.  0.
         -6    2    1    2    0  503  0.70919580802E+02 -0.80072055366E+02  0.22009552432E+03  0.29989758883E+03  0.17336494159E+03 0.  0.
        -24    2    5    5    0    0  0.93076818744E+02 -0.10339887059E+02  0.12545948022E+03  0.18018297263E+03  0.89194254281E+02 0.  0.
          2    1    4    4  501    0 -0.15116118592E+02  0.22886355111E+02 -0.50815996082E+02  0.57745543112E+02  0.00000000000E+00 0. -1.
         -1    1    4    4    0  501 -0.72573026184E+02  0.77231415964E+02  0.66185239608E+00  0.10598100674E+03  0.00000000000E+00 0.  1.
          5    1    3    3  502    0  0.16769563974E+02 -0.20045715709E+02  0.32174819718E+02  0.41717598421E+02  0.47000000000E+01 0. -1.
         11    1    6    6    0    0  0.26414400346E+02  0.36162768857E+02  0.26172275212E+02  0.51869590193E+02  0.00000000000E+00 0. -1.
        -12    1    6    6    0    0  0.66662418398E+02 -0.46502655916E+02  0.99287205005E+02  0.12831338243E+03  0.00000000000E+00 0.  1.
         -5    1    5    5    0  503 -0.22157237943E+02 -0.69732168307E+02  0.94636044101E+02  0.11971461620E+03  0.47000000000E+01 0.  1.
<mgrwt>
<rscale>  2 0.20441826E+03</rscale>
<asrwt>0</asrwt>
<pdfrwt beam="1">  1       21 0.54419841E-01 0.20465591E+03</pdfrwt>
<pdfrwt beam="2">  1       21 0.23325041E-01 0.20465591E+03</pdfrwt>
<totfact> 0.54814928E+04</totfact>
</mgrwt>
</event>
<event>
12    1  0.2768653E-001  0.1991753E+03  0.7546771E-02  0.1151469E+00
         21   -1    0    0  504  503  0.00000000000E+00  0.00000000000E+00  0.61886252745E+03  0.61886252745E+03  0.00000000000E+00 0.  1.
         21   -1    0    0  502  504 -0.00000000000E+00 -0.00000000000E+00 -0.10995511365E+03  0.10995511365E+03  0.00000000000E+00 0.  1.
          6    2    1    2  502    0  0.52744900704E+01 -0.84001950316E+02  0.13464736003E+02  0.19483799870E+03  0.17520387758E+03 0.  0.
         24    2    3    3    0    0  0.30391596557E+02 -0.87412327959E+02  0.64593618882E+02  0.13757760770E+03  0.78680990833E+02 0.  0.
         -6    2    1    2    0  503 -0.52744900704E+01  0.84001950316E+02  0.49544267780E+03  0.53397964240E+03  0.18051776535E+03 0.  0.
        -24    2    5    5    0    0  0.30481433246E+02  0.70669979699E+02  0.47979835193E+03  0.49246985530E+03  0.79979597806E+02 0.  0.
          4    1    4    4  501    0 -0.15590649306E+02 -0.88810737344E+01  0.39179567291E+02  0.43092694387E+02  0.00000000000E+00 0. -1.
         -3    1    4    4    0  501  0.45982245862E+02 -0.78531254224E+02  0.25414051591E+02  0.94484913308E+02  0.00000000000E+00 0.  1.
          5    1    3    3  502    0 -0.25117106486E+02  0.34103776422E+01 -0.51128882879E+02  0.57260391008E+02  0.47000000000E+01 0. -1.
         11    1    6    6    0    0  0.45244282071E+02  0.16023970832E+02  0.30447968016E+03  0.30823966055E+03  0.00000000000E+00 0. -1.
        -12    1    6    6    0    0 -0.14762848824E+02  0.54646008867E+02  0.17531867177E+03  0.18423019476E+03  0.00000000000E+00 0.  1.
         -5    1    5    5    0  503 -0.35755923317E+02  0.13331970618E+02  0.15644325871E+02  0.41509787096E+02  0.47000000000E+01 0.  1.
<mgrwt>
<rscale>  2 0.19796353E+03</rscale>
<asrwt>0</asrwt>
<pdfrwt beam="1">  1       21 0.95209618E-01 0.19917533E+03</pdfrwt>
<pdfrwt beam="2">  1       21 0.16916172E-01 0.19917533E+03</pdfrwt>
<totfact> 0.28904474E+04</totfact>
</mgrwt>
</event>
<event>
12    1  0.2768653E-001  0.1857997E+03  0.7546771E-02  0.1162696E+00
         21   -1    0    0  504  503  0.00000000000E+00  0.00000000000E+00  0.14002236651E+04  0.14002236651E+04  0.00000000000E+00 0. -1.
         21   -1    0    0  502  504 -0.00000000000E+00 -0.00000000000E+00 -0.24611353306E+02  0.24611353306E+02  0.00000000000E+00 0. -1.
          6    2    1    2  502    0 -0.62866081402E+02  0.10751542085E+02  0.62401771240E+03  0.65061542009E+03  0.17272689316E+03 0.  0.
         24    2    3    3    0    0 -0.57141073710E+02 -0.58670955926E+02  0.34150900721E+03  0.35960765825E+03  0.77342630490E+02 0.  0.
         -6    2    1    2    0  503  0.62866081402E+02 -0.10751542085E+02  0.75159459940E+03  0.77421959832E+03  0.17451018518E+03 0.  0.
        -24    2    5    5    0    0  0.30154436810E+02 -0.74322022038E+02  0.37601595885E+03  0.39186810709E+03  0.75759877393E+02 0.  0.
          2    1    4    4  501    0 -0.40375166865E+02 -0.12843871410E+02  0.26830783745E+03  0.27163249947E+03  0.00000000000E+00 0. -1.
         -1    1    4    4    0  501 -0.16765906845E+02 -0.45827084517E+02  0.73201169766E+02  0.87975158782E+02  0.00000000000E+00 0.  1.
          5    1    3    3  502    0 -0.57250076926E+01  0.69422498012E+02  0.28250870519E+03  0.29100776184E+03  0.47000000000E+01 0. -1.
         11    1    6    6    0    0  0.16103460793E+02 -0.91621297994E+01  0.12638948652E+02  0.22427864254E+02  0.00000000000E+00 0. -1.
        -12    1    6    6    0    0  0.14050976017E+02 -0.65159892239E+02  0.36337701020E+03  0.36944024284E+03  0.00000000000E+00 0.  1.
         -5    1    5    5    0  503  0.32711644592E+02  0.63570479953E+02  0.37557864054E+03  0.38235149123E+03  0.47000000000E+01 0.  1.
<mgrwt>
<rscale>  2 0.18537984E+03</rscale>
<asrwt>0</asrwt>
<pdfrwt beam="1">  1       21 0.21541896E+00 0.18579974E+03</pdfrwt>
<pdfrwt beam="2">  1       21 0.37863631E-02 0.18579974E+03</pdfrwt>
<totfact> 0.46339149E+04</totfact>
</mgrwt>
</event>
<event>
12    1  0.2768653E-001  0.2645534E+03  0.7546771E-02  0.1104816E+00
         21   -1    0    0  504  503  0.00000000000E+00  0.00000000000E+00  0.60354405407E+03  0.60354405407E+03  0.00000000000E+00 0. -1.
         21   -1    0    0  502  504 -0.00000000000E+00 -0.00000000000E+00 -0.19286650650E+03  0.19286650650E+03  0.00000000000E+00 0.  1.
          6    2    1    2  502    0  0.18164505954E+03 -0.77674076238E+02 -0.48528057273E+02  0.26644989078E+03  0.17208248655E+03 0.  0.
         24    2    3    3    0    0  0.18299751978E+03 -0.30289606132E+02 -0.70099081047E+02  0.21415728879E+03  0.80894441663E+02 0.  0.
         -6    2    1    2    0  503 -0.18164505954E+03  0.77674076238E+02  0.45920560484E+03  0.52996066979E+03  0.17595548938E+03 0.  0.
        -24    2    5    5    0    0 -0.11567862149E+03  0.11118708395E+03  0.38534348503E+03  0.42530697719E+03  0.81561708418E+02 0.  0.
          2    1    4    4  501    0  0.12526306404E+03  0.17499220337E+02 -0.53867869683E+02  0.13747292574E+03  0.00000000000E+00 0. -1.
         -1    1    4    4    0  501  0.57734455740E+02 -0.47788826469E+02 -0.16231211364E+02  0.76684363056E+02  0.00000000000E+00 0.  1.
          5    1    3    3  502    0 -0.13524602450E+01 -0.47384470105E+02  0.21571023774E+02  0.52292601987E+02  0.47000000000E+01 0. -1.
         13    1    6    6    0    0 -0.82379317424E+00  0.42938370222E+02  0.13323818059E+03  0.13998855324E+03  0.00000000000E+00 0. -1.
        -14    1    6    6    0    0 -0.11485482832E+03  0.68248713729E+02  0.25210530445E+03  0.28531842395E+03  0.00000000000E+00 0.  1.
         -5    1    5    5    0  503 -0.65966438044E+02 -0.33513007714E+02  0.73862119802E+02  0.10465369260E+03  0.47000000000E+01 0.  1.
<mgrwt>
<rscale>  2 0.26391111E+03</rscale>
<asrwt>0</asrwt>
<pdfrwt beam="1">  1       21 0.92852930E-01 0.26455344E+03</pdfrwt>
<pdfrwt beam="2">  1       21 0.29671771E-01 0.26455344E+03</pdfrwt>
<totfact> 0.10179909E+04</totfact>
</mgrwt>
</event>
<event>
12    1  0.2768653E-001  0.2488952E+03  0.7546771E-02  0.1114023E+00
         21   -1    0    0  504  503  0.00000000000E+00  0.00000000000E+00  0.14983445542E+03  0.14983445542E+03  0.00000000000E+00 0. -1.
         21   -1    0    0  502  504 -0.00000000000E+00 -0.00000000000E+00 -0.41430159698E+03  0.41430159698E+03  0.00000000000E+00 0. -1.
          6    2    1    2  502    0 -0.16199476204E+03 -0.76421191812E+02 -0.14642337873E+03  0.28877088545E+03  0.17281874018E+03 0.  0.
         24    2    3    3    0    0 -0.16973820075E+02 -0.45979110818E+01 -0.26520526759E+02  0.87305153440E+02  0.81299447251E+02 0.  0.
         -6    2    1    2    0  503  0.16199476204E+03  0.76421191812E+02 -0.11804376283E+03  0.27536516694E+03  0.17265324710E+03 0.  0.
        -24    2    5    5    0    0  0.13837345562E+03  0.11838846046E+03 -0.10782687264E+03  0.22591122271E+03  0.79032938029E+02 0.  0.
          4    1    4    4  501    0 -0.24375009815E+02 -0.53269262237E+01 -0.53653684678E+02  0.59171235630E+02  0.00000000000E+00 0. -1.
         -3    1    4    4    0  501  0.74011897397E+01  0.72901514185E+00  0.27133157920E+02  0.28133917810E+02  0.00000000000E+00 0.  1.
          5    1    3    3  502    0 -0.14502094197E+03 -0.71823280730E+02 -0.11990285197E+03  0.20146573201E+03  0.47000000000E+01 0. -1.
         11    1    6    6    0    0  0.13792630808E+03  0.11556442786E+03 -0.78287642192E+02  0.19623393786E+03  0.00000000000E+00 0. -1.
        -12    1    6    6    0    0  0.44714754455E+00  0.28240325968E+01 -0.29539230444E+02  0.29677284853E+02  0.00000000000E+00 0.  1.
         -5    1    5    5    0  503  0.23621306420E+02 -0.41967268648E+02 -0.10216890199E+02  0.49453944232E+02  0.47000000000E+01 0.  1.
<mgrwt>
<rscale>  2 0.24886647E+03</rscale>
<asrwt>0</asrwt>
<pdfrwt beam="1">  1       21 0.23051455E-01 0.24889520E+03</pdfrwt>
<pdfrwt beam="2">  1       21 0.63738707E-01 0.24889520E+03</pdfrwt>
<totfact> 0.39133280E+04</totfact>
</mgrwt>
</event>
<event>
12    1  0.2768653E-001  0.2487482E+03  0.7546771E-02  0.1114139E+00
         21   -1    0    0  504  503  0.00000000000E+00  0.00000000000E+00  0.19259982340E+03  0.19259982340E+03  0.00000000000E+00 0. -1.
         21   -1    0    0  502  504 -0.00000000000E+00 -0.00000000000E+00 -0.32666760032E+03  0.32666760032E+03  0.00000000000E+00 0.  1.
          6    2    1    2  502    0  0.15079043073E+03  0.95317729078E+02 -0.10144776912E+03  0.26863979096E+03  0.17335646499E+03 0.  0.
         24    2    3    3    0    0  0.52584958744E+02  0.82386490453E+02 -0.11074723435E+03  0.16904008357E+03  0.82200293427E+02 0.  0.
         -6    2    1    2    0  503 -0.15079043073E+03 -0.95317729078E+02 -0.32620007808E+02  0.25062763275E+03  0.17299399387E+03 0.  0.
        -24    2    5    5    0    0 -0.11404243600E+02 -0.72522198158E+01  0.51663101607E+01  0.81411974762E+02  0.80115962265E+02 0.  0.
          4    1    4    4  501    0 -0.11556957147E+02  0.24965715410E+02  0.15340245089E+01  0.27553646503E+02  0.00000000000E+00 0. -1.
         -3    1    4    4    0  501  0.64141915891E+02  0.57420775043E+02 -0.11228125886E+03  0.14148643706E+03  0.00000000000E+00 0.  1.
          5    1    3    3  502    0  0.98205471984E+02  0.12931238625E+02  0.92994652374E+01  0.99599707397E+02  0.47000000000E+01 0. -1.
         13    1    6    6    0    0  0.27033207688E+02 -0.43314082519E+01  0.25860149191E+02  0.37660360215E+02  0.00000000000E+00 0. -1.
        -14    1    6    6    0    0 -0.38437451288E+02 -0.29208115639E+01 -0.20693839030E+02  0.43751614547E+02  0.00000000000E+00 0.  1.
         -5    1    5    5    0  503 -0.13938618713E+03 -0.88065509262E+02 -0.37786317968E+02  0.16921565799E+03  0.47000000000E+01 0.  1.
<mgrwt>
<rscale>  2 0.24868510E+03</rscale>
<asrwt>0</asrwt>
<pdfrwt beam="1">  1       21 0.29630742E-01 0.24874824E+03</pdfrwt>
<pdfrwt beam="2">  1       21 0.50256554E-01 0.24874824E+03</pdfrwt>
<totfact> 0.40083064E+04</totfact>
</mgrwt>
</event>
<event>
12    1  0.2768653E-001  0.2247011E+03  0.7546771E-02  0.1130462E+00
         21   -1    0    0  504  503  0.00000000000E+00  0.00000000000E+00  0.31529726281E+02  0.31529726281E+02  0.00000000000E+00 0. -1.
         21   -1    0    0  502  504 -0.00000000000E+00 -0.00000000000E+00 -0.16031916042E+04  0.16031916042E+04  0.00000000000E+00 0. -1.
          6    2    1    2  502    0 -0.19652819456E+02 -0.14216425682E+03 -0.74941844379E+03  0.78238006966E+03  0.17289783194E+03 0.  0.
         24    2    3    3    0    0 -0.22515360596E+02 -0.16301567637E+01 -0.29224486241E+03  0.30406239183E+03  0.80853445481E+02 0.  0.
         -6    2    1    2    0  503  0.19652819456E+02  0.14216425682E+03 -0.82224343412E+03  0.85234126080E+03  0.17263965560E+03 0.  0.
        -24    2    5    5    0    0  0.18163864048E+02  0.15979996776E+03 -0.54242850389E+03  0.57192777955E+03  0.83706317187E+02 0.  0.
          4    1    4    4  501    0 -0.16217094302E+01  0.15413797606E+02 -0.26594566304E+03  0.26639690462E+03  0.00000000000E+00 0. -1.
         -3    1    4    4    0  501 -0.20893651166E+02 -0.17043954370E+02 -0.26299199367E+02  0.37665487212E+02  0.00000000000E+00 0.  1.
          5    1    3    3  502    0  0.28625411398E+01 -0.14053410006E+03 -0.45717358137E+03  0.47831767783E+03  0.47000000000E+01 0. -1.
         11    1    6    6    0    0 -0.95225632755E+01  0.11829975350E+03 -0.46431191564E+03  0.47924009212E+03  0.00000000000E+00 0. -1.
        -12    1    6    6    0    0  0.27686427324E+02  0.41500214260E+02 -0.78116588246E+02  0.92687687428E+02  0.00000000000E+00 0.  1.
         -5    1    5    5    0  503  0.14889554083E+01 -0.17635710942E+02 -0.27981493023E+03  0.28041348125E+03  0.47000000000E+01 0.  1.
<mgrwt>
<rscale>  2 0.22465140E+03</rscale>
<asrwt>0</asrwt>
<pdfrwt beam="1">  1       21 0.48507267E-02 0.22470107E+03</pdfrwt>
<pdfrwt beam="2">  1       21 0.24664489E+00 0.22470107E+03</pdfrwt>
<totfact> 0.19190304E+04</totfact>
</mgrwt>
</event>
<event>
12    1  0.2768653E-001  0.2617982E+03  0.7546771E-02  0.1107515E+00
         21   -1    0    0  504  503  0.00000000000E+00  0.00000000000E+00  0.16012608507E+03  0.16012608507E+03  0.00000000000E+00 0. -1.
         21   -1    0    0  502  504 -0.00000000000E+00 -0.00000000000E+00 -0.48900368142E+03  0.48900368142E+03  0.00000000000E+00 0. -1.
          6    2    1    2  502    0 -0.19223493629E+03  0.38875833865E+02 -0.29529991968E+03  0.39463948895E+03  0.17341477008E+03 0.  0.
         24    2    3    3    0    0 -0.18649424459E+03  0.41086944256E+02 -0.31307128449E+03  0.37525506330E+03  0.79589528851E+02 0.  0.
         -6    2    1    2    0  503  0.19223493629E+03 -0.38875833865E+02 -0.33577676676E+02  0.25449027754E+03  0.15865761817E+03 0.  0.
        -24    2    5    5    0    0  0.51657994032E+02 -0.74032172868E+01  0.27343046920E+02  0.98010800123E+02  0.78326998871E+02 0.  0.
          4    1    4    4  501    0 -0.11956141790E+03  0.16935756891E+02 -0.12330183957E+03  0.17258359178E+03  0.00000000000E+00 0. -1.
         -3    1    4    4    0  501 -0.66932826695E+02  0.24151187365E+02 -0.18976944492E+03  0.20267147152E+03  0.00000000000E+00 0.  1.
          5    1    3    3  502    0 -0.57406917024E+01 -0.22111103906E+01  0.17771364813E+02  0.19384425648E+02  0.47000000000E+01 0. -1.
         13    1    6    6    0    0  0.45818189405E+02  0.27649122361E+02  0.31716759451E+02  0.62207180275E+02  0.00000000000E+00 0. -1.
        -14    1    6    6    0    0  0.58398046271E+01 -0.35052339648E+02 -0.43737125306E+01  0.35803619848E+02  0.00000000000E+00 0.  1.
         -5    1    5    5    0  503  0.14057694226E+03 -0.31472616579E+02 -0.60920723597E+02  0.15647947742E+03  0.47000000000E+01 0.  1.
<mgrwt>
<rscale>  2 0.25938173E+03</rscale>
<asrwt>0</asrwt>
<pdfrwt beam="1">  1       21 0.24634782E-01 0.26179817E+03</pdfrwt>
<pdfrwt beam="2">  1       21 0.75231335E-01 0.26179817E+03</pdfrwt>
<totfact> 0.23730621E+04</totfact>
</mgrwt>
</event>
<event>
12    1  0.2768653E-001  0.1821313E+03  0.7546771E-02  0.1167463E+00
         21   -1    0    0  504  503  0.00000000000E+00  0.00000000000E+00  0.44437077324E+03  0.44437077324E+03  0.00000000000E+00 0. -1.
         21   -1    0    0  502  504 -0.00000000000E+00 -0.00000000000E+00 -0.36962445206E+03  0.36962445206E+03  0.00000000000E+00 0. -1.
          6    2    1    2  502    0  0.65741312728E+01 -0.29417339725E+01 -0.32809022916E+03  0.37189897096E+03  0.17496792029E+03 0.  0.
         24    2    3    3    0    0 -0.46074703312E+02  0.33408613334E+02 -0.26219053652E+03  0.27993100359E+03  0.79865359195E+02 0.  0.
         -6    2    1    2    0  503 -0.65741312728E+01  0.29417339725E+01  0.40283655033E+03  0.44209625434E+03  0.18198884257E+03 0.  0.
        -24    2    5    5    0    0  0.12877619209E+02  0.71646041385E+02  0.21582899928E+03  0.24186497156E+03  0.81348135903E+02 0.  0.
          4    1    4    4  501    0 -0.40731754222E+02 -0.16961630138E+02 -0.15854846991E+03  0.16457335753E+03  0.00000000000E+00 0. -1.
         -3    1    4    4    0  501 -0.53429490903E+01  0.50370243471E+02 -0.10364206661E+03  0.11535764606E+03  0.00000000000E+00 0.  1.
          5    1    3    3  502    0  0.52648834585E+02 -0.36350347306E+02 -0.65899692636E+02  0.91967967368E+02  0.47000000000E+01 0. -1.
         13    1    6    6    0    0  0.30487727426E+02  0.20718751964E+02  0.27529855827E+02  0.46007186052E+02  0.00000000000E+00 0. -1.
        -14    1    6    6    0    0 -0.17610108217E+02  0.50927289421E+02  0.18829914345E+03  0.19585778550E+03  0.00000000000E+00 0.  1.
         -5    1    5    5    0  503 -0.19451750482E+02 -0.68704307413E+02  0.18700755106E+03  0.20023128279E+03  0.47000000000E+01 0.  1.
<mgrwt>
<rscale>  2 0.18035158E+03</rscale>
<asrwt>0</asrwt>
<pdfrwt beam="1">  1       21 0.68364735E-01 0.18213130E+03</pdfrwt>
<pdfrwt beam="2">  1       21 0.56865300E-01 0.18213130E+03</pdfrwt>
<totfact> 0.57184355E+03</totfact>
</mgrwt>
</event>
<event>
12    1  0.2768653E-001  0.2205620E+03  0.7546771E-02  0.1133618E+00
         21   -1    0    0  504  503  0.00000000000E+00  0.00000000000E+00  0.75425380343E+02  0.75425380343E+02  0.00000000000E+00 0.  1.
         21   -1    0    0  502  504 -0.00000000000E+00 -0.00000000000E+00 -0.13132766053E+04  0.13132766053E+04  0.00000000000E+00 0. -1.
          6    2    1    2  502    0 -0.10846140030E+02  0.13543503303E+03 -0.11156993068E+04  0.11372917513E+04  0.17374492058E+03 0.  0.
         24    2    3    3    0    0  0.28163060296E+02  0.13098334373E+02 -0.58300607795E+03  0.58932081080E+03  0.80238437149E+02 0.  0.
         -6    2    1    2    0  503  0.10846140030E+02 -0.13543503303E+03 -0.12215191817E+03  0.25141023437E+03  0.17270126783E+03 0.  0.
        -24    2    5    5    0    0 -0.95464275259E+00 -0.10409676290E+03 -0.69803028729E+01  0.13137716968E+03  0.79838516369E+02 0.  0.
          4    1    4    4  501    0  0.30958215120E+02 -0.28300463771E+02 -0.36491387997E+03  0.36731657617E+03  0.00000000000E+00 0. -1.
         -3    1    4    4    0  501 -0.27951548243E+01  0.41398798144E+02 -0.21809219797E+03  0.22200423463E+03  0.00000000000E+00 0.  1.
          5    1    3    3  502    0 -0.39009200326E+02  0.12233669865E+03 -0.53269322888E+03  0.54797094051E+03  0.47000000000E+01 0. -1.
         11    1    6    6    0    0 -0.22748913302E+02 -0.11021960628E+02 -0.23327318659E+02  0.34397099708E+02  0.00000000000E+00 0. -1.
        -12    1    6    6    0    0  0.21794270549E+02 -0.93074802270E+02  0.16347015786E+02  0.96980069971E+02  0.00000000000E+00 0.  1.
         -5    1    5    5    0  503  0.11800782783E+02 -0.31338270127E+02 -0.11517161530E+03  0.12003306469E+03  0.47000000000E+01 0.  1.
<mgrwt>
<rscale>  2 0.22035639E+03</rscale>
<asrwt>0</asrwt>
<pdfrwt beam="1">  1       21 0.11603907E-01 0.22056197E+03</pdfrwt>
<pdfrwt beam="2">  1       21 0.20204252E+00 0.22056197E+03</pdfrwt>
<totfact> 0.79303740E+03</totfact>
</mgrwt>
</event>
<event>
12    1  0.2768653E-001  0.2894985E+03  0.7546771E-02  0.1090901E+00
         21   -1    0    0  504  503  0.00000000000E+00  0.00000000000E+00  0.24305498897E+03  0.24305498897E+03  0.00000000000E+00 0. -1.
         21   -1    0    0  502  504 -0.00000000000E+00 -0.00000000000E+00 -0.39821249372E+03  0.39821249372E+03  0.00000000000E+00 0. -1.
          6    2    1    2  502    0  0.13179752244E+02  0.22834526524E+03 -0.19809624235E+03  0.35078697799E+03  0.17746581830E+03 0.  0.
         24    2    3    3    0    0  0.95888258344E+01  0.16704378614E+03 -0.53184127771E+02  0.19333102528E+03  0.80949131060E+02 0.  0.
         -6    2    1    2    0  503 -0.13179752244E+02 -0.22834526524E+03  0.42938737595E+02  0.29048050470E+03  0.17383878278E+03 0.  0.
        -24    2    5    5    0    0  0.20093722430E+01 -0.17529338554E+03 -0.32606416603E+02  0.19680888805E+03  0.83299168194E+02 0.  0.
          4    1    4    4  501    0 -0.20511946064E+02  0.91181527125E+02 -0.60586637054E+02  0.11138021103E+03  0.00000000000E+00 0. -1.
         -3    1    4    4    0  501  0.30100771899E+02  0.75862259017E+02  0.74025092828E+01  0.81950814247E+02  0.00000000000E+00 0.  1.
          5    1    3    3  502    0  0.35909264101E+01  0.61301479098E+02 -0.14491211457E+03  0.15745595271E+03  0.47000000000E+01 0. -1.
         11    1    6    6    0    0  0.49732406632E+01 -0.85958034758E+02  0.25979243757E+02  0.89935743553E+02  0.00000000000E+00 0. -1.
        -12    1    6    6    0    0 -0.29638684202E+01 -0.89335350781E+02 -0.58585660361E+02  0.10687314450E+03  0.00000000000E+00 0.  1.
         -5    1    5    5    0  503 -0.15189124488E+02 -0.53051879702E+02  0.75545154198E+02  0.93671616648E+02  0.47000000000E+01 0.  1.
<mgrwt>
<rscale>  2 0.28894463E+03</rscale>
<asrwt>0</asrwt>
<pdfrwt beam="1">  1       21 0.37393076E-01 0.28949850E+03</pdfrwt>
<pdfrwt beam="2">  1       21 0.61263459E-01 0.28949850E+03</pdfrwt>
<totfact> 0.16242197E+04</totfact>
</mgrwt>
</event>
<event>
12    1  0.2768653E-001  0.1997982E+03  0.7546771E-02  0.1150315E+00
         21   -1    0    0  504  503  0.00000000000E+00  0.00000000000E+00  0.33604396106E+03  0.33604396106E+03  0.00000000000E+00 0.  1.
         21   -1    0    0  502  504 -0.00000000000E+00 -0.00000000000E+00 -0.13144338352E+03  0.13144338352E+03  0.00000000000E+00 0.  1.
          6    2    1    2  502    0  0.95130425002E+02 -0.17516761179E+02  0.27047061315E+02  0.20162059193E+03  0.17482186614E+03 0.  0.
         24    2    3    3    0    0  0.58791560446E+02 -0.71781493958E+02  0.57995299719E+02  0.12919782092E+03  0.68699284465E+02 0.  0.
         -6    2    1    2    0  503 -0.95130425002E+02  0.17516761179E+02  0.17755351622E+03  0.26586675265E+03  0.17263616179E+03 0.  0.
        -24    2    5    5    0    0  0.88675026786E+00  0.52792660997E+02  0.96711414316E+02  0.13540134538E+03  0.78692917657E+02 0.  0.
          4    1    4    4  501    0  0.29095804884E+02 -0.51706278666E+02  0.69660688432E+02  0.91502549845E+02  0.00000000000E+00 0. -1.
         -3    1    4    4    0  501  0.29695755562E+02 -0.20075215291E+02 -0.11665388713E+02  0.37695271072E+02  0.00000000000E+00 0.  1.
          5    1    3    3  502    0  0.36338864557E+02  0.54264732779E+02 -0.30948238403E+02  0.72422771012E+02  0.47000000000E+01 0. -1.
         11    1    6    6    0    0  0.76298675581E+01  0.77962642534E+01 -0.12797933991E+02  0.16816174645E+02  0.00000000000E+00 0. -1.
        -12    1    6    6    0    0 -0.67431172902E+01  0.44996396743E+02  0.10950934831E+03  0.11858517073E+03  0.00000000000E+00 0.  1.
         -5    1    5    5    0  503 -0.96017175270E+02 -0.35275899818E+02  0.80842101908E+02  0.13046540728E+03  0.47000000000E+01 0.  1.
<mgrwt>
<rscale>  2 0.19931907E+03</rscale>
<asrwt>0</asrwt>
<pdfrwt beam="1">  1       21 0.51699071E-01 0.19979820E+03</pdfrwt>
<pdfrwt beam="2">  1       21 0.20222059E-01 0.19979820E+03</pdfrwt>
<totfact> 0.80099061E+04</totfact>
</mgrwt>
</event>
<event>
12    1  0.2768653E-001  0.2084457E+03  0.7546771E-02  0.1142873E+00
         21   -1    0    0  504  503  0.00000000000E+00  0.00000000000E+00  0.76932005542E+02  0.76932005542E+02  0.00000000000E+00 0.  1.
         21   -1    0    0  502  504 -0.00000000000E+00 -0.00000000000E+00 -0.56630699469E+03  0.56630699469E+03  0.00000000000E+00 0.  1.
          6    2    1    2  502    0 -0.52042352835E+02  0.98452643603E+02 -0.22362476906E+03  0.30570844517E+03  0.17620523995E+03 0.  0.
         24    2    3    3    0    0 -0.79599239953E+02  0.81581774545E+02 -0.83012812431E+02  0.16135533436E+03  0.78439734580E+02 0.  0.
         -6    2    1    2    0  503  0.52042352835E+02 -0.98452643603E+02 -0.26575022008E+03  0.33753055506E+03  0.17579068976E+03 0.  0.
        -24    2    5    5    0    0  0.58919400155E+02 -0.70712347405E+02 -0.70472169117E+02  0.14011620654E+03  0.78705101014E+02 0.  0.
          2    1    4    4  501    0 -0.51542860969E+02  0.77400999926E+01 -0.59150809420E+02  0.78837769627E+02  0.00000000000E+00 0. -1.
         -1    1    4    4    0  501 -0.28056378984E+02  0.73841674552E+02 -0.23862003011E+02  0.82517564736E+02  0.00000000000E+00 0.  1.
          5    1    3    3  502    0  0.27556887118E+02  0.16870869059E+02 -0.14061195663E+03  0.14435311080E+03  0.47000000000E+01 0. -1.
         11    1    6    6    0    0  0.78053932142E+02 -0.49913603867E+02 -0.50583814543E+02  0.10555807154E+03  0.00000000000E+00 0. -1.
        -12    1    6    6    0    0 -0.19134531986E+02 -0.20798743539E+02 -0.19888354574E+02  0.34558135002E+02  0.00000000000E+00 0.  1.
         -5    1    5    5    0  503 -0.68770473208E+01 -0.27740296198E+02 -0.19527805096E+03  0.19741434852E+03  0.47000000000E+01 0.  1.
<mgrwt>
<rscale>  2 0.20835808E+03</rscale>
<asrwt>0</asrwt>
<pdfrwt beam="1">  1       21 0.11835693E-01 0.20844572E+03</pdfrwt>
<pdfrwt beam="2">  1       21 0.87124154E-01 0.20844572E+03</pdfrwt>
<totfact> 0.67605809E+04</totfact>
</mgrwt>
</event>
<event>
12    1  0.2768653E-001  0.2155369E+03  0.7546771E-02  0.1137378E+00
         21   -1    0    0  504  503  0.00000000000E+00  0.00000000000E+00  0.16948080273E+03  0.16948080273E+03  0.00000000000E+00 0. -1.
         21   -1    0    0  502  504 -0.00000000000E+00 -0.00000000000E+00 -0.37502816236E+03  0.37502816236E+03  0.00000000000E+00 0.  1.
          6    2    1    2  502    0  0.12480832720E+03  0.31609239167E+02 -0.24468493105E+03  0.32607799997E+03  0.17285798808E+03 0.  0.
         24    2    3    3    0    0  0.10729202704E+03 -0.37683254826E+02 -0.13060372875E+03  0.19137506306E+03  0.81458419069E+02 0.  0.
         -6    2    1    2    0  503 -0.12480832720E+03 -0.31609239167E+02  0.39137571424E+02  0.21843096511E+03  0.17205834616E+03 0.  0.
        -24    2    5    5    0    0 -0.48716583966E+02  0.32937220562E+02 -0.20438129913E+02  0.10212295575E+03  0.80951929475E+02 0.  0.
          2    1    4    4  501    0  0.64977183728E+02 -0.42819958223E+02 -0.32350765459E+02  0.84274285836E+02  0.00000000000E+00 0. -1.
         -1    1    4    4    0  501  0.42314843309E+02  0.51367033965E+01 -0.98252963292E+02  0.10710077722E+03  0.00000000000E+00 0.  1.
          5    1    3    3  502    0  0.17516300161E+02  0.69292493993E+02 -0.11408120230E+03  0.13470293691E+03  0.47000000000E+01 0. -1.
         11    1    6    6    0    0 -0.39576288676E+02 -0.65775567539E+01  0.20019013389E+02  0.44836455873E+02  0.00000000000E+00 0. -1.
        -12    1    6    6    0    0 -0.91402952903E+01  0.39514777316E+02 -0.40457143302E+02  0.57286499880E+02  0.00000000000E+00 0.  1.
         -5    1    5    5    0  503 -0.76091743233E+02 -0.64546459729E+02  0.59575701337E+02  0.11630800936E+03  0.47000000000E+01 0.  1.
<mgrwt>
<rscale>  2 0.21537651E+03</rscale>
<asrwt>0</asrwt>
<pdfrwt beam="1">  1       21 0.26073970E-01 0.21553688E+03</pdfrwt>
<pdfrwt beam="2">  1       21 0.57696639E-01 0.21553688E+03</pdfrwt>
<totfact> 0.38921536E+04</totfact>
</mgrwt>
</event>
<event>
12    1  0.2768653E-001  0.2935978E+03  0.7546771E-02  0.1089608E+00
         21   -1    0    0  504  503  0.00000000000E+00  0.00000000000E+00  0.10496045518E+04  0.10496045518E+04  0.00000000000E+00 0. -1.
         21   -1    0    0  502  504 -0.00000000000E+00 -0.00000000000E+00 -0.88810579091E+02  0.88810579091E+02  0.00000000000E+00 0.  1.
          6    2    1    2  502    0  0.16572536372E+03  0.15107713048E+03  0.30489920579E+03  0.42327671913E+03  0.18950055338E+03 0.  0.
         24    2    3    3    0    0  0.16224986421E+03  0.16820563107E+03  0.20725333211E+03  0.32396775037E+03  0.85924425216E+02 0.  0.
         -6    2    1    2    0  503 -0.16572536372E+03 -0.15107713048E+03  0.65589476691E+03  0.71513841175E+03  0.17588577875E+03 0.  0.
        -24    2    5    5    0    0 -0.17871191133E+03 -0.14768203415E+03  0.65595132947E+03  0.70091623551E+03  0.85226123406E+02 0.  0.
          4    1    4    4  501    0  0.82880324537E+02  0.13967564383E+03  0.15643129546E+03  0.22549763607E+03  0.00000000000E+00 0. -1.
         -3    1    4    4    0  501  0.79369539677E+02  0.28529987236E+02  0.50822036644E+02  0.98470114294E+02  0.00000000000E+00 0.  1.
          5    1    3    3  502    0  0.34754995063E+01 -0.17128500587E+02  0.97645873682E+02  0.99308968761E+02  0.47000000000E+01 0. -1.
         11    1    6    6    0    0 -0.70174133395E+02 -0.43336800092E+02  0.35436534054E+03  0.36383688902E+03  0.00000000000E+00 0. -1.
        -12    1    6    6    0    0 -0.10853777793E+03 -0.10434523406E+03  0.30158598893E+03  0.33707934649E+03  0.00000000000E+00 0.  1.
         -5    1    5    5    0  503  0.12986547605E+02 -0.33950963274E+01 -0.56562555343E-01  0.14222176243E+02  0.47000000000E+01 0.  1.
<mgrwt>
<rscale>  2 0.29142432E+03</rscale>
<asrwt>0</asrwt>
<pdfrwt beam="1">  1       21 0.16147762E+00 0.29359778E+03</pdfrwt>
<pdfrwt beam="2">  1       21 0.13663167E-01 0.29359778E+03</pdfrwt>
<totfact> 0.10703622E+04</totfact>
</mgrwt>
</event>
<event>
12    1  0.2768653E-001  0.1776011E+03  0.7546771E-02  0.1171264E+00
         21   -1    0    0  504  503  0.00000000000E+00  0.00000000000E+00  0.28538802048E+02  0.28538802048E+02  0.00000000000E+00 0.  1.
         21   -1    0    0  502  504 -0.00000000000E+00 -0.00000000000E+00 -0.14236996158E+04  0.14236996158E+04  0.00000000000E+00 0.  1.
          6    2    1    2  502    0  0.13048192254E+02 -0.38301268211E+02 -0.10623579583E+04  0.10771010016E+04  0.17293031452E+03 0.  0.
         24    2    3    3    0    0 -0.15548523540E+02  0.38135403890E+02 -0.67545687355E+03  0.68165836814E+03  0.81976077138E+02 0.  0.
         -6    2    1    2    0  503 -0.13048192254E+02  0.38301268211E+02 -0.33280285547E+03  0.37513741623E+03  0.16832438321E+03 0.  0.
        -24    2    5    5    0    0 -0.34439117935E+02 -0.35137282152E+02 -0.16912030301E+03  0.19440319048E+03  0.82281481125E+02 0.  0.
          4    1    4    4  501    0  0.19694464957E+02  0.47714157521E+02 -0.48436833666E+03  0.48711107392E+03  0.00000000000E+00 0. -1.
         -3    1    4    4    0  501 -0.35242988497E+02 -0.95787536312E+01 -0.19108853689E+03  0.19454729422E+03  0.00000000000E+00 0.  1.
          5    1    3    3  502    0  0.28596715794E+02 -0.76436672100E+02 -0.38690108476E+03  0.39544263349E+03  0.47000000000E+01 0. -1.
         11    1    6    6    0    0 -0.30335348526E+02  0.19957013454E+02 -0.96862009792E+02  0.10344450056E+03  0.00000000000E+00 0. -1.
        -12    1    6    6    0    0 -0.41037694093E+01 -0.55094295606E+02 -0.72258293220E+02  0.90958689914E+02  0.00000000000E+00 0.  1.
         -5    1    5    5    0  503  0.21390925681E+02  0.73438550363E+02 -0.16368255245E+03  0.18073422575E+03  0.47000000000E+01 0.  1.
<mgrwt>
<rscale>  2 0.17646989E+03</rscale>
<asrwt>0</asrwt>
<pdfrwt beam="1">  1       21 0.43905853E-02 0.17760106E+03</pdfrwt>
<pdfrwt beam="2">  1       21 0.21903069E+00 0.17760106E+03</pdfrwt>
<totfact> 0.34561519E+04</totfact>
</mgrwt>
</event>
<event>
12    1  0.2768653E-001  0.1801551E+03  0.7546771E-02  0.1168455E+00
         21   -1    0    0  504  503  0.00000000000E+00  0.00000000000E+00  0.53911752693E+03  0.53911752693E+03  0.00000000000E+00 0. -1.
         21   -1    0    0  502  504 -0.00000000000E+00 -0.00000000000E+00 -0.74302470991E+02  0.74302470991E+02  0.00000000000E+00 0. -1.
          6    2    1    2  502    0 -0.34508484536E+02 -0.21777512334E+02  0.95418765461E+02  0.20386414141E+03  0.17547293752E+03 0.  0.
         24    2    3    3    0    0  0.25934577105E+02 -0.39874396305E+02  0.10150070400E+03  0.14030361210E+03  0.84380927259E+02 0.  0.
         -6    2    1    2    0  503  0.34508484536E+02  0.21777512334E+02  0.36939629048E+03  0.40955585651E+03  0.17209673046E+03 0.  0.
        -24    2    5    5    0    0  0.85541781721E+02 -0.54038768759E+01  0.28082038569E+03  0.30367381719E+03  0.77531283526E+02 0.  0.
          4    1    4    4  501    0  0.41079775204E+02  0.75546408586E+01  0.23955240331E+02  0.48150535496E+02  0.00000000000E+00 0. -1.
         -3    1    4    4    0  501 -0.15145198098E+02 -0.47429037163E+02  0.77545463667E+02  0.92153076601E+02  0.00000000000E+00 0.  1.
          5    1    3    3  502    0 -0.60443061641E+02  0.18096883971E+02 -0.60819385365E+01  0.63560529311E+02  0.47000000000E+01 0. -1.
         13    1    6    6    0    0  0.79842276175E+01 -0.26945818978E+02  0.12692080726E+03  0.12999506286E+03  0.00000000000E+00 0. -1.
        -14    1    6    6    0    0  0.77557554103E+02  0.21541942102E+02  0.15389957842E+03  0.17367875433E+03  0.00000000000E+00 0.  1.
         -5    1    5    5    0  503 -0.51033297185E+02  0.27181389210E+02  0.88575904788E+02  0.10588203932E+03  0.47000000000E+01 0.  1.
<mgrwt>
<rscale>  2 0.17932768E+03</rscale>
<asrwt>0</asrwt>
<pdfrwt beam="1">  1       21 0.82941155E-01 0.18015506E+03</pdfrwt>
<pdfrwt beam="2">  1       21 0.11431150E-01 0.18015506E+03</pdfrwt>
<totfact> 0.81529677E+04</totfact>
</mgrwt>
</event>
<event>
12    1  0.2768653E-001  0.1769875E+03  0.7546771E-02  0.1170844E+00
         21   -1    0    0  504  503  0.00000000000E+00  0.00000000000E+00  0.44665560493E+02  0.44665560493E+02  0.00000000000E+00 0.  1.
         21   -1    0    0  502  504 -0.00000000000E+00 -0.00000000000E+00 -0.15545416037E+04  0.15545416037E+04  0.00000000000E+00 0.  1.
          6    2    1    2  502    0  0.15119322603E+02 -0.33291850916E+02 -0.13474807871E+04  0.13590055685E+04  0.17278519138E+03 0.  0.
         24    2    3    3    0    0  0.50417082081E+02 -0.67560164679E+02 -0.69636656435E+03  0.70601853171E+03  0.80184269998E+02 0.  0.
         -6    2    1    2    0  503 -0.15119322603E+02  0.33291850916E+02 -0.16239525613E+03  0.24020159571E+03  0.17316941449E+03 0.  0.
        -24    2    5    5    0    0  0.27738251898E+02 -0.35542837544E+02 -0.63035278244E+02  0.11186811905E+03  0.80674195608E+02 0.  0.
          2    1    4    4  501    0  0.49431702658E+02 -0.55224618559E+02 -0.28543389357E+03  0.29489957498E+03  0.00000000000E+00 0. -1.
         -1    1    4    4    0  501  0.98537942316E+00 -0.12335546119E+02 -0.41093267078E+03  0.41111895674E+03  0.00000000000E+00 0.  1.
          5    1    3    3  502    0 -0.35297759478E+02  0.34268313762E+02 -0.65111422273E+03  0.65298703677E+03  0.47000000000E+01 0. -1.
         11    1    6    6    0    0  0.24116441427E+02  0.13353444999E+02 -0.55891806477E+02  0.62320231641E+02  0.00000000000E+00 0. -1.
        -12    1    6    6    0    0  0.36218104712E+01 -0.48896282544E+02 -0.71434717667E+01  0.49547887408E+02  0.00000000000E+00 0.  1.
         -5    1    5    5    0  503 -0.42857574500E+02  0.68834688461E+02 -0.99359977881E+02  0.12833347666E+03  0.47000000000E+01 0.  1.
<mgrwt>
<rscale>  2 0.17689348E+03</rscale>
<asrwt>0</asrwt>
<pdfrwt beam="1">  1       21 0.68716257E-02 0.17698753E+03</pdfrwt>
<pdfrwt beam="2">  1       21 0.23916021E+00 0.17698753E+03</pdfrwt>
<totfact> 0.12213819E+04</totfact>
</mgrwt>
</event>
<event>
12    1  0.2768653E-001  0.2854243E+03  0.7546771E-02  0.1092926E+00
         21   -1    0    0  504  503  0.00000000000E+00  0.00000000000E+00  0.22297135595E+04  0.22297135595E+04  0.00000000000E+00 0. -1.
         21   -1    0    0  502  504 -0.00000000000E+00 -0.00000000000E+00 -0.42480671712E+02  0.42480671712E+02  0.00000000000E+00 0. -1.
          6    2    1    2  502    0 -0.22572409809E+03 -0.17349453393E+00  0.66511171964E+03  0.72376835458E+03  0.17468724316E+03 0.  0.
         24    2    3    3    0    0 -0.14188926715E+03  0.80999618084E+01  0.58728063001E+03  0.60897942884E+03  0.75889609642E+02 0.  0.
         -6    2    1    2    0  503  0.22572409809E+03  0.17349453393E+00  0.15221211681E+04  0.15484258766E+04  0.17268018517E+03 0.  0.
        -24    2    5    5    0    0  0.20820042643E+03  0.44511638613E+02  0.13794469946E+04  0.13979235182E+04  0.77378604039E+02 0.  0.
          2    1    4    4  501    0 -0.93294614264E+02 -0.18086227151E+02  0.46791571342E+03  0.47746844035E+03  0.00000000000E+00 0. -1.
         -1    1    4    4    0  501 -0.48594652890E+02  0.26186188959E+02  0.11936491659E+03  0.13151098849E+03  0.00000000000E+00 0.  1.
          5    1    3    3  502    0 -0.83834830939E+02 -0.82734563423E+01  0.77831089632E+02  0.11478892574E+03  0.47000000000E+01 0. -1.
         11    1    6    6    0    0  0.17042667969E+03  0.33623469728E+02  0.88315260401E+03  0.90007461515E+03  0.00000000000E+00 0. -1.
        -12    1    6    6    0    0  0.37773746738E+02  0.10888168885E+02  0.49629439057E+03  0.49784890306E+03  0.00000000000E+00 0.  1.
         -5    1    5    5    0  503  0.17523671668E+02 -0.44338144079E+02  0.14267417353E+03  0.15050235839E+03  0.47000000000E+01 0.  1.
<mgrwt>
<rscale>  2 0.28511782E+03</rscale>
<asrwt>0</asrwt>
<pdfrwt beam="1">  1       21 0.34303276E+00 0.28542430E+03</pdfrwt>
<pdfrwt beam="2">  1       21 0.65354897E-02 0.28542430E+03</pdfrwt>
<totfact> 0.29621773E+03</totfact>
</mgrwt>
</event>
<event>
12    1  0.2768653E-001  0.1776789E+03  0.7546771E-02  0.1170159E+00
         21   -1    0    0  504  503  0.00000000000E+00  0.00000000000E+00  0.98972931655E+03  0.98972931655E+03  0.00000000000E+00 0.  1.
         21   -1    0    0  502  504 -0.00000000000E+00 -0.00000000000E+00 -0.48629788502E+02  0.48629788502E+02  0.00000000000E+00 0.  1.
          6    2    1    2  502    0  0.32136747552E+02  0.25665944056E+02  0.16508669928E+03  0.24226506729E+03  0.17247386272E+03 0.  0.
         24    2    3    3    0    0 -0.39849526038E+02  0.37640467266E+02  0.61488992192E+02  0.11545817589E+03  0.80900585397E+02 0.  0.
         -6    2    1    2    0  503 -0.32136747552E+02 -0.25665944056E+02  0.77601282877E+03  0.79609403777E+03  0.17285339259E+03 0.  0.
        -24    2    5    5    0    0  0.36783504055E+02  0.23683271575E+02  0.44004119777E+03  0.44956211572E+03  0.80968615093E+02 0.  0.
          2    1    4    4  501    0 -0.64314270704E+02  0.31553844010E+02  0.38440701603E+02  0.81299803368E+02  0.00000000000E+00 0. -1.
         -1    1    4    4    0  501  0.24464744666E+02  0.60866232554E+01  0.23048290589E+02  0.34158372521E+02  0.00000000000E+00 0.  1.
          5    1    3    3  502    0  0.71986273590E+02 -0.11974523209E+02  0.10359770709E+03  0.12680689140E+03  0.47000000000E+01 0. -1.
         13    1    6    6    0    0 -0.91529156137E+01  0.41187074931E+02  0.17626100515E+03  0.18124042855E+03  0.00000000000E+00 0. -1.
        -14    1    6    6    0    0  0.45936419668E+02 -0.17503803356E+02  0.26378019262E+03  0.26832168716E+03  0.00000000000E+00 0.  1.
         -5    1    5    5    0  503 -0.68920251607E+02 -0.49349215632E+02  0.33597163100E+03  0.34653192205E+03  0.47000000000E+01 0.  1.
<mgrwt>
<rscale>  2 0.17758657E+03</rscale>
<asrwt>0</asrwt>
<pdfrwt beam="1">  1       21 0.15226603E+00 0.17767894E+03</pdfrwt>
<pdfrwt beam="2">  1       21 0.74815067E-02 0.17767894E+03</pdfrwt>
<totfact> 0.39083796E+04</totfact>
</mgrwt>
</event>
<event>
12    1  0.2768653E-001  0.2193224E+03  0.7546771E-02  0.1135407E+00
         21   -1    0    0  504  503  0.00000000000E+00  0.00000000000E+00  0.15815769867E+03  0.15815769867E+03  0.00000000000E+00 0. -1.
         21   -1    0    0  502  504 -0.00000000000E+00 -0.00000000000E+00 -0.30503672839E+03  0.30503672839E+03  0.00000000000E+00 0. -1.
          6    2    1    2  502    0 -0.10931091477E+03 -0.72231387833E+02 -0.34367308751E+02  0.21669657202E+03  0.16914503522E+03 0.  0.
         24    2    3    3    0    0 -0.13974112780E+03 -0.79079492381E+02 -0.16413353234E+02  0.18040154592E+03  0.80586417527E+02 0.  0.
         -6    2    1    2    0  503  0.10931091477E+03  0.72231387833E+02 -0.11251172097E+03  0.24649785504E+03  0.17588648528E+03 0.  0.
        -24    2    5    5    0    0 -0.10347488491E+02  0.72276876354E+00 -0.29657070266E+02  0.84267773928E+02  0.78191578788E+02 0.  0.
          4    1    4    4  501    0 -0.11032625276E+03 -0.18946589948E+02 -0.18331201218E+02  0.11343230694E+03  0.00000000000E+00 0. -1.
         -3    1    4    4    0  501 -0.29414875045E+02 -0.60132902433E+02  0.19178479845E+01  0.66969238982E+02  0.00000000000E+00 0.  1.
          5    1    3    3  502    0  0.30430213034E+02  0.68481045473E+01 -0.17953955518E+02  0.36295026105E+02  0.47000000000E+01 0. -1.
         11    1    6    6    0    0  0.26741125193E+02 -0.99849361289E+01 -0.35144790906E+02  0.45276296822E+02  0.00000000000E+00 0. -1.
        -12    1    6    6    0    0 -0.37088613684E+02  0.10707704892E+02  0.54877206410E+01  0.38991477106E+02  0.00000000000E+00 0.  1.
         -5    1    5    5    0  503  0.11965840326E+03  0.71508619070E+02 -0.82854650708E+02  0.16223008111E+03  0.47000000000E+01 0.  1.
<mgrwt>
<rscale>  2 0.21796777E+03</rscale>
<asrwt>0</asrwt>
<pdfrwt beam="1">  1       21 0.24331954E-01 0.21932238E+03</pdfrwt>
<pdfrwt beam="2">  1       21 0.46928727E-01 0.21932238E+03</pdfrwt>
<totfact> 0.68515127E+04</totfact>
</mgrwt>
</event>
<event>
12    1  0.2768653E-001  0.2495291E+03  0.7546771E-02  0.1113739E+00
         21   -1    0    0  504  503  0.00000000000E+00  0.00000000000E+00  0.60316707373E+02  0.60316707373E+02  0.00000000000E+00 0.  1.
         21   -1    0    0  502  504 -0.00000000000E+00 -0.00000000000E+00 -0.15614886583E+04  0.15614886583E+04  0.00000000000E+00 0. -1.
          6    2    1    2  502    0 -0.12598846807E+03  0.12831359050E+03 -0.12233850323E+04  0.12484016478E+04  0.17175059054E+03 0.  0.
         24    2    3    3    0    0 -0.11525871876E+03  0.49793367599E+02 -0.53889640004E+03  0.55932448911E+03  0.81673756064E+02 0.  0.
         -6    2    1    2    0  503  0.12598846807E+03 -0.12831359050E+03 -0.27778691866E+03  0.37340371792E+03  0.17299506578E+03 0.  0.
        -24    2    5    5    0    0  0.11123759210E+03 -0.15797802975E+03 -0.26504013917E+03  0.33759676768E+03  0.79965257460E+02 0.  0.
          4    1    4    4  501    0 -0.22023587185E+02  0.40802123191E+01 -0.19647110154E+02  0.29794218608E+02  0.00000000000E+00 0. -1.
         -3    1    4    4    0  501 -0.93235131578E+02  0.45713155280E+02 -0.51924928989E+03  0.52953027050E+03  0.00000000000E+00 0.  1.
          5    1    3    3  502    0 -0.10729749303E+02  0.78520222898E+02 -0.68448863227E+03  0.68907715869E+03  0.47000000000E+01 0. -1.
         13    1    6    6    0    0  0.75383476044E+02 -0.40750789053E+02 -0.94483899786E+02  0.12755588025E+03  0.00000000000E+00 0. -1.
        -14    1    6    6    0    0  0.35854116052E+02 -0.11722724069E+03 -0.17055623938E+03  0.21004088743E+03  0.00000000000E+00 0.  1.
         -5    1    5    5    0  503  0.14750875969E+02  0.29664439251E+02 -0.12746779495E+02  0.35806950239E+02  0.47000000000E+01 0.  1.
<mgrwt>
<rscale>  2 0.24931352E+03</rscale>
<asrwt>0</asrwt>
<pdfrwt beam="1">  1       21 0.92794935E-02 0.24952909E+03</pdfrwt>
<pdfrwt beam="2">  1       21 0.24022902E+00 0.24952909E+03</pdfrwt>
<totfact> 0.66903245E+03</totfact>
</mgrwt>
</event>
<event>
12    1  0.2768653E-001  0.2254797E+03  0.7546771E-02  0.1129893E+00
         21   -1    0    0  504  503  0.00000000000E+00  0.00000000000E+00  0.17785109605E+03  0.17785109605E+03  0.00000000000E+00 0.  1.
         21   -1    0    0  502  504 -0.00000000000E+00 -0.00000000000E+00 -0.33624124825E+03  0.33624124825E+03  0.00000000000E+00 0.  1.
          6    2    1    2  502    0 -0.14435897418E+03  0.10310863061E+02 -0.17893152171E+03  0.28784994208E+03  0.17290249382E+03 0.  0.
         24    2    3    3    0    0 -0.47291084882E+02  0.64358664332E+02 -0.78715054965E+02  0.13815435042E+03  0.80697461409E+02 0.  0.
         -6    2    1    2    0  503  0.14435897418E+03 -0.10310863061E+02  0.20541369513E+02  0.22624240222E+03  0.17267845661E+03 0.  0.
        -24    2    5    5    0    0  0.13919616770E+03  0.18824700812E+02 -0.32912944026E+02  0.16496443482E+03  0.80000377544E+02 0.  0.
          4    1    4    4  501    0 -0.53561745918E+02  0.24521395901E+02 -0.11878462854E+02  0.60093738130E+02  0.00000000000E+00 0. -1.
         -3    1    4    4    0  501  0.62706610360E+01  0.39837268432E+02 -0.66836592112E+02  0.78060612290E+02  0.00000000000E+00 0.  1.
          5    1    3    3  502    0 -0.97067889299E+02 -0.54047801271E+02 -0.10021646675E+03  0.14969559166E+03  0.47000000000E+01 0. -1.
         11    1    6    6    0    0  0.33034741758E+02  0.74932545708E+01  0.26294546762E+02  0.42881770212E+02  0.00000000000E+00 0. -1.
        -12    1    6    6    0    0  0.10616142594E+03  0.11331446241E+02 -0.59207490787E+02  0.12208266460E+03  0.00000000000E+00 0.  1.
         -5    1    5    5    0  503  0.51628064821E+01 -0.29135563873E+02  0.53454313538E+02  0.61277967401E+02  0.47000000000E+01 0.  1.
<mgrwt>
<rscale>  2 0.22543676E+03</rscale>
<asrwt>0</asrwt>
<pdfrwt beam="1">  1       21 0.27361707E-01 0.22547971E+03</pdfrwt>
<pdfrwt beam="2">  1       21 0.51729422E-01 0.22547971E+03</pdfrwt>
<totfact> 0.44497482E+04</totfact>
</mgrwt>
</event>
<event>
12    1  0.2768653E-001  0.3302782E+03  0.7546771E-02  0.1071198E+00
         21   -1    0    0  504  503  0.00000000000E+00  0.00000000000E+00  0.53798000494E+03  0.53798000494E+03  0.00000000000E+00 0.  1.
         21   -1    0    0  502  504 -0.00000000000E+00 -0.00000000000E+00 -0.36018888985E+03  0.36018888985E+03  0.00000000000E+00 0. -1.
          6    2    1    2  502    0  0.25519427190E+03  0.10970409842E+03 -0.20907787006E+03  0.38949289764E+03  0.17559059184E+03 0.  0.
         24    2    3    3    0    0  0.14284702077E+03  0.38630154271E+02 -0.38024044330E+02  0.17280207718E+03  0.80728989650E+02 0.  0.
         -6    2    1    2    0  503 -0.25519427190E+03 -0.10970409842E+03  0.38686898515E+03  0.50867599714E+03  0.17867443233E+03 0.  0.
        -24    2    5    5    0    0 -0.10056816416E+03 -0.11656304166E+03  0.23271331514E+03  0.29017579372E+03  0.79659311411E+02 0.  0.
          4    1    4    4  501    0 -0.69162427310E+01  0.11648770406E+02  0.53525087918E+01  0.14566317855E+02  0.00000000000E+00 0. -1.
         -3    1    4    4    0  501  0.14976326350E+03  0.26981383865E+02 -0.43376553121E+02  0.15823575933E+03  0.00000000000E+00 0.  1.
          5    1    3    3  502    0  0.11234725114E+03  0.71073944151E+02 -0.17105382573E+03  0.21669082046E+03  0.47000000000E+01 0. -1.
         11    1    6    6    0    0  0.32101557963E+01 -0.25251863773E+02  0.86134908815E+01  0.26872922235E+02  0.00000000000E+00 0. -1.
        -12    1    6    6    0    0 -0.10377831996E+03 -0.91311177884E+02  0.22409982426E+03  0.26330287148E+03  0.00000000000E+00 0.  1.
         -5    1    5    5    0  503 -0.15462610774E+03  0.68589432358E+01  0.15415567002E+03  0.21850020342E+03  0.47000000000E+01 0.  1.
<mgrwt>
<rscale>  2 0.32986285E+03</rscale>
<asrwt>0</asrwt>
<pdfrwt beam="1">  1       21 0.82766155E-01 0.33027815E+03</pdfrwt>
<pdfrwt beam="2">  1       21 0.55413675E-01 0.33027815E+03</pdfrwt>
<totfact> 0.35831629E+03</totfact>
</mgrwt>
</event>
<event>
12    1  0.2768653E-001  0.1743508E+03  0.7546771E-02  0.1173621E+00
         21   -1    0    0  504  503  0.00000000000E+00  0.00000000000E+00  0.16306931328E+03  0.16306931328E+03  0.00000000000E+00 0. -1.
         21   -1    0    0  502  504 -0.00000000000E+00 -0.00000000000E+00 -0.29508881069E+03  0.29508881069E+03  0.00000000000E+00 0. -1.
          6    2    1    2  502    0  0.20344608561E+02 -0.11731269933E+02 -0.20577706595E+03  0.26970801665E+03  0.17276193905E+03 0.  0.
         24    2    3    3    0    0  0.35921442503E+02  0.31916777753E+02 -0.20271434387E+03  0.22302547078E+03  0.79612968002E+02 0.  0.
         -6    2    1    2    0  503 -0.20344608561E+02  0.11731269933E+02  0.73757568543E+02  0.18845010731E+03  0.17181891118E+03 0.  0.
        -24    2    5    5    0    0 -0.63339575699E+02  0.22996855316E+02  0.93709248374E+02  0.13950483031E+03  0.78354433468E+02 0.  0.
          4    1    4    4  501    0  0.49438589482E+02 -0.73826239781E+01 -0.90900334297E+02  0.10373788142E+03  0.00000000000E+00 0. -1.
         -3    1    4    4    0  501 -0.13517146979E+02  0.39299401731E+02 -0.11181400957E+03  0.11928758936E+03  0.00000000000E+00 0.  1.
          5    1    3    3  502    0 -0.15576833942E+02 -0.43648047687E+02 -0.30627220840E+01  0.46682545872E+02  0.47000000000E+01 0. -1.
         11    1    6    6    0    0 -0.40155400222E+02  0.47096452079E+02  0.32864135624E+02  0.70075554765E+02  0.00000000000E+00 0. -1.
        -12    1    6    6    0    0 -0.23184175477E+02 -0.24099596763E+02  0.60845112750E+02  0.69429275542E+02  0.00000000000E+00 0.  1.
         -5    1    5    5    0  503  0.42994967138E+02 -0.11265585383E+02 -0.19951679831E+02  0.48945277007E+02  0.47000000000E+01 0.  1.
<mgrwt>
<rscale>  2 0.17411677E+03</rscale>
<asrwt>0</asrwt>
<pdfrwt beam="1">  1       21 0.25087587E-01 0.17435083E+03</pdfrwt>
<pdfrwt beam="2">  1       21 0.45398278E-01 0.17435083E+03</pdfrwt>
<totfact> 0.70570127E+04</totfact>
</mgrwt>
</event>
<event>
12    1  0.2768653E-001  0.4031490E+03  0.7546771E-02  0.1042810E+00
         21   -1    0    0  504  503  0.00000000000E+00  0.00000000000E+00  0.53857882686E+03  0.53857882686E+03  0.00000000000E+00 0. -1.
         21   -1    0    0  502  504 -0.00000000000E+00 -0.00000000000E+00 -0.35625351126E+03  0.35625351126E+03  0.00000000000E+00 0. -1.
          6    2    1    2  502    0 -0.32156896533E+03  0.16744025845E+03 -0.85272324850E+02  0.41206858138E+03  0.17631309301E+03 0.  0.
         24    2    3    3    0    0 -0.11934181773E+03  0.99541125375E+02  0.17812294966E+02  0.17509887796E+03  0.78685666487E+02 0.  0.
         -6    2    1    2    0  503  0.32156896533E+03 -0.16744025845E+03  0.26759764046E+03  0.48276375674E+03  0.17323252590E+03 0.  0.
        -24    2    5    5    0    0  0.14773853436E+03 -0.59434963422E+02  0.20000864560E+03  0.26718888642E+03  0.77635386912E+02 0.  0.
          2    1    4    4  501    0 -0.58847078913E+02  0.44136905787E+02  0.47835315969E+02  0.87745442064E+02  0.00000000000E+00 0. -1.
         -1    1    4    4    0  501 -0.60494738817E+02  0.55404219588E+02 -0.30023021002E+02  0.87353435895E+02  0.00000000000E+00 0.  1.
          5    1    3    3  502    0 -0.20222714760E+03  0.67899133073E+02 -0.10308461982E+03  0.23696970342E+03  0.47000000000E+01 0. -1.
         11    1    6    6    0    0  0.64152709825E+02  0.32162784059E+00  0.35753646059E+02  0.73443834519E+02  0.00000000000E+00 0. -1.
        -12    1    6    6    0    0  0.83585824532E+02 -0.59756591262E+02  0.16425499954E+03  0.19374505190E+03  0.00000000000E+00 0.  1.
         -5    1    5    5    0  503  0.17383043097E+03 -0.10800529503E+03  0.67588994853E+02  0.21557487032E+03  0.47000000000E+01 0.  1.
<mgrwt>
<rscale>  2 0.40281419E+03</rscale>
<asrwt>0</asrwt>
<pdfrwt beam="1">  1       21 0.82858281E-01 0.40314904E+03</pdfrwt>
<pdfrwt beam="2">  1       21 0.54808233E-01 0.40314904E+03</pdfrwt>
<totfact> 0.35455828E+03</totfact>
</mgrwt>
</event>
<event>
12    1  0.2768653E-001  0.2182310E+03  0.7546771E-02  0.1137662E+00
         21   -1    0    0  504  503  0.00000000000E+00  0.00000000000E+00  0.38589467230E+02  0.38589467230E+02  0.00000000000E+00 0.  1.
         21   -1    0    0  502  504 -0.00000000000E+00 -0.00000000000E+00 -0.15213312883E+04  0.15213312883E+04  0.00000000000E+00 0.  1.
          6    2    1    2  502    0  0.12940588141E+03  0.33352610075E+02 -0.11024625267E+04  0.11214722420E+04  0.15626288152E+03 0.  0.
         24    2    3    3    0    0  0.35114414948E+02  0.34756595511E+02 -0.36458282500E+03  0.37757614983E+03  0.84865007903E+02 0.  0.
         -6    2    1    2    0  503 -0.12940588141E+03 -0.33352610075E+02 -0.38027929435E+03  0.43844851347E+03  0.17252964531E+03 0.  0.
        -24    2    5    5    0    0 -0.77549805351E+01  0.20754617782E+01 -0.91026645432E+02  0.12262692639E+03  0.81774480331E+02 0.  0.
          2    1    4    4  501    0 -0.22484286988E+02 -0.67196276519E+01 -0.52218245942E+02  0.57248945548E+02  0.00000000000E+00 0. -1.
         -1    1    4    4    0  501  0.57598701935E+02  0.41476223163E+02 -0.31236457906E+03  0.32032720428E+03  0.00000000000E+00 0.  1.
          5    1    3    3  502    0  0.94291466460E+02 -0.14039854358E+01 -0.73787970169E+03  0.74389609220E+03  0.47000000000E+01 0. -1.
         13    1    6    6    0    0 -0.24928363685E+02 -0.15850932403E+02 -0.13438285020E+01  0.29571629125E+02  0.00000000000E+00 0. -1.
        -14    1    6    6    0    0  0.17173383150E+02  0.17926394181E+02 -0.89682816930E+02  0.93055297268E+02  0.00000000000E+00 0.  1.
         -5    1    5    5    0  503 -0.12165090087E+03 -0.35428071853E+02 -0.28925264891E+03  0.31582158708E+03  0.47000000000E+01 0.  1.
<mgrwt>
<rscale>  2 0.21500546E+03</rscale>
<asrwt>0</asrwt>
<pdfrwt beam="1">  1       21 0.59368419E-02 0.21823097E+03</pdfrwt>
<pdfrwt beam="2">  1       21 0.23405094E+00 0.21823097E+03</pdfrwt>
<totfact> 0.16253521E+04</totfact>
</mgrwt>
</event>
<event>
12    1  0.2768653E-001  0.1795353E+03  0.7546771E-02  0.1168540E+00
         21   -1    0    0  504  503  0.00000000000E+00  0.00000000000E+00  0.12430339750E+03  0.12430339750E+03  0.00000000000E+00 0. -1.
         21   -1    0    0  502  504 -0.00000000000E+00 -0.00000000000E+00 -0.34836242338E+03  0.34836242338E+03  0.00000000000E+00 0. -1.
          6    2    1    2  502    0  0.38290181566E+02 -0.20678932000E+02 -0.23237852849E+03  0.29293788392E+03  0.17297128981E+03 0.  0.
         24    2    3    3    0    0  0.28532233869E+02 -0.50670420328E+02 -0.55426814526E+02  0.11313603190E+03  0.79662099387E+02 0.  0.
         -6    2    1    2    0  503 -0.38290181566E+02  0.20678932000E+02  0.83195026116E+01  0.17972793695E+03  0.17418140247E+03 0.  0.
        -24    2    5    5    0    0 -0.88948408429E+02 -0.39364188482E+01  0.18351555229E+02  0.12232668674E+03  0.81851841483E+02 0.  0.
          2    1    4    4  501    0  0.48999377870E+02 -0.90883934741E+01 -0.41185220242E+02  0.64651065683E+02  0.00000000000E+00 0. -1.
         -1    1    4    4    0  501 -0.20467144001E+02 -0.41582026854E+02 -0.14241594284E+02  0.48484966212E+02  0.00000000000E+00 0.  1.
          5    1    3    3  502    0  0.97579476974E+01  0.29991488328E+02 -0.17695171397E+03  0.17980185202E+03  0.47000000000E+01 0. -1.
         13    1    6    6    0    0 -0.90427565536E+02  0.16008786777E+02  0.32949496264E+02  0.97565850413E+02  0.00000000000E+00 0. -1.
        -14    1    6    6    0    0  0.14791571068E+01 -0.19945205625E+02 -0.14597941035E+02  0.24760836327E+02  0.00000000000E+00 0.  1.
         -5    1    5    5    0  503  0.50658226863E+02  0.24615350849E+02 -0.10032052617E+02  0.57401250213E+02  0.47000000000E+01 0.  1.
<mgrwt>
<rscale>  2 0.17924111E+03</rscale>
<asrwt>0</asrwt>
<pdfrwt beam="1">  1       21 0.19123599E-01 0.17953528E+03</pdfrwt>
<pdfrwt beam="2">  1       21 0.53594220E-01 0.17953528E+03</pdfrwt>
<totfact> 0.83110641E+04</totfact>
</mgrwt>
</event>
<event>
12    1  0.2768653E-001  0.2015456E+03  0.7546771E-02  0.1150076E+00
         21   -1    0    0  504  503  0.00000000000E+00  0.00000000000E+00  0.30950762753E+03  0.30950762753E+03  0.00000000000E+00 0. -1.
         21   -1    0    0  502  504 -0.00000000000E+00 -0.00000000000E+00 -0.16702165561E+03  0.16702165561E+03  0.00000000000E+00 0. -1.
          6    2    1    2  502    0 -0.75928066254E+02  0.30242189097E+02 -0.45347011737E+02  0.20658412042E+03  0.18423079571E+03 0.  0.
         24    2    3    3    0    0  0.32592274335E+01  0.28366271368E+02  0.36078729279E+02  0.92889846821E+02  0.80694367965E+02 0.  0.
         -6    2    1    2    0  503  0.75928066254E+02 -0.30242189097E+02  0.18783298366E+03  0.26994516272E+03  0.17581097770E+03 0.  0.
        -24    2    5    5    0    0  0.91881517701E+02  0.30601518808E+02  0.15211301031E+03  0.19745739892E+03  0.80451166767E+02 0.  0.
          4    1    4    4  501    0 -0.21481074438E+02  0.32428581023E+02  0.50672021259E+02  0.63880381688E+02  0.00000000000E+00 0. -1.
         -3    1    4    4    0  501  0.24740301872E+02 -0.40623096553E+01 -0.14593291980E+02  0.29009465132E+02  0.00000000000E+00 0.  1.
          5    1    3    3  502    0 -0.79187293688E+02  0.18759177290E+01 -0.81425741015E+02  0.11369427360E+03  0.47000000000E+01 0. -1.
         13    1    6    6    0    0  0.55291256859E+02 -0.21434884317E+02  0.94879076355E+02  0.11188662333E+03  0.00000000000E+00 0. -1.
        -14    1    6    6    0    0  0.36590260843E+02  0.52036403125E+02  0.57233933958E+02  0.85570775590E+02  0.00000000000E+00 0.  1.
         -5    1    5    5    0  503 -0.15953451447E+02 -0.60843707905E+02  0.35719973349E+02  0.72487763800E+02  0.47000000000E+01 0.  1.
<mgrwt>
<rscale>  2 0.19960108E+03</rscale>
<asrwt>0</asrwt>
<pdfrwt beam="1">  1       21 0.47616558E-01 0.20154565E+03</pdfrwt>
<pdfrwt beam="2">  1       21 0.25695639E-01 0.20154565E+03</pdfrwt>
<totfact> 0.60363824E+04</totfact>
</mgrwt>
</event>
<event>
12    1  0.2768653E-001  0.1899989E+03  0.7546771E-02  0.1159004E+00
         21   -1    0    0  504  503  0.00000000000E+00  0.00000000000E+00  0.25577255123E+03  0.25577255123E+03  0.00000000000E+00 0. -1.
         21   -1    0    0  502  504 -0.00000000000E+00 -0.00000000000E+00 -0.18830706511E+03  0.18830706511E+03  0.00000000000E+00 0. -1.
          6    2    1    2  502    0  0.68536024953E+02 -0.17487656446E+01 -0.79611454200E+02  0.20380643102E+03  0.17463915022E+03 0.  0.
         24    2    3    3    0    0 -0.24348255765E+01 -0.48541728459E+02 -0.83258103572E+02  0.11859005322E+03  0.69061285356E+02 0.  0.
         -6    2    1    2    0  503 -0.68536024953E+02  0.17487656446E+01  0.14707694032E+03  0.24027318532E+03  0.17719856747E+03 0.  0.
        -24    2    5    5    0    0  0.84065673254E+01  0.61450668860E+01  0.14166199588E+03  0.16287227064E+03  0.79692052577E+02 0.  0.
          2    1    4    4  501    0 -0.12260101870E+02  0.13409598998E+02 -0.35049030945E+02  0.39478627298E+02  0.00000000000E+00 0. -1.
         -1    1    4    4    0  501  0.98252762932E+01 -0.61951327457E+02 -0.48209072627E+02  0.79111425922E+02  0.00000000000E+00 0.  1.
          5    1    3    3  502    0  0.70970850530E+02  0.46792962815E+02  0.36466493719E+01  0.85216377801E+02  0.47000000000E+01 0. -1.
         13    1    6    6    0    0 -0.59530079875E+01  0.41620294289E+02  0.77145106748E+02  0.87858150993E+02  0.00000000000E+00 0. -1.
        -14    1    6    6    0    0  0.14359575313E+02 -0.35475227403E+02  0.64516889133E+02  0.75014119643E+02  0.00000000000E+00 0.  1.
         -5    1    5    5    0  503 -0.76942592279E+02 -0.43963012414E+01  0.54149444402E+01  0.77400914688E+02  0.47000000000E+01 0.  1.
<mgrwt>
<rscale>  2 0.18939988E+03</rscale>
<asrwt>0</asrwt>
<pdfrwt beam="1">  1       21 0.39349623E-01 0.18999889E+03</pdfrwt>
<pdfrwt beam="2">  1       21 0.28970318E-01 0.18999889E+03</pdfrwt>
<totfact> 0.71092018E+04</totfact>
</mgrwt>
</event>
<event>
12    1  0.2768653E-001  0.2925110E+03  0.7546771E-02  0.1089417E+00
         21   -1    0    0  504  503  0.00000000000E+00  0.00000000000E+00  0.14090661829E+03  0.14090661829E+03  0.00000000000E+00 0.  1.
         21   -1    0    0  502  504 -0.00000000000E+00 -0.00000000000E+00 -0.74712160584E+03  0.74712160584E+03  0.00000000000E+00 0.  1.
          6    2    1    2  502    0 -0.19279062568E+03  0.13114772657E+03 -0.49806873179E+03  0.57616559913E+03  0.17183243146E+03 0.  0.
         24    2    3    3    0    0 -0.15189995752E+03  0.34271698197E+02 -0.37643161121E+03  0.41530948107E+03  0.80827351530E+02 0.  0.
         -6    2    1    2    0  503  0.19279062568E+03 -0.13114772657E+03 -0.10814625575E+03  0.31186262500E+03  0.17662030661E+03 0.  0.
        -24    2    5    5    0    0  0.15583241512E+03 -0.33349648549E+02 -0.22200186126E+02  0.17644035846E+03  0.72404496889E+02 0.  0.
          4    1    4    4  501    0 -0.11965752971E+03 -0.10611864430E+02 -0.26259100026E+03  0.28876386460E+03  0.00000000000E+00 0. -1.
         -3    1    4    4    0  501 -0.32242427811E+02  0.44883562626E+02 -0.11384061095E+03  0.12654561647E+03  0.00000000000E+00 0.  1.
          5    1    3    3  502    0 -0.40890668153E+02  0.96876028369E+02 -0.12163712058E+03  0.16085611806E+03  0.47000000000E+01 0. -1.
         13    1    6    6    0    0  0.54228131592E+02  0.21110437785E+02  0.36200870265E+01  0.58304767126E+02  0.00000000000E+00 0. -1.
        -14    1    6    6    0    0  0.10160428352E+03 -0.54460086334E+02 -0.25820273153E+02  0.11813559133E+03  0.00000000000E+00 0.  1.
         -5    1    5    5    0  503  0.36958210561E+02 -0.97798078016E+02 -0.85946069627E+02  0.13542226654E+03  0.47000000000E+01 0.  1.
<mgrwt>
<rscale>  2 0.29179190E+03</rscale>
<asrwt>0</asrwt>
<pdfrwt beam="1">  1       21 0.21677941E-01 0.29251100E+03</pdfrwt>
<pdfrwt beam="2">  1       21 0.11494179E+00 0.29251100E+03</pdfrwt>
<totfact> 0.10988576E+04</totfact>
</mgrwt>
</event>
<event>
12    1  0.2768653E-001  0.1777391E+03  0.7546771E-02  0.1170021E+00
         21   -1    0    0  504  503  0.00000000000E+00  0.00000000000E+00  0.15745461359E+04  0.15745461359E+04  0.00000000000E+00 0.  1.
         21   -1    0    0  502  504 -0.00000000000E+00 -0.00000000000E+00 -0.35575332428E+02  0.35575332428E+02  0.00000000000E+00 0.  1.
          6    2    1    2  502    0  0.31742428815E+02  0.29241494421E+02  0.23773558089E+03  0.29680342747E+03  0.17237001292E+03 0.  0.
         24    2    3    3    0    0 -0.24548940209E+02  0.66313174747E+02  0.12094569048E+03  0.16187753592E+03  0.81094938068E+02 0.  0.
         -6    2    1    2    0  503 -0.31742428815E+02 -0.29241494421E+02  0.13012352226E+04  0.13133180409E+04  0.17241961942E+03 0.  0.
        -24    2    5    5    0    0 -0.51702605060E+02 -0.61364790781E+02  0.11950708337E+04  0.12005205131E+04  0.81341304736E+02 0.  0.
          4    1    4    4  501    0  0.65599862299E+01  0.60559141054E+02  0.11434779116E+03  0.12956025752E+03  0.00000000000E+00 0. -1.
         -3    1    4    4    0  501 -0.31108926439E+02  0.57540336930E+01  0.65978993152E+01  0.32317278402E+02  0.00000000000E+00 0.  1.
          5    1    3    3  502    0  0.56291369024E+02 -0.37071680326E+02  0.11678989041E+03  0.13492589155E+03  0.47000000000E+01 0. -1.
         11    1    6    6    0    0 -0.50056496814E+02 -0.40762325544E+01  0.76514194333E+03  0.76678840757E+03  0.00000000000E+00 0. -1.
        -12    1    6    6    0    0 -0.16461082464E+01 -0.57288558226E+02  0.42992889037E+03  0.43373210551E+03  0.00000000000E+00 0.  1.
         -5    1    5    5    0  503  0.19960176246E+02  0.32123296360E+02  0.10616438890E+03  0.11279752779E+03  0.47000000000E+01 0.  1.
<mgrwt>
<rscale>  2 0.17772702E+03</rscale>
<asrwt>0</asrwt>
<pdfrwt beam="1">  1       21 0.24223781E+00 0.17773906E+03</pdfrwt>
<pdfrwt beam="2">  1       21 0.54731293E-02 0.17773906E+03</pdfrwt>
<totfact> 0.17275132E+04</totfact>
</mgrwt>
</event>
<event>
12    1  0.2768653E-001  0.2005462E+03  0.7546771E-02  0.1149370E+00
         21   -1    0    0  504  503  0.00000000000E+00  0.00000000000E+00  0.79080351027E+02  0.79080351027E+02  0.00000000000E+00 0. -1.
         21   -1    0    0  502  504 -0.00000000000E+00 -0.00000000000E+00 -0.53237454802E+03  0.53237454802E+03  0.00000000000E+00 0.  1.
          6    2    1    2  502    0  0.80448375084E+01 -0.10083525160E+03 -0.29299016259E+03  0.35505210726E+03  0.17316551653E+03 0.  0.
         24    2    3    3    0    0 -0.44612525149E+02 -0.60048055974E+02 -0.25626076369E+03  0.27884494281E+03  0.80553564166E+02 0.  0.
         -6    2    1    2    0  503 -0.80448375084E+01  0.10083525160E+03 -0.16030403440E+03  0.25640279179E+03  0.17266308470E+03 0.  0.
        -24    2    5    5    0    0  0.40621190226E+02  0.77237192807E+02 -0.16369430595E+03  0.20200762128E+03  0.79972421532E+02 0.  0.
          4    1    4    4  501    0 -0.34893283226E+02  0.53561100260E+01 -0.43365904937E+02  0.55918072570E+02  0.00000000000E+00 0. -1.
         -3    1    4    4    0  501 -0.97192419228E+01 -0.65404166000E+02 -0.21289485875E+03  0.22292687024E+03  0.00000000000E+00 0.  1.
          5    1    3    3  502    0  0.52657362657E+02 -0.40787195621E+02 -0.36729398904E+02  0.76207164443E+02  0.47000000000E+01 0. -1.
         13    1    6    6    0    0  0.18837715219E+02  0.67195900428E+02 -0.50098437469E+02  0.85906937938E+02  0.00000000000E+00 0. -1.
        -14    1    6    6    0    0  0.21783475007E+02  0.10041292379E+02 -0.11359586848E+03  0.11610068334E+03  0.00000000000E+00 0.  1.
         -5    1    5    5    0  503 -0.48666027734E+02  0.23598058788E+02  0.33902715497E+01  0.54395170514E+02  0.47000000000E+01 0.  1.
<mgrwt>
<rscale>  2 0.20043766E+03</rscale>
<asrwt>0</asrwt>
<pdfrwt beam="1">  1       21 0.12166208E-01 0.20054616E+03</pdfrwt>
<pdfrwt beam="2">  1       21 0.81903775E-01 0.20054616E+03</pdfrwt>
<totfact> 0.74392799E+04</totfact>
</mgrwt>
</event>
<event>
12    1  0.2768653E-001  0.2486850E+03  0.7546771E-02  0.1114234E+00
         21   -1    0    0  504  503  0.00000000000E+00  0.00000000000E+00  0.77791616310E+03  0.77791616310E+03  0.00000000000E+00 0.  1.
         21   -1    0    0  502  504 -0.00000000000E+00 -0.00000000000E+00 -0.85323116981E+02  0.85323116981E+02  0.00000000000E+00 0. -1.
          6    2    1    2  502    0 -0.46481047897E+02 -0.17279388672E+03  0.23208337171E+03  0.34015719593E+03  0.17270208862E+03 0.  0.
         24    2    3    3    0    0 -0.81489074905E+02 -0.65379038791E+02  0.15510622112E+03  0.20336873434E+03  0.79912541154E+02 0.  0.
         -6    2    1    2    0  503  0.46481047897E+02  0.17279388672E+03  0.46050967440E+03  0.52308208415E+03  0.17183565242E+03 0.  0.
        -24    2    5    5    0    0  0.61288834529E+02  0.39428589506E+02  0.25982056681E+03  0.28162032537E+03  0.80575094286E+02 0.  0.
          2    1    4    4  501    0 -0.75100548546E+02 -0.69957208697E+02  0.86246106091E+02  0.13406153161E+03  0.00000000000E+00 0. -1.
         -1    1    4    4    0  501 -0.63885263589E+01  0.45781699053E+01  0.68860115028E+02  0.69307202731E+02  0.00000000000E+00 0.  1.
          5    1    3    3  502    0  0.35008027008E+02 -0.10741484793E+03  0.76977150595E+02  0.13678846159E+03  0.47000000000E+01 0. -1.
         11    1    6    6    0    0  0.14272908676E+02 -0.21649392132E+02  0.32436465600E+02  0.41527537880E+02  0.00000000000E+00 0. -1.
        -12    1    6    6    0    0  0.47015925853E+02  0.61077981638E+02  0.22738410121E+03  0.24009278749E+03  0.00000000000E+00 0.  1.
         -5    1    5    5    0  503 -0.14807786632E+02  0.13336529721E+03  0.20068910760E+03  0.24146175878E+03  0.47000000000E+01 0.  1.
<mgrwt>
<rscale>  2 0.24853463E+03</rscale>
<asrwt>0</asrwt>
<pdfrwt beam="1">  1       21 0.11967940E+00 0.24868499E+03</pdfrwt>
<pdfrwt beam="2">  1       21 0.13126634E-01 0.24868499E+03</pdfrwt>
<totfact> 0.25743120E+04</totfact>
</mgrwt>
</event>
<event>
12    1  0.2768653E-001  0.1900683E+03  0.7546771E-02  0.1158708E+00
         21   -1    0    0  504  503  0.00000000000E+00  0.00000000000E+00  0.10321783300E+04  0.10321783300E+04  0.00000000000E+00 0.  1.
         21   -1    0    0  502  504 -0.00000000000E+00 -0.00000000000E+00 -0.38256758811E+02  0.38256758811E+02  0.00000000000E+00 0.  1.
          6    2    1    2  502    0 -0.60294421986E+02 -0.48863263200E+02  0.33326873185E+03  0.38298462639E+03  0.17200622258E+03 0.  0.
         24    2    3    3    0    0 -0.92094207790E+02 -0.21709232710E+01  0.16547412538E+03  0.20587302048E+03  0.80721486461E+02 0.  0.
         -6    2    1    2    0  503  0.60294421986E+02  0.48863263200E+02  0.66065283930E+03  0.68745046238E+03  0.17350195487E+03 0.  0.
        -24    2    5    5    0    0  0.10029072222E+03  0.61444088118E+02  0.56983715872E+03  0.58731276206E+03  0.79926767035E+02 0.  0.
          2    1    4    4  501    0 -0.43554985176E+02 -0.15490141641E+02  0.14384235191E+03  0.15108806513E+03  0.00000000000E+00 0. -1.
         -1    1    4    4    0  501 -0.48539222614E+02  0.13319218370E+02  0.21631773475E+02  0.54784955359E+02  0.00000000000E+00 0.  1.
          5    1    3    3  502    0  0.31799785804E+02 -0.46692339929E+02  0.16779460647E+03  0.17711160590E+03  0.47000000000E+01 0. -1.
         11    1    6    6    0    0  0.55948723105E+01  0.14786327558E+01 -0.73689346351E+00  0.58336920534E+01  0.00000000000E+00 0. -1.
        -12    1    6    6    0    0  0.94695849907E+02  0.59965455362E+02  0.57057405219E+03  0.58147907001E+03  0.00000000000E+00 0.  1.
         -5    1    5    5    0  503 -0.39996300232E+02 -0.12580824919E+02  0.90815680573E+02  0.10013770032E+03  0.47000000000E+01 0.  1.
<mgrwt>
<rscale>  2 0.18972630E+03</rscale>
<asrwt>0</asrwt>
<pdfrwt beam="1">  1       21 0.15879665E+00 0.19006831E+03</pdfrwt>
<pdfrwt beam="2">  1       21 0.58856560E-02 0.19006831E+03</pdfrwt>
<totfact> 0.52420755E+04</totfact>
</mgrwt>
</event>
<event>
12    1  0.2768653E-001  0.1838266E+03  0.7546771E-02  0.1164335E+00
         21   -1    0    0  504  503  0.00000000000E+00  0.00000000000E+00  0.96714870420E+02  0.96714870420E+02  0.00000000000E+00 0.  1.
         21   -1    0    0  502  504 -0.00000000000E+00 -0.00000000000E+00 -0.10041671922E+04  0.10041671922E+04  0.00000000000E+00 0.  1.
          6    2    1    2  502    0  0.41116050647E+02  0.45308243870E+02 -0.89904474253E+03  0.91764571234E+03  0.17334600577E+03 0.  0.
         24    2    3    3    0    0  0.88305576185E+02  0.19778969248E+02 -0.47576509349E+03  0.49095338000E+03  0.80583588536E+02 0.  0.
         -6    2    1    2    0  503 -0.41116050647E+02 -0.45308243870E+02 -0.84075792089E+01  0.18323635024E+03  0.17251523434E+03 0.  0.
        -24    2    5    5    0    0 -0.36633689270E+02 -0.30464586151E+02  0.60533987763E+02  0.11241647030E+03  0.81871734572E+02 0.  0.
          2    1    4    4  501    0  0.59917279530E+02  0.34913602655E+02 -0.17146588428E+03  0.18495834533E+03  0.00000000000E+00 0. -1.
         -1    1    4    4    0  501  0.28388296655E+02 -0.15134633407E+02 -0.30429920922E+03  0.30599503467E+03  0.00000000000E+00 0.  1.
          5    1    3    3  502    0 -0.47189525538E+02  0.25529274622E+02 -0.42327964904E+03  0.42669233234E+03  0.47000000000E+01 0. -1.
         11    1    6    6    0    0  0.22889167189E+02  0.22183562340E+01  0.25762996988E+01  0.23140276556E+02  0.00000000000E+00 0. -1.
        -12    1    6    6    0    0 -0.59522856459E+02 -0.32682942385E+02  0.57957688064E+02  0.89276193746E+02  0.00000000000E+00 0.  1.
         -5    1    5    5    0  503 -0.44823613766E+01 -0.14843657719E+02 -0.68941566972E+02  0.70819879939E+02  0.47000000000E+01 0.  1.
<mgrwt>
<rscale>  2 0.18363045E+03</rscale>
<asrwt>0</asrwt>
<pdfrwt beam="1">  1       21 0.14879210E-01 0.18382656E+03</pdfrwt>
<pdfrwt beam="2">  1       21 0.15448727E+00 0.18382656E+03</pdfrwt>
<totfact> 0.11081089E+04</totfact>
</mgrwt>
</event>
<event>
12    1  0.2768653E-001  0.2805921E+03  0.7546771E-02  0.1095518E+00
         21   -1    0    0  504  503  0.00000000000E+00  0.00000000000E+00  0.23656645464E+03  0.23656645464E+03  0.00000000000E+00 0.  1.
         21   -1    0    0  502  504 -0.00000000000E+00 -0.00000000000E+00 -0.68585137002E+03  0.68585137002E+03  0.00000000000E+00 0. -1.
          6    2    1    2  502    0  0.15142001385E+03  0.15937516579E+03 -0.55637715179E+03  0.62312717465E+03  0.17436592754E+03 0.  0.
         24    2    3    3    0    0  0.13496111694E+03  0.50120555003E+02 -0.27539726741E+03  0.32116815310E+03  0.81109521950E+02 0.  0.
         -6    2    1    2    0  503 -0.15142001385E+03 -0.15937516579E+03  0.10709223641E+03  0.29929065002E+03  0.17256211063E+03 0.  0.
        -24    2    5    5    0    0 -0.12056873333E+03 -0.15292170957E+03  0.14072709292E+03  0.25295662171E+03  0.79126917489E+02 0.  0.
          4    1    4    4  501    0  0.12888519844E+02  0.11954858524E+01 -0.10563478420E+03  0.10642485971E+03  0.00000000000E+00 0. -1.
         -3    1    4    4    0  501  0.12207259710E+03  0.48925069150E+02 -0.16976248320E+03  0.21474329339E+03  0.00000000000E+00 0.  1.
          5    1    3    3  502    0  0.16458896904E+02  0.10925461079E+03 -0.28097988438E+03  0.30195902154E+03  0.47000000000E+01 0. -1.
         13    1    6    6    0    0 -0.19333073364E+02 -0.55475742912E+02  0.73249202706E+01  0.59202873531E+02  0.00000000000E+00 0. -1.
        -14    1    6    6    0    0 -0.10123565996E+03 -0.97445966662E+02  0.13340217265E+03  0.19375374818E+03  0.00000000000E+00 0.  1.
         -5    1    5    5    0  503 -0.30851280520E+02 -0.64534562165E+01 -0.33634856506E+02  0.46334028306E+02  0.47000000000E+01 0.  1.
<mgrwt>
<rscale>  2 0.28031237E+03</rscale>
<asrwt>0</asrwt>
<pdfrwt beam="1">  1       21 0.36394839E-01 0.28059213E+03</pdfrwt>
<pdfrwt beam="2">  1       21 0.10551560E+00 0.28059213E+03</pdfrwt>
<totfact> 0.49547711E+03</totfact>
</mgrwt>
</event>
<event>
12    1  0.2768653E-001  0.1852259E+03  0.7546771E-02  0.1162887E+00
         21   -1    0    0  504  503  0.00000000000E+00  0.00000000000E+00  0.14525648480E+03  0.14525648480E+03  0.00000000000E+00 0.  1.
         21   -1    0    0  502  504 -0.00000000000E+00 -0.00000000000E+00 -0.25737111288E+03  0.25737111288E+03  0.00000000000E+00 0.  1.
          6    2    1    2  502    0  0.64117145119E+02 -0.14128836502E+02  0.20738214850E+01  0.18503244542E+03  0.17297997804E+03 0.  0.
         24    2    3    3    0    0  0.34744030103E+02 -0.36695611867E+02  0.62742778525E+02  0.11379445286E+03  0.80366695131E+02 0.  0.
         -6    2    1    2    0  503 -0.64117145119E+02  0.14128836502E+02 -0.11418844957E+03  0.21759515226E+03  0.17319935322E+03 0.  0.
        -24    2    5    5    0    0 -0.13633227433E+01  0.66242339767E+02 -0.72185461919E+02  0.12572458888E+03  0.78778328933E+02 0.  0.
          4    1    4    4  501    0  0.27457903170E+02 -0.53086979214E+02  0.13343179452E+02  0.61238911212E+02  0.00000000000E+00 0. -1.
         -3    1    4    4    0  501  0.72861269330E+01  0.16391367347E+02  0.49399599073E+02  0.52555541647E+02  0.00000000000E+00 0.  1.
          5    1    3    3  502    0  0.29373115015E+02  0.22566775365E+02 -0.60668957040E+02  0.71237992563E+02  0.47000000000E+01 0. -1.
         13    1    6    6    0    0 -0.38104366913E+02  0.28393932467E+02 -0.48507867191E+02  0.67905606235E+02  0.00000000000E+00 0. -1.
        -14    1    6    6    0    0  0.36741044170E+02  0.37848407299E+02 -0.23677594729E+02  0.57818982643E+02  0.00000000000E+00 0.  1.
         -5    1    5    5    0  503 -0.62753822375E+02 -0.52113503265E+02 -0.42002987647E+02  0.91870563384E+02  0.47000000000E+01 0.  1.
<mgrwt>
<rscale>  2 0.18517464E+03</rscale>
<asrwt>0</asrwt>
<pdfrwt beam="1">  1       21 0.22347152E-01 0.18522594E+03</pdfrwt>
<pdfrwt beam="2">  1       21 0.39595556E-01 0.18522594E+03</pdfrwt>
<totfact> 0.11553422E+05</totfact>
</mgrwt>
</event>
<event>
12    1  0.2768653E-001  0.2210937E+03  0.7546771E-02  0.1133524E+00
         21   -1    0    0  504  503  0.00000000000E+00  0.00000000000E+00  0.83190134453E+03  0.83190134453E+03  0.00000000000E+00 0. -1.
         21   -1    0    0  502  504 -0.00000000000E+00 -0.00000000000E+00 -0.94624319470E+02  0.94624319470E+02  0.00000000000E+00 0. -1.
          6    2    1    2  502    0 -0.25223868519E+02  0.12441612158E+03  0.82134975486E+02  0.23585712906E+03  0.18101606636E+03 0.  0.
         24    2    3    3    0    0 -0.74458738067E+02  0.13077084117E+03  0.70332008669E+02  0.18461403327E+03  0.80564466511E+02 0.  0.
         -6    2    1    2    0  503  0.25223868519E+02 -0.12441612158E+03  0.65514204958E+03  0.69066853494E+03  0.17803456176E+03 0.  0.
        -24    2    5    5    0    0  0.58705352973E+02 -0.14348764544E+02  0.30264878701E+03  0.31984590478E+03  0.83981599249E+02 0.  0.
          4    1    4    4  501    0 -0.79836936331E+02  0.12887834373E+03  0.44268726091E+02  0.15793442942E+03  0.00000000000E+00 0. -1.
         -3    1    4    4    0  501  0.53781982640E+01  0.18924974337E+01  0.26063282579E+02  0.26679603855E+02  0.00000000000E+00 0.  1.
          5    1    3    3  502    0  0.49234869548E+02 -0.63547195866E+01  0.11802966817E+02  0.51243095790E+02  0.47000000000E+01 0. -1.
         11    1    6    6    0    0  0.21636988326E+02  0.18352285805E+02  0.23137779620E+03  0.23311081105E+03  0.00000000000E+00 0. -1.
        -12    1    6    6    0    0  0.37068364646E+02 -0.32701050349E+02  0.71270990819E+02  0.86735093727E+02  0.00000000000E+00 0.  1.
         -5    1    5    5    0  503 -0.33481484454E+02 -0.11006735704E+03  0.35249326256E+03  0.37082263016E+03  0.47000000000E+01 0.  1.
<mgrwt>
<rscale>  2 0.22048260E+03</rscale>
<asrwt>0</asrwt>
<pdfrwt beam="1">  1       21 0.12798482E+00 0.22109372E+03</pdfrwt>
<pdfrwt beam="2">  1       21 0.14557588E-01 0.22109372E+03</pdfrwt>
<totfact> 0.18290566E+04</totfact>
</mgrwt>
</event>
<event>
12    1  0.2768653E-001  0.1743369E+03  0.7546771E-02  0.1173746E+00
         21   -1    0    0  504  503  0.00000000000E+00  0.00000000000E+00  0.15533917640E+03  0.15533917640E+03  0.00000000000E+00 0. -1.
         21   -1    0    0  502  504 -0.00000000000E+00 -0.00000000000E+00 -0.19466901871E+03  0.19466901871E+03  0.00000000000E+00 0. -1.
          6    2    1    2  502    0  0.16623948239E+00 -0.44994000909E+01 -0.10480549347E+02  0.17465163891E+03  0.17427874460E+03 0.  0.
         24    2    3    3    0    0 -0.22822989245E+02 -0.63763363671E+02  0.10055375695E+02  0.10768495888E+03  0.83116089918E+02 0.  0.
         -6    2    1    2    0  503 -0.16623948239E+00  0.44994000909E+01 -0.28849292960E+02  0.17535655621E+03  0.17290855347E+03 0.  0.
        -24    2    5    5    0    0 -0.78111534788E+01 -0.59407016329E+02 -0.35932639069E+02  0.11043553834E+03  0.85525702975E+02 0.  0.
          4    1    4    4  501    0 -0.60730209231E+01  0.68055031924E+01 -0.25374758078E+02  0.26964324660E+02  0.00000000000E+00 0. -1.
         -3    1    4    4    0  501 -0.16749968322E+02 -0.70568866864E+02  0.35430133774E+02  0.80720634217E+02  0.00000000000E+00 0.  1.
          5    1    3    3  502    0  0.22989228727E+02  0.59263963580E+02 -0.20535925042E+02  0.66966680028E+02  0.47000000000E+01 0. -1.
         11    1    6    6    0    0  0.23380536484E+02 -0.60085699526E+02 -0.22356193622E+01  0.64513089895E+02  0.00000000000E+00 0. -1.
        -12    1    6    6    0    0 -0.31191689963E+02  0.67868319791E+00 -0.33697019707E+02  0.45922448441E+02  0.00000000000E+00 0.  1.
         -5    1    5    5    0  503  0.76449139964E+01  0.63906416419E+02  0.70833461086E+01  0.64921017873E+02  0.47000000000E+01 0.  1.
<mgrwt>
<rscale>  2 0.17399345E+03</rscale>
<asrwt>0</asrwt>
<pdfrwt beam="1">  1       21 0.23898335E-01 0.17433690E+03</pdfrwt>
<pdfrwt beam="2">  1       21 0.29949079E-01 0.17433690E+03</pdfrwt>
<totfact> 0.17743350E+05</totfact>
</mgrwt>
</event>
<event>
12    1  0.2768653E-001  0.1909496E+03  0.7546771E-02  0.1158218E+00
         21   -1    0    0  504  503  0.00000000000E+00  0.00000000000E+00  0.38694391987E+02  0.38694391987E+02  0.00000000000E+00 0. -1.
         21   -1    0    0  502  504 -0.00000000000E+00 -0.00000000000E+00 -0.14096598397E+04  0.14096598397E+04  0.00000000000E+00 0. -1.
          6    2    1    2  502    0  0.69734681564E+02  0.25248711028E+02 -0.11115683370E+04  0.11278501392E+04  0.17595836311E+03 0.  0.
         24    2    3    3    0    0  0.37841742244E+02  0.24841004963E+02 -0.10755265266E+04  0.10794928451E+04  0.80612778954E+02 0.  0.
         -6    2    1    2    0  503 -0.69734681564E+02 -0.25248711028E+02 -0.25939711075E+03  0.32050409249E+03  0.17301904234E+03 0.  0.
        -24    2    5    5    0    0 -0.98678786230E+02  0.21217587126E+02 -0.14606299265E+03  0.19455334661E+03  0.79554497054E+02 0.  0.
          2    1    4    4  501    0  0.55364356646E+02  0.38629861396E+01 -0.91288548989E+03  0.91457096625E+03  0.00000000000E+00 0. -1.
         -1    1    4    4    0  501 -0.17522614402E+02  0.20978018823E+02 -0.16264103671E+03  0.16492187882E+03  0.00000000000E+00 0.  1.
          5    1    3    3  502    0  0.31892939320E+02  0.40770606458E+00 -0.36041810354E+02  0.48357294137E+02  0.47000000000E+01 0. -1.
         13    1    6    6    0    0 -0.93250902437E+02 -0.10007176816E+02 -0.12589064493E+03  0.15698512309E+03  0.00000000000E+00 0. -1.
        -14    1    6    6    0    0 -0.54278837937E+01  0.31224763941E+02 -0.20172347721E+02  0.37568223517E+02  0.00000000000E+00 0.  1.
         -5    1    5    5    0  503  0.28944104666E+02 -0.46466298153E+02 -0.11333411811E+03  0.12595074587E+03  0.47000000000E+01 0.  1.
<mgrwt>
<rscale>  2 0.19026975E+03</rscale>
<asrwt>0</asrwt>
<pdfrwt beam="1">  1       21 0.59529832E-02 0.19094965E+03</pdfrwt>
<pdfrwt beam="2">  1       21 0.21687075E+00 0.19094965E+03</pdfrwt>
<totfact> 0.21045013E+04</totfact>
</mgrwt>
</event>
<event>
12    1  0.2768653E-001  0.1994683E+03  0.7546771E-02  0.1150366E+00
         21   -1    0    0  504  503  0.00000000000E+00  0.00000000000E+00  0.62874715059E+03  0.62874715059E+03  0.00000000000E+00 0. -1.
         21   -1    0    0  502  504 -0.00000000000E+00 -0.00000000000E+00 -0.63189293875E+02  0.63189293875E+02  0.00000000000E+00 0.  1.
          6    2    1    2  502    0  0.52833605221E+02 -0.83841407299E+02  0.26400738456E+03  0.33038381089E+03  0.17214177871E+03 0.  0.
         24    2    3    3    0    0  0.11570094988E+02  0.20803257085E+02  0.11730779859E+03  0.14546209345E+03  0.82652637073E+02 0.  0.
         -6    2    1    2    0  503 -0.52833605221E+02  0.83841407299E+02  0.30155047216E+03  0.36155263357E+03  0.17310935321E+03 0.  0.
        -24    2    5    5    0    0 -0.82388592426E+02  0.10467463991E+03  0.27266442178E+03  0.31503366157E+03  0.84591137928E+02 0.  0.
          2    1    4    4  501    0 -0.11270759563E+02  0.34557867754E+00 -0.96575964648E+01  0.14846501784E+02  0.00000000000E+00 0. -1.
         -1    1    4    4    0  501  0.22840854551E+02  0.20457678407E+02  0.12696539506E+03  0.13061559166E+03  0.00000000000E+00 0.  1.
          5    1    3    3  502    0  0.41263510233E+02 -0.10464466438E+03  0.14669958596E+03  0.18492171745E+03  0.47000000000E+01 0. -1.
         11    1    6    6    0    0 -0.57305102388E+02  0.75343320636E+02  0.25610137727E+03  0.27303554011E+03  0.00000000000E+00 0. -1.
        -12    1    6    6    0    0 -0.25083490038E+02  0.29331319276E+02  0.16563044514E+02  0.41998121464E+02  0.00000000000E+00 0.  1.
         -5    1    5    5    0  503  0.29554987205E+02 -0.20833232613E+02  0.28886050374E+02  0.46518972001E+02  0.47000000000E+01 0.  1.
<mgrwt>
<rscale>  2 0.19925823E+03</rscale>
<asrwt>0</asrwt>
<pdfrwt beam="1">  1       21 0.96730327E-01 0.19946834E+03</pdfrwt>
<pdfrwt beam="2">  1       21 0.97214303E-02 0.19946834E+03</pdfrwt>
<totfact> 0.75497576E+04</totfact>
</mgrwt>
</event>
<event>
12    1  0.2768653E-001  0.1734969E+03  0.7546771E-02  0.1174430E+00
         21   -1    0    0  504  503  0.00000000000E+00  0.00000000000E+00  0.10201875163E+04  0.10201875163E+04  0.00000000000E+00 0. -1.
         21   -1    0    0  502  504 -0.00000000000E+00 -0.00000000000E+00 -0.61281293924E+02  0.61281293924E+02  0.00000000000E+00 0. -1.
          6    2    1    2  502    0 -0.10578419605E+01 -0.52450745403E+01  0.89812267622E+02  0.19536479906E+03  0.17341433464E+03 0.  0.
         24    2    3    3    0    0 -0.58248521916E+01 -0.60786250788E+02  0.15449236193E+02  0.10230838021E+03  0.80619033572E+02 0.  0.
         -6    2    1    2    0  503  0.10578419605E+01  0.52450745403E+01  0.86909395475E+03  0.88610401116E+03  0.17270606990E+03 0.  0.
        -24    2    5    5    0    0 -0.48928803727E+02  0.45774856987E+02  0.43561979487E+03  0.44785377979E+03  0.79492370866E+02 0.  0.
          2    1    4    4  501    0 -0.99063471307E+01 -0.76110987547E+02  0.28394465065E+02  0.81836811920E+02  0.00000000000E+00 0. -1.
         -1    1    4    4    0  501  0.40814949391E+01  0.15324736759E+02 -0.12945228872E+02  0.20471568289E+02  0.00000000000E+00 0.  1.
          5    1    3    3  502    0  0.47670102310E+01  0.55541176248E+02  0.74363031430E+02  0.93056418849E+02  0.47000000000E+01 0. -1.
         11    1    6    6    0    0 -0.34178868347E+02  0.63528057123E+02  0.39119507858E+03  0.39779089807E+03  0.00000000000E+00 0. -1.
        -12    1    6    6    0    0 -0.14749935380E+02 -0.17753200136E+02  0.44424716288E+02  0.50062881720E+02  0.00000000000E+00 0.  1.
         -5    1    5    5    0  503  0.49986645687E+02 -0.40529782447E+02  0.43347415988E+03  0.43825023137E+03  0.47000000000E+01 0.  1.
<mgrwt>
<rscale>  2 0.17331961E+03</rscale>
<asrwt>0</asrwt>
<pdfrwt beam="1">  1       21 0.15695191E+00 0.17349686E+03</pdfrwt>
<pdfrwt beam="2">  1       21 0.94278921E-02 0.17349686E+03</pdfrwt>
<totfact> 0.24172430E+04</totfact>
</mgrwt>
</event>
<event>
12    1  0.2768653E-001  0.1839096E+03  0.7546771E-02  0.1164206E+00
         21   -1    0    0  504  503  0.00000000000E+00  0.00000000000E+00  0.87343146100E+03  0.87343146100E+03  0.00000000000E+00 0.  1.
         21   -1    0    0  502  504 -0.00000000000E+00 -0.00000000000E+00 -0.91835834589E+02  0.91835834589E+02  0.00000000000E+00 0.  1.
          6    2    1    2  502    0  0.29431915394E+02 -0.52781721068E+02  0.23604907011E+02  0.18541826260E+03  0.17369684150E+03 0.  0.
         24    2    3    3    0    0 -0.39582699984E+02 -0.66197968551E+02  0.18983909360E+01  0.11168715877E+03  0.80755534590E+02 0.  0.
         -6    2    1    2    0  503 -0.29431915394E+02  0.52781721068E+02  0.75799071940E+03  0.77984903299E+03  0.17309660839E+03 0.  0.
        -24    2    5    5    0    0 -0.79677372097E+02  0.50977479988E+02  0.41267572700E+03  0.43086136103E+03  0.79956673779E+02 0.  0.
          2    1    4    4  501    0 -0.54745202543E+02 -0.75707000325E+02 -0.16487932930E+01  0.93441455570E+02  0.00000000000E+00 0. -1.
         -1    1    4    4    0  501  0.15162502560E+02  0.95090317746E+01  0.35471842290E+01  0.18245703196E+02  0.00000000000E+00 0.  1.
          5    1    3    3  502    0  0.69014615378E+02  0.13416247482E+02  0.21706516075E+02  0.73731103832E+02  0.47000000000E+01 0. -1.
         13    1    6    6    0    0  0.18380726559E+01  0.73387309326E+00 -0.33864271515E+01  0.39223678637E+01  0.00000000000E+00 0. -1.
        -14    1    6    6    0    0 -0.81515444753E+02  0.50243606895E+02  0.41606215415E+03  0.42693899316E+03  0.00000000000E+00 0.  1.
         -5    1    5    5    0  503  0.50245456703E+02  0.18042410802E+01  0.34531499240E+03  0.34898767196E+03  0.47000000000E+01 0.  1.
<mgrwt>
<rscale>  2 0.18376774E+03</rscale>
<asrwt>0</asrwt>
<pdfrwt beam="1">  1       21 0.13437407E+00 0.18390960E+03</pdfrwt>
<pdfrwt beam="2">  1       21 0.14128591E-01 0.18390960E+03</pdfrwt>
<totfact> 0.17486287E+04</totfact>
</mgrwt>
</event>
<event>
12    1  0.2768653E-001  0.1866009E+03  0.7546771E-02  0.1162029E+00
         21   -1    0    0  504  503  0.00000000000E+00  0.00000000000E+00  0.77907775200E+03  0.77907775200E+03  0.00000000000E+00 0.  1.
         21   -1    0    0  502  504 -0.00000000000E+00 -0.00000000000E+00 -0.16442996545E+03  0.16442996545E+03  0.00000000000E+00 0. -1.
          6    2    1    2  502    0 -0.54711191992E+02 -0.41663501959E+02 -0.95599074163E+02  0.20966416718E+03  0.17346676366E+03 0.  0.
         24    2    3    3    0    0 -0.35896665908E+02  0.30332554801E+02  0.32789689378E+01  0.85824044491E+02  0.71738277589E+02 0.  0.
         -6    2    1    2    0  503  0.54711191992E+02  0.41663501959E+02  0.71024686071E+03  0.73384355027E+03  0.17130846796E+03 0.  0.
        -24    2    5    5    0    0  0.90200979654E+01  0.56099886604E+02  0.21404333859E+03  0.23530958890E+03  0.79545536568E+02 0.  0.
          4    1    4    4  501    0  0.66693692099E+01  0.27265162556E+02  0.25311309213E+02  0.37795925031E+02  0.00000000000E+00 0. -1.
         -3    1    4    4    0  501 -0.42566035118E+02  0.30673922448E+01 -0.22032340276E+02  0.48028119460E+02  0.00000000000E+00 0.  1.
          5    1    3    3  502    0 -0.18814526084E+02 -0.71996056760E+02 -0.98878043100E+02  0.12384012269E+03  0.47000000000E+01 0. -1.
         11    1    6    6    0    0 -0.52240192826E+01 -0.19560270874E+02  0.55097226706E+02  0.58699224567E+02  0.00000000000E+00 0. -1.
        -12    1    6    6    0    0  0.14244117248E+02  0.75660157477E+02  0.15894611188E+03  0.17661036433E+03  0.00000000000E+00 0.  1.
         -5    1    5    5    0  503  0.45691094027E+02 -0.14436384645E+02  0.49620352212E+03  0.49853396137E+03  0.47000000000E+01 0.  1.
<mgrwt>
<rscale>  2 0.18609766E+03</rscale>
<asrwt>0</asrwt>
<pdfrwt beam="1">  1       21 0.11985811E+00 0.18660086E+03</pdfrwt>
<pdfrwt beam="2">  1       21 0.25296918E-01 0.18660086E+03</pdfrwt>
<totfact> 0.78794355E+03</totfact>
</mgrwt>
</event>
<event>
12    1  0.2768653E-001  0.3057311E+03  0.7546771E-02  0.1082536E+00
         21   -1    0    0  504  503  0.00000000000E+00  0.00000000000E+00  0.13755614549E+03  0.13755614549E+03  0.00000000000E+00 0. -1.
         21   -1    0    0  502  504 -0.00000000000E+00 -0.00000000000E+00 -0.94785959870E+03  0.94785959870E+03  0.00000000000E+00 0.  1.
          6    2    1    2  502    0  0.13314564729E+03 -0.21413552904E+03 -0.69562135216E+03  0.75984244754E+03  0.17288635373E+03 0.  0.
         24    2    3    3    0    0  0.84635782183E+02 -0.67190530327E+02 -0.44900145438E+03  0.46865607484E+03  0.79739748319E+02 0.  0.
         -6    2    1    2    0  503 -0.13314564729E+03  0.21413552904E+03 -0.11468210105E+03  0.32557329666E+03  0.17106781991E+03 0.  0.
        -24    2    5    5    0    0 -0.38025182772E+02  0.13307807045E+03 -0.11952588766E+03  0.20041832620E+03  0.82008416005E+02 0.  0.
          4    1    4    4  501    0  0.33689940767E+02  0.15476181855E+02 -0.11538294369E+03  0.12119301963E+03  0.00000000000E+00 0. -1.
         -3    1    4    4    0  501  0.50945841416E+02 -0.82666712182E+02 -0.33361851069E+03  0.34746305521E+03  0.00000000000E+00 0.  1.
          5    1    3    3  502    0  0.48509865105E+02 -0.14694499871E+03 -0.24661989778E+03  0.29118637269E+03  0.47000000000E+01 0. -1.
         13    1    6    6    0    0 -0.46652695267E+01 -0.79889258301E+01  0.38930329032E+01  0.10037100222E+02  0.00000000000E+00 0. -1.
        -14    1    6    6    0    0 -0.33359913245E+02  0.14106699628E+03 -0.12341892056E+03  0.19038122598E+03  0.00000000000E+00 0.  1.
         -5    1    5    5    0  503 -0.95120464516E+02  0.81057458590E+02  0.48437866116E+01  0.12515497046E+03  0.47000000000E+01 0.  1.
<mgrwt>
<rscale>  2 0.30547457E+03</rscale>
<asrwt>0</asrwt>
<pdfrwt beam="1">  1       21 0.21162484E-01 0.30573106E+03</pdfrwt>
<pdfrwt beam="2">  1       21 0.14582455E+00 0.30573106E+03</pdfrwt>
<totfact> 0.62097071E+03</totfact>
</mgrwt>
</event>
<event>
12    1  0.2768653E-001  0.3219398E+03  0.7546771E-02  0.1075071E+00
         21   -1    0    0  504  503  0.00000000000E+00  0.00000000000E+00  0.10171684461E+04  0.10171684461E+04  0.00000000000E+00 0. -1.
         21   -1    0    0  502  504 -0.00000000000E+00 -0.00000000000E+00 -0.13604856636E+03  0.13604856636E+03  0.00000000000E+00 0.  1.
          6    2    1    2  502    0 -0.23423553531E+03 -0.13061839087E+03  0.14668486807E+03  0.35131923043E+03  0.17315109329E+03 0.  0.
         24    2    3    3    0    0 -0.16480860116E+03 -0.29968585094E+02  0.43978295305E+02  0.19156563054E+03  0.81873739591E+02 0.  0.
         -6    2    1    2    0  503  0.23423553531E+03  0.13061839087E+03  0.73443501170E+03  0.80189778207E+03  0.17809496466E+03 0.  0.
        -24    2    5    5    0    0  0.11780742458E+03 -0.10340981678E+02  0.37153328144E+03  0.39551765767E+03  0.66420728127E+02 0.  0.
          2    1    4    4  501    0 -0.70852750180E+02 -0.16599707590E+02  0.61234986104E+02  0.95107234337E+02  0.00000000000E+00 0. -1.
         -1    1    4    4    0  501 -0.93955850985E+02 -0.13368877504E+02 -0.17256690799E+02  0.96458396199E+02  0.00000000000E+00 0.  1.
          5    1    3    3  502    0 -0.69426934151E+02 -0.10064980578E+03  0.10270657276E+03  0.15975359989E+03  0.47000000000E+01 0. -1.
         13    1    6    6    0    0  0.84878433501E+02 -0.26733899043E+02  0.32039864440E+03  0.33252720365E+03  0.00000000000E+00 0. -1.
        -14    1    6    6    0    0  0.32928991075E+02  0.16392917365E+02  0.51134637035E+02  0.62990454021E+02  0.00000000000E+00 0.  1.
         -5    1    5    5    0  503  0.11642811074E+03  0.14095937255E+03  0.36290173026E+03  0.40638012440E+03  0.47000000000E+01 0.  1.
<mgrwt>
<rscale>  2 0.32126062E+03</rscale>
<asrwt>0</asrwt>
<pdfrwt beam="1">  1       21 0.15648745E+00 0.32193985E+03</pdfrwt>
<pdfrwt beam="2">  1       21 0.20930549E-01 0.32193985E+03</pdfrwt>
<totfact> 0.52015449E+03</totfact>
</mgrwt>
</event>
<event>
12    1  0.2768653E-001  0.2053713E+03  0.7546771E-02  0.1145632E+00
         21   -1    0    0  504  503  0.00000000000E+00  0.00000000000E+00  0.11101695352E+03  0.11101695352E+03  0.00000000000E+00 0. -1.
         21   -1    0    0  502  504 -0.00000000000E+00 -0.00000000000E+00 -0.43909616900E+03  0.43909616900E+03  0.00000000000E+00 0. -1.
          6    2    1    2  502    0 -0.11068732474E+03 -0.19927468778E+02 -0.26823257865E+03  0.33782554231E+03  0.17183885741E+03 0.  0.
         24    2    3    3    0    0 -0.38209147304E+02 -0.64847695171E+02 -0.19102566858E+03  0.22269991568E+03  0.86251283364E+02 0.  0.
         -6    2    1    2    0  503  0.11068732474E+03  0.19927468778E+02 -0.59846636833E+02  0.21228758021E+03  0.16981050881E+03 0.  0.
        -24    2    5    5    0    0  0.13622693290E+03 -0.16342535843E+02 -0.40662952288E+02  0.16372948539E+03  0.79555093937E+02 0.  0.
          4    1    4    4  501    0 -0.37144588606E+02 -0.15951327168E+02 -0.15942685190E+03  0.16447214477E+03  0.00000000000E+00 0. -1.
         -3    1    4    4    0  501 -0.10645586983E+01 -0.48896368003E+02 -0.31598816683E+02  0.58227770908E+02  0.00000000000E+00 0.  1.
          5    1    3    3  502    0 -0.72478177432E+02  0.44920226393E+02 -0.77206910075E+02  0.11512562663E+03  0.47000000000E+01 0. -1.
         13    1    6    6    0    0  0.45741999260E+02  0.15116915334E+02 -0.47543593371E+02  0.67684894151E+02  0.00000000000E+00 0. -1.
        -14    1    6    6    0    0  0.90484933638E+02 -0.31459451177E+02  0.68806410838E+01  0.96044591235E+02  0.00000000000E+00 0.  1.
         -5    1    5    5    0  503 -0.25539608162E+02  0.36270004621E+02 -0.19183684546E+02  0.48558094825E+02  0.47000000000E+01 0.  1.
<mgrwt>
<rscale>  2 0.20494647E+03</rscale>
<asrwt>0</asrwt>
<pdfrwt beam="1">  1       21 0.17079531E-01 0.20537132E+03</pdfrwt>
<pdfrwt beam="2">  1       21 0.67553256E-01 0.20537132E+03</pdfrwt>
<totfact> 0.61604605E+04</totfact>
</mgrwt>
</event>
<event>
12    1  0.2768653E-001  0.2604144E+03  0.7546771E-02  0.1107039E+00
         21   -1    0    0  504  503  0.00000000000E+00  0.00000000000E+00  0.26197959450E+03  0.26197959450E+03  0.00000000000E+00 0.  1.
         21   -1    0    0  502  504 -0.00000000000E+00 -0.00000000000E+00 -0.30310891598E+03  0.30310891598E+03  0.00000000000E+00 0.  1.
          6    2    1    2  502    0 -0.18846468068E+03  0.40450529390E+02 -0.12964554000E+03  0.29004166663E+03  0.17366928672E+03 0.  0.
         24    2    3    3    0    0 -0.18494915997E+03  0.20710690831E+02 -0.15682739462E+03  0.25593941842E+03  0.79215085138E+02 0.  0.
         -6    2    1    2    0  503  0.18846468068E+03 -0.40450529390E+02  0.88516218520E+02  0.27504684385E+03  0.17510129691E+03 0.  0.
        -24    2    5    5    0    0  0.97306543854E+02  0.45638495057E+02  0.56269137059E+02  0.14549727688E+03  0.80323135436E+02 0.  0.
          4    1    4    4  501    0 -0.14172828065E+03  0.15499886983E+02 -0.70046206944E+02  0.15885094630E+03  0.00000000000E+00 0. -1.
         -3    1    4    4    0  501 -0.43220879317E+02  0.52108038476E+01 -0.86781187673E+02  0.97088472125E+02  0.00000000000E+00 0.  1.
          5    1    3    3  502    0 -0.35155207102E+01  0.19739838559E+02  0.27181854621E+02  0.34102248208E+02  0.47000000000E+01 0. -1.
         11    1    6    6    0    0  0.11144342171E+03  0.44041568310E+02  0.48367860139E+02  0.12922362739E+03  0.00000000000E+00 0. -1.
        -12    1    6    6    0    0 -0.14136877859E+02  0.15969267462E+01  0.79012769205E+01  0.16273649487E+02  0.00000000000E+00 0.  1.
         -5    1    5    5    0  503  0.91158136824E+02 -0.86089024447E+02  0.32247081460E+02  0.12954956697E+03  0.47000000000E+01 0.  1.
<mgrwt>
<rscale>  2 0.26017386E+03</rscale>
<asrwt>0</asrwt>
<pdfrwt beam="1">  1       21 0.40304553E-01 0.26041437E+03</pdfrwt>
<pdfrwt beam="2">  1       21 0.46632141E-01 0.26041437E+03</pdfrwt>
<totfact> 0.25237804E+04</totfact>
</mgrwt>
</event>
<event>
12    1  0.2768653E-001  0.1993452E+03  0.7546771E-02  0.1153455E+00
         21   -1    0    0  504  503  0.00000000000E+00  0.00000000000E+00  0.41821323707E+03  0.41821323707E+03  0.00000000000E+00 0. -1.
         21   -1    0    0  502  504 -0.00000000000E+00 -0.00000000000E+00 -0.10703616964E+03  0.10703616964E+03  0.00000000000E+00 0.  1.
          6    2    1    2  502    0 -0.97647503382E+02 -0.58833908630E+01  0.27017977630E+03  0.33576122657E+03  0.17369179757E+03 0.  0.
         24    2    3    3    0    0  0.10522419860E+02 -0.19713708049E+01  0.17241585739E+03  0.18983004404E+03  0.78699492489E+02 0.  0.
         -6    2    1    2    0  503  0.97647503382E+02  0.58833908630E+01  0.40997291131E+02  0.18948818014E+03  0.15702020038E+03 0.  0.
        -24    2    5    5    0    0  0.55489735069E+02  0.75269294784E+01  0.85056805258E+02  0.12830558921E+03  0.78050616498E+02 0.  0.
          2    1    4    4  501    0  0.68886301687E+01  0.64926961378E+01 -0.59798223661E+01  0.11196722925E+02  0.00000000000E+00 0. -1.
         -1    1    4    4    0  501  0.36337896908E+01 -0.84640669426E+01  0.17839567976E+03  0.17863332111E+03  0.00000000000E+00 0.  1.
          5    1    3    3  502    0 -0.10816992324E+03 -0.39120200582E+01  0.97763918910E+02  0.14593118253E+03  0.47000000000E+01 0. -1.
         13    1    6    6    0    0  0.61546082130E+02  0.11703881950E+02  0.96290513139E+02  0.11487716918E+03  0.00000000000E+00 0. -1.
        -14    1    6    6    0    0 -0.60563470609E+01 -0.41769524719E+01 -0.11233707881E+02  0.13428420027E+02  0.00000000000E+00 0.  1.
         -5    1    5    5    0  503  0.42157768313E+02 -0.16435386154E+01 -0.44059514127E+02  0.61182590934E+02  0.47000000000E+01 0.  1.
<mgrwt>
<rscale>  2 0.19565781E+03</rscale>
<asrwt>0</asrwt>
<pdfrwt beam="1">  1       21 0.64340497E-01 0.19934515E+03</pdfrwt>
<pdfrwt beam="2">  1       21 0.16467103E-01 0.19934515E+03</pdfrwt>
<totfact> 0.73487671E+04</totfact>
</mgrwt>
</event>
<event>
12    1  0.2768653E-001  0.2186879E+03  0.7546771E-02  0.1135013E+00
         21   -1    0    0  504  503  0.00000000000E+00  0.00000000000E+00  0.54524934417E+02  0.54524934417E+02  0.00000000000E+00 0. -1.
         21   -1    0    0  502  504 -0.00000000000E+00 -0.00000000000E+00 -0.13370079442E+04  0.13370079442E+04  0.00000000000E+00 0.  1.
          6    2    1    2  502    0 -0.26987511963E+02  0.13108344030E+03 -0.10514500370E+04  0.10739513780E+04  0.17295429403E+03 0.  0.
         24    2    3    3    0    0 -0.41732800886E+02  0.14115675761E+03 -0.64901584825E+03  0.67109375853E+03  0.86477769246E+02 0.  0.
         -6    2    1    2    0  503  0.26987511963E+02 -0.13108344030E+03 -0.23103297279E+03  0.31758150065E+03  0.17196098662E+03 0.  0.
        -24    2    5    5    0    0  0.28328850147E+02 -0.54014737295E+02 -0.21629011652E+03  0.23896327133E+03  0.81252168877E+02 0.  0.
          4    1    4    4  501    0 -0.45367715312E+02  0.37511106398E+02 -0.34213877710E+03  0.34716603447E+03  0.00000000000E+00 0. -1.
         -3    1    4    4    0  501  0.36349144266E+01  0.10364565121E+03 -0.30687707116E+03  0.32392772407E+03  0.00000000000E+00 0.  1.
          5    1    3    3  502    0  0.14745288922E+02 -0.10073317310E+02 -0.40243418876E+03  0.40285761945E+03  0.47000000000E+01 0. -1.
         11    1    6    6    0    0  0.24223210633E+02 -0.21892101767E+02 -0.16531482425E+02  0.36596693352E+02  0.00000000000E+00 0. -1.
        -12    1    6    6    0    0  0.41056395144E+01 -0.32122635528E+02 -0.19975863409E+03  0.20236657798E+03  0.00000000000E+00 0.  1.
         -5    1    5    5    0  503 -0.13413381843E+01 -0.77068703000E+02 -0.14742856275E+02  0.78618229320E+02  0.47000000000E+01 0.  1.
<mgrwt>
<rscale>  2 0.21849142E+03</rscale>
<asrwt>0</asrwt>
<pdfrwt beam="1">  1       21 0.83884517E-02 0.21868786E+03</pdfrwt>
<pdfrwt beam="2">  1       21 0.20569352E+00 0.21868786E+03</pdfrwt>
<totfact> 0.13367890E+04</totfact>
</mgrwt>
</event>
<event>
12    1  0.2768653E-001  0.1792091E+03  0.7546771E-02  0.1168640E+00
         21   -1    0    0  504  503  0.00000000000E+00  0.00000000000E+00  0.12823249055E+03  0.12823249055E+03  0.00000000000E+00 0.  1.
         21   -1    0    0  502  504 -0.00000000000E+00 -0.00000000000E+00 -0.32754052478E+03  0.32754052478E+03  0.00000000000E+00 0.  1.
          6    2    1    2  502    0  0.44499388487E+02  0.19489734939E+02 -0.21055491772E+03  0.27649463526E+03  0.17249888292E+03 0.  0.
         24    2    3    3    0    0  0.58831985167E+02  0.25201474370E+02 -0.22962735822E+03  0.25151673940E+03  0.80222376973E+02 0.  0.
         -6    2    1    2    0  503 -0.44499388487E+02 -0.19489734939E+02  0.11246883487E+02  0.17927838007E+03  0.17220394835E+03 0.  0.
        -24    2    5    5    0    0  0.17767906845E+02  0.37028539402E+02 -0.12014181248E+02  0.91901618082E+02  0.81331147854E+02 0.  0.
          4    1    4    4  501    0  0.85912243940E+00 -0.12700034215E+01  0.66349597857E+01  0.68098231559E+01  0.00000000000E+00 0. -1.
         -3    1    4    4    0  501  0.57972862727E+02  0.26471477792E+02 -0.23626231800E+03  0.24470691624E+03  0.00000000000E+00 0.  1.
          5    1    3    3  502    0 -0.14332596679E+02 -0.57117394308E+01  0.19072440501E+02  0.24977895860E+02  0.47000000000E+01 0. -1.
         11    1    6    6    0    0  0.39883124596E+02  0.15320313080E+01 -0.26194907077E+02  0.47740799158E+02  0.00000000000E+00 0. -1.
        -12    1    6    6    0    0 -0.22115217751E+02  0.35496508094E+02  0.14180725829E+02  0.44160818924E+02  0.00000000000E+00 0.  1.
         -5    1    5    5    0  503 -0.62267295332E+02 -0.56518274341E+02  0.23261064735E+02  0.87376761986E+02  0.47000000000E+01 0.  1.
<mgrwt>
<rscale>  2 0.17913811E+03</rscale>
<asrwt>0</asrwt>
<pdfrwt beam="1">  1       21 0.19728076E-01 0.17920912E+03</pdfrwt>
<pdfrwt beam="2">  1       21 0.50390849E-01 0.17920912E+03</pdfrwt>
<totfact> 0.89251100E+04</totfact>
</mgrwt>
</event>
<event>
12    1  0.2768653E-001  0.1796021E+03  0.7546771E-02  0.1168618E+00
         21   -1    0    0  504  503  0.00000000000E+00  0.00000000000E+00  0.94794606504E+03  0.94794606504E+03  0.00000000000E+00 0.  1.
         21   -1    0    0  502  504 -0.00000000000E+00 -0.00000000000E+00 -0.34541744342E+02  0.34541744342E+02  0.00000000000E+00 0.  1.
          6    2    1    2  502    0 -0.15151779847E+02 -0.48421752945E+02  0.53138368917E+03  0.56035431449E+03  0.17045260358E+03 0.  0.
         24    2    3    3    0    0 -0.69449569338E+02 -0.49898121356E+02  0.42090084813E+03  0.43715132033E+03  0.81429034826E+02 0.  0.
         -6    2    1    2    0  503  0.15151779847E+02  0.48421752945E+02  0.38202063153E+03  0.42213349489E+03  0.17228662746E+03 0.  0.
        -24    2    5    5    0    0 -0.43734145986E+02 -0.16338994026E+02  0.10113772871E+03  0.12789073507E+03  0.62829624360E+02 0.  0.
          2    1    4    4  501    0 -0.69439645766E+02 -0.11784515045E+02  0.34616893353E+03  0.35326147503E+03  0.00000000000E+00 0. -1.
         -1    1    4    4    0  501 -0.99235716210E-02 -0.38113606311E+02  0.74731914597E+02  0.83889845296E+02  0.00000000000E+00 0.  1.
          5    1    3    3  502    0  0.54297789491E+02  0.14763684104E+01  0.11048284104E+03  0.12320299417E+03  0.47000000000E+01 0. -1.
         13    1    6    6    0    0  0.23802332707E+01 -0.23864043129E+02  0.63548095568E+02  0.67922886535E+02  0.00000000000E+00 0. -1.
        -14    1    6    6    0    0 -0.46114379257E+02  0.75250491036E+01  0.37589633144E+02  0.59967848537E+02  0.00000000000E+00 0.  1.
         -5    1    5    5    0  503  0.58885925833E+02  0.64760746971E+02  0.28088290282E+03  0.29424275982E+03  0.47000000000E+01 0.  1.
<mgrwt>
<rscale>  2 0.17916086E+03</rscale>
<asrwt>0</asrwt>
<pdfrwt beam="1">  1       21 0.14583784E+00 0.17960213E+03</pdfrwt>
<pdfrwt beam="2">  1       21 0.53141152E-02 0.17960213E+03</pdfrwt>
<totfact> 0.78561873E+04</totfact>
</mgrwt>
</event>
<event>
12    1  0.2768653E-001  0.1851529E+03  0.7546771E-02  0.1162922E+00
         21   -1    0    0  504  503  0.00000000000E+00  0.00000000000E+00  0.99700468972E+02  0.99700468972E+02  0.00000000000E+00 0. -1.
         21   -1    0    0  502  504 -0.00000000000E+00 -0.00000000000E+00 -0.54975731886E+03  0.54975731886E+03  0.00000000000E+00 0. -1.
          6    2    1    2  502    0  0.56627252426E+02 -0.32081590440E+02 -0.42379771790E+03  0.46245204227E+03  0.17326716811E+03 0.  0.
         24    2    3    3    0    0  0.59560534379E+02  0.29785283778E+02 -0.15872081504E+03  0.19019486845E+03  0.80914587518E+02 0.  0.
         -6    2    1    2    0  503 -0.56627252426E+02  0.32081590440E+02 -0.26259131989E+02  0.18700574556E+03  0.17333704941E+03 0.  0.
        -24    2    5    5    0    0 -0.67773428985E+02  0.70476871205E+02 -0.53383979725E+02  0.13846419427E+03  0.82232942013E+02 0.  0.
          2    1    4    4  501    0  0.31417430528E+02  0.56186631053E+02 -0.81387668697E+02  0.10376870947E+03  0.00000000000E+00 0. -1.
         -1    1    4    4    0  501  0.28143103850E+02 -0.26401347275E+02 -0.77333146344E+02  0.86426158978E+02  0.00000000000E+00 0.  1.
          5    1    3    3  502    0 -0.29332819522E+01 -0.61866874218E+02 -0.26507690286E+03  0.27225717382E+03  0.47000000000E+01 0. -1.
         11    1    6    6    0    0  0.13154881276E+02  0.12018172835E+02  0.97808116009E+01  0.20326132324E+02  0.00000000000E+00 0. -1.
        -12    1    6    6    0    0 -0.80928310261E+02  0.58458698371E+02 -0.63164791326E+02  0.11813806195E+03  0.00000000000E+00 0.  1.
         -5    1    5    5    0  503  0.11146176558E+02 -0.38395280766E+02  0.27124847736E+02  0.48541551290E+02  0.47000000000E+01 0.  1.
<mgrwt>
<rscale>  2 0.18513657E+03</rscale>
<asrwt>0</asrwt>
<pdfrwt beam="1">  1       21 0.15338534E-01 0.18515293E+03</pdfrwt>
<pdfrwt beam="2">  1       21 0.84578048E-01 0.18515293E+03</pdfrwt>
<totfact> 0.45818218E+04</totfact>
</mgrwt>
</event>
<event>
12    1  0.2768653E-001  0.1763481E+03  0.7546771E-02  0.1171556E+00
         21   -1    0    0  504  503  0.00000000000E+00  0.00000000000E+00  0.31125620301E+03  0.31125620301E+03  0.00000000000E+00 0. -1.
         21   -1    0    0  502  504 -0.00000000000E+00 -0.00000000000E+00 -0.11606415379E+03  0.11606415379E+03  0.00000000000E+00 0. -1.
          6    2    1    2  502    0 -0.10114114084E+00 -0.28174733529E+02  0.17101103547E+02  0.17717535395E+03  0.17408283220E+03 0.  0.
         24    2    3    3    0    0 -0.35163114127E+02  0.18711123574E+02  0.57335600553E+02  0.10598174261E+03  0.79738371788E+02 0.  0.
         -6    2    1    2    0  503  0.10114114084E+00  0.28174733529E+02  0.17809094567E+03  0.25014500285E+03  0.17338486577E+03 0.  0.
        -24    2    5    5    0    0  0.38088081147E+02 -0.72888108711E+01  0.31998510643E+02  0.95013574162E+02  0.80621621803E+02 0.  0.
          2    1    4    4  501    0 -0.20033773604E+02  0.14878998742E+01  0.74616494259E+02  0.77273456932E+02  0.00000000000E+00 0. -1.
         -1    1    4    4    0  501 -0.15129340523E+02  0.17223223700E+02 -0.17280893706E+02  0.28708285678E+02  0.00000000000E+00 0.  1.
          5    1    3    3  502    0  0.35061972986E+02 -0.46885857103E+02 -0.40234497006E+02  0.71193611338E+02  0.47000000000E+01 0. -1.
         13    1    6    6    0    0 -0.21593046095E+02  0.14066482431E+02  0.12856137153E+02  0.28799406767E+02  0.00000000000E+00 0. -1.
        -14    1    6    6    0    0  0.59681127242E+02 -0.21355293303E+02  0.19142373490E+02  0.66214167394E+02  0.00000000000E+00 0.  1.
         -5    1    5    5    0  503 -0.37986940006E+02  0.35463544400E+02  0.14609243503E+03  0.15513142868E+03  0.47000000000E+01 0.  1.
<mgrwt>
<rscale>  2 0.17617562E+03</rscale>
<asrwt>0</asrwt>
<pdfrwt beam="1">  1       21 0.47885569E-01 0.17634812E+03</pdfrwt>
<pdfrwt beam="2">  1       21 0.17856024E-01 0.17634812E+03</pdfrwt>
<totfact> 0.11947658E+05</totfact>
</mgrwt>
</event>
<event>
12    1  0.2768653E-001  0.1763459E+03  0.7546771E-02  0.1171522E+00
         21   -1    0    0  504  503  0.00000000000E+00  0.00000000000E+00  0.53234018116E+02  0.53234018116E+02  0.00000000000E+00 0. -1.
         21   -1    0    0  502  504 -0.00000000000E+00 -0.00000000000E+00 -0.77805093876E+03  0.77805093876E+03  0.00000000000E+00 0. -1.
          6    2    1    2  502    0  0.20839060662E+02 -0.19417538741E+02 -0.57043062741E+03  0.59690706921E+03  0.17348095379E+03 0.  0.
         24    2    3    3    0    0 -0.27188030604E+02  0.44280134478E+02 -0.32868441100E+03  0.34229497559E+03  0.80202798970E+02 0.  0.
         -6    2    1    2    0  503 -0.20839060662E+02  0.19417538741E+02 -0.15438629324E+03  0.23437788767E+03  0.17403034054E+03 0.  0.
        -24    2    5    5    0    0  0.15466422015E+02  0.57092760361E+02 -0.38226570787E+02  0.10689188249E+03  0.80410262608E+02 0.  0.
          2    1    4    4  501    0 -0.24724761435E+02  0.57886198257E+02 -0.31962523484E+03  0.32576435735E+03  0.00000000000E+00 0. -1.
         -1    1    4    4    0  501 -0.24632691692E+01 -0.13606063778E+02 -0.90591761598E+01  0.16530618235E+02  0.00000000000E+00 0.  1.
          5    1    3    3  502    0  0.48027091266E+02 -0.63697673220E+02 -0.24174621641E+03  0.25461209362E+03  0.47000000000E+01 0. -1.
         13    1    6    6    0    0  0.41974181639E+02  0.62002231875E+01 -0.17037343851E+02  0.45722486561E+02  0.00000000000E+00 0. -1.
        -14    1    6    6    0    0 -0.26507759624E+02  0.50892537174E+02 -0.21189226936E+02  0.61169395930E+02  0.00000000000E+00 0.  1.
         -5    1    5    5    0  503 -0.36305482677E+02 -0.37675221620E+02 -0.11615972245E+03  0.12748600518E+03  0.47000000000E+01 0.  1.
<mgrwt>
<rscale>  2 0.17621018E+03</rscale>
<asrwt>0</asrwt>
<pdfrwt beam="1">  1       21 0.81898492E-02 0.17634587E+03</pdfrwt>
<pdfrwt beam="2">  1       21 0.11970014E+00 0.17634587E+03</pdfrwt>
<totfact> 0.61712288E+04</totfact>
</mgrwt>
</event>
<event>
12    1  0.2768653E-001  0.5118415E+03  0.7546771E-02  0.1010799E+00
         21   -1    0    0  504  503  0.00000000000E+00  0.00000000000E+00  0.14960676891E+04  0.14960676891E+04  0.00000000000E+00 0. -1.
         21   -1    0    0  502  504 -0.00000000000E+00 -0.00000000000E+00 -0.28501393966E+03  0.28501393966E+03  0.00000000000E+00 0.  1.
          6    2    1    2  502    0  0.25213977557E+03  0.41032446685E+03  0.52017830565E+02  0.51447793372E+03  0.17332355602E+03 0.  0.
         24    2    3    3    0    0  0.23729562531E+03  0.37858275048E+03  0.33587061240E+01  0.45433073307E+03  0.82286216049E+02 0.  0.
         -6    2    1    2    0  503 -0.25213977557E+03 -0.41032446685E+03  0.11590359189E+04  0.12666036950E+04  0.17023520359E+03 0.  0.
        -24    2    5    5    0    0 -0.79288379537E+02 -0.25321735235E+03  0.63806688521E+03  0.69564741425E+03  0.79939353871E+02 0.  0.
          4    1    4    4  501    0  0.21331962491E+03  0.29119339412E+03  0.22657882283E+02  0.36167974062E+03  0.00000000000E+00 0. -1.
         -3    1    4    4    0  501  0.23976000406E+02  0.87389356360E+02 -0.19299176159E+02  0.92650992444E+02  0.00000000000E+00 0.  1.
          5    1    3    3  502    0  0.14844150255E+02  0.31741716371E+02  0.48659124441E+02  0.60147200653E+02  0.47000000000E+01 0. -1.
         13    1    6    6    0    0 -0.12462199263E+02 -0.75850324377E+00  0.12093296755E+02  0.17381874584E+02  0.00000000000E+00 0. -1.
        -14    1    6    6    0    0 -0.66826180273E+02 -0.25245884911E+03  0.62597358845E+03  0.67826553967E+03  0.00000000000E+00 0.  1.
         -5    1    5    5    0  503 -0.17285139603E+03 -0.15710711450E+03  0.52096903367E+03  0.57095628079E+03  0.47000000000E+01 0.  1.
<mgrwt>
<rscale>  2 0.51158189E+03</rscale>
<asrwt>0</asrwt>
<pdfrwt beam="1">  1       21 0.23016426E+00 0.51184147E+03</pdfrwt>
<pdfrwt beam="2">  1       21 0.43848299E-01 0.51184147E+03</pdfrwt>
<totfact> 0.34269795E+02</totfact>
</mgrwt>
</event>
<event>
12    1  0.2768653E-001  0.2363196E+03  0.7546771E-02  0.1122516E+00
         21   -1    0    0  504  503  0.00000000000E+00  0.00000000000E+00  0.77663586892E+03  0.77663586892E+03  0.00000000000E+00 0. -1.
         21   -1    0    0  502  504 -0.00000000000E+00 -0.00000000000E+00 -0.25341131904E+03  0.25341131904E+03  0.00000000000E+00 0. -1.
          6    2    1    2  502    0 -0.99782742153E+02  0.12417699739E+03 -0.17501007052E+03  0.29290503854E+03  0.17259291557E+03 0.  0.
         24    2    3    3    0    0 -0.11331720191E+02  0.10578066138E+03 -0.14727727764E+03  0.19828365477E+03  0.79422005996E+02 0.  0.
         -6    2    1    2    0  503  0.99782742153E+02 -0.12417699739E+03  0.69823462040E+03  0.73714214943E+03  0.17455784438E+03 0.  0.
        -24    2    5    5    0    0  0.35862313452E+01 -0.10643252546E+02  0.33499724779E+03  0.34457730285E+03  0.79901324989E+02 0.  0.
          4    1    4    4  501    0 -0.13482778504E+02  0.46514900749E+02 -0.12648503984E+03  0.13543960503E+03  0.00000000000E+00 0. -1.
         -3    1    4    4    0  501  0.21510583132E+01  0.59265760629E+02 -0.20792237798E+02  0.62844049737E+02  0.00000000000E+00 0.  1.
          5    1    3    3  502    0 -0.88451021963E+02  0.18396336010E+02 -0.27732792878E+02  0.94621383765E+02  0.47000000000E+01 0. -1.
         13    1    6    6    0    0  0.40651893550E+02 -0.89848905063E+01  0.21427510641E+03  0.21828221626E+03  0.00000000000E+00 0. -1.
        -14    1    6    6    0    0 -0.37065662204E+02 -0.16583620401E+01  0.12072214138E+03  0.12629508659E+03  0.00000000000E+00 0.  1.
         -5    1    5    5    0  503  0.96196510808E+02 -0.11353374484E+03  0.36323737261E+03  0.39256484658E+03  0.47000000000E+01 0.  1.
<mgrwt>
<rscale>  2 0.23595687E+03</rscale>
<asrwt>0</asrwt>
<pdfrwt beam="1">  1       21 0.11948244E+00 0.23631962E+03</pdfrwt>
<pdfrwt beam="2">  1       21 0.38986357E-01 0.23631962E+03</pdfrwt>
<totfact> 0.32700102E+03</totfact>
</mgrwt>
</event>
<event>
12    1  0.2768653E-001  0.2465844E+03  0.7546771E-02  0.1115575E+00
         21   -1    0    0  504  503  0.00000000000E+00  0.00000000000E+00  0.10102445107E+03  0.10102445107E+03  0.00000000000E+00 0. -1.
         21   -1    0    0  502  504 -0.00000000000E+00 -0.00000000000E+00 -0.61131523764E+03  0.61131523764E+03  0.00000000000E+00 0.  1.
          6    2    1    2  502    0  0.47002649492E+02 -0.16910337233E+03 -0.30228597913E+03  0.38974109399E+03  0.17238360586E+03 0.  0.
         24    2    3    3    0    0  0.95543737634E+02 -0.96288800742E+02 -0.17519806553E+03  0.23536613858E+03  0.79389659751E+02 0.  0.
         -6    2    1    2    0  503 -0.47002649492E+02  0.16910337233E+03 -0.20800480743E+03  0.32259859473E+03  0.17320119461E+03 0.  0.
        -24    2    5    5    0    0 -0.52472131681E+02  0.95123030802E+02 -0.44151832149E+02  0.14267390583E+03  0.81269573207E+02 0.  0.
          4    1    4    4  501    0  0.41660954215E+02 -0.54086940090E+02 -0.14557325079E+03  0.16078744832E+03  0.00000000000E+00 0. -1.
         -3    1    4    4    0  501  0.53882783418E+02 -0.42201860652E+02 -0.29624814740E+02  0.74578690253E+02  0.00000000000E+00 0.  1.
          5    1    3    3  502    0 -0.48541088142E+02 -0.72814571583E+02 -0.12708791361E+03  0.15437495541E+03  0.47000000000E+01 0. -1.
         13    1    6    6    0    0 -0.60410050645E+01  0.83945430232E+02 -0.43882019058E+02  0.94915544542E+02  0.00000000000E+00 0. -1.
        -14    1    6    6    0    0 -0.46431126617E+02  0.11177600570E+02 -0.26981309069E+00  0.47758361284E+02  0.00000000000E+00 0.  1.
         -5    1    5    5    0  503  0.54694821896E+01  0.73980341523E+02 -0.16385297528E+03  0.17992468890E+03  0.47000000000E+01 0.  1.
<mgrwt>
<rscale>  2 0.24644085E+03</rscale>
<asrwt>0</asrwt>
<pdfrwt beam="1">  1       21 0.15542223E-01 0.24658437E+03</pdfrwt>
<pdfrwt beam="2">  1       21 0.94048499E-01 0.24658437E+03</pdfrwt>
<totfact> 0.33929698E+04</totfact>
</mgrwt>
</event>
<event>
12    1  0.2768653E-001  0.2260761E+03  0.7546771E-02  0.1129563E+00
         21   -1    0    0  504  503  0.00000000000E+00  0.00000000000E+00  0.58954281149E+02  0.58954281149E+02  0.00000000000E+00 0.  1.
         21   -1    0    0  502  504 -0.00000000000E+00 -0.00000000000E+00 -0.10293172357E+04  0.10293172357E+04  0.00000000000E+00 0. -1.
          6    2    1    2  502    0 -0.73250180165E+02  0.12669526785E+03 -0.70379678009E+03  0.73921600173E+03  0.17231688764E+03 0.  0.
         24    2    3    3    0    0 -0.10564434430E+02  0.77397579644E+02 -0.20135413172E+03  0.23046216177E+03  0.80419705525E+02 0.  0.
         -6    2    1    2    0  503  0.73250180165E+02 -0.12669526785E+03 -0.26656617448E+03  0.34905551513E+03  0.17136203627E+03 0.  0.
        -24    2    5    5    0    0  0.30130531099E+02 -0.60314660770E+02 -0.47146841534E+02  0.11574751526E+03  0.81418397275E+02 0.  0.
          2    1    4    4  501    0  0.10309720537E+01  0.88156012383E+02 -0.19384687690E+03  0.21295341534E+03  0.00000000000E+00 0. -1.
         -1    1    4    4    0  501 -0.11595406483E+02 -0.10758432739E+02 -0.75072548239E+01  0.17508746428E+02  0.00000000000E+00 0.  1.
          5    1    3    3  502    0 -0.62685745736E+02  0.49297688206E+02 -0.50244264837E+03  0.50875383996E+03  0.47000000000E+01 0. -1.
         13    1    6    6    0    0  0.30633120132E+02 -0.20826813934E+02 -0.63089120750E+02  0.73159971191E+02  0.00000000000E+00 0. -1.
        -14    1    6    6    0    0 -0.50258903309E+00 -0.39487846835E+02  0.15942279216E+02  0.42587544071E+02  0.00000000000E+00 0.  1.
         -5    1    5    5    0  503  0.43119649066E+02 -0.66380607081E+02 -0.21941933294E+03  0.23330799986E+03  0.47000000000E+01 0.  1.
<mgrwt>
<rscale>  2 0.22589411E+03</rscale>
<asrwt>0</asrwt>
<pdfrwt beam="1">  1       21 0.90698899E-02 0.22607607E+03</pdfrwt>
<pdfrwt beam="2">  1       21 0.15835649E+00 0.22607607E+03</pdfrwt>
<totfact> 0.24414910E+04</totfact>
</mgrwt>
</event>
<event>
12    1  0.2768653E-001  0.2748441E+03  0.7546771E-02  0.1098978E+00
         21   -1    0    0  504  503  0.00000000000E+00  0.00000000000E+00  0.45762271996E+03  0.45762271996E+03  0.00000000000E+00 0. -1.
         21   -1    0    0  502  504 -0.00000000000E+00 -0.00000000000E+00 -0.55154994242E+03  0.55154994242E+03  0.00000000000E+00 0.  1.
          6    2    1    2  502    0  0.13240253388E+03 -0.16247308243E+03 -0.47028615547E+03  0.54314117010E+03  0.17293157355E+03 0.  0.
         24    2    3    3    0    0  0.15888169691E+03 -0.12519110761E+03 -0.43221576131E+03  0.48345418129E+03  0.77467890364E+02 0.  0.
         -6    2    1    2    0  503 -0.13240253388E+03  0.16247308243E+03  0.37635893302E+03  0.46603149229E+03  0.17779587130E+03 0.  0.
        -24    2    5    5    0    0 -0.12831204003E+03  0.99957283706E+02  0.16394479603E+03  0.24452119271E+03  0.80357198519E+02 0.  0.
          2    1    4    4  501    0  0.10781663229E+03 -0.56721670313E+02 -0.18156521371E+03  0.21864972195E+03  0.00000000000E+00 0. -1.
         -1    1    4    4    0  501  0.51065064630E+02 -0.68469437292E+02 -0.25065054761E+03  0.26480445934E+03  0.00000000000E+00 0.  1.
          5    1    3    3  502    0 -0.26479163032E+02 -0.37281974827E+02 -0.38070394159E+02  0.59686988810E+02  0.47000000000E+01 0. -1.
         13    1    6    6    0    0 -0.70930157761E+02  0.75436814182E+02  0.50861553521E+02  0.11536332970E+03  0.00000000000E+00 0. -1.
        -14    1    6    6    0    0 -0.57381882271E+02  0.24520469524E+02  0.11308324251E+03  0.12915786300E+03  0.00000000000E+00 0.  1.
         -5    1    5    5    0  503 -0.40904938514E+01  0.62515798726E+02  0.21241413699E+03  0.22151029958E+03  0.47000000000E+01 0.  1.
<mgrwt>
<rscale>  2 0.27406046E+03</rscale>
<asrwt>0</asrwt>
<pdfrwt beam="1">  1       21 0.70403495E-01 0.27484415E+03</pdfrwt>
<pdfrwt beam="2">  1       21 0.84853837E-01 0.27484415E+03</pdfrwt>
<totfact> 0.20667331E+03</totfact>
</mgrwt>
</event>
<event>
12    1  0.2768653E-001  0.1900523E+03  0.7546771E-02  0.1159530E+00
         21   -1    0    0  504  503  0.00000000000E+00  0.00000000000E+00  0.15100136752E+03  0.15100136752E+03  0.00000000000E+00 0. -1.
         21   -1    0    0  502  504 -0.00000000000E+00 -0.00000000000E+00 -0.23467568611E+03  0.23467568611E+03  0.00000000000E+00 0. -1.
          6    2    1    2  502    0 -0.59208956340E+02  0.17406295444E+02 -0.57101567695E+02  0.19377608127E+03  0.17458493923E+03 0.  0.
         24    2    3    3    0    0 -0.26658491447E+02  0.27148569454E+02 -0.10300076913E+03  0.13647624393E+03  0.81048668871E+02 0.  0.
         -6    2    1    2    0  503  0.59208956340E+02 -0.17406295444E+02 -0.26572750889E+02  0.19190097236E+03  0.17975314315E+03 0.  0.
        -24    2    5    5    0    0 -0.35031118952E+02 -0.32029722517E+02 -0.27808983297E+02  0.96409325183E+02  0.79172823689E+02 0.  0.
          2    1    4    4  501    0  0.23767479339E+02  0.29362831722E+02 -0.55701609438E+02  0.67303330192E+02  0.00000000000E+00 0. -1.
         -1    1    4    4    0  501 -0.50425970787E+02 -0.22142622686E+01 -0.47299159689E+02  0.69172913734E+02  0.00000000000E+00 0.  1.
          5    1    3    3  502    0 -0.32550464892E+02 -0.97422740094E+01  0.45899201431E+02  0.57299837344E+02  0.47000000000E+01 0. -1.
         13    1    6    6    0    0 -0.21413080232E+02 -0.34659291820E+02  0.20882774848E+02  0.45780747043E+02  0.00000000000E+00 0. -1.
        -14    1    6    6    0    0 -0.13618038720E+02  0.26295693028E+01 -0.48691758145E+02  0.50628578141E+02  0.00000000000E+00 0.  1.
         -5    1    5    5    0  503  0.94240075291E+02  0.14623427073E+02  0.12362324083E+01  0.95491647178E+02  0.47000000000E+01 0.  1.
<mgrwt>
<rscale>  2 0.18882023E+03</rscale>
<asrwt>0</asrwt>
<pdfrwt beam="1">  1       21 0.23230980E-01 0.19005229E+03</pdfrwt>
<pdfrwt beam="2">  1       21 0.36103952E-01 0.19005229E+03</pdfrwt>
<totfact> 0.12896117E+05</totfact>
</mgrwt>
</event>
<event>
12    1  0.2768653E-001  0.1909232E+03  0.7546771E-02  0.1158511E+00
         21   -1    0    0  504  503  0.00000000000E+00  0.00000000000E+00  0.39446109065E+03  0.39446109065E+03  0.00000000000E+00 0. -1.
         21   -1    0    0  502  504 -0.00000000000E+00 -0.00000000000E+00 -0.96167018671E+02  0.96167018671E+02  0.00000000000E+00 0.  1.
          6    2    1    2  502    0 -0.60010170081E+02 -0.31391226964E+02  0.91248308710E+02  0.21160796191E+03  0.17850783192E+03 0.  0.
         24    2    3    3    0    0 -0.19014694267E+02 -0.71028379673E+02  0.10633233507E+03  0.15243574914E+03  0.80768204256E+02 0.  0.
         -6    2    1    2    0  503  0.60010170081E+02  0.31391226964E+02  0.20704576327E+03  0.27902014742E+03  0.17434926135E+03 0.  0.
        -24    2    5    5    0    0  0.10219453914E+03  0.48858738702E+02  0.17615258193E+03  0.22369281590E+03  0.78599259465E+02 0.  0.
          4    1    4    4  501    0  0.11773847054E+02 -0.35084949461E+02  0.97505595513E+02  0.10429246526E+03  0.00000000000E+00 0. -1.
         -3    1    4    4    0  501 -0.30788541321E+02 -0.35943430212E+02  0.88267395552E+01  0.48143283886E+02  0.00000000000E+00 0.  1.
          5    1    3    3  502    0 -0.40995475814E+02  0.39637152709E+02 -0.15084026358E+02  0.59172212763E+02  0.47000000000E+01 0. -1.
         11    1    6    6    0    0  0.97860583072E+02  0.47174966202E+02  0.18451694110E+03  0.21412303171E+03  0.00000000000E+00 0. -1.
        -12    1    6    6    0    0  0.43339560685E+01  0.16837725007E+01 -0.83643591753E+01  0.95697841904E+01  0.00000000000E+00 0.  1.
         -5    1    5    5    0  503 -0.42184369059E+02 -0.17467511738E+02  0.30893181349E+02  0.55327331519E+02  0.47000000000E+01 0.  1.
<mgrwt>
<rscale>  2 0.18994515E+03</rscale>
<asrwt>0</asrwt>
<pdfrwt beam="1">  1       21 0.60686321E-01 0.19092322E+03</pdfrwt>
<pdfrwt beam="2">  1       21 0.14794926E-01 0.19092322E+03</pdfrwt>
<totfact> 0.10178070E+05</totfact>
</mgrwt>
</event>
<event>
12    1  0.2768653E-001  0.2392476E+03  0.7546771E-02  0.1120617E+00
         21   -1    0    0  504  503  0.00000000000E+00  0.00000000000E+00  0.89301249571E+02  0.89301249571E+02  0.00000000000E+00 0.  1.
         21   -1    0    0  502  504 -0.00000000000E+00 -0.00000000000E+00 -0.16435655833E+04  0.16435655833E+04  0.00000000000E+00 0.  1.
          6    2    1    2  502    0  0.16549123526E+03  0.67458182478E+01 -0.14543618247E+04  0.14735987342E+04  0.16997663799E+03 0.  0.
         24    2    3    3    0    0  0.86561965566E+02  0.68502772614E+02 -0.87770872290E+03  0.88828288719E+03  0.80549870689E+02 0.  0.
         -6    2    1    2    0  503 -0.16549123526E+03 -0.67458182478E+01 -0.99902509071E+02  0.25926809865E+03  0.17264582430E+03 0.  0.
        -24    2    5    5    0    0 -0.55635405091E+02 -0.12235157137E+02 -0.11095712703E+03  0.14862122413E+03  0.80819470757E+02 0.  0.
          2    1    4    4  501    0  0.72568247039E+02  0.16758495580E+02 -0.65469216065E+03  0.65891488287E+03  0.00000000000E+00 0. -1.
         -1    1    4    4    0  501  0.13993718527E+02  0.51744277035E+02 -0.22301656225E+03  0.22936800432E+03  0.00000000000E+00 0.  1.
          5    1    3    3  502    0  0.78929269694E+02 -0.61756954367E+02 -0.57665310178E+03  0.58531584706E+03  0.47000000000E+01 0. -1.
         13    1    6    6    0    0 -0.25839658807E+02  0.34699492950E+02 -0.50058915638E+02  0.66163719765E+02  0.00000000000E+00 0. -1.
        -14    1    6    6    0    0 -0.29795746284E+02 -0.46934650087E+02 -0.60898211388E+02  0.82457504362E+02  0.00000000000E+00 0.  1.
         -5    1    5    5    0  503 -0.10985583017E+03  0.54893388893E+01  0.11054617955E+02  0.11064687452E+03  0.47000000000E+01 0.  1.
<mgrwt>
<rscale>  2 0.23876646E+03</rscale>
<asrwt>0</asrwt>
<pdfrwt beam="1">  1       21 0.13738654E-01 0.23924765E+03</pdfrwt>
<pdfrwt beam="2">  1       21 0.25285624E+00 0.23924765E+03</pdfrwt>
<totfact> 0.28073928E+03</totfact>
</mgrwt>
</event>
<event>
12    1  0.2768653E-001  0.1872534E+03  0.7546771E-02  0.1161684E+00
         21   -1    0    0  504  503  0.00000000000E+00  0.00000000000E+00  0.26894891447E+03  0.26894891447E+03  0.00000000000E+00 0.  1.
         21   -1    0    0  502  504 -0.00000000000E+00 -0.00000000000E+00 -0.18930957499E+03  0.18930957499E+03  0.00000000000E+00 0. -1.
          6    2    1    2  502    0  0.59297909848E+02 -0.28609777364E+02 -0.90116901230E+02  0.20780972175E+03  0.17529707097E+03 0.  0.
         24    2    3    3    0    0 -0.19802968903E+02  0.30218192893E+02 -0.51399915927E+02  0.10179663739E+03  0.80095613286E+02 0.  0.
         -6    2    1    2    0  503 -0.59297909848E+02  0.28609777364E+02  0.16975624071E+03  0.25044876771E+03  0.17196698089E+03 0.  0.
        -24    2    5    5    0    0 -0.21854048757E+02  0.28933386469E+02  0.13216546156E+02  0.89424193727E+02  0.80667645508E+02 0.  0.
          2    1    4    4  501    0 -0.46134950409E+02  0.81048439845E+01 -0.98540203886E+01  0.47866730232E+02  0.00000000000E+00 0. -1.
         -1    1    4    4    0  501  0.26331981507E+02  0.22113348908E+02 -0.41545895539E+02  0.53929907158E+02  0.00000000000E+00 0.  1.
          5    1    3    3  502    0  0.79100878750E+02 -0.58827970256E+02 -0.38716985303E+02  0.10601308436E+03  0.47000000000E+01 0. -1.
         11    1    6    6    0    0  0.42686623011E+01  0.47472752934E+02  0.26741192297E+02  0.54653226021E+02  0.00000000000E+00 0. -1.
        -12    1    6    6    0    0 -0.26122711058E+02 -0.18539366466E+02 -0.13524646142E+02  0.34770967706E+02  0.00000000000E+00 0.  1.
         -5    1    5    5    0  503 -0.37443861091E+02 -0.32360910484E+00  0.15653969455E+03  0.16102457398E+03  0.47000000000E+01 0.  1.
<mgrwt>
<rscale>  2 0.18647003E+03</rscale>
<asrwt>0</asrwt>
<pdfrwt beam="1">  1       21 0.41376756E-01 0.18725337E+03</pdfrwt>
<pdfrwt beam="2">  1       21 0.29124550E-01 0.18725337E+03</pdfrwt>
<totfact> 0.63640809E+04</totfact>
</mgrwt>
</event>
<event>
12    1  0.2768653E-001  0.1762133E+03  0.7546771E-02  0.1171772E+00
         21   -1    0    0  504  503  0.00000000000E+00  0.00000000000E+00  0.20595185736E+03  0.20595185736E+03  0.00000000000E+00 0.  1.
         21   -1    0    0  502  504 -0.00000000000E+00 -0.00000000000E+00 -0.17516036190E+03  0.17516036190E+03  0.00000000000E+00 0.  1.
          6    2    1    2  502    0 -0.23805894432E+01  0.33202263463E+02 -0.57000406794E+02  0.18424034774E+03  0.17200988883E+03 0.  0.
         24    2    3    3    0    0 -0.18381268407E+02 -0.31620552913E+02  0.10297013969E+02  0.89324321215E+02  0.80839813638E+02 0.  0.
         -6    2    1    2    0  503  0.23805894432E+01 -0.33202263463E+02  0.87791902253E+02  0.19687187152E+03  0.17304062584E+03 0.  0.
        -24    2    5    5    0    0  0.17792935230E+02  0.24265275065E+01 -0.88396895183E+01  0.92628379272E+02  0.90440035139E+02 0.  0.
          4    1    4    4  501    0 -0.28308572298E+02 -0.55806884120E+02  0.67084704443E+01  0.62934784948E+02  0.00000000000E+00 0. -1.
         -3    1    4    4    0  501  0.99273038913E+01  0.24186331206E+02  0.35885435245E+01  0.26389536267E+02  0.00000000000E+00 0.  1.
          5    1    3    3  502    0  0.16000678964E+02  0.64822816376E+02 -0.67297420763E+02  0.94916026527E+02  0.47000000000E+01 0. -1.
         13    1    6    6    0    0  0.39775678125E+02  0.34950486006E+02 -0.50595740379E+01  0.53190603793E+02  0.00000000000E+00 0. -1.
        -14    1    6    6    0    0 -0.21982742895E+02 -0.32523958500E+02 -0.37801154804E+01  0.39437775479E+02  0.00000000000E+00 0.  1.
         -5    1    5    5    0  503 -0.15412345786E+02 -0.35628790970E+02  0.96631591771E+02  0.10424349225E+03  0.47000000000E+01 0.  1.
<mgrwt>
<rscale>  2 0.17595970E+03</rscale>
<asrwt>0</asrwt>
<pdfrwt beam="1">  1       21 0.31684901E-01 0.17621327E+03</pdfrwt>
<pdfrwt beam="2">  1       21 0.26947748E-01 0.17621327E+03</pdfrwt>
<totfact> 0.12634166E+05</totfact>
</mgrwt>
</event>
<event>
12    1  0.2768653E-001  0.1991043E+03  0.7546771E-02  0.1151141E+00
         21   -1    0    0  504  503  0.00000000000E+00  0.00000000000E+00  0.16165894571E+04  0.16165894571E+04  0.00000000000E+00 0. -1.
         21   -1    0    0  502  504 -0.00000000000E+00 -0.00000000000E+00 -0.26185182988E+02  0.26185182988E+02  0.00000000000E+00 0. -1.
          6    2    1    2  502    0 -0.23511906690E+02 -0.96041684920E+02  0.57195603025E+03  0.60562052234E+03  0.17281695966E+03 0.  0.
         24    2    3    3    0    0 -0.43651360149E+02 -0.12640179807E+03  0.39067844685E+03  0.42065840109E+03  0.80255752286E+02 0.  0.
         -6    2    1    2    0  503  0.23511906690E+02  0.96041684920E+02  0.10184482438E+04  0.10371541177E+04  0.16933701169E+03 0.  0.
        -24    2    5    5    0    0 -0.39824371357E+02  0.68138935781E+02  0.43554014607E+03  0.45013283363E+03  0.81825753604E+02 0.  0.
          2    1    4    4  501    0 -0.21568583954E+01 -0.39014217974E+02  0.22851947099E+03  0.23183595464E+03  0.00000000000E+00 0. -1.
         -1    1    4    4    0  501 -0.41494501754E+02 -0.87387580095E+02  0.16215897586E+03  0.18882244645E+03  0.00000000000E+00 0.  1.
          5    1    3    3  502    0  0.20139453460E+02  0.30360113149E+02  0.18127758339E+03  0.18496212125E+03  0.47000000000E+01 0. -1.
         13    1    6    6    0    0 -0.31167768342E+02  0.58787660875E+02  0.43173712983E+03  0.43683448597E+03  0.00000000000E+00 0. -1.
        -14    1    6    6    0    0 -0.86566030149E+01  0.93512749057E+01  0.38030162363E+01  0.13298347665E+02  0.00000000000E+00 0.  1.
         -5    1    5    5    0  503  0.63336278046E+02  0.27902749139E+02  0.58290809775E+03  0.58702128407E+03  0.47000000000E+01 0.  1.
<mgrwt>
<rscale>  2 0.19834675E+03</rscale>
<asrwt>0</asrwt>
<pdfrwt beam="1">  1       21 0.24870599E+00 0.19910429E+03</pdfrwt>
<pdfrwt beam="2">  1       21 0.40284910E-02 0.19910429E+03</pdfrwt>
<totfact> 0.26061930E+04</totfact>
</mgrwt>
</event>
<event>
12    1  0.2768653E-001  0.3740304E+03  0.7546771E-02  0.1053204E+00
         21   -1    0    0  504  503  0.00000000000E+00  0.00000000000E+00  0.12552064262E+03  0.12552064262E+03  0.00000000000E+00 0. -1.
         21   -1    0    0  502  504 -0.00000000000E+00 -0.00000000000E+00 -0.12479314700E+04  0.12479314700E+04  0.00000000000E+00 0.  1.
          6    2    1    2  502    0  0.14369643455E+03  0.29808556868E+03 -0.78711361279E+03  0.87146232129E+03  0.17434180919E+03 0.  0.
         24    2    3    3    0    0  0.64686518047E+02  0.24514204632E+03 -0.47656006567E+03  0.54663747757E+03  0.86163026908E+02 0.  0.
         -6    2    1    2    0  503 -0.14369643455E+03 -0.29808556868E+03 -0.33529721459E+03  0.50198979133E+03  0.17339508911E+03 0.  0.
        -24    2    5    5    0    0 -0.69496953123E+02 -0.20457298522E+03 -0.29792616192E+03  0.37681450668E+03  0.80927385417E+02 0.  0.
          4    1    4    4  501    0  0.52919258397E+01  0.17817504171E+03 -0.31937987982E+03  0.36575655511E+03  0.00000000000E+00 0. -1.
         -3    1    4    4    0  501  0.59394592207E+02  0.66967004612E+02 -0.15718018584E+03  0.18088092247E+03  0.00000000000E+00 0.  1.
          5    1    3    3  502    0  0.79009916508E+02  0.52943522356E+02 -0.31055354712E+03  0.32482484371E+03  0.47000000000E+01 0. -1.
         11    1    6    6    0    0 -0.72402663064E+02 -0.91725450288E+02 -0.13424420355E+03  0.17798092604E+03  0.00000000000E+00 0. -1.
        -12    1    6    6    0    0  0.29057099415E+01 -0.11284753493E+03 -0.16368195837E+03  0.19883358064E+03  0.00000000000E+00 0.  1.
         -5    1    5    5    0  503 -0.74199481432E+02 -0.93512583456E+02 -0.37371052669E+02  0.12517528465E+03  0.47000000000E+01 0.  1.
<mgrwt>
<rscale>  2 0.37392026E+03</rscale>
<asrwt>0</asrwt>
<pdfrwt beam="1">  1       21 0.19310868E-01 0.37403040E+03</pdfrwt>
<pdfrwt beam="2">  1       21 0.19198946E+00 0.37403040E+03</pdfrwt>
<totfact> 0.32973185E+03</totfact>
</mgrwt>
</event>
<event>
12    1  0.2768653E-001  0.1896698E+03  0.7546771E-02  0.1159258E+00
         21   -1    0    0  504  503  0.00000000000E+00  0.00000000000E+00  0.49333570541E+03  0.49333570541E+03  0.00000000000E+00 0. -1.
         21   -1    0    0  502  504 -0.00000000000E+00 -0.00000000000E+00 -0.84677531444E+02  0.84677531444E+02  0.00000000000E+00 0. -1.
          6    2    1    2  502    0 -0.43247973514E+02  0.59186379048E+02  0.91853640678E+02  0.20877111765E+03  0.17255397295E+03 0.  0.
         24    2    3    3    0    0  0.28176596380E+02  0.49862521936E+02  0.93494633301E+02  0.13656871913E+03  0.81422213865E+02 0.  0.
         -6    2    1    2    0  503  0.43247973514E+02 -0.59186379048E+02  0.31680453329E+03  0.36924211920E+03  0.17493203138E+03 0.  0.
        -24    2    5    5    0    0  0.63172781134E+02 -0.95581507229E+02  0.28492147105E+03  0.31670429500E+03  0.77425712837E+02 0.  0.
          2    1    4    4  501    0  0.25359194038E+02  0.72386714721E+02  0.68942516437E+02  0.10313096413E+03  0.00000000000E+00 0. -1.
         -1    1    4    4    0  501  0.28174023416E+01 -0.22524192785E+02  0.24552116865E+02  0.33437754995E+02  0.00000000000E+00 0.  1.
          5    1    3    3  502    0 -0.71424569893E+02  0.93238571121E+01 -0.16409926234E+01  0.72202398525E+02  0.47000000000E+01 0. -1.
         13    1    6    6    0    0 -0.53339198664E+01 -0.39339375148E+02  0.40520208226E+02  0.56726752180E+02  0.00000000000E+00 0. -1.
        -14    1    6    6    0    0  0.68506701001E+02 -0.56242132081E+02  0.24440126282E+03  0.25997754282E+03  0.00000000000E+00 0.  1.
         -5    1    5    5    0  503 -0.19924807621E+02  0.36395128180E+02  0.31883062242E+02  0.52537824202E+02  0.47000000000E+01 0.  1.
<mgrwt>
<rscale>  2 0.18911965E+03</rscale>
<asrwt>0</asrwt>
<pdfrwt beam="1">  1       21 0.75897799E-01 0.18966979E+03</pdfrwt>
<pdfrwt beam="2">  1       21 0.13027313E-01 0.18966979E+03</pdfrwt>
<totfact> 0.78499321E+04</totfact>
</mgrwt>
</event>
<event>
12    1  0.2768653E-001  0.1856162E+03  0.7546771E-02  0.1163164E+00
         21   -1    0    0  504  503  0.00000000000E+00  0.00000000000E+00  0.35711266366E+03  0.35711266366E+03  0.00000000000E+00 0. -1.
         21   -1    0    0  502  504 -0.00000000000E+00 -0.00000000000E+00 -0.15216673624E+03  0.15216673624E+03  0.00000000000E+00 0. -1.
          6    2    1    2  502    0  0.59531568822E+02  0.23402735883E+02 -0.54169488020E+02  0.19054101358E+03  0.17111355496E+03 0.  0.
         24    2    3    3    0    0  0.99406398258E+02  0.13892765031E+02 -0.68351038022E+02  0.14691019960E+03  0.82680719714E+02 0.  0.
         -6    2    1    2    0  503 -0.59531568822E+02 -0.23402735883E+02  0.25911541545E+03  0.31873838632E+03  0.17424598894E+03 0.  0.
        -24    2    5    5    0    0 -0.52017897369E+02 -0.34462703381E+02  0.27767234198E+03  0.29538827579E+03  0.79112353015E+02 0.  0.
          4    1    4    4  501    0  0.65749942240E+02  0.37547279173E+02 -0.73413030298E+02  0.10546243926E+03  0.00000000000E+00 0. -1.
         -3    1    4    4    0  501  0.33656456018E+02 -0.23654514142E+02  0.50619922755E+01  0.41447760335E+02  0.00000000000E+00 0.  1.
          5    1    3    3  502    0 -0.39874829436E+02  0.95099708519E+01  0.14181550002E+02  0.43630813980E+02  0.47000000000E+01 0. -1.
         13    1    6    6    0    0  0.62088606222E+01 -0.41037534120E+02  0.13203661107E+03  0.13840627089E+03  0.00000000000E+00 0. -1.
        -14    1    6    6    0    0 -0.58226757991E+02  0.65748307387E+01  0.14563573091E+03  0.15698200490E+03  0.00000000000E+00 0.  1.
         -5    1    5    5    0  503 -0.75136714537E+01  0.11059967498E+02 -0.18556926533E+02  0.23350110538E+02  0.47000000000E+01 0.  1.
<mgrwt>
<rscale>  2 0.18487742E+03</rscale>
<asrwt>0</asrwt>
<pdfrwt beam="1">  1       21 0.54940409E-01 0.18561616E+03</pdfrwt>
<pdfrwt beam="2">  1       21 0.23410267E-01 0.18561616E+03</pdfrwt>
<totfact> 0.53833602E+04</totfact>
</mgrwt>
</event>
<event>
12    1  0.2768653E-001  0.3341147E+03  0.7546771E-02  0.1069584E+00
         21   -1    0    0  504  503  0.00000000000E+00  0.00000000000E+00  0.68712007256E+03  0.68712007256E+03  0.00000000000E+00 0. -1.
         21   -1    0    0  502  504 -0.00000000000E+00 -0.00000000000E+00 -0.16136852162E+03  0.16136852162E+03  0.00000000000E+00 0.  1.
          6    2    1    2  502    0  0.26606877095E+03  0.10686437316E+03  0.25813761072E+03  0.42221752756E+03  0.17152267891E+03 0.  0.
         24    2    3    3    0    0  0.10755559577E+03 -0.10441278125E+01  0.62369076546E+02  0.14814074952E+03  0.80538708541E+02 0.  0.
         -6    2    1    2    0  503 -0.26606877095E+03 -0.10686437316E+03  0.26761394022E+03  0.42627106663E+03  0.16696471519E+03 0.  0.
        -24    2    5    5    0    0 -0.27117487350E+03 -0.10751256508E+03  0.28013292762E+03  0.41194251187E+03  0.78277789244E+02 0.  0.
          2    1    4    4  501    0  0.59861294738E+02 -0.36266568186E+02  0.53704951879E+02  0.88220521603E+02  0.00000000000E+00 0. -1.
         -1    1    4    4    0  501  0.47694301034E+02  0.35222440373E+02  0.86641246669E+01  0.59920227913E+02  0.00000000000E+00 0.  1.
          5    1    3    3  502    0  0.15851317518E+03  0.10790850097E+03  0.19576853417E+03  0.27407677804E+03  0.47000000000E+01 0. -1.
         13    1    6    6    0    0 -0.50709728951E+02  0.10758756069E+02  0.49040130331E+02  0.71359384984E+02  0.00000000000E+00 0. -1.
        -14    1    6    6    0    0 -0.22046514455E+03 -0.11827132114E+03  0.23109279728E+03  0.34058312689E+03  0.00000000000E+00 0.  1.
         -5    1    5    5    0  503  0.51061025420E+01  0.64819191725E+00 -0.12518987398E+02  0.14328554756E+02  0.47000000000E+01 0.  1.
<mgrwt>
<rscale>  2 0.33353395E+03</rscale>
<asrwt>0</asrwt>
<pdfrwt beam="1">  1       21 0.10571078E+00 0.33411467E+03</pdfrwt>
<pdfrwt beam="2">  1       21 0.24825927E-01 0.33411467E+03</pdfrwt>
<totfact> 0.10218762E+04</totfact>
</mgrwt>
</event>
<event>
12    1  0.2768653E-001  0.2116747E+03  0.7546771E-02  0.1140323E+00
         21   -1    0    0  504  503  0.00000000000E+00  0.00000000000E+00  0.62468610055E+03  0.62468610055E+03  0.00000000000E+00 0. -1.
         21   -1    0    0  502  504 -0.00000000000E+00 -0.00000000000E+00 -0.80947902581E+02  0.80947902581E+02  0.00000000000E+00 0.  1.
          6    2    1    2  502    0  0.11370539854E+03  0.28007825903E+02  0.15215707287E+03  0.26068744472E+03  0.17633154295E+03 0.  0.
         24    2    3    3    0    0  0.29463104252E+02  0.53521911671E+02  0.13846585476E+03  0.17148390122E+03  0.80630427902E+02 0.  0.
         -6    2    1    2    0  503 -0.11370539854E+03 -0.28007825903E+02  0.39158112510E+03  0.44494655841E+03  0.17586445446E+03 0.  0.
        -24    2    5    5    0    0 -0.11048919694E+03 -0.20542623872E+02  0.40551887658E+03  0.42814107983E+03  0.78926313345E+02 0.  0.
          2    1    4    4  501    0  0.38960581462E+02 -0.60179980113E+01  0.69296970439E+02  0.79725863557E+02  0.00000000000E+00 0. -1.
         -1    1    4    4    0  501 -0.94974772095E+01  0.59539909682E+02  0.69168884317E+02  0.91758037664E+02  0.00000000000E+00 0.  1.
          5    1    3    3  502    0  0.84242294285E+02 -0.25514085767E+02  0.13691218117E+02  0.89203543498E+02  0.47000000000E+01 0. -1.
         11    1    6    6    0    0 -0.55144800831E+02 -0.26048948198E+02  0.32248564757E+03  0.32820190378E+03  0.00000000000E+00 0. -1.
        -12    1    6    6    0    0 -0.55344396106E+02  0.55063243261E+01  0.83033229011E+02  0.99939176042E+02  0.00000000000E+00 0.  1.
         -5    1    5    5    0  503 -0.32162015999E+01 -0.74652020319E+01 -0.13937751483E+02  0.16805478586E+02  0.47000000000E+01 0.  1.
<mgrwt>
<rscale>  2 0.21157737E+03</rscale>
<asrwt>0</asrwt>
<pdfrwt beam="1">  1       21 0.96105551E-01 0.21167468E+03</pdfrwt>
<pdfrwt beam="2">  1       21 0.12453524E-01 0.21167468E+03</pdfrwt>
<totfact> 0.49029612E+04</totfact>
</mgrwt>
</event>
<event>
12    1  0.2768653E-001  0.1836854E+03  0.7546771E-02  0.1164743E+00
         21   -1    0    0  504  503  0.00000000000E+00  0.00000000000E+00  0.12390910311E+03  0.12390910311E+03  0.00000000000E+00 0. -1.
         21   -1    0    0  502  504 -0.00000000000E+00 -0.00000000000E+00 -0.95703131784E+03  0.95703131784E+03  0.00000000000E+00 0. -1.
          6    2    1    2  502    0  0.58343999613E+02  0.16533475292E+02 -0.87529846574E+03  0.89436442032E+03  0.17338666072E+03 0.  0.
         24    2    3    3    0    0 -0.32760607076E+02  0.15602886892E+02 -0.34121664669E+03  0.35254674361E+03  0.80893133199E+02 0.  0.
         -6    2    1    2    0  503 -0.58343999613E+02 -0.16533475292E+02  0.42176251011E+02  0.18657600062E+03  0.17133122822E+03 0.  0.
        -24    2    5    5    0    0  0.22453327948E+02  0.15391616118E+02  0.44790904634E+02  0.99533792377E+02  0.84614992197E+02 0.  0.
          4    1    4    4  501    0  0.10797781728E+01 -0.29160165460E+02 -0.74922568990E+02  0.80404430939E+02  0.00000000000E+00 0. -1.
         -3    1    4    4    0  501 -0.33840385249E+02  0.44763052352E+02 -0.26629407770E+03  0.27214231267E+03  0.00000000000E+00 0.  1.
          5    1    3    3  502    0  0.91104606689E+02  0.93058840021E+00 -0.53408181905E+03  0.54181767671E+03  0.47000000000E+01 0. -1.
         13    1    6    6    0    0  0.18618317362E+01  0.28162181972E+02  0.63126156391E+02  0.69148293772E+02  0.00000000000E+00 0. -1.
        -14    1    6    6    0    0  0.20591496211E+02 -0.12770565854E+02 -0.18335251758E+02  0.30385498605E+02  0.00000000000E+00 0.  1.
         -5    1    5    5    0  503 -0.80797327561E+02 -0.31925091409E+02 -0.26146536230E+01  0.87042208244E+02  0.47000000000E+01 0.  1.
<mgrwt>
<rscale>  2 0.18319870E+03</rscale>
<asrwt>0</asrwt>
<pdfrwt beam="1">  1       21 0.19062938E-01 0.18368536E+03</pdfrwt>
<pdfrwt beam="2">  1       21 0.14723559E+00 0.18368536E+03</pdfrwt>
<totfact> 0.79788748E+03</totfact>
</mgrwt>
</event>
<event>
12    1  0.2768653E-001  0.1845490E+03  0.7546771E-02  0.1164095E+00
         21   -1    0    0  504  503  0.00000000000E+00  0.00000000000E+00  0.21691192410E+03  0.21691192410E+03  0.00000000000E+00 0. -1.
         21   -1    0    0  502  504 -0.00000000000E+00 -0.00000000000E+00 -0.18431852252E+03  0.18431852252E+03  0.00000000000E+00 0. -1.
          6    2    1    2  502    0 -0.48020028716E+02 -0.40887257515E+02  0.96712181354E+02  0.20835441891E+03  0.17343767431E+03 0.  0.
         24    2    3    3    0    0  0.24075904424E+01  0.36766055015E+02  0.65872036568E+02  0.11064983226E+03  0.80911809306E+02 0.  0.
         -6    2    1    2    0  503  0.48020028716E+02  0.40887257515E+02 -0.64118779779E+02  0.19287602771E+03  0.17062313196E+03 0.  0.
        -24    2    5    5    0    0 -0.34920213980E+02  0.30965797241E+01 -0.11551932733E+02  0.87554697514E+02  0.79393751370E+02 0.  0.
          4    1    4    4  501    0  0.60171826086E+01  0.23627649383E+02  0.84286774543E+02  0.87742422264E+02  0.00000000000E+00 0. -1.
         -3    1    4    4    0  501 -0.36095921662E+01  0.13138405632E+02 -0.18414737975E+02  0.22907409999E+02  0.00000000000E+00 0.  1.
          5    1    3    3  502    0 -0.50427619159E+02 -0.77653312530E+02  0.30840144787E+02  0.97704586644E+02  0.47000000000E+01 0. -1.
         13    1    6    6    0    0  0.18769707236E+02 -0.17838753119E+02 -0.14818948956E+02  0.29834950490E+02  0.00000000000E+00 0. -1.
        -14    1    6    6    0    0 -0.53689921217E+02  0.20935332844E+02  0.32670162227E+01  0.57719747024E+02  0.00000000000E+00 0.  1.
         -5    1    5    5    0  503  0.82940242697E+02  0.37790677791E+02 -0.52566847046E+02  0.10532133020E+03  0.47000000000E+01 0.  1.
<mgrwt>
<rscale>  2 0.18388475E+03</rscale>
<asrwt>0</asrwt>
<pdfrwt beam="1">  1       21 0.33371065E-01 0.18454896E+03</pdfrwt>
<pdfrwt beam="2">  1       21 0.28356696E-01 0.18454896E+03</pdfrwt>
<totfact> 0.10311898E+05</totfact>
</mgrwt>
</event>
<event>
12    1  0.2768653E-001  0.1948893E+03  0.7546771E-02  0.1155973E+00
         21   -1    0    0  504  503  0.00000000000E+00  0.00000000000E+00  0.70649076324E+03  0.70649076324E+03  0.00000000000E+00 0. -1.
         21   -1    0    0  502  504 -0.00000000000E+00 -0.00000000000E+00 -0.51763867378E+02  0.51763867378E+02  0.00000000000E+00 0. -1.
          6    2    1    2  502    0  0.93723002937E+02  0.46503729566E+01  0.29328261647E+03  0.34761632619E+03  0.16129720972E+03 0.  0.
         24    2    3    3    0    0  0.35196439373E+01  0.37646493710E+02  0.11313885807E+03  0.14341237507E+03  0.79605663982E+02 0.  0.
         -6    2    1    2    0  503 -0.93723002937E+02 -0.46503729566E+01  0.36144427939E+03  0.41063830443E+03  0.17081048770E+03 0.  0.
        -24    2    5    5    0    0 -0.16631532046E+02  0.45465119529E+02  0.12180304061E+03  0.15391925411E+03  0.80693687060E+02 0.  0.
          4    1    4    4  501    0  0.73485968847E+01  0.95997325422E+01 -0.10843263562E+02  0.16239861629E+02  0.00000000000E+00 0. -1.
         -3    1    4    4    0  501 -0.38289529474E+01  0.28046761167E+02  0.12398212163E+03  0.12717251344E+03  0.00000000000E+00 0.  1.
          5    1    3    3  502    0  0.90203359000E+02 -0.32996120753E+02  0.18014375840E+03  0.20420395111E+03  0.47000000000E+01 0. -1.
         13    1    6    6    0    0 -0.45261612888E+02  0.46685532714E+02  0.91043827570E+02  0.11187998527E+03  0.00000000000E+00 0. -1.
        -14    1    6    6    0    0  0.28630080842E+02 -0.12204131842E+01  0.30759213038E+02  0.42039268834E+02  0.00000000000E+00 0.  1.
         -5    1    5    5    0  503 -0.77091470891E+02 -0.50115492486E+02  0.23964123878E+03  0.25671905032E+03  0.47000000000E+01 0.  1.
<mgrwt>
<rscale>  2 0.19278507E+03</rscale>
<asrwt>0</asrwt>
<pdfrwt beam="1">  1       21 0.10869088E+00 0.19488933E+03</pdfrwt>
<pdfrwt beam="2">  1       21 0.79636724E-02 0.19488933E+03</pdfrwt>
<totfact> 0.81236041E+04</totfact>
</mgrwt>
</event>
<event>
12    1  0.2768653E-001  0.1965588E+03  0.7546771E-02  0.1152950E+00
         21   -1    0    0  504  503  0.00000000000E+00  0.00000000000E+00  0.44465095119E+03  0.44465095119E+03  0.00000000000E+00 0.  1.
         21   -1    0    0  502  504 -0.00000000000E+00 -0.00000000000E+00 -0.88587197709E+02  0.88587197709E+02  0.00000000000E+00 0. -1.
          6    2    1    2  502    0  0.17096487096E+02  0.90654506492E+02  0.22116371097E+03  0.29588640764E+03  0.17356511676E+03 0.  0.
         24    2    3    3    0    0  0.42429686331E+02  0.99968895816E+02  0.23070076514E+03  0.26687650874E+03  0.78779245142E+02 0.  0.
         -6    2    1    2    0  503 -0.17096487096E+02 -0.90654506492E+02  0.13490004251E+03  0.23735174126E+03  0.17212582082E+03 0.  0.
        -24    2    5    5    0    0 -0.41931183766E+01 -0.12773392691E+03  0.11286803789E+03  0.19208719034E+03  0.88457653089E+02 0.  0.
          4    1    4    4  501    0  0.36755649864E+02  0.10107096755E+03  0.14271232075E+03  0.17869841850E+03  0.00000000000E+00 0. -1.
         -3    1    4    4    0  501  0.56740364676E+01 -0.11020717375E+01  0.87988444388E+02  0.88178090237E+02  0.00000000000E+00 0.  1.
          5    1    3    3  502    0 -0.25333199236E+02 -0.93143893238E+01 -0.95370541710E+01  0.29009898901E+02  0.47000000000E+01 0. -1.
         11    1    6    6    0    0  0.40095388574E+02 -0.66744721999E+02  0.73402847687E+02  0.10700689767E+03  0.00000000000E+00 0. -1.
        -12    1    6    6    0    0 -0.44288506951E+02 -0.60989204910E+02  0.39465190203E+02  0.85080292672E+02  0.00000000000E+00 0.  1.
         -5    1    5    5    0  503 -0.12903368719E+02  0.37079420417E+02  0.22032004623E+02  0.45264550925E+02  0.47000000000E+01 0.  1.
<mgrwt>
<rscale>  2 0.19624063E+03</rscale>
<asrwt>0</asrwt>
<pdfrwt beam="1">  1       21 0.68407837E-01 0.19655884E+03</pdfrwt>
<pdfrwt beam="2">  1       21 0.13628800E-01 0.19655884E+03</pdfrwt>
<totfact> 0.90835578E+04</totfact>
</mgrwt>
</event>
<event>
12    1  0.2768653E-001  0.2011651E+03  0.7546771E-02  0.1149006E+00
         21   -1    0    0  504  503  0.00000000000E+00  0.00000000000E+00  0.11149135828E+04  0.11149135828E+04  0.00000000000E+00 0. -1.
         21   -1    0    0  502  504 -0.00000000000E+00 -0.00000000000E+00 -0.19578434365E+03  0.19578434365E+03  0.00000000000E+00 0. -1.
          6    2    1    2  502    0 -0.42393106985E+02  0.92082354728E+02 -0.13206888139E+03  0.24064411317E+03  0.17375576019E+03 0.  0.
         24    2    3    3    0    0  0.15980335768E+02 -0.59134032212E+01 -0.69512578061E+02  0.11046727774E+03  0.84146785290E+02 0.  0.
         -6    2    1    2    0  503  0.42393106985E+02 -0.92082354728E+02  0.10511981205E+04  0.10700538133E+04  0.17239877943E+03 0.  0.
        -24    2    5    5    0    0  0.50617194972E+02  0.11908830710E+02  0.51243052400E+03  0.52126021334E+03  0.80145164591E+02 0.  0.
          2    1    4    4  501    0 -0.19576175792E+02  0.48262151890E+01 -0.70484477614E+02  0.73311531127E+02  0.00000000000E+00 0. -1.
         -1    1    4    4    0  501  0.35556511560E+02 -0.10739618410E+02  0.97189955279E+00  0.37155746617E+02  0.00000000000E+00 0.  1.
          5    1    3    3  502    0 -0.58373442753E+02  0.97995757949E+02 -0.62556303325E+02  0.13017683542E+03  0.47000000000E+01 0. -1.
         13    1    6    6    0    0  0.59296772688E+02 -0.97812313093E+01  0.22519953570E+03  0.23308069550E+03  0.00000000000E+00 0. -1.
        -14    1    6    6    0    0 -0.86795777159E+01  0.21690062019E+02  0.28723098830E+03  0.28817951783E+03  0.00000000000E+00 0.  1.
         -5    1    5    5    0  503 -0.82240879867E+01 -0.10399118544E+03  0.53876759655E+03  0.54879359997E+03  0.47000000000E+01 0.  1.
<mgrwt>
<rscale>  2 0.20087173E+03</rscale>
<asrwt>0</asrwt>
<pdfrwt beam="1">  1       21 0.17152516E+00 0.20116511E+03</pdfrwt>
<pdfrwt beam="2">  1       21 0.30120669E-01 0.20116511E+03</pdfrwt>
<totfact> 0.21831132E+03</totfact>
</mgrwt>
</event>
<event>
12    1  0.2768653E-001  0.2299403E+03  0.7546771E-02  0.1128461E+00
         21   -1    0    0  504  503  0.00000000000E+00  0.00000000000E+00  0.10183250479E+04  0.10183250479E+04  0.00000000000E+00 0.  1.
         21   -1    0    0  502  504 -0.00000000000E+00 -0.00000000000E+00 -0.49920053969E+02  0.49920053969E+02  0.00000000000E+00 0.  1.
          6    2    1    2  502    0  0.14130044205E+03  0.61613624818E+02  0.46062615159E+03  0.51482911172E+03  0.17061802092E+03 0.  0.
         24    2    3    3    0    0  0.41199078711E+02 -0.27411043156E+02  0.21811937466E+03  0.23774193897E+03  0.80600487388E+02 0.  0.
         -6    2    1    2    0  503 -0.14130044205E+03 -0.61613624818E+02  0.50777884237E+03  0.55341599017E+03  0.15706002590E+03 0.  0.
        -24    2    5    5    0    0 -0.15324199188E+03 -0.56218730836E+02  0.50789507229E+03  0.53949445998E+03  0.80331899762E+02 0.  0.
          2    1    4    4  501    0  0.52260717260E+02 -0.41208507863E+02  0.20552319196E+03  0.21603033611E+03  0.00000000000E+00 0. -1.
         -1    1    4    4    0  501 -0.11061638548E+02  0.13797464707E+02  0.12596182703E+02  0.21711602852E+02  0.00000000000E+00 0.  1.
          5    1    3    3  502    0  0.10010136334E+03  0.89024667974E+02  0.24250677693E+03  0.27708717275E+03  0.47000000000E+01 0. -1.
         13    1    6    6    0    0 -0.81110019625E+02 -0.32126588043E+02  0.38667153610E+03  0.39639100617E+03  0.00000000000E+00 0. -1.
        -14    1    6    6    0    0 -0.72131972256E+02 -0.24092142793E+02  0.12122353620E+03  0.14310345382E+03  0.00000000000E+00 0.  1.
         -5    1    5    5    0  503  0.11941549833E+02 -0.53948939818E+01 -0.11622992358E+00  0.13921530192E+02  0.47000000000E+01 0.  1.
<mgrwt>
<rscale>  2 0.22743149E+03</rscale>
<asrwt>0</asrwt>
<pdfrwt beam="1">  1       21 0.15666538E+00 0.22994035E+03</pdfrwt>
<pdfrwt beam="2">  1       21 0.76800091E-02 0.22994035E+03</pdfrwt>
<totfact> 0.33563070E+04</totfact>
</mgrwt>
</event>
<event>
12    1  0.2768653E-001  0.2118665E+03  0.7546771E-02  0.1140156E+00
         21   -1    0    0  504  503  0.00000000000E+00  0.00000000000E+00  0.12691527240E+03  0.12691527240E+03  0.00000000000E+00 0. -1.
         21   -1    0    0  502  504 -0.00000000000E+00 -0.00000000000E+00 -0.78575819681E+03  0.78575819681E+03  0.00000000000E+00 0. -1.
          6    2    1    2  502    0  0.82976426083E+02 -0.89447067951E+02 -0.66812064470E+03  0.70090842338E+03  0.17320957491E+03 0.  0.
         24    2    3    3    0    0  0.70731499753E+02 -0.52072190121E+02 -0.21520191069E+03  0.24626098928E+03  0.81352040148E+02 0.  0.
         -6    2    1    2    0  503 -0.82976426083E+02  0.89447067951E+02  0.92777202933E+01  0.21176504582E+03  0.17283660864E+03 0.  0.
        -24    2    5    5    0    0 -0.53448981466E+02  0.13481164427E+03  0.67036698064E+01  0.15737267038E+03  0.60747387949E+02 0.  0.
          4    1    4    4  501    0  0.81079244717E+02 -0.18395465460E+02 -0.16706402059E+03  0.18660821002E+03  0.00000000000E+00 0. -1.
         -3    1    4    4    0  501 -0.10347744964E+02 -0.33676724661E+02 -0.48137890100E+02  0.59652779256E+02  0.00000000000E+00 0.  1.
          5    1    3    3  502    0  0.12244926330E+02 -0.37374877830E+02 -0.45291873402E+03  0.45464743410E+03  0.47000000000E+01 0. -1.
         11    1    6    6    0    0 -0.16060913625E+02  0.66873889875E+02 -0.25574937246E+02  0.73376750464E+02  0.00000000000E+00 0. -1.
        -12    1    6    6    0    0 -0.37388067840E+02  0.67937754395E+02  0.32278607052E+02  0.83995919915E+02  0.00000000000E+00 0.  1.
         -5    1    5    5    0  503 -0.29527444617E+02 -0.45364576320E+02  0.25740504869E+01  0.54392375442E+02  0.47000000000E+01 0.  1.
<mgrwt>
<rscale>  2 0.21179028E+03</rscale>
<asrwt>0</asrwt>
<pdfrwt beam="1">  1       21 0.19525427E-01 0.21186652E+03</pdfrwt>
<pdfrwt beam="2">  1       21 0.12088588E+00 0.21186652E+03</pdfrwt>
<totfact> 0.12354304E+04</totfact>
</mgrwt>
</event>
<event>
12    1  0.2768653E-001  0.3131650E+03  0.7546771E-02  0.1079118E+00
         21   -1    0    0  504  503  0.00000000000E+00  0.00000000000E+00  0.16451850116E+03  0.16451850116E+03  0.00000000000E+00 0. -1.
         21   -1    0    0  502  504 -0.00000000000E+00 -0.00000000000E+00 -0.13167534781E+04  0.13167534781E+04  0.00000000000E+00 0.  1.
          6    2    1    2  502    0 -0.25980135641E+03  0.22103761759E+02 -0.11247485118E+04  0.11669030220E+04  0.16916893051E+03 0.  0.
         24    2    3    3    0    0 -0.13148845981E+03 -0.25461290665E+02 -0.39894984462E+03  0.42830135072E+03  0.79646570051E+02 0.  0.
         -6    2    1    2    0  503  0.25980135641E+03 -0.22103761759E+02 -0.27486465161E+02  0.31436895720E+03  0.17345608783E+03 0.  0.
        -24    2    5    5    0    0  0.12323305006E+03  0.22247307690E+02  0.42151132423E+02  0.15471494172E+03  0.80490172694E+02 0.  0.
          2    1    4    4  501    0 -0.10419221410E+03 -0.40045390705E+02 -0.22002545209E+03  0.24672018638E+03  0.00000000000E+00 0. -1.
         -1    1    4    4    0  501 -0.27296245708E+02  0.14584100041E+02 -0.17892439252E+03  0.18158116434E+03  0.00000000000E+00 0.  1.
          5    1    3    3  502    0 -0.12831289660E+03  0.47565052424E+02 -0.72579866714E+03  0.73860167131E+03  0.47000000000E+01 0. -1.
         13    1    6    6    0    0  0.10705182464E+03  0.47752477036E+02  0.41978510018E+02  0.12450938729E+03  0.00000000000E+00 0. -1.
        -14    1    6    6    0    0  0.16181225421E+02 -0.25505169347E+02  0.17262240520E+00  0.30205554423E+02  0.00000000000E+00 0.  1.
         -5    1    5    5    0  503  0.13656830635E+03 -0.44351069449E+02 -0.69637597583E+02  0.15965401548E+03  0.47000000000E+01 0.  1.
<mgrwt>
<rscale>  2 0.31257484E+03</rscale>
<asrwt>0</asrwt>
<pdfrwt beam="1">  1       21 0.25310538E-01 0.31316503E+03</pdfrwt>
<pdfrwt beam="2">  1       21 0.20257746E+00 0.31316503E+03</pdfrwt>
<totfact> 0.17303623E+03</totfact>
</mgrwt>
</event>
<event>
12    1  0.2768653E-001  0.2260996E+03  0.7546771E-02  0.1129841E+00
         21   -1    0    0  504  503  0.00000000000E+00  0.00000000000E+00  0.50331629234E+03  0.50331629234E+03  0.00000000000E+00 0. -1.
         21   -1    0    0  502  504 -0.00000000000E+00 -0.00000000000E+00 -0.14031182386E+03  0.14031182386E+03  0.00000000000E+00 0.  1.
          6    2    1    2  502    0 -0.13358361424E+03 -0.54460071271E+02  0.94320937831E+01  0.22394438155E+03  0.17103110910E+03 0.  0.
         24    2    3    3    0    0 -0.63615464406E+02  0.10188211425E+02  0.63716257205E+02  0.11420012045E+03  0.69506683958E+02 0.  0.
         -6    2    1    2    0  503  0.13358361424E+03  0.54460071271E+02  0.35357237469E+03  0.41968373465E+03  0.17409920054E+03 0.  0.
        -24    2    5    5    0    0  0.12784497512E+03  0.27116555273E+02  0.35952734270E+03  0.39073288855E+03  0.79577853786E+02 0.  0.
          4    1    4    4  501    0 -0.57612918078E+02  0.31728634254E+02  0.26764232503E+02  0.71009004376E+02  0.00000000000E+00 0. -1.
         -3    1    4    4    0  501 -0.60025463285E+01 -0.21540422829E+02  0.36952024702E+02  0.43191116073E+02  0.00000000000E+00 0.  1.
          5    1    3    3  502    0 -0.69968149833E+02 -0.64648282696E+02 -0.54284163421E+02  0.10974426110E+03  0.47000000000E+01 0. -1.
         11    1    6    6    0    0  0.83868795031E+02  0.55291506006E+02  0.24844258811E+03  0.26798291924E+03  0.00000000000E+00 0. -1.
        -12    1    6    6    0    0  0.43976180094E+02 -0.28174950733E+02  0.11108475459E+03  0.12274996931E+03  0.00000000000E+00 0.  1.
         -5    1    5    5    0  503  0.57386391142E+01  0.27343515999E+02 -0.59549680043E+01  0.28950846101E+02  0.47000000000E+01 0.  1.
<mgrwt>
<rscale>  2 0.22550878E+03</rscale>
<asrwt>0</asrwt>
<pdfrwt beam="1">  1       21 0.77433275E-01 0.22609956E+03</pdfrwt>
<pdfrwt beam="2">  1       21 0.21586435E-01 0.22609956E+03</pdfrwt>
<totfact> 0.29083088E+04</totfact>
</mgrwt>
</event>
<event>
12    1  0.2768653E-001  0.2265910E+03  0.7546771E-02  0.1129595E+00
         21   -1    0    0  504  503  0.00000000000E+00  0.00000000000E+00  0.19452087546E+03  0.19452087546E+03  0.00000000000E+00 0. -1.
         21   -1    0    0  502  504 -0.00000000000E+00 -0.00000000000E+00 -0.33404918543E+03  0.33404918543E+03  0.00000000000E+00 0.  1.
          6    2    1    2  502    0  0.25245247062E+02 -0.14432219976E+03 -0.19339251443E+03  0.29566481363E+03  0.16896981251E+03 0.  0.
         24    2    3    3    0    0  0.57313092311E+01 -0.63327937810E+01 -0.92041954383E+02  0.12328182157E+03  0.81570423435E+02 0.  0.
         -6    2    1    2    0  503 -0.25245247062E+02  0.14432219976E+03  0.53864204456E+02  0.23290524726E+03  0.17285046091E+03 0.  0.
        -24    2    5    5    0    0  0.37104245963E+02  0.68741703065E+02 -0.77421657770E+01  0.11707215348E+03  0.86855058465E+02 0.  0.
          2    1    4    4  501    0  0.19787592148E+02 -0.34847234109E+02 -0.79647130063E+02  0.89160214532E+02  0.00000000000E+00 0. -1.
         -1    1    4    4    0  501 -0.14056282917E+02  0.28514440328E+02 -0.12394824319E+02  0.34121607033E+02  0.00000000000E+00 0.  1.
          5    1    3    3  502    0  0.19513937831E+02 -0.13798940598E+03 -0.10135056005E+03  0.17238299207E+03  0.47000000000E+01 0. -1.
         13    1    6    6    0    0  0.37604309360E+01  0.79129529249E+02  0.62145648332E+01  0.79462217790E+02  0.00000000000E+00 0. -1.
        -14    1    6    6    0    0  0.33343815026E+02 -0.10387826184E+02 -0.13956730610E+02  0.37609935691E+02  0.00000000000E+00 0.  1.
         -5    1    5    5    0  503 -0.62349493025E+02  0.75580496691E+02  0.61606370233E+02  0.11583309378E+03  0.47000000000E+01 0.  1.
<mgrwt>
<rscale>  2 0.22585088E+03</rscale>
<asrwt>0</asrwt>
<pdfrwt beam="1">  1       21 0.29926289E-01 0.22659105E+03</pdfrwt>
<pdfrwt beam="2">  1       21 0.51392182E-01 0.22659105E+03</pdfrwt>
<totfact> 0.37876097E+04</totfact>
</mgrwt>
</event>
<event>
12    1  0.2768653E-001  0.2168958E+03  0.7546771E-02  0.1136398E+00
         21   -1    0    0  504  503  0.00000000000E+00  0.00000000000E+00  0.69514928390E+02  0.69514928390E+02  0.00000000000E+00 0. -1.
         21   -1    0    0  502  504 -0.00000000000E+00 -0.00000000000E+00 -0.78315372964E+03  0.78315372964E+03  0.00000000000E+00 0. -1.
          6    2    1    2  502    0  0.12951607568E+03 -0.44827628073E+01 -0.51678825744E+03  0.56045866062E+03  0.17392325383E+03 0.  0.
         24    2    3    3    0    0  0.17651229974E+02  0.40256797779E+02 -0.16647751044E+03  0.18997913157E+03  0.80281587326E+02 0.  0.
         -6    2    1    2    0  503 -0.12951607568E+03  0.44827628073E+01 -0.19685054382E+03  0.29220999741E+03  0.17274847890E+03 0.  0.
        -24    2    5    5    0    0 -0.41917050099E+01 -0.15346709471E+02 -0.11358946060E+03  0.14037487686E+03  0.80928663710E+02 0.  0.
          4    1    4    4  501    0  0.16953652930E+02  0.24377050377E+02 -0.17091595032E+03  0.17347601854E+03  0.00000000000E+00 0. -1.
         -3    1    4    4    0  501  0.69757704416E+00  0.15879747402E+02  0.44384398818E+01  0.16503113036E+02  0.00000000000E+00 0.  1.
          5    1    3    3  502    0  0.11186484571E+03 -0.44739560587E+02 -0.35031074700E+03  0.37047952905E+03  0.47000000000E+01 0. -1.
         13    1    6    6    0    0 -0.30132523807E+02 -0.91244358353E+01 -0.94477167839E+01  0.32870711473E+02  0.00000000000E+00 0. -1.
        -14    1    6    6    0    0  0.25940818797E+02 -0.62222736361E+01 -0.10414174382E+03  0.10750416538E+03  0.00000000000E+00 0.  1.
         -5    1    5    5    0  503 -0.12532437067E+03  0.19829472279E+02 -0.83261083212E+02  0.15183512055E+03  0.47000000000E+01 0.  1.
<mgrwt>
<rscale>  2 0.21666024E+03</rscale>
<asrwt>0</asrwt>
<pdfrwt beam="1">  1       21 0.10694604E-01 0.21689584E+03</pdfrwt>
<pdfrwt beam="2">  1       21 0.12048519E+00 0.21689584E+03</pdfrwt>
<totfact> 0.37167965E+04</totfact>
</mgrwt>
</event>
<event>
12    1  0.2768653E-001  0.1850660E+03  0.7546771E-02  0.1163632E+00
         21   -1    0    0  504  503  0.00000000000E+00  0.00000000000E+00  0.70976374804E+02  0.70976374804E+02  0.00000000000E+00 0. -1.
         21   -1    0    0  502  504 -0.00000000000E+00 -0.00000000000E+00 -0.52313020663E+03  0.52313020663E+03  0.00000000000E+00 0.  1.
          6    2    1    2  502    0  0.61152631046E+02  0.20683593828E+02 -0.13485766382E+03  0.22678346510E+03  0.17051889987E+03 0.  0.
         24    2    3    3    0    0  0.28008526566E+02 -0.23679582822E+02 -0.80966254402E+01  0.88374383189E+02  0.79995475232E+02 0.  0.
         -6    2    1    2    0  503 -0.61152631046E+02 -0.20683593828E+02 -0.31729616800E+03  0.36732311633E+03  0.17344151240E+03 0.  0.
        -24    2    5    5    0    0  0.99827881747E+01  0.70945934752E+01 -0.35928904329E+02  0.75738647224E+02  0.65539813859E+02 0.  0.
          4    1    4    4  501    0 -0.10707880212E+02 -0.15374984158E+02  0.28729735885E+02  0.34299366766E+02  0.00000000000E+00 0. -1.
         -3    1    4    4    0  501  0.38716406778E+02 -0.83045986635E+01 -0.36826361325E+02  0.54075016424E+02  0.00000000000E+00 0.  1.
          5    1    3    3  502    0  0.33144104480E+02  0.44363176650E+02 -0.12676103838E+03  0.13840908191E+03  0.47000000000E+01 0. -1.
         11    1    6    6    0    0  0.26419736882E+02 -0.39729460945E+01 -0.46237981958E+02  0.53401664516E+02  0.00000000000E+00 0. -1.
        -12    1    6    6    0    0 -0.16436948708E+02  0.11067539570E+02  0.10309077628E+02  0.22336982708E+02  0.00000000000E+00 0.  1.
         -5    1    5    5    0  503 -0.71135419221E+02 -0.27778187304E+02 -0.28136726367E+03  0.29158446911E+03  0.47000000000E+01 0.  1.
<mgrwt>
<rscale>  2 0.18437810E+03</rscale>
<asrwt>0</asrwt>
<pdfrwt beam="1">  1       21 0.10919442E-01 0.18506597E+03</pdfrwt>
<pdfrwt beam="2">  1       21 0.80481570E-01 0.18506597E+03</pdfrwt>
<totfact> 0.94496052E+04</totfact>
</mgrwt>
</event>
<event>
12    1  0.2768653E-001  0.2324091E+03  0.7546771E-02  0.1125104E+00
         21   -1    0    0  504  503  0.00000000000E+00  0.00000000000E+00  0.10688876633E+04  0.10688876633E+04  0.00000000000E+00 0.  1.
         21   -1    0    0  502  504 -0.00000000000E+00 -0.00000000000E+00 -0.10637512548E+03  0.10637512548E+03  0.00000000000E+00 0. -1.
          6    2    1    2  502    0  0.78556274825E+02  0.13576038021E+03  0.54367383880E+02  0.23785061058E+03  0.17033828511E+03 0.  0.
         24    2    3    3    0    0  0.10442035889E+03  0.83961705495E+02 -0.48623604416E+01  0.15489094472E+03  0.77552452359E+02 0.  0.
         -6    2    1    2    0  503 -0.78556274825E+02 -0.13576038021E+03  0.90814515392E+03  0.93741217819E+03  0.17149927721E+03 0.  0.
        -24    2    5    5    0    0 -0.21979988093E+01 -0.13287289619E+03  0.63968648542E+03  0.65825080806E+03  0.80220252698E+02 0.  0.
          2    1    4    4  501    0  0.46620406891E+02  0.83996275156E+02  0.52626254924E+01  0.96210871557E+02  0.00000000000E+00 0. -1.
         -1    1    4    4    0  501  0.57799952001E+02 -0.34569660893E-01 -0.10124985934E+02  0.58680073164E+02  0.00000000000E+00 0.  1.
          5    1    3    3  502    0 -0.25864084067E+02  0.51798674714E+02  0.59229744321E+02  0.82959665857E+02  0.47000000000E+01 0. -1.
         11    1    6    6    0    0  0.90703475255E+01  0.85886678646E+01  0.35878303226E+02  0.37990644405E+02  0.00000000000E+00 0. -1.
        -12    1    6    6    0    0 -0.11268346335E+02 -0.14146156406E+03  0.60380818219E+03  0.62026016365E+03  0.00000000000E+00 0.  1.
         -5    1    5    5    0  503 -0.76358276015E+02 -0.28874840158E+01  0.26845866850E+03  0.27916137013E+03  0.47000000000E+01 0.  1.
<mgrwt>
<rscale>  2 0.23219492E+03</rscale>
<asrwt>0</asrwt>
<pdfrwt beam="1">  1       21 0.16444425E+00 0.23240906E+03</pdfrwt>
<pdfrwt beam="2">  1       21 0.16365405E-01 0.23240906E+03</pdfrwt>
<totfact> 0.75844137E+03</totfact>
</mgrwt>
</event>
<event>
12    1  0.2768653E-001  0.3230609E+03  0.7546771E-02  0.1074328E+00
         21   -1    0    0  504  503  0.00000000000E+00  0.00000000000E+00  0.55813415845E+02  0.55813415845E+02  0.00000000000E+00 0. -1.
         21   -1    0    0  502  504 -0.00000000000E+00 -0.00000000000E+00 -0.21870794960E+04  0.21870794960E+04  0.00000000000E+00 0. -1.
          6    2    1    2  502    0  0.15671228445E+03  0.22402718270E+03 -0.14963122250E+04  0.15307901905E+04  0.17210872664E+03 0.  0.
         24    2    3    3    0    0  0.14346137418E+03  0.88167820095E+02 -0.83234121752E+03  0.85291635129E+03  0.79496349203E+02 0.  0.
         -6    2    1    2    0  503 -0.15671228445E+03 -0.22402718270E+03 -0.63495385517E+03  0.71210272142E+03  0.17081267216E+03 0.  0.
        -24    2    5    5    0    0 -0.96792071491E+01 -0.88213652068E+02 -0.18629340226E+03  0.22079596090E+03  0.78551188169E+02 0.  0.
          4    1    4    4  501    0  0.84380684702E+02  0.79312480881E+02 -0.66995040517E+03  0.67988536899E+03  0.00000000000E+00 0. -1.
         -3    1    4    4    0  501  0.59080689481E+02  0.88553392140E+01 -0.16239081235E+03  0.17303098231E+03  0.00000000000E+00 0.  1.
          5    1    3    3  502    0  0.13250910266E+02  0.13585936260E+03 -0.66397100750E+03  0.67787383917E+03  0.47000000000E+01 0. -1.
         13    1    6    6    0    0 -0.21037103055E+02 -0.81948777299E+02 -0.89586282454E+02  0.12322282179E+03  0.00000000000E+00 0. -1.
        -14    1    6    6    0    0  0.11357895906E+02 -0.62648747693E+01 -0.96707119801E+02  0.97573139109E+02  0.00000000000E+00 0.  1.
         -5    1    5    5    0  503 -0.14703307730E+03 -0.13581353063E+03 -0.44866045292E+03  0.49130676052E+03  0.47000000000E+01 0.  1.
<mgrwt>
<rscale>  2 0.32288859E+03</rscale>
<asrwt>0</asrwt>
<pdfrwt beam="1">  1       21 0.85866795E-02 0.32306088E+03</pdfrwt>
<pdfrwt beam="2">  1       21 0.33647376E+00 0.32306088E+03</pdfrwt>
<totfact> 0.19494357E+03</totfact>
</mgrwt>
</event>
<event>
12    1  0.2768653E-001  0.1787475E+03  0.7546771E-02  0.1169723E+00
         21   -1    0    0  504  503  0.00000000000E+00  0.00000000000E+00  0.29000538864E+03  0.29000538864E+03  0.00000000000E+00 0. -1.
         21   -1    0    0  502  504 -0.00000000000E+00 -0.00000000000E+00 -0.25271669682E+03  0.25271669682E+03  0.00000000000E+00 0. -1.
          6    2    1    2  502    0  0.38741077572E+02 -0.20481633699E+02 -0.18633662538E+03  0.25820923896E+03  0.17329254085E+03 0.  0.
         24    2    3    3    0    0  0.37163892148E+02 -0.78954139211E+02 -0.14185323202E+03  0.18457240239E+03  0.79559545690E+02 0.  0.
         -6    2    1    2    0  503 -0.38741077572E+02  0.20481633699E+02  0.22362531720E+03  0.28451284650E+03  0.17034937311E+03 0.  0.
        -24    2    5    5    0    0 -0.89104498495E+02  0.28853330919E+02  0.18490076945E+03  0.22026146456E+03  0.74529805262E+02 0.  0.
          4    1    4    4  501    0  0.58335490568E+02 -0.53592588778E+02 -0.70925107529E+02  0.10632763474E+03  0.00000000000E+00 0. -1.
         -3    1    4    4    0  501 -0.21171598420E+02 -0.25361550434E+02 -0.70928124496E+02  0.78244767650E+02  0.00000000000E+00 0.  1.
          5    1    3    3  502    0  0.15771854239E+01  0.58472505512E+02 -0.44483393356E+02  0.73636836564E+02  0.47000000000E+01 0. -1.
         13    1    6    6    0    0 -0.35948677552E+02 -0.21804359247E+02  0.97041810620E+02  0.10575845360E+03  0.00000000000E+00 0. -1.
        -14    1    6    6    0    0 -0.53155820944E+02  0.50657690166E+02  0.87858958829E+02  0.11450301096E+03  0.00000000000E+00 0.  1.
         -5    1    5    5    0  503  0.50363420923E+02 -0.83716972203E+01  0.38724547756E+02  0.64251381933E+02  0.47000000000E+01 0.  1.
<mgrwt>
<rscale>  2 0.17803024E+03</rscale>
<asrwt>0</asrwt>
<pdfrwt beam="1">  1       21 0.44616214E-01 0.17874751E+03</pdfrwt>
<pdfrwt beam="2">  1       21 0.38879492E-01 0.17874751E+03</pdfrwt>
<totfact> 0.30992589E+04</totfact>
</mgrwt>
</event>
<event>
12    1  0.2768653E-001  0.1932088E+03  0.7546771E-02  0.1155758E+00
         21   -1    0    0  504  503  0.00000000000E+00  0.00000000000E+00  0.57314009651E+03  0.57314009651E+03  0.00000000000E+00 0. -1.
         21   -1    0    0  502  504 -0.00000000000E+00 -0.00000000000E+00 -0.85915532398E+02  0.85915532398E+02  0.00000000000E+00 0. -1.
          6    2    1    2  502    0 -0.86090175520E+02  0.11184504218E+01  0.80247133828E+02  0.20854451354E+03  0.17215819001E+03 0.  0.
         24    2    3    3    0    0 -0.33354018320E+02  0.20851930347E+02  0.11166463389E+03  0.14389420947E+03  0.81787893491E+02 0.  0.
         -6    2    1    2    0  503  0.86090175520E+02 -0.11184504218E+01  0.40697743028E+03  0.45051111536E+03  0.17296493013E+03 0.  0.
        -24    2    5    5    0    0  0.67241250217E+02 -0.37962761921E+02  0.38956965305E+03  0.40536794331E+03  0.81216364483E+02 0.  0.
          4    1    4    4  501    0 -0.21276681327E+02 -0.29470647099E+02  0.63659472096E+02  0.73305829211E+02  0.00000000000E+00 0. -1.
         -3    1    4    4    0  501 -0.12077336993E+02  0.50322577445E+02  0.48005161792E+02  0.70588380264E+02  0.00000000000E+00 0.  1.
          5    1    3    3  502    0 -0.52736157200E+02 -0.19733479925E+02 -0.31417500060E+02  0.64650304069E+02  0.47000000000E+01 0. -1.
         13    1    6    6    0    0  0.57771499251E+02 -0.50377117419E+02  0.18565131741E+03  0.20085271156E+03  0.00000000000E+00 0. -1.
        -14    1    6    6    0    0  0.94697509653E+01  0.12414355498E+02  0.20391833565E+03  0.20451523175E+03  0.00000000000E+00 0.  1.
         -5    1    5    5    0  503  0.18848925303E+02  0.36844311499E+02  0.17407777228E+02  0.45143172053E+02  0.47000000000E+01 0.  1.
<mgrwt>
<rscale>  2 0.19302807E+03</rscale>
<asrwt>0</asrwt>
<pdfrwt beam="1">  1       21 0.88175397E-01 0.19320879E+03</pdfrwt>
<pdfrwt beam="2">  1       21 0.13217775E-01 0.19320879E+03</pdfrwt>
<totfact> 0.54326858E+04</totfact>
</mgrwt>
</event>
<event>
12    1  0.2768653E-001  0.1773446E+03  0.7546771E-02  0.1170780E+00
         21   -1    0    0  504  503  0.00000000000E+00  0.00000000000E+00  0.89816208120E+03  0.89816208120E+03  0.00000000000E+00 0. -1.
         21   -1    0    0  502  504 -0.00000000000E+00 -0.00000000000E+00 -0.36888825521E+02  0.36888825521E+02  0.00000000000E+00 0. -1.
          6    2    1    2  502    0 -0.31010055232E+02 -0.12885887475E+02  0.54240522489E+03  0.57018388709E+03  0.17256467624E+03 0.  0.
         24    2    3    3    0    0 -0.11260618694E+02 -0.33292619192E+02  0.53255332027E+03  0.53975980177E+03  0.80575459336E+02 0.  0.
         -6    2    1    2    0  503  0.31010055232E+02  0.12885887475E+02  0.31886803079E+03  0.36486701964E+03  0.17413630103E+03 0.  0.
        -24    2    5    5    0    0  0.59390351842E+02 -0.38077880846E+02  0.26226544864E+03  0.28345025709E+03  0.81140272317E+02 0.  0.
          4    1    4    4  501    0  0.38418214771E+01 -0.42156943592E+02  0.50710288877E+03  0.50886668911E+03  0.00000000000E+00 0. -1.
         -3    1    4    4    0  501 -0.15102440171E+02  0.88643244000E+01  0.25450431497E+02  0.30893112656E+02  0.00000000000E+00 0.  1.
          5    1    3    3  502    0 -0.19749436538E+02  0.20406731717E+02  0.98519046171E+01  0.30424085319E+02  0.47000000000E+01 0. -1.
         13    1    6    6    0    0  0.35613474016E+02 -0.56133258684E+02  0.11196236426E+03  0.13021072641E+03  0.00000000000E+00 0. -1.
        -14    1    6    6    0    0  0.23776877826E+02  0.18055377838E+02  0.15030308438E+03  0.15323953068E+03  0.00000000000E+00 0.  1.
         -5    1    5    5    0  503 -0.28380296611E+02  0.50963768321E+02  0.56602582150E+02  0.81416762544E+02  0.47000000000E+01 0.  1.
<mgrwt>
<rscale>  2 0.17695764E+03</rscale>
<asrwt>0</asrwt>
<pdfrwt beam="1">  1       21 0.13817877E+00 0.17734464E+03</pdfrwt>
<pdfrwt beam="2">  1       21 0.56752046E-02 0.17734464E+03</pdfrwt>
<totfact> 0.80862748E+04</totfact>
</mgrwt>
</event>
<event>
12    1  0.2768653E-001  0.1873728E+03  0.7546771E-02  0.1160954E+00
         21   -1    0    0  504  503  0.00000000000E+00  0.00000000000E+00  0.21260007323E+02  0.21260007323E+02  0.00000000000E+00 0.  1.
         21   -1    0    0  502  504 -0.00000000000E+00 -0.00000000000E+00 -0.17132235044E+04  0.17132235044E+04  0.00000000000E+00 0.  1.
          6    2    1    2  502    0 -0.22076401260E+00 -0.71230856982E+02 -0.67518503893E+03  0.70058458007E+03  0.17282949201E+03 0.  0.
         24    2    3    3    0    0 -0.63204460911E+02 -0.31111070409E+02 -0.29741896535E+03  0.31547960776E+03  0.78144989473E+02 0.  0.
         -6    2    1    2    0  503  0.22076401260E+00  0.71230856982E+02 -0.10167784581E+04  0.10338989316E+04  0.17330517650E+03 0.  0.
        -24    2    5    5    0    0 -0.65753375666E+02  0.36613097617E+02 -0.54068785071E+03  0.55199091879E+03  0.81771616086E+02 0.  0.
          4    1    4    4  501    0 -0.16641437589E+02  0.65442618478E+01 -0.20224179275E+03  0.20303080441E+03  0.00000000000E+00 0. -1.
         -3    1    4    4    0  501 -0.46563023322E+02 -0.37655332257E+02 -0.95177172604E+02  0.11244880334E+03  0.00000000000E+00 0.  1.
          5    1    3    3  502    0  0.62983696898E+02 -0.40119786573E+02 -0.37776607358E+03  0.38510497231E+03  0.47000000000E+01 0. -1.
         11    1    6    6    0    0 -0.75997738081E+02  0.39777253979E+02 -0.52983986768E+03  0.53673845727E+03  0.00000000000E+00 0. -1.
        -12    1    6    6    0    0  0.10244362415E+02 -0.31641563617E+01 -0.10847983028E+02  0.15252461524E+02  0.00000000000E+00 0.  1.
         -5    1    5    5    0  503  0.65974139679E+02  0.34617759365E+02 -0.47609060743E+03  0.48190801286E+03  0.47000000000E+01 0.  1.
<mgrwt>
<rscale>  2 0.18726274E+03</rscale>
<asrwt>0</asrwt>
<pdfrwt beam="1">  1       21 0.32707698E-02 0.18737280E+03</pdfrwt>
<pdfrwt beam="2">  1       21 0.26357289E+00 0.18737280E+03</pdfrwt>
<totfact> 0.30509551E+04</totfact>
</mgrwt>
</event>
<event>
12    1  0.2768653E-001  0.1796117E+03  0.7546771E-02  0.1168433E+00
         21   -1    0    0  504  503  0.00000000000E+00  0.00000000000E+00  0.36158406253E+03  0.36158406253E+03  0.00000000000E+00 0. -1.
         21   -1    0    0  502  504 -0.00000000000E+00 -0.00000000000E+00 -0.12770433592E+03  0.12770433592E+03  0.00000000000E+00 0.  1.
          6    2    1    2  502    0 -0.69336603156E+01  0.45163626611E+02 -0.18496179742E+02  0.17952404221E+03  0.17262370709E+03 0.  0.
         24    2    3    3    0    0  0.26336690518E+01 -0.37926144511E+02 -0.33489036764E+02  0.94422223082E+02  0.79678805075E+02 0.  0.
         -6    2    1    2    0  503  0.69336603156E+01 -0.45163626611E+02  0.25237590634E+03  0.30976435624E+03  0.17370241645E+03 0.  0.
        -24    2    5    5    0    0  0.40791158805E+02 -0.46311339390E+02  0.25664211253E+03  0.27529788030E+03  0.78199042094E+02 0.  0.
          4    1    4    4  501    0  0.27105167355E+02 -0.52717603585E+02 -0.26807751841E+02  0.65057600508E+02  0.00000000000E+00 0. -1.
         -3    1    4    4    0  501 -0.24471498303E+02  0.14791459074E+02 -0.66812849230E+01  0.29364622574E+02  0.00000000000E+00 0.  1.
          5    1    3    3  502    0 -0.95673293674E+01  0.83089771122E+02  0.14992857022E+02  0.85101819123E+02  0.47000000000E+01 0. -1.
         11    1    6    6    0    0  0.47182286867E+01 -0.42932391193E+02  0.21835521961E+03  0.22258583474E+03  0.00000000000E+00 0. -1.
        -12    1    6    6    0    0  0.36072930118E+02 -0.33789481972E+01  0.38286892913E+02  0.52712045560E+02  0.00000000000E+00 0.  1.
         -5    1    5    5    0  503 -0.33857498489E+02  0.11477127790E+01 -0.42662061831E+01  0.34466475941E+02  0.47000000000E+01 0.  1.
<mgrwt>
<rscale>  2 0.17935037E+03</rscale>
<asrwt>0</asrwt>
<pdfrwt beam="1">  1       21 0.55628317E-01 0.17961169E+03</pdfrwt>
<pdfrwt beam="2">  1       21 0.19646821E-01 0.17961169E+03</pdfrwt>
<totfact> 0.73067218E+04</totfact>
</mgrwt>
</event>
<event>
12    1  0.2768653E-001  0.2065307E+03  0.7546771E-02  0.1144372E+00
         21   -1    0    0  504  503  0.00000000000E+00  0.00000000000E+00  0.88056784566E+03  0.88056784566E+03  0.00000000000E+00 0.  1.
         21   -1    0    0  502  504 -0.00000000000E+00 -0.00000000000E+00 -0.49690427373E+02  0.49690427373E+02  0.00000000000E+00 0.  1.
          6    2    1    2  502    0  0.68943088125E+02  0.87832321531E+02  0.34082563436E+03  0.39851856002E+03  0.17374482306E+03 0.  0.
         24    2    3    3    0    0  0.94352685809E+02  0.92780392108E+02  0.33869116149E+03  0.37212202557E+03  0.79072552503E+02 0.  0.
         -6    2    1    2    0  503 -0.68943088125E+02 -0.87832321531E+02  0.49005178393E+03  0.53173971302E+03  0.17357622348E+03 0.  0.
        -24    2    5    5    0    0  0.35679638813E+00  0.49174654437E+01  0.12905671521E+03  0.15260315897E+03  0.81288250165E+02 0.  0.
          4    1    4    4  501    0  0.10461692651E+03  0.62050122992E+02  0.26133087666E+03  0.28825118590E+03  0.00000000000E+00 0. -1.
         -3    1    4    4    0  501 -0.10264240704E+02  0.30730269115E+02  0.77360284828E+02  0.83870839663E+02  0.00000000000E+00 0.  1.
          5    1    3    3  502    0 -0.25409597683E+02 -0.49480705770E+01  0.21344728672E+01  0.26396534456E+02  0.47000000000E+01 0. -1.
         13    1    6    6    0    0 -0.19603462092E+02 -0.32952857271E+02  0.67382537275E+02  0.77528013376E+02  0.00000000000E+00 0. -1.
        -14    1    6    6    0    0  0.19960258480E+02  0.37870322715E+02  0.61674177939E+02  0.75075145591E+02  0.00000000000E+00 0.  1.
         -5    1    5    5    0  503 -0.69299884513E+02 -0.92749786974E+02  0.36099506872E+03  0.37913655405E+03  0.47000000000E+01 0.  1.
<mgrwt>
<rscale>  2 0.20649524E+03</rscale>
<asrwt>0</asrwt>
<pdfrwt beam="1">  1       21 0.13547196E+00 0.20653070E+03</pdfrwt>
<pdfrwt beam="2">  1       21 0.76446818E-02 0.20653070E+03</pdfrwt>
<totfact> 0.50182503E+04</totfact>
</mgrwt>
</event>
<event>
12    1  0.2768653E-001  0.1764556E+03  0.7546771E-02  0.1171512E+00
         21   -1    0    0  504  503  0.00000000000E+00  0.00000000000E+00  0.28179725367E+02  0.28179725367E+02  0.00000000000E+00 0. -1.
         21   -1    0    0  502  504 -0.00000000000E+00 -0.00000000000E+00 -0.15008521981E+04  0.15008521981E+04  0.00000000000E+00 0. -1.
          6    2    1    2  502    0 -0.32640364021E+02 -0.12034010158E+01 -0.11333483154E+04  0.11470026084E+04  0.17340628093E+03 0.  0.
         24    2    3    3    0    0 -0.50964376733E+02  0.41286557756E+02 -0.10089618339E+04  0.10142048192E+04  0.79407087769E+02 0.  0.
         -6    2    1    2    0  503  0.32640364021E+02  0.12034010158E+01 -0.33932415742E+03  0.38202931509E+03  0.17244904245E+03 0.  0.
        -24    2    5    5    0    0 -0.30207221925E+02 -0.34951207569E+02 -0.12188662951E+03  0.15277368631E+03  0.79683032135E+02 0.  0.
          4    1    4    4  501    0 -0.23147014995E+02 -0.23192097214E+02 -0.32426858032E+03  0.32591988258E+03  0.00000000000E+00 0. -1.
         -3    1    4    4    0  501 -0.27817361738E+02  0.64478654970E+02 -0.68469325356E+03  0.68828493666E+03  0.00000000000E+00 0.  1.
          5    1    3    3  502    0  0.18324012713E+02 -0.42489958772E+02 -0.12438648148E+03  0.13279778918E+03  0.47000000000E+01 0. -1.
         13    1    6    6    0    0 -0.21201826564E+02  0.22786041973E+02 -0.60405969559E+02  0.67952941929E+02  0.00000000000E+00 0. -1.
        -14    1    6    6    0    0 -0.90053953613E+01 -0.57737249542E+02 -0.61480659950E+02  0.84820744386E+02  0.00000000000E+00 0.  1.
         -5    1    5    5    0  503  0.62847585946E+02  0.36154608585E+02 -0.21743752791E+03  0.22925562878E+03  0.47000000000E+01 0.  1.
<mgrwt>
<rscale>  2 0.17621998E+03</rscale>
<asrwt>0</asrwt>
<pdfrwt beam="1">  1       21 0.43353420E-02 0.17645560E+03</pdfrwt>
<pdfrwt beam="2">  1       21 0.23090036E+00 0.17645560E+03</pdfrwt>
<totfact> 0.29949095E+04</totfact>
</mgrwt>
</event>
<event>
12    1  0.2768653E-001  0.1791438E+03  0.7546771E-02  0.1169719E+00
         21   -1    0    0  504  503  0.00000000000E+00  0.00000000000E+00  0.21967196495E+03  0.21967196495E+03  0.00000000000E+00 0. -1.
         21   -1    0    0  502  504 -0.00000000000E+00 -0.00000000000E+00 -0.15529231762E+03  0.15529231762E+03  0.00000000000E+00 0. -1.
          6    2    1    2  502    0 -0.30512969609E+02 -0.23133192866E+01 -0.21186105934E+02  0.18039219586E+03  0.17651090754E+03 0.  0.
         24    2    3    3    0    0  0.33652013594E+02  0.45566962369E+02 -0.19779304823E+02  0.10018162592E+03  0.80226748615E+02 0.  0.
         -6    2    1    2    0  503  0.30512969609E+02  0.23133192866E+01  0.85565753261E+02  0.19457208671E+03  0.17204768535E+03 0.  0.
        -24    2    5    5    0    0  0.22627108743E+02  0.19479259674E+02 -0.25651070339E+02  0.81664477741E+02  0.71551952507E+02 0.  0.
          4    1    4    4  501    0 -0.23122535066E+02  0.23669176885E+02 -0.21228470174E+02  0.39313223071E+02  0.00000000000E+00 0. -1.
         -3    1    4    4    0  501  0.56774548660E+02  0.21897785484E+02  0.14491653517E+01  0.60868402845E+02  0.00000000000E+00 0.  1.
          5    1    3    3  502    0 -0.64164983203E+02 -0.47880281655E+02 -0.14068011111E+01  0.80210569941E+02  0.47000000000E+01 0. -1.
         13    1    6    6    0    0  0.11666422193E+02  0.45775127565E+02 -0.73574950242E+01  0.47807953767E+02  0.00000000000E+00 0. -1.
        -14    1    6    6    0    0  0.10960686551E+02 -0.26295867891E+02 -0.18293575315E+02  0.33856523974E+02  0.00000000000E+00 0.  1.
         -5    1    5    5    0  503  0.78858608659E+01 -0.17165940388E+02  0.11121682360E+03  0.11290760897E+03  0.47000000000E+01 0.  1.
<mgrwt>
<rscale>  2 0.17803453E+03</rscale>
<asrwt>0</asrwt>
<pdfrwt beam="1">  1       21 0.33795687E-01 0.17914378E+03</pdfrwt>
<pdfrwt beam="2">  1       21 0.23891126E-01 0.17914378E+03</pdfrwt>
<totfact> 0.13991007E+05</totfact>
</mgrwt>
</event>
<event>
12    1  0.2768653E-001  0.5049583E+03  0.7546771E-02  0.1012523E+00
         21   -1    0    0  504  503  0.00000000000E+00  0.00000000000E+00  0.62685063691E+03  0.62685063691E+03  0.00000000000E+00 0.  1.
         21   -1    0    0  502  504 -0.00000000000E+00 -0.00000000000E+00 -0.72193394274E+03  0.72193394274E+03  0.00000000000E+00 0. -1.
          6    2    1    2  502    0  0.10337469884E+03  0.46289231315E+03  0.39832152486E+03  0.64278795505E+03  0.17193224265E+03 0.  0.
         24    2    3    3    0    0  0.79039608718E+02  0.41963690849E+03  0.28689216355E+03  0.52071494736E+03  0.80588759714E+02 0.  0.
         -6    2    1    2    0  503 -0.10337469884E+03 -0.46289231315E+03 -0.49340483069E+03  0.70599662460E+03  0.17328382807E+03 0.  0.
        -24    2    5    5    0    0 -0.11155701381E+03 -0.45701113639E+03 -0.43134869697E+03  0.64295225729E+03  0.77600004224E+02 0.  0.
          4    1    4    4  501    0  0.89007231500E+01  0.17530461103E+03  0.79721731671E+02  0.19278610952E+03  0.00000000000E+00 0. -1.
         -3    1    4    4    0  501  0.70138885568E+02  0.24433229746E+03  0.20717043188E+03  0.32792883785E+03  0.00000000000E+00 0.  1.
          5    1    3    3  502    0  0.24335090120E+02  0.43255404659E+02  0.11142936131E+03  0.12207300768E+03  0.47000000000E+01 0. -1.
         11    1    6    6    0    0 -0.52835476156E+02 -0.29698046543E+03 -0.31762479046E+03  0.43803480672E+03  0.00000000000E+00 0. -1.
        -12    1    6    6    0    0 -0.58721537653E+02 -0.16003067096E+03 -0.11372390651E+03  0.20491745056E+03  0.00000000000E+00 0.  1.
         -5    1    5    5    0  503  0.81823149705E+01 -0.58811767597E+01 -0.62056133719E+02  0.63044367318E+02  0.47000000000E+01 0.  1.
<mgrwt>
<rscale>  2 0.50484273E+03</rscale>
<asrwt>0</asrwt>
<pdfrwt beam="1">  1       21 0.96438560E-01 0.50495832E+03</pdfrwt>
<pdfrwt beam="2">  1       21 0.11106676E+00 0.50495832E+03</pdfrwt>
<totfact> 0.46567633E+02</totfact>
</mgrwt>
</event>
<event>
12    1  0.2768653E-001  0.1864385E+03  0.7546771E-02  0.1162768E+00
         21   -1    0    0  504  503  0.00000000000E+00  0.00000000000E+00  0.11075752593E+04  0.11075752593E+04  0.00000000000E+00 0.  1.
         21   -1    0    0  502  504 -0.00000000000E+00 -0.00000000000E+00 -0.62931447565E+02  0.62931447565E+02  0.00000000000E+00 0.  1.
          6    2    1    2  502    0  0.56653822019E+02 -0.40912250812E+00  0.99933132216E+02  0.20757493574E+03  0.17288984963E+03 0.  0.
         24    2    3    3    0    0  0.94273881065E+02 -0.33596250939E+02  0.56897699702E+02  0.14131187825E+03  0.81947702691E+02 0.  0.
         -6    2    1    2    0  503 -0.56653822019E+02  0.40912250812E+00  0.94471067956E+03  0.96293177116E+03  0.17762180302E+03 0.  0.
        -24    2    5    5    0    0 -0.94081024913E+02  0.19822026813E+02  0.43112336210E+03  0.44759529950E+03  0.72319062425E+02 0.  0.
          2    1    4    4  501    0  0.57197753147E+02 -0.60533914831E+02  0.32552983450E+02  0.89418312115E+02  0.00000000000E+00 0. -1.
         -1    1    4    4    0  501  0.37076127917E+02  0.26937663893E+02  0.24344716252E+02  0.51893566140E+02  0.00000000000E+00 0.  1.
          5    1    3    3  502    0 -0.37620059046E+02  0.33187128430E+02  0.43035432513E+02  0.66263057488E+02  0.47000000000E+01 0. -1.
         11    1    6    6    0    0 -0.34013833345E+02  0.25609629039E+02  0.73708249579E+02  0.85121677699E+02  0.00000000000E+00 0. -1.
        -12    1    6    6    0    0 -0.60067191567E+02 -0.57876022264E+01  0.35741511252E+03  0.36247362180E+03  0.00000000000E+00 0.  1.
         -5    1    5    5    0  503  0.37427202894E+02 -0.19412904305E+02  0.51358731746E+03  0.51533647166E+03  0.47000000000E+01 0.  1.
<mgrwt>
<rscale>  2 0.18530257E+03</rscale>
<asrwt>0</asrwt>
<pdfrwt beam="1">  1       21 0.17039618E+00 0.18643854E+03</pdfrwt>
<pdfrwt beam="2">  1       21 0.96817620E-02 0.18643854E+03</pdfrwt>
<totfact> 0.18295881E+04</totfact>
</mgrwt>
</event>
<event>
12    1  0.2768653E-001  0.1972743E+03  0.7546771E-02  0.1153666E+00
         21   -1    0    0  504  503  0.00000000000E+00  0.00000000000E+00  0.22854571280E+03  0.22854571280E+03  0.00000000000E+00 0.  1.
         21   -1    0    0  502  504 -0.00000000000E+00 -0.00000000000E+00 -0.46835443715E+03  0.46835443715E+03  0.00000000000E+00 0.  1.
          6    2    1    2  502    0  0.88058506237E+02 -0.33935919822E+02 -0.40157196850E+03  0.44741166417E+03  0.17323742142E+03 0.  0.
         24    2    3    3    0    0  0.10207332306E+03  0.13013486887E+02 -0.19220558279E+03  0.23233717628E+03  0.80307305419E+02 0.  0.
         -6    2    1    2    0  503 -0.88058506237E+02  0.33935919822E+02  0.16176324414E+03  0.24948848577E+03  0.16483692002E+03 0.  0.
        -24    2    5    5    0    0 -0.10425956159E+03  0.54885689369E+02  0.16889117310E+03  0.22166287868E+03  0.82022608806E+02 0.  0.
          2    1    4    4  501    0  0.73674896012E+02 -0.13739502429E+02 -0.17365343203E+03  0.18913560925E+03  0.00000000000E+00 0. -1.
         -1    1    4    4    0  501  0.28398427044E+02  0.26752989316E+02 -0.18552150760E+02  0.43201567029E+02  0.00000000000E+00 0.  1.
          5    1    3    3  502    0 -0.14014816819E+02 -0.46949406709E+02 -0.20936638570E+03  0.21507448790E+03  0.47000000000E+01 0. -1.
         11    1    6    6    0    0 -0.30711469325E+02 -0.14096640547E+02  0.81497167280E+02  0.88225267909E+02  0.00000000000E+00 0. -1.
        -12    1    6    6    0    0 -0.73548092265E+02  0.68982329916E+02  0.87394005818E+02  0.13343761078E+03  0.00000000000E+00 0.  1.
         -5    1    5    5    0  503  0.16201055353E+02 -0.20949769547E+02 -0.71279289551E+01  0.27825607088E+02  0.47000000000E+01 0.  1.
<mgrwt>
<rscale>  2 0.19541456E+03</rscale>
<asrwt>0</asrwt>
<pdfrwt beam="1">  1       21 0.35160879E-01 0.19727430E+03</pdfrwt>
<pdfrwt beam="2">  1       21 0.72054528E-01 0.19727430E+03</pdfrwt>
<totfact> 0.13513191E+04</totfact>
</mgrwt>
</event>
<event>
12    1  0.2768653E-001  0.1753498E+03  0.7546771E-02  0.1172951E+00
         21   -1    0    0  504  503  0.00000000000E+00  0.00000000000E+00  0.35828106341E+03  0.35828106341E+03  0.00000000000E+00 0. -1.
         21   -1    0    0  502  504 -0.00000000000E+00 -0.00000000000E+00 -0.91707668410E+02  0.91707668410E+02  0.00000000000E+00 0. -1.
          6    2    1    2  502    0 -0.40873603576E+01  0.21596485799E+02  0.70370007537E+02  0.18684750576E+03  0.17168849040E+03 0.  0.
         24    2    3    3    0    0 -0.28617884865E+02 -0.10472586168E+02  0.10378572571E+03  0.13422743136E+03  0.79478727167E+02 0.  0.
         -6    2    1    2    0  503  0.40873603576E+01 -0.21596485799E+02  0.19620338746E+03  0.26314122606E+03  0.17396672350E+03 0.  0.
        -24    2    5    5    0    0 -0.20129012660E+01 -0.27768761603E+02  0.25553565971E+02  0.92206262532E+02  0.84106207998E+02 0.  0.
          2    1    4    4  501    0 -0.42231989651E+02  0.20044490224E+02  0.37256651164E+02  0.59777760030E+02  0.00000000000E+00 0. -1.
         -1    1    4    4    0  501  0.13614104786E+02 -0.30517076393E+02  0.66529074546E+02  0.74449671327E+02  0.00000000000E+00 0.  1.
          5    1    3    3  502    0  0.24530524507E+02  0.32069071967E+02 -0.33415718173E+02  0.52620074406E+02  0.47000000000E+01 0. -1.
         11    1    6    6    0    0 -0.10538833614E+02 -0.27930579006E+02  0.54439788196E+02  0.62087638032E+02  0.00000000000E+00 0. -1.
        -12    1    6    6    0    0  0.85259323483E+01  0.16181740388E+00 -0.28886222225E+02  0.30118624499E+02  0.00000000000E+00 0.  1.
         -5    1    5    5    0  503  0.61002616236E+01  0.61722758036E+01  0.17064982149E+03  0.17093496353E+03  0.47000000000E+01 0.  1.
<mgrwt>
<rscale>  2 0.17478199E+03</rscale>
<asrwt>0</asrwt>
<pdfrwt beam="1">  1       21 0.55120163E-01 0.17534975E+03</pdfrwt>
<pdfrwt beam="2">  1       21 0.14108872E-01 0.17534975E+03</pdfrwt>
<totfact> 0.13693814E+05</totfact>
</mgrwt>
</event>
<event>
12    1  0.2768653E-001  0.1912077E+03  0.7546771E-02  0.1158773E+00
         21   -1    0    0  504  503  0.00000000000E+00  0.00000000000E+00  0.44855959856E+03  0.44855959856E+03  0.00000000000E+00 0. -1.
         21   -1    0    0  502  504 -0.00000000000E+00 -0.00000000000E+00 -0.15249420256E+03  0.15249420256E+03  0.00000000000E+00 0. -1.
          6    2    1    2  502    0  0.64374975792E+02  0.51462028136E+01 -0.59462018084E+02  0.20024019364E+03  0.17997161621E+03 0.  0.
         24    2    3    3    0    0  0.60627577246E+02  0.43509601557E+02  0.20452456652E+02  0.11139084569E+03  0.80130075314E+02 0.  0.
         -6    2    1    2    0  503 -0.64374975792E+02 -0.51462028136E+01  0.35552741409E+03  0.40081360749E+03  0.17343928295E+03 0.  0.
        -24    2    5    5    0    0 -0.49446958040E+02 -0.42623695026E+02  0.10819783112E+03  0.15017159037E+03  0.81135410627E+02 0.  0.
          4    1    4    4  501    0 -0.17972055671E+02  0.11738806111E+02 -0.65052283489E+01  0.22430166068E+02  0.00000000000E+00 0. -1.
         -3    1    4    4    0  501  0.78599632918E+02  0.31770795446E+02  0.26957685001E+02  0.88960679621E+02  0.00000000000E+00 0.  1.
          5    1    3    3  502    0  0.37473985457E+01 -0.38363398743E+02 -0.79914474736E+02  0.88849347951E+02  0.47000000000E+01 0. -1.
         13    1    6    6    0    0 -0.13221135383E+02 -0.22143661551E+01  0.92794888930E+02  0.93758163643E+02  0.00000000000E+00 0. -1.
        -14    1    6    6    0    0 -0.36225822657E+02 -0.40409328871E+02  0.15402942194E+02  0.56413426728E+02  0.00000000000E+00 0.  1.
         -5    1    5    5    0  503 -0.14928017753E+02  0.37477492212E+02  0.24732958296E+03  0.25064201712E+03  0.47000000000E+01 0.  1.
<mgrwt>
<rscale>  2 0.18965511E+03</rscale>
<asrwt>0</asrwt>
<pdfrwt beam="1">  1       21 0.69009168E-01 0.19120775E+03</pdfrwt>
<pdfrwt beam="2">  1       21 0.23460647E-01 0.19120775E+03</pdfrwt>
<totfact> 0.32709881E+04</totfact>
</mgrwt>
</event>
<event>
12    1  0.2768653E-001  0.2352666E+03  0.7546771E-02  0.1123009E+00
         21   -1    0    0  504  503  0.00000000000E+00  0.00000000000E+00  0.13520764387E+03  0.13520764387E+03  0.00000000000E+00 0.  1.
         21   -1    0    0  502  504 -0.00000000000E+00 -0.00000000000E+00 -0.41188843805E+03  0.41188843805E+03  0.00000000000E+00 0. -1.
          6    2    1    2  502    0  0.13267128060E+03 -0.88037843904E+02 -0.11606969084E+03  0.26234055470E+03  0.17319948861E+03 0.  0.
         24    2    3    3    0    0  0.38564942338E+02 -0.90480215238E+02 -0.11519837848E+03  0.16808124607E+03  0.72847201387E+02 0.  0.
         -6    2    1    2    0  503 -0.13267128060E+03  0.88037843904E+02 -0.16061110334E+03  0.28475552722E+03  0.17302442923E+03 0.  0.
        -24    2    5    5    0    0 -0.11674131560E+03  0.86939441701E+02 -0.18896853411E+03  0.25187385828E+03  0.80897047612E+02 0.  0.
          4    1    4    4  501    0  0.21105412553E+02 -0.55323678096E+02 -0.11440471532E+03  0.12881997782E+03  0.00000000000E+00 0. -1.
         -3    1    4    4    0  501  0.17459529785E+02 -0.35156537141E+02 -0.79366316354E+00  0.39261268259E+02  0.00000000000E+00 0.  1.
          5    1    3    3  502    0  0.94106338258E+02  0.24423713339E+01 -0.87131235659E+00  0.94259308629E+02  0.47000000000E+01 0. -1.
         11    1    6    6    0    0 -0.79595444945E+02  0.19297794077E+02 -0.13429487479E+03  0.15729892914E+03  0.00000000000E+00 0. -1.
        -12    1    6    6    0    0 -0.37145870651E+02  0.67641647625E+02 -0.54673659316E+02  0.94574929145E+02  0.00000000000E+00 0.  1.
         -5    1    5    5    0  503 -0.15929964999E+02  0.10984022028E+01  0.28357430769E+02  0.32881668937E+02  0.47000000000E+01 0.  1.
<mgrwt>
<rscale>  2 0.23523443E+03</rscale>
<asrwt>0</asrwt>
<pdfrwt beam="1">  1       21 0.20801176E-01 0.23526664E+03</pdfrwt>
<pdfrwt beam="2">  1       21 0.63367452E-01 0.23526664E+03</pdfrwt>
<totfact> 0.48426647E+04</totfact>
</mgrwt>
</event>
<event>
12    1  0.2768653E-001  0.1873402E+03  0.7546771E-02  0.1161485E+00
         21   -1    0    0  504  503  0.00000000000E+00  0.00000000000E+00  0.19168531216E+03  0.19168531216E+03  0.00000000000E+00 0. -1.
         21   -1    0    0  502  504 -0.00000000000E+00 -0.00000000000E+00 -0.19673309295E+03  0.19673309295E+03  0.00000000000E+00 0. -1.
          6    2    1    2  502    0 -0.69097409110E+02  0.78821289753E+01  0.53179171033E+02  0.19223801134E+03  0.17114569486E+03 0.  0.
         24    2    3    3    0    0 -0.21353342260E+02  0.31894469934E+02  0.84890486411E+02  0.12991798277E+03  0.90548689255E+02 0.  0.
         -6    2    1    2    0  503  0.69097409110E+02 -0.78821289753E+01 -0.58226951825E+02  0.19618039378E+03  0.17395341066E+03 0.  0.
        -24    2    5    5    0    0 -0.14188357417E+01 -0.55336904059E+00 -0.87467158718E+02  0.11934725503E+03  0.81184629812E+02 0.  0.
          2    1    4    4  501    0 -0.42019135242E+02  0.33923376749E+02  0.93067414192E+02  0.10760086803E+03  0.00000000000E+00 0. -1.
         -1    1    4    4    0  501  0.20665792981E+02 -0.20289068151E+01 -0.81769277801E+01  0.22317114740E+02  0.00000000000E+00 0.  1.
          5    1    3    3  502    0 -0.47744066850E+02 -0.24012340959E+02 -0.31711315378E+02  0.62320028568E+02  0.47000000000E+01 0. -1.
         13    1    6    6    0    0  0.25541039639E+02  0.18935708212E+02 -0.78796489498E+02  0.84969362176E+02  0.00000000000E+00 0. -1.
        -14    1    6    6    0    0 -0.26959875381E+02 -0.19489077252E+02 -0.86706692204E+01  0.34377892859E+02  0.00000000000E+00 0.  1.
         -5    1    5    5    0  503  0.70516244852E+02 -0.73287599347E+01  0.29240206894E+02  0.76833138745E+02  0.47000000000E+01 0.  1.
<mgrwt>
<rscale>  2 0.18668579E+03</rscale>
<asrwt>0</asrwt>
<pdfrwt beam="1">  1       21 0.29490048E-01 0.18734025E+03</pdfrwt>
<pdfrwt beam="2">  1       21 0.30266630E-01 0.18734025E+03</pdfrwt>
<totfact> 0.11561908E+05</totfact>
</mgrwt>
</event>
<event>
12    1  0.2768653E-001  0.2210931E+03  0.7546771E-02  0.1134110E+00
         21   -1    0    0  504  503  0.00000000000E+00  0.00000000000E+00  0.39475720665E+04  0.39475720665E+04  0.00000000000E+00 0.  1.
         21   -1    0    0  502  504 -0.00000000000E+00 -0.00000000000E+00 -0.14409301025E+02  0.14409301025E+02  0.00000000000E+00 0.  1.
          6    2    1    2  502    0 -0.45455724654E+02 -0.12014150680E+03  0.11901455441E+04  0.12105075656E+04  0.17994984202E+03 0.  0.
         24    2    3    3    0    0 -0.95138577751E+02 -0.60758136404E+02  0.86234101894E+03  0.87365052278E+03  0.83007848412E+02 0.  0.
         -6    2    1    2    0  503  0.45455724654E+02  0.12014150680E+03  0.27430172214E+04  0.27514738019E+04  0.17310228604E+03 0.  0.
        -24    2    5    5    0    0 -0.35599723592E+02  0.69453077532E+02  0.18568415157E+04  0.18601440235E+04  0.78640342971E+02 0.  0.
          4    1    4    4  501    0 -0.73656921528E+02 -0.16530725685E+02  0.30731101253E+03  0.31644693932E+03  0.00000000000E+00 0. -1.
         -3    1    4    4    0  501 -0.21481656222E+02 -0.44227410719E+02  0.55503000641E+03  0.55720358346E+03  0.00000000000E+00 0.  1.
          5    1    3    3  502    0  0.49682853097E+02 -0.59383370393E+02  0.32780452516E+03  0.33685704280E+03  0.47000000000E+01 0. -1.
         11    1    6    6    0    0 -0.14860998292E+02 -0.14493655307E+02  0.58393012631E+03  0.58429898830E+03  0.00000000000E+00 0. -1.
        -12    1    6    6    0    0 -0.20738725300E+02  0.83946732839E+02  0.12729113894E+04  0.12758450352E+04  0.00000000000E+00 0.  1.
         -5    1    5    5    0  503  0.81055448246E+02  0.50688429265E+02  0.88617570566E+03  0.89132977840E+03  0.47000000000E+01 0.  1.
<mgrwt>
<rscale>  2 0.21969574E+03</rscale>
<asrwt>0</asrwt>
<pdfrwt beam="1">  1       21 0.60731792E+00 0.22109308E+03</pdfrwt>
<pdfrwt beam="2">  1       21 0.22168187E-02 0.22109308E+03</pdfrwt>
<totfact> 0.29785146E+02</totfact>
</mgrwt>
</event>
<event>
12    1  0.2768653E-001  0.2170299E+03  0.7546771E-02  0.1136777E+00
         21   -1    0    0  504  503  0.00000000000E+00  0.00000000000E+00  0.56233046640E+03  0.56233046640E+03  0.00000000000E+00 0.  1.
         21   -1    0    0  502  504 -0.00000000000E+00 -0.00000000000E+00 -0.13365034173E+03  0.13365034173E+03  0.00000000000E+00 0. -1.
          6    2    1    2  502    0  0.11695550256E+03  0.45983445079E+02 -0.21294041380E+01  0.21359212112E+03  0.17269624501E+03 0.  0.
         24    2    3    3    0    0 -0.90143244371E+01  0.97419104367E+01  0.14983112645E+02  0.81316747833E+02  0.78814700086E+02 0.  0.
         -6    2    1    2    0  503 -0.11695550256E+03 -0.45983445079E+02  0.43080952881E+03  0.48238868702E+03  0.17694329162E+03 0.  0.
        -24    2    5    5    0    0 -0.11281816445E+03 -0.67326774841E+02  0.21046739031E+03  0.26092671898E+03  0.80779932223E+02 0.  0.
          4    1    4    4  501    0  0.22592736130E+02 -0.19537978295E+02  0.22738431581E+02  0.37539320618E+02  0.00000000000E+00 0. -1.
         -3    1    4    4    0  501 -0.31607060567E+02  0.29279888732E+02 -0.77553189356E+01  0.43777427216E+02  0.00000000000E+00 0.  1.
          5    1    3    3  502    0  0.12596982700E+03  0.36241534642E+02 -0.17112516783E+02  0.13227537329E+03  0.47000000000E+01 0. -1.
         13    1    6    6    0    0 -0.89250465691E+02 -0.31993484127E+02  0.19294627478E+03  0.21498254255E+03  0.00000000000E+00 0. -1.
        -14    1    6    6    0    0 -0.23567698762E+02 -0.35333290714E+02  0.17521115537E+02  0.45944176424E+02  0.00000000000E+00 0.  1.
         -5    1    5    5    0  503 -0.41373381112E+01  0.21343329761E+02  0.22034213849E+03  0.22146196804E+03  0.47000000000E+01 0.  1.
<mgrwt>
<rscale>  2 0.21616265E+03</rscale>
<asrwt>0</asrwt>
<pdfrwt beam="1">  1       21 0.86512378E-01 0.21702994E+03</pdfrwt>
<pdfrwt beam="2">  1       21 0.20561591E-01 0.21702994E+03</pdfrwt>
<totfact> 0.24873634E+04</totfact>
</mgrwt>
</event>
<event>
12    1  0.2768653E-001  0.1869963E+03  0.7546771E-02  0.1165114E+00
         21   -1    0    0  504  503  0.00000000000E+00  0.00000000000E+00  0.22334415534E+03  0.22334415534E+03  0.00000000000E+00 0. -1.
         21   -1    0    0  502  504 -0.00000000000E+00 -0.00000000000E+00 -0.53757888883E+03  0.53757888883E+03  0.00000000000E+00 0. -1.
          6    2    1    2  502    0  0.72126932838E+02  0.20651596731E+01 -0.48475914344E+03  0.51957583009E+03  0.17251393203E+03 0.  0.
         24    2    3    3    0    0  0.26499544996E+02 -0.61053404447E+02 -0.22955995023E+03  0.25271532370E+03  0.82082397646E+02 0.  0.
         -6    2    1    2    0  503 -0.72126932838E+02 -0.20651596731E+01  0.17052440995E+03  0.24134721408E+03  0.15480098201E+03 0.  0.
        -24    2    5    5    0    0 -0.65600692056E+01  0.32259820025E+02  0.49040504149E+02  0.99017852364E+02  0.79472218690E+02 0.  0.
          2    1    4    4  501    0  0.47639861856E+02 -0.68277162031E+02 -0.17686928905E+03  0.19548420064E+03  0.00000000000E+00 0. -1.
         -1    1    4    4    0  501 -0.21140316859E+02  0.72237575836E+01 -0.52690661183E+02  0.57231123058E+02  0.00000000000E+00 0.  1.
          5    1    3    3  502    0  0.45627387842E+02  0.63118564120E+02 -0.25519919321E+03  0.26686050639E+03  0.47000000000E+01 0. -1.
         11    1    6    6    0    0  0.13897640251E+02 -0.45468175738E+01  0.54616751383E+02  0.56540317352E+02  0.00000000000E+00 0. -1.
        -12    1    6    6    0    0 -0.20457709457E+02  0.36806637598E+02 -0.55762472339E+01  0.42477535012E+02  0.00000000000E+00 0.  1.
         -5    1    5    5    0  503 -0.65566863633E+02 -0.34324979698E+02  0.12148390580E+03  0.14232936172E+03  0.47000000000E+01 0.  1.
<mgrwt>
<rscale>  2 0.18280650E+03</rscale>
<asrwt>0</asrwt>
<pdfrwt beam="1">  1       21 0.34360640E-01 0.18699630E+03</pdfrwt>
<pdfrwt beam="2">  1       21 0.82704443E-01 0.18699630E+03</pdfrwt>
<totfact> 0.10451562E+04</totfact>
</mgrwt>
</event>
<event>
12    1  0.2768653E-001  0.1895728E+03  0.7546771E-02  0.1158923E+00
         21   -1    0    0  504  503  0.00000000000E+00  0.00000000000E+00  0.21248427407E+04  0.21248427407E+04  0.00000000000E+00 0.  1.
         21   -1    0    0  502  504 -0.00000000000E+00 -0.00000000000E+00 -0.32626937306E+02  0.32626937306E+02  0.00000000000E+00 0.  1.
          6    2    1    2  502    0 -0.73054561919E+02 -0.24708202852E+02  0.29628299690E+03  0.35155924787E+03  0.17280864042E+03 0.  0.
         24    2    3    3    0    0 -0.68345496625E+02  0.40290573225E+02  0.12937369564E+03  0.17231689508E+03  0.81615697054E+02 0.  0.
         -6    2    1    2    0  503  0.73054561919E+02  0.24708202852E+02  0.17959328065E+04  0.18059104301E+04  0.17317728468E+03 0.  0.
        -24    2    5    5    0    0 -0.27343912157E+02  0.47828947986E+01  0.65092753490E+03  0.65632962242E+03  0.79318043073E+02 0.  0.
          4    1    4    4  501    0 -0.53754147023E+02  0.20886364171E+02  0.13551374226E+03  0.14727431165E+03  0.00000000000E+00 0. -1.
         -3    1    4    4    0  501 -0.14591349603E+02  0.19404209054E+02 -0.61400466200E+01  0.25042583428E+02  0.00000000000E+00 0.  1.
          5    1    3    3  502    0 -0.47090652936E+01 -0.64998776076E+02  0.16690930126E+03  0.17924235279E+03  0.47000000000E+01 0. -1.
         13    1    6    6    0    0  0.64373376007E+01 -0.25222980250E+02  0.92970517248E+02  0.96546129520E+02  0.00000000000E+00 0. -1.
        -14    1    6    6    0    0 -0.33781249758E+02  0.30005875048E+02  0.55795701766E+03  0.55978349290E+03  0.00000000000E+00 0.  1.
         -5    1    5    5    0  503  0.10039847408E+03  0.19925308053E+02  0.11450052716E+04  0.11495808077E+04  0.47000000000E+01 0.  1.
<mgrwt>
<rscale>  2 0.18948854E+03</rscale>
<asrwt>0</asrwt>
<pdfrwt beam="1">  1       21 0.32689877E+00 0.18957277E+03</pdfrwt>
<pdfrwt beam="2">  1       21 0.50195305E-02 0.18957277E+03</pdfrwt>
<totfact> 0.64022676E+03</totfact>
</mgrwt>
</event>
<event>
12    1  0.2768653E-001  0.3054548E+03  0.7546771E-02  0.1082595E+00
         21   -1    0    0  504  503  0.00000000000E+00  0.00000000000E+00  0.39357900947E+03  0.39357900947E+03  0.00000000000E+00 0.  1.
         21   -1    0    0  502  504 -0.00000000000E+00 -0.00000000000E+00 -0.46700242572E+03  0.46700242572E+03  0.00000000000E+00 0.  1.
          6    2    1    2  502    0  0.19174669014E+03 -0.16336652343E+03 -0.33883993702E+03  0.45592283072E+03  0.17203985147E+03 0.  0.
         24    2    3    3    0    0  0.14527167643E+03 -0.16148756722E+03 -0.33729663699E+03  0.40914752579E+03  0.80315516512E+02 0.  0.
         -6    2    1    2    0  503 -0.19174669014E+03  0.16336652343E+03  0.26541652077E+03  0.40465860447E+03  0.17276354510E+03 0.  0.
        -24    2    5    5    0    0 -0.12757873830E+03  0.45380752269E+02  0.20110992883E+03  0.25567673978E+03  0.81176626231E+02 0.  0.
          2    1    4    4  501    0  0.73629080215E+01 -0.33661613204E+02 -0.10367932397E+03  0.10925529203E+03  0.00000000000E+00 0. -1.
         -1    1    4    4    0  501  0.13790876841E+03 -0.12782595402E+03 -0.23361731302E+03  0.29989223376E+03  0.00000000000E+00 0.  1.
          5    1    3    3  502    0  0.46475013718E+02 -0.18789562122E+01 -0.15433000243E+01  0.46775304932E+02  0.47000000000E+01 0. -1.
         11    1    6    6    0    0  0.68771825909E+01  0.30646582734E+01 -0.25896646262E+01  0.79620433055E+01  0.00000000000E+00 0. -1.
        -12    1    6    6    0    0 -0.13445592089E+03  0.42316093996E+02  0.20369959346E+03  0.24771469647E+03  0.00000000000E+00 0.  1.
         -5    1    5    5    0  503 -0.64167951844E+02  0.11798577116E+03  0.64306591938E+02  0.14898186469E+03  0.47000000000E+01 0.  1.
<mgrwt>
<rscale>  2 0.30535260E+03</rscale>
<asrwt>0</asrwt>
<pdfrwt beam="1">  1       21 0.60550617E-01 0.30545484E+03</pdfrwt>
<pdfrwt beam="2">  1       21 0.71846527E-01 0.30545484E+03</pdfrwt>
<totfact> 0.41323555E+03</totfact>
</mgrwt>
</event>
<event>
12    1  0.2768653E-001  0.2055685E+03  0.7546771E-02  0.1145486E+00
         21   -1    0    0  504  503  0.00000000000E+00  0.00000000000E+00  0.42926338178E+03  0.42926338178E+03  0.00000000000E+00 0. -1.
         21   -1    0    0  502  504 -0.00000000000E+00 -0.00000000000E+00 -0.14775284417E+03  0.14775284417E+03  0.00000000000E+00 0. -1.
          6    2    1    2  502    0  0.39388445445E+02  0.10203446664E+03 -0.27739154390E+02  0.20567569441E+03  0.17196089256E+03 0.  0.
         24    2    3    3    0    0  0.87706222705E+02  0.63359300103E+02  0.29714649931E+01  0.13642536410E+03  0.83043771317E+02 0.  0.
         -6    2    1    2    0  503 -0.39388445445E+02 -0.10203446664E+03  0.30924969200E+03  0.37134053154E+03  0.17405727893E+03 0.  0.
        -24    2    5    5    0    0 -0.19439155605E+02  0.13207540501E+02  0.82127283971E+02  0.11583050708E+03  0.78227205629E+02 0.  0.
          4    1    4    4  501    0  0.96151816901E+02  0.67516889405E+02  0.17831510383E+02  0.11883461201E+03  0.00000000000E+00 0. -1.
         -3    1    4    4    0  501 -0.84455941964E+01 -0.41575893022E+01 -0.14860045390E+02  0.17590752091E+02  0.00000000000E+00 0.  1.
          5    1    3    3  502    0 -0.48317777260E+02  0.38675166535E+02 -0.30710619383E+02  0.69250330315E+02  0.47000000000E+01 0. -1.
         13    1    6    6    0    0 -0.50044277793E+01 -0.15657074824E+02  0.81924426889E+02  0.83557166124E+02  0.00000000000E+00 0. -1.
        -14    1    6    6    0    0 -0.14434727826E+02  0.28864615325E+02  0.20285708123E+00  0.32273340953E+02  0.00000000000E+00 0.  1.
         -5    1    5    5    0  503 -0.19949289840E+02 -0.11524200714E+03  0.22712240803E+03  0.25551002447E+03  0.47000000000E+01 0.  1.
<mgrwt>
<rscale>  2 0.20512409E+03</rscale>
<asrwt>0</asrwt>
<pdfrwt beam="1">  1       21 0.66040520E-01 0.20556852E+03</pdfrwt>
<pdfrwt beam="2">  1       21 0.22731207E-01 0.20556852E+03</pdfrwt>
<totfact> 0.37948907E+04</totfact>
</mgrwt>
</event>
<event>
12    1  0.2768653E-001  0.2108650E+03  0.7546771E-02  0.1141026E+00
         21   -1    0    0  504  503  0.00000000000E+00  0.00000000000E+00  0.82392940227E+03  0.82392940227E+03  0.00000000000E+00 0.  1.
         21   -1    0    0  502  504 -0.00000000000E+00 -0.00000000000E+00 -0.98212914844E+02  0.98212914844E+02  0.00000000000E+00 0.  1.
          6    2    1    2  502    0 -0.68876706444E+02  0.10122426123E+03  0.53077651980E+02  0.21744264057E+03  0.17167909904E+03 0.  0.
         24    2    3    3    0    0 -0.72515301580E+02  0.40649903505E+02 -0.23473904487E+02  0.11964323880E+03  0.82780413029E+02 0.  0.
         -6    2    1    2    0  503  0.68876706444E+02 -0.10122426123E+03  0.67263883545E+03  0.70469967655E+03  0.17078723435E+03 0.  0.
        -24    2    5    5    0    0  0.60697587986E+01  0.95997139878E+01  0.29647678277E+03  0.30752635666E+03  0.80901055846E+02 0.  0.
          2    1    4    4  501    0 -0.80029592655E+01  0.44132906281E+02 -0.31112310790E+02  0.54586964163E+02  0.00000000000E+00 0. -1.
         -1    1    4    4    0  501 -0.64512342315E+02 -0.34830027752E+01  0.76384063035E+01  0.65056274641E+02  0.00000000000E+00 0.  1.
          5    1    3    3  502    0  0.36385951364E+01  0.60574357725E+02  0.76551556467E+02  0.97799401767E+02  0.47000000000E+01 0. -1.
         13    1    6    6    0    0  0.22310151461E+02  0.48449258613E+01  0.19475083498E+02  0.30008249567E+02  0.00000000000E+00 0. -1.
        -14    1    6    6    0    0 -0.16240392662E+02  0.47547881265E+01  0.27700169927E+03  0.27751810709E+03  0.00000000000E+00 0.  1.
         -5    1    5    5    0  503  0.62806947645E+02 -0.11082397522E+03  0.37616205268E+03  0.39717331989E+03  0.47000000000E+01 0.  1.
<mgrwt>
<rscale>  2 0.21068343E+03</rscale>
<asrwt>0</asrwt>
<pdfrwt beam="1">  1       21 0.12675836E+00 0.21086504E+03</pdfrwt>
<pdfrwt beam="2">  1       21 0.15109680E-01 0.21086504E+03</pdfrwt>
<totfact> 0.17620560E+04</totfact>
</mgrwt>
</event>
<event>
12    1  0.2768653E-001  0.2126595E+03  0.7546771E-02  0.1139743E+00
         21   -1    0    0  504  503  0.00000000000E+00  0.00000000000E+00  0.24926087737E+03  0.24926087737E+03  0.00000000000E+00 0. -1.
         21   -1    0    0  502  504 -0.00000000000E+00 -0.00000000000E+00 -0.18730240145E+03  0.18730240145E+03  0.00000000000E+00 0.  1.
          6    2    1    2  502    0 -0.12366919088E+03  0.23867175601E+00 -0.11398286899E+02  0.21160711352E+03  0.17132870107E+03 0.  0.
         24    2    3    3    0    0 -0.78774861690E+02 -0.37604616050E+02 -0.61114994049E+02  0.13452627157E+03  0.82113879841E+02 0.  0.
         -6    2    1    2    0  503  0.12366919088E+03 -0.23867175601E+00  0.73356762820E+02  0.22495616531E+03  0.17300270495E+03 0.  0.
        -24    2    5    5    0    0  0.85358144210E+01  0.36617882067E+02 -0.49476274830E+01  0.80845903789E+02  0.71399241781E+02 0.  0.
          4    1    4    4  501    0 -0.55506893173E+02  0.14671236208E+02 -0.50220289268E+02  0.76278029705E+02  0.00000000000E+00 0. -1.
         -3    1    4    4    0  501 -0.23267968518E+02 -0.52275852257E+02 -0.10894704782E+02  0.58248241866E+02  0.00000000000E+00 0.  1.
          5    1    3    3  502    0 -0.44894329186E+02  0.37843287806E+02  0.49716707150E+02  0.77080841945E+02  0.47000000000E+01 0. -1.
         11    1    6    6    0    0  0.21500928495E+02  0.20515105987E+02  0.28726276759E+02  0.41332293383E+02  0.00000000000E+00 0. -1.
        -12    1    6    6    0    0 -0.12965114074E+02  0.16102776080E+02 -0.33673904242E+02  0.39513610406E+02  0.00000000000E+00 0.  1.
         -5    1    5    5    0  503  0.11513337646E+03 -0.36856553823E+02  0.78304390303E+02  0.14411026152E+03  0.47000000000E+01 0.  1.
<mgrwt>
<rscale>  2 0.21231878E+03</rscale>
<asrwt>0</asrwt>
<pdfrwt beam="1">  1       21 0.38347827E-01 0.21265950E+03</pdfrwt>
<pdfrwt beam="2">  1       21 0.28815754E-01 0.21265950E+03</pdfrwt>
<totfact> 0.74921713E+04</totfact>
</mgrwt>
</event>
<event>
12    1  0.2768653E-001  0.1928548E+03  0.7546771E-02  0.1156076E+00
         21   -1    0    0  504  503  0.00000000000E+00  0.00000000000E+00  0.22269939889E+03  0.22269939889E+03  0.00000000000E+00 0.  1.
         21   -1    0    0  502  504 -0.00000000000E+00 -0.00000000000E+00 -0.18892078961E+03  0.18892078961E+03  0.00000000000E+00 0. -1.
          6    2    1    2  502    0 -0.52686484772E+02 -0.65177569819E+02 -0.54191710725E+02  0.20032401529E+03  0.17369222293E+03 0.  0.
         24    2    3    3    0    0 -0.62930472651E+02 -0.10720336366E+03 -0.27377850602E+02  0.14921452762E+03  0.77862847249E+02 0.  0.
         -6    2    1    2    0  503  0.52686484772E+02  0.65177569819E+02  0.87970320011E+02  0.21129617321E+03  0.17286791005E+03 0.  0.
        -24    2    5    5    0    0 -0.19426453409E+02 -0.86132714546E+01  0.32214663511E+02  0.93924339532E+02  0.85629559581E+02 0.  0.
          4    1    4    4  501    0 -0.58280596943E+02 -0.11560175905E+03 -0.37974182597E+02  0.13491639344E+03  0.00000000000E+00 0. -1.
         -3    1    4    4    0  501 -0.46498757078E+01  0.83983953914E+01  0.10596331995E+02  0.14298134179E+02  0.00000000000E+00 0.  1.
          5    1    3    3  502    0  0.10243987879E+02  0.42025793838E+02 -0.26813860123E+02  0.51109487672E+02  0.47000000000E+01 0. -1.
         11    1    6    6    0    0  0.99985066098E+01 -0.23116126947E+02  0.50453285497E+02  0.56390242746E+02  0.00000000000E+00 0. -1.
        -12    1    6    6    0    0 -0.29424960019E+02  0.14502855493E+02 -0.18238621986E+02  0.37534096786E+02  0.00000000000E+00 0.  1.
         -5    1    5    5    0  503  0.72112938181E+02  0.73790841273E+02  0.55755656500E+02  0.11737183368E+03  0.47000000000E+01 0.  1.
<mgrwt>
<rscale>  2 0.19266900E+03</rscale>
<asrwt>0</asrwt>
<pdfrwt beam="1">  1       21 0.34261446E-01 0.19285479E+03</pdfrwt>
<pdfrwt beam="2">  1       21 0.29064737E-01 0.19285479E+03</pdfrwt>
<totfact> 0.93037884E+04</totfact>
</mgrwt>
</event>
<event>
12    1  0.2768653E-001  0.1846486E+03  0.7546771E-02  0.1164673E+00
         21   -1    0    0  504  503  0.00000000000E+00  0.00000000000E+00  0.62558393386E+02  0.62558393386E+02  0.00000000000E+00 0. -1.
         21   -1    0    0  502  504 -0.00000000000E+00 -0.00000000000E+00 -0.65610937942E+03  0.65610937942E+03  0.00000000000E+00 0. -1.
          6    2    1    2  502    0 -0.44423791389E+02  0.78571618312E+00 -0.45130420720E+03  0.48558142638E+03  0.17360801714E+03 0.  0.
         24    2    3    3    0    0  0.27465353051E+02  0.10354927840E+02 -0.20520377698E+03  0.22897446884E+03  0.97258146946E+02 0.  0.
         -6    2    1    2    0  503  0.44423791389E+02 -0.78571618312E+00 -0.14224677883E+03  0.23308634642E+03  0.17922334728E+03 0.  0.
        -24    2    5    5    0    0  0.63708346168E+01  0.52213173507E+02 -0.13696423914E+03  0.16745933176E+03  0.80725596742E+02 0.  0.
          4    1    4    4  501    0  0.50042501091E+02 -0.79557321567E+01 -0.50411400830E+02  0.71476254261E+02  0.00000000000E+00 0. -1.
         -3    1    4    4    0  501 -0.22577148040E+02  0.18310659996E+02 -0.15479237615E+03  0.15749821458E+03  0.00000000000E+00 0.  1.
          5    1    3    3  502    0 -0.71889144440E+02 -0.95692116566E+01 -0.24610043023E+03  0.25660695754E+03  0.47000000000E+01 0. -1.
         11    1    6    6    0    0 -0.22220055876E+02  0.50078427092E+02 -0.44284866340E+02  0.70446640303E+02  0.00000000000E+00 0. -1.
        -12    1    6    6    0    0  0.28590890493E+02  0.21347464142E+01 -0.92679372800E+02  0.97012691459E+02  0.00000000000E+00 0.  1.
         -5    1    5    5    0  503  0.38052956773E+02 -0.52998889690E+02 -0.52825396872E+01  0.65627014659E+02  0.47000000000E+01 0.  1.
<mgrwt>
<rscale>  2 0.18327195E+03</rscale>
<asrwt>0</asrwt>
<pdfrwt beam="1">  1       21 0.96243686E-02 0.18464858E+03</pdfrwt>
<pdfrwt beam="2">  1       21 0.10093990E+00 0.18464858E+03</pdfrwt>
<totfact> 0.69957808E+04</totfact>
</mgrwt>
</event>
<event>
12    1  0.2768653E-001  0.2464635E+03  0.7546771E-02  0.1116201E+00
         21   -1    0    0  504  503  0.00000000000E+00  0.00000000000E+00  0.34710526310E+03  0.34710526310E+03  0.00000000000E+00 0. -1.
         21   -1    0    0  502  504 -0.00000000000E+00 -0.00000000000E+00 -0.45884827474E+03  0.45884827474E+03  0.00000000000E+00 0.  1.
          6    2    1    2  502    0  0.15269454757E+02 -0.17472122206E+03 -0.37453918964E+03  0.44835684159E+03  0.17315770596E+03 0.  0.
         24    2    3    3    0    0 -0.41753955513E+01 -0.11876829562E+03 -0.12420436895E+03  0.19106625756E+03  0.83404121825E+02 0.  0.
         -6    2    1    2    0  503 -0.15269454757E+02  0.17472122206E+03  0.26279617799E+03  0.35759669625E+03  0.16749001259E+03 0.  0.
        -24    2    5    5    0    0 -0.39097715360E+02  0.11701359537E+03  0.25549919959E+03  0.29456264137E+03  0.79161201691E+02 0.  0.
          4    1    4    4  501    0 -0.91737299910E+01 -0.11247221364E+03 -0.62810705571E+02  0.12914852263E+03  0.00000000000E+00 0. -1.
         -3    1    4    4    0  501  0.49983344397E+01 -0.62960819827E+01 -0.61393663380E+02  0.61917734928E+02  0.00000000000E+00 0.  1.
          5    1    3    3  502    0  0.19444850309E+02 -0.55952926437E+02 -0.25033482069E+03  0.25729058403E+03  0.47000000000E+01 0. -1.
         11    1    6    6    0    0 -0.29749089055E+02  0.12821982787E+03  0.22322501330E+03  0.25914231442E+03  0.00000000000E+00 0. -1.
        -12    1    6    6    0    0 -0.93486263049E+01 -0.11206232506E+02  0.32274186282E+02  0.35420326945E+02  0.00000000000E+00 0.  1.
         -5    1    5    5    0  503  0.23828260603E+02  0.57707626690E+02  0.72969784058E+01  0.63034054887E+02  0.47000000000E+01 0.  1.
<mgrwt>
<rscale>  2 0.24547040E+03</rscale>
<asrwt>0</asrwt>
<pdfrwt beam="1">  1       21 0.53400810E-01 0.24646349E+03</pdfrwt>
<pdfrwt beam="2">  1       21 0.70592042E-01 0.24646349E+03</pdfrwt>
<totfact> 0.58174195E+03</totfact>
</mgrwt>
</event>
<event>
12    1  0.2768653E-001  0.2181461E+03  0.7546771E-02  0.1135344E+00
         21   -1    0    0  504  503  0.00000000000E+00  0.00000000000E+00  0.28335151082E+02  0.28335151082E+02  0.00000000000E+00 0. -1.
         21   -1    0    0  502  504 -0.00000000000E+00 -0.00000000000E+00 -0.19344655004E+04  0.19344655004E+04  0.00000000000E+00 0. -1.
          6    2    1    2  502    0 -0.91030605348E+02  0.98533385819E+02 -0.13121319040E+04  0.13301420430E+04  0.17202419014E+03 0.  0.
         24    2    3    3    0    0 -0.57958532575E+02  0.58705375884E+02 -0.40593662619E+03  0.42245707354E+03  0.82945294290E+02 0.  0.
         -6    2    1    2    0  503  0.91030605348E+02 -0.98533385819E+02 -0.59399844541E+03  0.63265860851E+03  0.17154405423E+03 0.  0.
        -24    2    5    5    0    0  0.68466177736E+02 -0.16580954761E+02 -0.17363286816E+03  0.20375924633E+03  0.80043188354E+02 0.  0.
          2    1    4    4  501    0 -0.24790555075E+01  0.34185199509E+02 -0.45568673507E+02  0.57019975332E+02  0.00000000000E+00 0. -1.
         -1    1    4    4    0  501 -0.55479477067E+02  0.24520176375E+02 -0.36036795268E+03  0.36543709821E+03  0.00000000000E+00 0.  1.
          5    1    3    3  502    0 -0.33072072774E+02  0.39828009935E+02 -0.90619527776E+03  0.90768496948E+03  0.47000000000E+01 0. -1.
         13    1    6    6    0    0  0.51674992533E+02  0.23800002139E+02 -0.63485465261E+02  0.85247576238E+02  0.00000000000E+00 0. -1.
        -14    1    6    6    0    0  0.16791185203E+02 -0.40380956900E+02 -0.11014740290E+03  0.11851167009E+03  0.00000000000E+00 0.  1.
         -5    1    5    5    0  503  0.22564427612E+02 -0.81952431057E+02 -0.42036557725E+03  0.42889936218E+03  0.47000000000E+01 0.  1.
<mgrwt>
<rscale>  2 0.21805143E+03</rscale>
<asrwt>0</asrwt>
<pdfrwt beam="1">  1       21 0.43592536E-02 0.21814610E+03</pdfrwt>
<pdfrwt beam="2">  1       21 0.29761010E+00 0.21814610E+03</pdfrwt>
<totfact> 0.11647263E+04</totfact>
</mgrwt>
</event>
<event>
12    1  0.2768653E-001  0.2568919E+03  0.7546771E-02  0.1109083E+00
         21   -1    0    0  504  503  0.00000000000E+00  0.00000000000E+00  0.68418366336E+02  0.68418366336E+02  0.00000000000E+00 0. -1.
         21   -1    0    0  502  504 -0.00000000000E+00 -0.00000000000E+00 -0.99161282472E+03  0.99161282472E+03  0.00000000000E+00 0.  1.
          6    2    1    2  502    0 -0.11464238618E+03 -0.15167449669E+03 -0.55176896706E+03  0.60863981478E+03  0.17275821677E+03 0.  0.
         24    2    3    3    0    0 -0.54634669846E+02 -0.49637162318E+02 -0.40404526875E+03  0.41928056713E+03  0.84230752954E+02 0.  0.
         -6    2    1    2    0  503  0.11464238618E+03  0.15167449669E+03 -0.37142549132E+03  0.45139137628E+03  0.17218957379E+03 0.  0.
        -24    2    5    5    0    0  0.14329917347E+03  0.89703470641E+02 -0.28122069763E+03  0.33816322460E+03  0.81779703685E+02 0.  0.
          2    1    4    4  501    0 -0.18220416482E+02  0.19350973737E+02 -0.18200797692E+03  0.18393843379E+03  0.00000000000E+00 0. -1.
         -1    1    4    4    0  501 -0.36414253364E+02 -0.68988136055E+02 -0.22203729183E+03  0.23534213334E+03  0.00000000000E+00 0.  1.
          5    1    3    3  502    0 -0.60007716331E+02 -0.10203733437E+03 -0.14772369831E+03  0.18935924764E+03  0.47000000000E+01 0. -1.
         11    1    6    6    0    0  0.69477113029E+02  0.57630639740E+02 -0.76980127891E+02  0.11863515483E+03  0.00000000000E+00 0. -1.
        -12    1    6    6    0    0  0.73822060443E+02  0.32072830901E+02 -0.20424056974E+03  0.21952806977E+03  0.00000000000E+00 0.  1.
         -5    1    5    5    0  503 -0.28656787295E+02  0.61971026050E+02 -0.90204793696E+02  0.11322815168E+03  0.47000000000E+01 0.  1.
<mgrwt>
<rscale>  2 0.25679630E+03</rscale>
<asrwt>0</asrwt>
<pdfrwt beam="1">  1       21 0.10525903E-01 0.25689187E+03</pdfrwt>
<pdfrwt beam="2">  1       21 0.15255581E+00 0.25689187E+03</pdfrwt>
<totfact> 0.20379969E+04</totfact>
</mgrwt>
</event>
<event>
12    1  0.2768653E-001  0.2074816E+03  0.7546771E-02  0.1144356E+00
         21   -1    0    0  504  503  0.00000000000E+00  0.00000000000E+00  0.42900262565E+03  0.42900262565E+03  0.00000000000E+00 0.  1.
         21   -1    0    0  502  504 -0.00000000000E+00 -0.00000000000E+00 -0.32000331683E+03  0.32000331683E+03  0.00000000000E+00 0.  1.
          6    2    1    2  502    0 -0.10795001239E+03  0.35253618492E+02 -0.25692080935E+03  0.33023764217E+03  0.17364496893E+03 0.  0.
         24    2    3    3    0    0 -0.25272108206E+02 -0.32703043120E+02 -0.64696105118E+02  0.11017817153E+03  0.79028317599E+02 0.  0.
         -6    2    1    2    0  503  0.10795001239E+03 -0.35253618492E+02  0.36592011818E+03  0.41876830031E+03  0.16903648620E+03 0.  0.
        -24    2    5    5    0    0  0.36364801730E+02 -0.59589900271E+02  0.29487794650E+03  0.31491370411E+03  0.85698790459E+02 0.  0.
          2    1    4    4  501    0 -0.28175093533E+02 -0.57051426666E+02 -0.53882571465E+02  0.83378850363E+02  0.00000000000E+00 0. -1.
         -1    1    4    4    0  501  0.29029853266E+01  0.24348383546E+02 -0.10813533653E+02  0.26799321170E+02  0.00000000000E+00 0.  1.
          5    1    3    3  502    0 -0.82677904179E+02  0.67956661612E+02 -0.19222470424E+03  0.22005947063E+03  0.47000000000E+01 0. -1.
         11    1    6    6    0    0  0.31995172920E+02  0.56655433165E-01  0.31751384484E+02  0.45075988249E+02  0.00000000000E+00 0. -1.
        -12    1    6    6    0    0  0.43696288099E+01 -0.59646555704E+02  0.26312656201E+03  0.26983771586E+03  0.00000000000E+00 0.  1.
         -5    1    5    5    0  503  0.71585210655E+02  0.24336281779E+02  0.71042171683E+02  0.10385459620E+03  0.47000000000E+01 0.  1.
<mgrwt>
<rscale>  2 0.20651450E+03</rscale>
<asrwt>0</asrwt>
<pdfrwt beam="1">  1       21 0.66000404E-01 0.20748156E+03</pdfrwt>
<pdfrwt beam="2">  1       21 0.49231279E-01 0.20748156E+03</pdfrwt>
<totfact> 0.82095797E+03</totfact>
</mgrwt>
</event>
<event>
12    1  0.2768653E-001  0.2160781E+03  0.7546771E-02  0.1137384E+00
         21   -1    0    0  504  503  0.00000000000E+00  0.00000000000E+00  0.52604014120E+02  0.52604014120E+02  0.00000000000E+00 0. -1.
         21   -1    0    0  502  504 -0.00000000000E+00 -0.00000000000E+00 -0.15558464326E+04  0.15558464326E+04  0.00000000000E+00 0. -1.
          6    2    1    2  502    0  0.77569282518E+01  0.12506404059E+03 -0.12860118121E+04  0.13040383995E+04  0.17603574161E+03 0.  0.
         24    2    3    3    0    0  0.39774097276E+02  0.42751504500E+02 -0.35933019217E+03  0.37314561973E+03  0.81913347920E+02 0.  0.
         -6    2    1    2    0  503 -0.77569282518E+01 -0.12506404059E+03 -0.21723060631E+03  0.30441204715E+03  0.17255832043E+03 0.  0.
        -24    2    5    5    0    0  0.32241841356E+02 -0.26527767526E+02 -0.43823006586E+02  0.10093825444E+03  0.80776336378E+02 0.  0.
          4    1    4    4  501    0  0.15919794414E+02  0.58970912019E+02 -0.31033745936E+03  0.31629155380E+03  0.00000000000E+00 0. -1.
         -3    1    4    4    0  501  0.23854302862E+02 -0.16219407520E+02 -0.48992732806E+02  0.56854065933E+02  0.00000000000E+00 0.  1.
          5    1    3    3  502    0 -0.32017169024E+02  0.82312536092E+02 -0.92668161997E+03  0.93089277981E+03  0.47000000000E+01 0. -1.
         11    1    6    6    0    0 -0.18431231260E+02 -0.20505056398E+01  0.11664331611E+02  0.21908251666E+02  0.00000000000E+00 0. -1.
        -12    1    6    6    0    0  0.50673072616E+02 -0.24477261886E+02 -0.55487338197E+02  0.79030002771E+02  0.00000000000E+00 0.  1.
         -5    1    5    5    0  503 -0.39998769608E+02 -0.98536273066E+02 -0.17340759972E+03  0.20347379272E+03  0.47000000000E+01 0.  1.
<mgrwt>
<rscale>  2 0.21536880E+03</rscale>
<asrwt>0</asrwt>
<pdfrwt beam="1">  1       21 0.80929261E-02 0.21607815E+03</pdfrwt>
<pdfrwt beam="2">  1       21 0.23936096E+00 0.21607815E+03</pdfrwt>
<totfact> 0.88491370E+03</totfact>
</mgrwt>
</event>
<event>
12    1  0.2768653E-001  0.2058498E+03  0.7546771E-02  0.1145615E+00
         21   -1    0    0  504  503  0.00000000000E+00  0.00000000000E+00  0.35197174693E+02  0.35197174693E+02  0.00000000000E+00 0.  1.
         21   -1    0    0  502  504 -0.00000000000E+00 -0.00000000000E+00 -0.17439108769E+04  0.17439108769E+04  0.00000000000E+00 0.  1.
          6    2    1    2  502    0 -0.57347099730E+02 -0.94886593620E+02 -0.13536419833E+04  0.13686813510E+04  0.16926271333E+03 0.  0.
         24    2    3    3    0    0 -0.83869554509E+01 -0.59357354484E+02 -0.37784308155E+03  0.39099785966E+03  0.80748346347E+02 0.  0.
         -6    2    1    2    0  503  0.57347099730E+02  0.94886593620E+02 -0.35507171891E+03  0.41042670060E+03  0.17344161985E+03 0.  0.
        -24    2    5    5    0    0  0.61448466386E+02  0.63906904543E+02 -0.35923081765E+03  0.37855272303E+03  0.79971102846E+02 0.  0.
          4    1    4    4  501    0 -0.89359816934E+01 -0.59388645013E+02 -0.13052255182E+03  0.14367671857E+03  0.00000000000E+00 0. -1.
         -3    1    4    4    0  501  0.54902624245E+00  0.31290529418E-01 -0.24732052973E+03  0.24732114110E+03  0.00000000000E+00 0.  1.
          5    1    3    3  502    0 -0.48960144279E+02 -0.35529239136E+02 -0.97579890175E+03  0.97768349133E+03  0.47000000000E+01 0. -1.
         11    1    6    6    0    0 -0.18462423683E+02  0.40552104192E+01 -0.43982392815E+02  0.47872295720E+02  0.00000000000E+00 0. -1.
        -12    1    6    6    0    0  0.79910890070E+02  0.59851694123E+02 -0.31524842484E+03  0.33068042731E+03  0.00000000000E+00 0.  1.
         -5    1    5    5    0  503 -0.41013666564E+01  0.30979689077E+02  0.41590987435E+01  0.31873977570E+02  0.47000000000E+01 0.  1.
<mgrwt>
<rscale>  2 0.20496704E+03</rscale>
<asrwt>0</asrwt>
<pdfrwt beam="1">  1       21 0.54149507E-02 0.20584983E+03</pdfrwt>
<pdfrwt beam="2">  1       21 0.26829395E+00 0.20584983E+03</pdfrwt>
<totfact> 0.12063640E+04</totfact>
</mgrwt>
</event>
<event>
12    1  0.2768653E-001  0.2248952E+03  0.7546771E-02  0.1131821E+00
         21   -1    0    0  504  503  0.00000000000E+00  0.00000000000E+00  0.70161097069E+03  0.70161097069E+03  0.00000000000E+00 0.  1.
         21   -1    0    0  502  504 -0.00000000000E+00 -0.00000000000E+00 -0.82011310152E+02  0.82011310152E+02  0.00000000000E+00 0.  1.
          6    2    1    2  502    0 -0.11729595458E+03  0.70240360136E+02  0.15153623306E+03  0.26433314651E+03  0.16797837141E+03 0.  0.
         24    2    3    3    0    0 -0.14244517643E+03  0.87040525628E+02  0.13762263310E+03  0.23071161793E+03  0.80132266367E+02 0.  0.
         -6    2    1    2    0  503  0.11729595458E+03 -0.70240360136E+02  0.46806342748E+03  0.51928913434E+03  0.17856590867E+03 0.  0.
        -24    2    5    5    0    0 -0.61685986407E+01  0.13033696354E+02  0.11911942887E+03  0.13986579747E+03  0.71868450097E+02 0.  0.
          4    1    4    4  501    0 -0.50962435258E+02  0.77330936355E+02  0.78003229571E+02  0.12108570249E+03  0.00000000000E+00 0. -1.
         -3    1    4    4    0  501 -0.91482741176E+02  0.97095892732E+01  0.59619403533E+02  0.10962591543E+03  0.00000000000E+00 0.  1.
          5    1    3    3  502    0  0.25149221855E+02 -0.16800165492E+02  0.13913599952E+02  0.33621528580E+02  0.47000000000E+01 0. -1.
         11    1    6    6    0    0  0.29123344748E+01  0.11493155370E+02  0.12711626934E+03  0.12766800791E+03  0.00000000000E+00 0. -1.
        -12    1    6    6    0    0 -0.90809331154E+01  0.15405409844E+01 -0.79968404714E+01  0.12197789566E+02  0.00000000000E+00 0.  1.
         -5    1    5    5    0  503  0.12346455322E+03 -0.83274056491E+02  0.34894399862E+03  0.37942333686E+03  0.47000000000E+01 0.  1.
<mgrwt>
<rscale>  2 0.22278803E+03</rscale>
<asrwt>0</asrwt>
<pdfrwt beam="1">  1       21 0.10794015E+00 0.22489516E+03</pdfrwt>
<pdfrwt beam="2">  1       21 0.12617125E-01 0.22489516E+03</pdfrwt>
<totfact> 0.36039367E+04</totfact>
</mgrwt>
</event>
<event>
12    1  0.2768653E-001  0.2102812E+03  0.7546771E-02  0.1141605E+00
         21   -1    0    0  504  503  0.00000000000E+00  0.00000000000E+00  0.57316170486E+02  0.57316170486E+02  0.00000000000E+00 0.  1.
         21   -1    0    0  502  504 -0.00000000000E+00 -0.00000000000E+00 -0.76745630404E+03  0.76745630404E+03  0.00000000000E+00 0.  1.
          6    2    1    2  502    0  0.11449694925E+03 -0.23009841881E+02 -0.34280781521E+03  0.40216339114E+03  0.17486906757E+03 0.  0.
         24    2    3    3    0    0  0.97983434366E+02 -0.24940489287E+02 -0.35616596611E+03  0.38032411989E+03  0.87002639826E+02 0.  0.
         -6    2    1    2    0  503 -0.11449694925E+03  0.23009841881E+02 -0.36733231834E+03  0.42260908338E+03  0.17328127727E+03 0.  0.
        -24    2    5    5    0    0  0.68364885409E+01  0.31849370100E+02 -0.16226321677E+03  0.18412351400E+03  0.80690748791E+02 0.  0.
          4    1    4    4  501    0  0.62627208099E+02 -0.57669315952E+02 -0.23346413215E+03  0.24850235048E+03  0.00000000000E+00 0. -1.
         -3    1    4    4    0  501  0.35356226268E+02  0.32728826666E+02 -0.12270183396E+03  0.13182176940E+03  0.00000000000E+00 0.  1.
          5    1    3    3  502    0  0.16513514883E+02  0.19306474060E+01  0.13358150902E+02  0.21839271250E+02  0.47000000000E+01 0. -1.
         11    1    6    6    0    0 -0.11160477838E+01  0.57283425027E+02 -0.13139888052E+03  0.14334678980E+03  0.00000000000E+00 0. -1.
        -12    1    6    6    0    0  0.79525363247E+01 -0.25434054928E+02 -0.30864336253E+02  0.40776724199E+02  0.00000000000E+00 0.  1.
         -5    1    5    5    0  503 -0.12133343779E+03 -0.88395282188E+01 -0.20506910157E+03  0.23848556938E+03  0.47000000000E+01 0.  1.
<mgrwt>
<rscale>  2 0.20995082E+03</rscale>
<asrwt>0</asrwt>
<pdfrwt beam="1">  1       21 0.88178731E-02 0.21028123E+03</pdfrwt>
<pdfrwt beam="2">  1       21 0.11807019E+00 0.21028123E+03</pdfrwt>
<totfact> 0.55154524E+04</totfact>
</mgrwt>
</event>
<event>
12    1  0.2768653E-001  0.1986600E+03  0.7546771E-02  0.1150975E+00
         21   -1    0    0  504  503  0.00000000000E+00  0.00000000000E+00  0.47999613759E+03  0.47999613759E+03  0.00000000000E+00 0. -1.
         21   -1    0    0  502  504 -0.00000000000E+00 -0.00000000000E+00 -0.83044156490E+02  0.83044156490E+02  0.00000000000E+00 0. -1.
          6    2    1    2  502    0  0.44652123846E+02 -0.84955542004E+02  0.16752385275E+03  0.25986538843E+03  0.17393827233E+03 0.  0.
         24    2    3    3    0    0 -0.30848138745E+02 -0.14077888284E+02  0.11318971519E+03  0.14282599355E+03  0.80234395405E+02 0.  0.
         -6    2    1    2    0  503 -0.44652123846E+02  0.84955542004E+02  0.22942812835E+03  0.30317490565E+03  0.17339694651E+03 0.  0.
        -24    2    5    5    0    0 -0.29969277767E+02 -0.10207382118E+02  0.57449156417E+02  0.10601906658E+03  0.83290387472E+02 0.  0.
          2    1    4    4  501    0 -0.43268639730E+02  0.92113939976E+01  0.25091192282E+02  0.50858557722E+02  0.00000000000E+00 0. -1.
         -1    1    4    4    0  501  0.12420500985E+02 -0.23289282281E+02  0.88098522911E+02  0.91967435829E+02  0.00000000000E+00 0.  1.
          5    1    3    3  502    0  0.75500262592E+02 -0.70877653720E+02  0.54334137562E+02  0.11703939488E+03  0.47000000000E+01 0. -1.
         13    1    6    6    0    0 -0.44205152993E+02  0.23745172266E+02  0.21593908477E+02  0.54628066416E+02  0.00000000000E+00 0. -1.
        -14    1    6    6    0    0  0.14235875226E+02 -0.33952554384E+02  0.35855247940E+02  0.51391000160E+02  0.00000000000E+00 0.  1.
         -5    1    5    5    0  503 -0.14682846079E+02  0.95162924121E+02  0.17197897193E+03  0.19715583908E+03  0.47000000000E+01 0.  1.
<mgrwt>
<rscale>  2 0.19854140E+03</rscale>
<asrwt>0</asrwt>
<pdfrwt beam="1">  1       21 0.73845558E-01 0.19865996E+03</pdfrwt>
<pdfrwt beam="2">  1       21 0.12776024E-01 0.19865996E+03</pdfrwt>
<totfact> 0.86094610E+04</totfact>
</mgrwt>
</event>
<event>
12    1  0.2768653E-001  0.1867098E+03  0.7546771E-02  0.1162058E+00
         21   -1    0    0  504  503  0.00000000000E+00  0.00000000000E+00  0.16622941372E+04  0.16622941372E+04  0.00000000000E+00 0. -1.
         21   -1    0    0  502  504 -0.00000000000E+00 -0.00000000000E+00 -0.23840189398E+02  0.23840189398E+02  0.00000000000E+00 0. -1.
          6    2    1    2  502    0 -0.68732448964E+02 -0.11384994286E+02  0.11210345235E+04  0.11360585035E+04  0.17046041424E+03 0.  0.
         24    2    3    3    0    0 -0.54657506482E+02 -0.42316189106E+02  0.56476745466E+03  0.57873455398E+03  0.10579840853E+03 0.  0.
         -6    2    1    2    0  503  0.68732448964E+02  0.11384994286E+02  0.51741942433E+03  0.55007582314E+03  0.17322466019E+03 0.  0.
        -24    2    5    5    0    0  0.25618101972E+01  0.47986929131E+02  0.39893432022E+03  0.40943775943E+03  0.78621744814E+02 0.  0.
          2    1    4    4  501    0 -0.13191989343E+02 -0.53268327398E+02  0.12056871595E+03  0.13247021761E+03  0.00000000000E+00 0. -1.
         -1    1    4    4    0  501 -0.41465517139E+02  0.10952138292E+02  0.44419873871E+03  0.44626433637E+03  0.00000000000E+00 0.  1.
          5    1    3    3  502    0 -0.14074942482E+02  0.30931194821E+02  0.55626706885E+03  0.55732394952E+03  0.47000000000E+01 0. -1.
         11    1    6    6    0    0 -0.66043681527E+01 -0.21077321985E+02  0.11295453663E+03  0.11509386833E+03  0.00000000000E+00 0. -1.
        -12    1    6    6    0    0  0.91661783499E+01  0.69064251116E+02  0.28597978359E+03  0.29434389111E+03  0.00000000000E+00 0.  1.
         -5    1    5    5    0  503  0.66170638766E+02 -0.36601934845E+02  0.11848510411E+03  0.14063806371E+03  0.47000000000E+01 0.  1.
<mgrwt>
<rscale>  2 0.18606605E+03</rscale>
<asrwt>0</asrwt>
<pdfrwt beam="1">  1       21 0.25573747E+00 0.18670980E+03</pdfrwt>
<pdfrwt beam="2">  1       21 0.36677227E-02 0.18670980E+03</pdfrwt>
<totfact> 0.28020604E+04</totfact>
</mgrwt>
</event>
<event>
12    1  0.2768653E-001  0.2587468E+03  0.7546771E-02  0.1108254E+00
         21   -1    0    0  504  503  0.00000000000E+00  0.00000000000E+00  0.42548111921E+02  0.42548111921E+02  0.00000000000E+00 0.  1.
         21   -1    0    0  502  504 -0.00000000000E+00 -0.00000000000E+00 -0.16035726197E+04  0.16035726197E+04  0.00000000000E+00 0.  1.
          6    2    1    2  502    0 -0.45193264252E+02 -0.18724640003E+03 -0.92070222279E+03  0.95636943558E+03  0.17276072704E+03 0.  0.
         24    2    3    3    0    0 -0.81744419906E+01 -0.13911988637E+02 -0.26855459505E+03  0.28054857933E+03  0.79533451540E+02 0.  0.
         -6    2    1    2    0  503  0.45193264252E+02  0.18724640003E+03 -0.64032228503E+03  0.68975129608E+03  0.16923526903E+03 0.  0.
        -24    2    5    5    0    0 -0.81753676021E+01  0.24293029389E+02 -0.21891814143E+03  0.23477266569E+03  0.80845927517E+02 0.  0.
          4    1    4    4  501    0  0.18569014227E+02 -0.28816011514E+02 -0.54987244670E+02  0.64797900316E+02  0.00000000000E+00 0. -1.
         -3    1    4    4    0  501 -0.26743456217E+02  0.14904022877E+02 -0.21356735038E+03  0.21575067902E+03  0.00000000000E+00 0.  1.
          5    1    3    3  502    0 -0.37018822261E+02 -0.17333441139E+03 -0.65214762774E+03  0.67582085625E+03  0.47000000000E+01 0. -1.
         11    1    6    6    0    0  0.18999908368E+01  0.27573057865E+02 -0.22201879168E+03  0.22373249058E+03  0.00000000000E+00 0. -1.
        -12    1    6    6    0    0 -0.10075358439E+02 -0.32800284755E+01  0.31006502458E+01  0.11040175108E+02  0.00000000000E+00 0.  1.
         -5    1    5    5    0  503  0.53368631854E+02  0.16295337064E+03 -0.42140414360E+03  0.45497863039E+03  0.47000000000E+01 0.  1.
<mgrwt>
<rscale>  2 0.25815971E+03</rscale>
<asrwt>0</asrwt>
<pdfrwt beam="1">  1       21 0.65458642E-02 0.25874681E+03</pdfrwt>
<pdfrwt beam="2">  1       21 0.24670345E+00 0.25874681E+03</pdfrwt>
<totfact> 0.11186910E+04</totfact>
</mgrwt>
</event>
<event>
12    1  0.2768653E-001  0.2616678E+03  0.7546771E-02  0.1106172E+00
         21   -1    0    0  504  503  0.00000000000E+00  0.00000000000E+00  0.13883490376E+03  0.13883490376E+03  0.00000000000E+00 0.  1.
         21   -1    0    0  502  504 -0.00000000000E+00 -0.00000000000E+00 -0.49430568289E+03  0.49430568289E+03  0.00000000000E+00 0.  1.
          6    2    1    2  502    0  0.81944220980E+02 -0.17815138202E+03 -0.19501996055E+03  0.32634772017E+03  0.17325495427E+03 0.  0.
         24    2    3    3    0    0  0.66184808270E+01 -0.15898460937E+03 -0.10180793214E+03  0.20489030152E+03  0.79342739475E+02 0.  0.
         -6    2    1    2    0  503 -0.81944220980E+02  0.17815138202E+03 -0.16045081857E+03  0.30679286647E+03  0.17298736217E+03 0.  0.
        -24    2    5    5    0    0 -0.36530381341E+02  0.58353658770E+02 -0.57475108257E+01  0.10587219866E+03  0.80226369205E+02 0.  0.
          2    1    4    4  501    0 -0.26101386309E+02 -0.47616431268E+02 -0.61437815451E+02  0.81995195355E+02  0.00000000000E+00 0. -1.
         -1    1    4    4    0  501  0.32719867136E+02 -0.11136817810E+03 -0.40370116690E+02  0.12289510617E+03  0.00000000000E+00 0.  1.
          5    1    3    3  502    0  0.75325740153E+02 -0.19166772654E+02 -0.93212028414E+02  0.12145741865E+03  0.47000000000E+01 0. -1.
         11    1    6    6    0    0 -0.47942222735E+02  0.16623824133E+02 -0.27211244798E+02  0.57578295330E+02  0.00000000000E+00 0. -1.
        -12    1    6    6    0    0  0.11411841395E+02  0.41729834637E+02  0.21463733973E+02  0.48293903331E+02  0.00000000000E+00 0.  1.
         -5    1    5    5    0  503 -0.45413839640E+02  0.11979772325E+03 -0.15470330775E+03  0.20092066781E+03  0.47000000000E+01 0.  1.
<mgrwt>
<rscale>  2 0.26162354E+03</rscale>
<asrwt>0</asrwt>
<pdfrwt beam="1">  1       21 0.21359216E-01 0.26166782E+03</pdfrwt>
<pdfrwt beam="2">  1       21 0.76047028E-01 0.26166782E+03</pdfrwt>
<totfact> 0.30401938E+04</totfact>
</mgrwt>
</event>
<event>
12    1  0.2768653E-001  0.2050591E+03  0.7546771E-02  0.1145847E+00
         21   -1    0    0  504  503  0.00000000000E+00  0.00000000000E+00  0.42388752853E+03  0.42388752853E+03  0.00000000000E+00 0.  1.
         21   -1    0    0  502  504 -0.00000000000E+00 -0.00000000000E+00 -0.10611312779E+03  0.10611312779E+03  0.00000000000E+00 0. -1.
          6    2    1    2  502    0 -0.78939316217E+02 -0.76590621643E+02  0.87244407409E+02  0.22146651132E+03  0.17128423758E+03 0.  0.
         24    2    3    3    0    0  0.13644752556E+02 -0.86845460003E+01  0.87824658089E+01  0.82321223294E+02  0.80237469348E+02 0.  0.
         -6    2    1    2    0  503  0.78939316217E+02  0.76590621643E+02  0.23052999334E+03  0.30853414500E+03  0.17306559981E+03 0.  0.
        -24    2    5    5    0    0  0.64857677419E+02  0.79018684336E+02  0.67487607646E+02  0.14479930579E+03  0.77212634834E+02 0.  0.
          2    1    4    4  501    0  0.32288596730E+02 -0.22051879864E+02 -0.21271709142E+02  0.44512071331E+02  0.00000000000E+00 0. -1.
         -1    1    4    4    0  501 -0.18643844174E+02  0.13367333864E+02  0.30054174951E+02  0.37809151963E+02  0.00000000000E+00 0.  1.
          5    1    3    3  502    0 -0.92584068773E+02 -0.67906075642E+02  0.78461941600E+02  0.13914528802E+03  0.47000000000E+01 0. -1.
         13    1    6    6    0    0  0.13810371884E+02  0.52831486610E+02 -0.20547458573E+01  0.54645350484E+02  0.00000000000E+00 0. -1.
        -14    1    6    6    0    0  0.51047305535E+02  0.26187197727E+02  0.69542353503E+02  0.90153955309E+02  0.00000000000E+00 0.  1.
         -5    1    5    5    0  503  0.14081638798E+02 -0.24280626936E+01  0.16304238569E+03  0.16373483921E+03  0.47000000000E+01 0.  1.
<mgrwt>
<rscale>  2 0.20468278E+03</rscale>
<asrwt>0</asrwt>
<pdfrwt beam="1">  1       21 0.65213465E-01 0.20505912E+03</pdfrwt>
<pdfrwt beam="2">  1       21 0.16325097E-01 0.20505912E+03</pdfrwt>
<totfact> 0.72321034E+04</totfact>
</mgrwt>
</event>
<event>
12    1  0.2768653E-001  0.2292914E+03  0.7546771E-02  0.1127185E+00
         21   -1    0    0  504  503  0.00000000000E+00  0.00000000000E+00  0.33658743382E+03  0.33658743382E+03  0.00000000000E+00 0.  1.
         21   -1    0    0  502  504 -0.00000000000E+00 -0.00000000000E+00 -0.15605255769E+03  0.15605255769E+03  0.00000000000E+00 0.  1.
          6    2    1    2  502    0  0.24397565351E+02  0.14845273224E+03  0.93513514232E+02  0.24739055784E+03  0.17269584784E+03 0.  0.
         24    2    3    3    0    0  0.52848109269E+02  0.16929047779E+03  0.75923059729E+02  0.20770228277E+03  0.76965828430E+02 0.  0.
         -6    2    1    2    0  503 -0.24397565351E+02 -0.14845273224E+03  0.87021361889E+02  0.24524943367E+03  0.17303500335E+03 0.  0.
        -24    2    5    5    0    0  0.50328401614E+02 -0.94386570423E+02  0.28696630642E+02  0.13602038869E+03  0.78970100944E+02 0.  0.
          2    1    4    4  501    0  0.56253154525E+02  0.82320219014E+02  0.13544514039E+02  0.10062052332E+03  0.00000000000E+00 0. -1.
         -1    1    4    4    0  501 -0.34050452565E+01  0.86970258773E+02  0.62378545690E+02  0.10708175945E+03  0.00000000000E+00 0.  1.
          5    1    3    3  502    0 -0.28450543917E+02 -0.20837745551E+02  0.17590454503E+02  0.39688275075E+02  0.47000000000E+01 0. -1.
         11    1    6    6    0    0 -0.95188591216E+01  0.21437862619E+01 -0.11915289028E+02  0.15400604246E+02  0.00000000000E+00 0. -1.
        -12    1    6    6    0    0  0.59847260735E+02 -0.96530356685E+02  0.40611919670E+02  0.12061978444E+03  0.00000000000E+00 0.  1.
         -5    1    5    5    0  503 -0.74725966965E+02 -0.54066161814E+02  0.58324731247E+02  0.10922904498E+03  0.47000000000E+01 0.  1.
<mgrwt>
<rscale>  2 0.22922746E+03</rscale>
<asrwt>0</asrwt>
<pdfrwt beam="1">  1       21 0.51782682E-01 0.22929145E+03</pdfrwt>
<pdfrwt beam="2">  1       21 0.24008086E-01 0.22929145E+03</pdfrwt>
<totfact> 0.56991324E+04</totfact>
</mgrwt>
</event>
<event>
12    1  0.2768653E-001  0.1956002E+03  0.7546771E-02  0.1156399E+00
         21   -1    0    0  504  503  0.00000000000E+00  0.00000000000E+00  0.13615117350E+03  0.13615117350E+03  0.00000000000E+00 0. -1.
         21   -1    0    0  502  504 -0.00000000000E+00 -0.00000000000E+00 -0.26729511993E+03  0.26729511993E+03  0.00000000000E+00 0. -1.
          6    2    1    2  502    0  0.80098275508E+02  0.20362306085E+02 -0.41742687167E+02  0.20000469728E+03  0.17728245754E+03 0.  0.
         24    2    3    3    0    0  0.58151527261E+02  0.20386034987E+02  0.46508105926E+02  0.10894453692E+03  0.76868183688E+02 0.  0.
         -6    2    1    2    0  503 -0.80098275508E+02 -0.20362306085E+02 -0.89401259267E+02  0.20344159615E+03  0.16298938811E+03 0.  0.
        -24    2    5    5    0    0 -0.23400801147E+02  0.25378747160E+02 -0.97002541802E+02  0.13004733856E+03  0.79442676498E+02 0.  0.
          4    1    4    4  501    0  0.60477943147E+02 -0.31068524970E+01  0.44590896467E+01  0.60721640461E+02  0.00000000000E+00 0. -1.
         -3    1    4    4    0  501 -0.23264158867E+01  0.23492887484E+02  0.42049016279E+02  0.48222896463E+02  0.00000000000E+00 0.  1.
          5    1    3    3  502    0  0.21946748248E+02 -0.23728901975E-01 -0.88250793093E+02  0.91060160352E+02  0.47000000000E+01 0. -1.
         11    1    6    6    0    0 -0.49121585168E+02  0.25612062692E+02 -0.42643258734E+02  0.69909623087E+02  0.00000000000E+00 0. -1.
        -12    1    6    6    0    0  0.25720784021E+02 -0.23331553238E+00 -0.54359283068E+02  0.60137715474E+02  0.00000000000E+00 0.  1.
         -5    1    5    5    0  503 -0.56697474361E+02 -0.45741053245E+02  0.76012825346E+01  0.73394257589E+02  0.47000000000E+01 0.  1.
<mgrwt>
<rscale>  2 0.19230411E+03</rscale>
<asrwt>0</asrwt>
<pdfrwt beam="1">  1       21 0.20946335E-01 0.19560017E+03</pdfrwt>
<pdfrwt beam="2">  1       21 0.41122326E-01 0.19560017E+03</pdfrwt>
<totfact> 0.12043739E+05</totfact>
</mgrwt>
</event>
<event>
12    1  0.2768653E-001  0.2604664E+03  0.7546771E-02  0.1106865E+00
         21   -1    0    0  504  503  0.00000000000E+00  0.00000000000E+00  0.13280489320E+03  0.13280489320E+03  0.00000000000E+00 0.  1.
         21   -1    0    0  502  504 -0.00000000000E+00 -0.00000000000E+00 -0.80701923161E+03  0.80701923161E+03  0.00000000000E+00 0. -1.
          6    2    1    2  502    0  0.19251519634E+03  0.26622163711E+02 -0.52420044185E+02  0.26567957030E+03  0.17339819093E+03 0.  0.
         24    2    3    3    0    0  0.10716821769E+03  0.82140403438E+02 -0.17741808401E+02  0.15801782340E+03  0.80142298371E+02 0.  0.
         -6    2    1    2    0  503 -0.19251519634E+03 -0.26622163711E+02 -0.62179429423E+03  0.67414455451E+03  0.17341250136E+03 0.  0.
        -24    2    5    5    0    0 -0.48306387225E+02 -0.78477658184E+01 -0.12466826779E+03  0.15616286101E+03  0.80309200538E+02 0.  0.
          2    1    4    4  501    0  0.80853588728E+02  0.55863354948E+02  0.24957493349E+02  0.10139474203E+03  0.00000000000E+00 0. -1.
         -1    1    4    4    0  501  0.26314628962E+02  0.26277048490E+02 -0.42699301750E+02  0.56623081378E+02  0.00000000000E+00 0.  1.
          5    1    3    3  502    0  0.85346978650E+02 -0.55518239728E+02 -0.34678235783E+02  0.10766174689E+03  0.47000000000E+01 0. -1.
         13    1    6    6    0    0 -0.16033172842E+02  0.29427952250E+02 -0.89589019877E+02  0.95651761550E+02  0.00000000000E+00 0. -1.
        -14    1    6    6    0    0 -0.32273214383E+02 -0.37275718068E+02 -0.35079247910E+02  0.60511099461E+02  0.00000000000E+00 0.  1.
         -5    1    5    5    0  503 -0.14420880912E+03 -0.18774397892E+02 -0.49712602644E+03  0.51798169350E+03  0.47000000000E+01 0.  1.
<mgrwt>
<rscale>  2 0.26046400E+03</rscale>
<asrwt>0</asrwt>
<pdfrwt beam="1">  1       21 0.20431522E-01 0.26046638E+03</pdfrwt>
<pdfrwt beam="2">  1       21 0.12415681E+00 0.26046638E+03</pdfrwt>
<totfact> 0.10305098E+04</totfact>
</mgrwt>
</event>
<event>
12    1  0.2768653E-001  0.3056186E+03  0.7546771E-02  0.1082855E+00
         21   -1    0    0  504  503  0.00000000000E+00  0.00000000000E+00  0.39294773014E+03  0.39294773014E+03  0.00000000000E+00 0. -1.
         21   -1    0    0  502  504 -0.00000000000E+00 -0.00000000000E+00 -0.23542929734E+03  0.23542929734E+03  0.00000000000E+00 0. -1.
          6    2    1    2  502    0  0.17993360746E+02  0.25030871333E+03  0.70091402836E+02  0.31355310035E+03  0.17442628526E+03 0.  0.
         24    2    3    3    0    0  0.60449400568E+02  0.21160524057E+03  0.15547385971E+02  0.23419559348E+03  0.78580830541E+02 0.  0.
         -6    2    1    2    0  503 -0.17993360746E+02 -0.25030871333E+03  0.87427029960E+02  0.31482392712E+03  0.16879693873E+03 0.  0.
        -24    2    5    5    0    0 -0.75545406281E+02 -0.15161275428E+03  0.59515676476E+02  0.19711978985E+03  0.81366824532E+02 0.  0.
          2    1    4    4  501    0  0.15079883414E+02  0.16295231419E+03 -0.74235446818E+01  0.16381687519E+03  0.00000000000E+00 0. -1.
         -1    1    4    4    0  501  0.45369517154E+02  0.48652926387E+02  0.22970930653E+02  0.70378718288E+02  0.00000000000E+00 0.  1.
          5    1    3    3  502    0 -0.42456039822E+02  0.38703472755E+02  0.54544016865E+02  0.79357506869E+02  0.47000000000E+01 0. -1.
         11    1    6    6    0    0 -0.48316741095E+02 -0.95859962735E+02  0.77637462319E+02  0.13248100045E+03  0.00000000000E+00 0. -1.
        -12    1    6    6    0    0 -0.27228665185E+02 -0.55752791546E+02 -0.18121785843E+02  0.64638789400E+02  0.00000000000E+00 0.  1.
         -5    1    5    5    0  503  0.57552045534E+02 -0.98695959047E+02  0.27911353484E+02  0.11770413727E+03  0.47000000000E+01 0.  1.
<mgrwt>
<rscale>  2 0.30482113E+03</rscale>
<asrwt>0</asrwt>
<pdfrwt beam="1">  1       21 0.60453497E-01 0.30561862E+03</pdfrwt>
<pdfrwt beam="2">  1       21 0.36219892E-01 0.30561862E+03</pdfrwt>
<totfact> 0.17711979E+04</totfact>
</mgrwt>
</event>
<event>
12    1  0.2768653E-001  0.2610304E+03  0.7546771E-02  0.1106744E+00
         21   -1    0    0  504  503  0.00000000000E+00  0.00000000000E+00  0.17449708258E+03  0.17449708258E+03  0.00000000000E+00 0. -1.
         21   -1    0    0  502  504 -0.00000000000E+00 -0.00000000000E+00 -0.57381885604E+03  0.57381885604E+03  0.00000000000E+00 0.  1.
          6    2    1    2  502    0  0.13314269539E+03 -0.14243353537E+03 -0.41202957810E+03  0.48697634633E+03  0.17135722724E+03 0.  0.
         24    2    3    3    0    0  0.16047856654E+03 -0.11509310585E+03 -0.29931246108E+03  0.36772037203E+03  0.81428062225E+02 0.  0.
         -6    2    1    2    0  503 -0.13314269539E+03  0.14243353537E+03  0.12707804644E+02  0.26133959229E+03  0.17355864964E+03 0.  0.
        -24    2    5    5    0    0 -0.91863807711E+02 -0.12949656958E+01  0.18776955020E+02  0.11160398138E+03  0.60516431798E+02 0.  0.
          2    1    4    4  501    0  0.10806854842E+03 -0.11877953841E+03 -0.23589964941E+03  0.28536999578E+03  0.00000000000E+00 0. -1.
         -1    1    4    4    0  501  0.52410018120E+02  0.36864325607E+01 -0.63412811672E+02  0.82350376250E+02  0.00000000000E+00 0.  1.
          5    1    3    3  502    0 -0.27335871148E+02 -0.27340429520E+02 -0.11271711702E+03  0.11925597430E+03  0.47000000000E+01 0. -1.
         11    1    6    6    0    0 -0.47523510803E+02  0.25779398237E+02  0.24460738126E+02  0.59341293904E+02  0.00000000000E+00 0. -1.
        -12    1    6    6    0    0 -0.44340296907E+02 -0.27074363932E+02 -0.56837831066E+01  0.52262687480E+02  0.00000000000E+00 0.  1.
         -5    1    5    5    0  503 -0.41278887679E+02  0.14372850106E+03 -0.60691503763E+01  0.14973561090E+03  0.47000000000E+01 0.  1.
<mgrwt>
<rscale>  2 0.26066505E+03</rscale>
<asrwt>0</asrwt>
<pdfrwt beam="1">  1       21 0.26845705E-01 0.26103045E+03</pdfrwt>
<pdfrwt beam="2">  1       21 0.88279823E-01 0.26103045E+03</pdfrwt>
<totfact> 0.13949744E+04</totfact>
</mgrwt>
</event>
<event>
12    1  0.2768653E-001  0.2002335E+03  0.7546771E-02  0.1149829E+00
         21   -1    0    0  504  503  0.00000000000E+00  0.00000000000E+00  0.21234889528E+03  0.21234889528E+03  0.00000000000E+00 0.  1.
         21   -1    0    0  502  504 -0.00000000000E+00 -0.00000000000E+00 -0.18861834883E+03  0.18861834883E+03  0.00000000000E+00 0. -1.
          6    2    1    2  502    0 -0.46243253975E+02  0.85476855204E+02 -0.32975589287E+01  0.20026069520E+03  0.17506781781E+03 0.  0.
         24    2    3    3    0    0  0.39015898342E+02  0.48365179791E+02  0.22204318071E+02  0.10372658083E+03  0.80029625083E+02 0.  0.
         -6    2    1    2    0  503  0.46243253975E+02 -0.85476855204E+02  0.27028105376E+02  0.20070654891E+03  0.17351619227E+03 0.  0.
        -24    2    5    5    0    0  0.46416215786E+02 -0.11692637199E+03 -0.11408611847E+02  0.15082094725E+03  0.82404855147E+02 0.  0.
          4    1    4    4  501    0  0.56936442592E+02  0.89096772993E+01  0.83491653692E+01  0.58231000395E+02  0.00000000000E+00 0. -1.
         -3    1    4    4    0  501 -0.17920544250E+02  0.39455502491E+02  0.13855152702E+02  0.45495580439E+02  0.00000000000E+00 0.  1.
          5    1    3    3  502    0 -0.85259152317E+02  0.37111675413E+02 -0.25501877000E+02  0.96534114365E+02  0.47000000000E+01 0. -1.
         11    1    6    6    0    0  0.39885509746E+02 -0.18238047710E+02  0.18342926584E+02  0.47538860185E+02  0.00000000000E+00 0. -1.
        -12    1    6    6    0    0  0.65307060397E+01 -0.98688324276E+02 -0.29751538431E+02  0.10328208707E+03  0.00000000000E+00 0.  1.
         -5    1    5    5    0  503 -0.17296181111E+00  0.31449516783E+02  0.38436717223E+02  0.49885601655E+02  0.47000000000E+01 0.  1.
<mgrwt>
<rscale>  2 0.19989388E+03</rscale>
<asrwt>0</asrwt>
<pdfrwt beam="1">  1       21 0.32669061E-01 0.20023354E+03</pdfrwt>
<pdfrwt beam="2">  1       21 0.29018207E-01 0.20023354E+03</pdfrwt>
<totfact> 0.10221183E+05</totfact>
</mgrwt>
</event>
<event>
12    1  0.2768653E-001  0.1800108E+03  0.7546771E-02  0.1167833E+00
         21   -1    0    0  504  503  0.00000000000E+00  0.00000000000E+00  0.18981982092E+03  0.18981982092E+03  0.00000000000E+00 0. -1.
         21   -1    0    0  502  504 -0.00000000000E+00 -0.00000000000E+00 -0.17450963049E+03  0.17450963049E+03  0.00000000000E+00 0. -1.
          6    2    1    2  502    0  0.95319018281E+00  0.48670245247E+02  0.35102070214E+02  0.18340128152E+03  0.17330370275E+03 0.  0.
         24    2    3    3    0    0 -0.14006991888E+01  0.98700259088E+02  0.39230241261E+02  0.13292678424E+03  0.79917551490E+02 0.  0.
         -6    2    1    2    0  503 -0.95319018281E+00 -0.48670245247E+02 -0.19791879781E+02  0.18092816989E+03  0.17312880410E+03 0.  0.
        -24    2    5    5    0    0  0.61750320494E+02 -0.12791015034E+02 -0.32994700328E+02  0.10733840238E+03  0.80350297006E+02 0.  0.
          2    1    4    4  501    0 -0.23780232055E+02  0.72831956898E+02  0.55933709593E+02  0.94860809880E+02  0.00000000000E+00 0. -1.
         -1    1    4    4    0  501  0.22379532866E+02  0.25868302189E+02 -0.16703468332E+02  0.38065974358E+02  0.00000000000E+00 0.  1.
          5    1    3    3  502    0  0.23538893716E+01 -0.50030013840E+02 -0.41281710476E+01  0.50474497286E+02  0.47000000000E+01 0. -1.
         13    1    6    6    0    0  0.28456810967E+02 -0.41188926935E+02  0.37419220553E+01  0.50202786507E+02  0.00000000000E+00 0. -1.
        -14    1    6    6    0    0  0.33293509528E+02  0.28397911900E+02 -0.36736622383E+02  0.57135615872E+02  0.00000000000E+00 0.  1.
         -5    1    5    5    0  503 -0.62703510677E+02 -0.35879230213E+02  0.13202820547E+02  0.73589767511E+02  0.47000000000E+01 0.  1.
<mgrwt>
<rscale>  2 0.17996865E+03</rscale>
<asrwt>0</asrwt>
<pdfrwt beam="1">  1       21 0.29203049E-01 0.18001076E+03</pdfrwt>
<pdfrwt beam="2">  1       21 0.26847635E-01 0.18001076E+03</pdfrwt>
<totfact> 0.14897096E+05</totfact>
</mgrwt>
</event>
<event>
12    1  0.2768653E-001  0.1769804E+03  0.7546771E-02  0.1170758E+00
         21   -1    0    0  504  503  0.00000000000E+00  0.00000000000E+00  0.74467974805E+03  0.74467974805E+03  0.00000000000E+00 0. -1.
         21   -1    0    0  502  504 -0.00000000000E+00 -0.00000000000E+00 -0.76357529312E+02  0.76357529312E+02  0.00000000000E+00 0. -1.
          6    2    1    2  502    0 -0.30978979853E+02 -0.23126866331E+02  0.59032394493E+02  0.18656413433E+03  0.17270438177E+03 0.  0.
         24    2    3    3    0    0  0.37023288297E+02  0.20215665827E+02  0.60733295705E+01  0.89974092794E+02  0.79240488520E+02 0.  0.
         -6    2    1    2    0  503  0.30978979853E+02  0.23126866331E+02  0.60928982424E+03  0.63447314302E+03  0.17270648556E+03 0.  0.
        -24    2    5    5    0    0  0.20511185614E+02  0.34131115639E+02  0.14969328587E+03  0.17460170849E+03  0.80573165398E+02 0.  0.
          2    1    4    4  501    0  0.60044353585E+02  0.94315363734E+01  0.15724980906E+02  0.62781791152E+02  0.00000000000E+00 0. -1.
         -1    1    4    4    0  501 -0.23021065288E+02  0.10784129453E+02 -0.96516513356E+01  0.27192301642E+02  0.00000000000E+00 0.  1.
          5    1    3    3  502    0 -0.68002268149E+02 -0.43342532158E+02  0.52959064923E+02  0.96590041540E+02  0.47000000000E+01 0. -1.
         11    1    6    6    0    0  0.31406937863E+02  0.52142249371E+02  0.72880404295E+02  0.94956638765E+02  0.00000000000E+00 0. -1.
        -12    1    6    6    0    0 -0.10895752249E+02 -0.18011133731E+02  0.76812881572E+02  0.79645069720E+02  0.00000000000E+00 0.  1.
         -5    1    5    5    0  503  0.10467794239E+02 -0.11004249309E+02  0.45959653837E+03  0.45987143454E+03  0.47000000000E+01 0.  1.
<mgrwt>
<rscale>  2 0.17697994E+03</rscale>
<asrwt>0</asrwt>
<pdfrwt beam="1">  1       21 0.11456611E+00 0.17698045E+03</pdfrwt>
<pdfrwt beam="2">  1       21 0.11747313E-01 0.17698045E+03</pdfrwt>
<totfact> 0.36384699E+04</totfact>
</mgrwt>
</event>
<event>
12    1  0.2768653E-001  0.2787577E+03  0.7546771E-02  0.1097229E+00
         21   -1    0    0  504  503  0.00000000000E+00  0.00000000000E+00  0.21658174145E+03  0.21658174145E+03  0.00000000000E+00 0. -1.
         21   -1    0    0  502  504 -0.00000000000E+00 -0.00000000000E+00 -0.36418164060E+03  0.36418164060E+03  0.00000000000E+00 0.  1.
          6    2    1    2  502    0 -0.14857038366E+03  0.14970284191E+03 -0.19083474792E+02  0.27941017264E+03  0.18226838943E+03 0.  0.
         24    2    3    3    0    0 -0.10937296550E+03  0.54586530848E+02  0.47525123622E+02  0.15676293213E+03  0.85871092827E+02 0.  0.
         -6    2    1    2    0  503  0.14857038366E+03 -0.14970284191E+03 -0.12851642436E+03  0.30135320941E+03  0.17266495220E+03 0.  0.
        -24    2    5    5    0    0  0.12307400005E+02 -0.74053305564E+02 -0.82671320508E+02  0.13882839097E+03  0.82482790592E+02 0.  0.
          4    1    4    4  501    0 -0.10096822908E+03  0.62065539514E+02  0.65607648905E+02  0.13546615102E+03  0.00000000000E+00 0. -1.
         -3    1    4    4    0  501 -0.84047364183E+01 -0.74790086662E+01 -0.18082525283E+02  0.21296781107E+02  0.00000000000E+00 0.  1.
          5    1    3    3  502    0 -0.39197418163E+02  0.95116311062E+02 -0.66608598414E+02  0.12264724050E+03  0.47000000000E+01 0. -1.
         11    1    6    6    0    0  0.36139157104E+02 -0.41221704544E+02 -0.10180759512E+02  0.55757649394E+02  0.00000000000E+00 0. -1.
        -12    1    6    6    0    0 -0.23831757098E+02 -0.32831601020E+02 -0.72490560996E+02  0.83070741573E+02  0.00000000000E+00 0.  1.
         -5    1    5    5    0  503  0.13626298366E+03 -0.75649536346E+02 -0.45845103848E+02  0.16252481845E+03  0.47000000000E+01 0.  1.
<mgrwt>
<rscale>  2 0.27719909E+03</rscale>
<asrwt>0</asrwt>
<pdfrwt beam="1">  1       21 0.33320268E-01 0.27875772E+03</pdfrwt>
<pdfrwt beam="2">  1       21 0.56027944E-01 0.27875772E+03</pdfrwt>
<totfact> 0.24935826E+04</totfact>
</mgrwt>
</event>
<event>
12    1  0.2768653E-001  0.2747438E+03  0.7546771E-02  0.1098678E+00
         21   -1    0    0  504  503  0.00000000000E+00  0.00000000000E+00  0.78883466018E+03  0.78883466018E+03  0.00000000000E+00 0. -1.
         21   -1    0    0  502  504 -0.00000000000E+00 -0.00000000000E+00 -0.10347210919E+03  0.10347210919E+03  0.00000000000E+00 0. -1.
          6    2    1    2  502    0 -0.17555676300E+03 -0.12153486799E+03  0.46697903340E+03  0.54180583287E+03  0.17289662149E+03 0.  0.
         24    2    3    3    0    0 -0.18333386496E+03 -0.13652020783E+03  0.46451024272E+03  0.52410756593E+03  0.81669467277E+02 0.  0.
         -6    2    1    2    0  503  0.17555676300E+03  0.12153486799E+03  0.21838351760E+03  0.35050093650E+03  0.17195535630E+03 0.  0.
        -24    2    5    5    0    0  0.70768502670E+02  0.11457548301E+03  0.77139827493E+02  0.17443026167E+03  0.79621862099E+02 0.  0.
          4    1    4    4  501    0 -0.18720798928E+03 -0.11251865299E+03  0.41781290134E+03  0.47146038969E+03  0.00000000000E+00 0. -1.
         -3    1    4    4    0  501  0.38741243202E+01 -0.24001554838E+02  0.46697341386E+02  0.52647176243E+02  0.00000000000E+00 0.  1.
          5    1    3    3  502    0  0.77771019646E+01  0.14985339842E+02  0.24687906800E+01  0.17698266936E+02  0.47000000000E+01 0. -1.
         13    1    6    6    0    0  0.49441707973E+02  0.19053024247E+02  0.50024422977E+02  0.72869356484E+02  0.00000000000E+00 0. -1.
        -14    1    6    6    0    0  0.21326794697E+02  0.95522458766E+02  0.27115404516E+02  0.10156090519E+03  0.00000000000E+00 0.  1.
         -5    1    5    5    0  503  0.10478826033E+03  0.69593849785E+01  0.14124369010E+03  0.17607067483E+03  0.47000000000E+01 0.  1.
<mgrwt>
<rscale>  2 0.27459582E+03</rscale>
<asrwt>0</asrwt>
<pdfrwt beam="1">  1       21 0.12135917E+00 0.27474378E+03</pdfrwt>
<pdfrwt beam="2">  1       21 0.15918787E-01 0.27474378E+03</pdfrwt>
<totfact> 0.17252362E+04</totfact>
</mgrwt>
</event>
<event>
12    1  0.2768653E-001  0.2058421E+03  0.7546771E-02  0.1144953E+00
         21   -1    0    0  504  503  0.00000000000E+00  0.00000000000E+00  0.58148159269E+03  0.58148159269E+03  0.00000000000E+00 0. -1.
         21   -1    0    0  502  504 -0.00000000000E+00 -0.00000000000E+00 -0.74408108924E+02  0.74408108924E+02  0.00000000000E+00 0.  1.
          6    2    1    2  502    0  0.22193636771E+02  0.10928180241E+03  0.20483575484E+03  0.29021413922E+03  0.17271795011E+03 0.  0.
         24    2    3    3    0    0  0.78975394533E+02  0.53548566398E+02  0.11205665715E+03  0.16790137382E+03  0.80806033276E+02 0.  0.
         -6    2    1    2    0  503 -0.22193636771E+02 -0.10928180241E+03  0.30223772893E+03  0.36567556240E+03  0.17301994770E+03 0.  0.
        -24    2    5    5    0    0  0.33824243110E+02 -0.98928376256E+02  0.13161624944E+03  0.18573397309E+03  0.79014989685E+02 0.  0.
          4    1    4    4  501    0  0.81077662104E+02  0.22796025709E+02  0.48309760893E+02  0.97093146401E+02  0.00000000000E+00 0. -1.
         -3    1    4    4    0  501 -0.21022675718E+01  0.30752540689E+02  0.63746896255E+02  0.70808227417E+02  0.00000000000E+00 0.  1.
          5    1    3    3  502    0 -0.56781757761E+02  0.55733236007E+02  0.92779097696E+02  0.12231276540E+03  0.47000000000E+01 0. -1.
         13    1    6    6    0    0 -0.18809727131E+02 -0.99542116193E+00  0.11542251747E+02  0.22091180897E+02  0.00000000000E+00 0. -1.
        -14    1    6    6    0    0  0.52633970241E+02 -0.97932955095E+02  0.12007399769E+03  0.16364279220E+03  0.00000000000E+00 0.  1.
         -5    1    5    5    0  503 -0.56017879881E+02 -0.10353426149E+02  0.17062147949E+03  0.17994158931E+03  0.47000000000E+01 0.  1.
<mgrwt>
<rscale>  2 0.20577863E+03</rscale>
<asrwt>0</asrwt>
<pdfrwt beam="1">  1       21 0.89458704E-01 0.20584210E+03</pdfrwt>
<pdfrwt beam="2">  1       21 0.11447402E-01 0.20584210E+03</pdfrwt>
<totfact> 0.67589184E+04</totfact>
</mgrwt>
</event>
<event>
12    1  0.2768653E-001  0.2582959E+03  0.7546771E-02  0.1108443E+00
         21   -1    0    0  504  503  0.00000000000E+00  0.00000000000E+00  0.17966343731E+04  0.17966343731E+04  0.00000000000E+00 0.  1.
         21   -1    0    0  502  504 -0.00000000000E+00 -0.00000000000E+00 -0.74659703313E+02  0.74659703313E+02  0.00000000000E+00 0. -1.
          6    2    1    2  502    0  0.17466261547E+03 -0.74350795115E+02  0.19392287557E+03  0.32156537139E+03  0.17251995952E+03 0.  0.
         24    2    3    3    0    0  0.96791936842E+02  0.19179981407E+02  0.13879523541E+03  0.18787544860E+03  0.79350589719E+02 0.  0.
         -6    2    1    2    0  503 -0.17466261547E+03  0.74350795115E+02  0.15280517942E+04  0.15497287050E+04  0.17516193473E+03 0.  0.
        -24    2    5    5    0    0 -0.89203861090E+02  0.77061673095E+02  0.67731721609E+03  0.69469539574E+03  0.99735908054E+02 0.  0.
          2    1    4    4  501    0  0.10123232835E+03  0.93884954296E+00  0.89500106300E+02  0.13512636593E+03  0.00000000000E+00 0. -1.
         -1    1    4    4    0  501 -0.44403915059E+01  0.18241131864E+02  0.49295129114E+02  0.52749082672E+02  0.00000000000E+00 0.  1.
          5    1    3    3  502    0  0.77870678628E+02 -0.93530776522E+02  0.55127640153E+02  0.13368992279E+03  0.47000000000E+01 0. -1.
         11    1    6    6    0    0  0.12897236276E+01 -0.10125249824E+01 -0.32888477922E+01  0.36749304314E+01  0.00000000000E+00 0. -1.
        -12    1    6    6    0    0 -0.90493584717E+02  0.78074198078E+02  0.68060606388E+03  0.69102046530E+03  0.00000000000E+00 0.  1.
         -5    1    5    5    0  503 -0.85458754380E+02 -0.27108779805E+01  0.85073457813E+03  0.85503330928E+03  0.47000000000E+01 0.  1.
<mgrwt>
<rscale>  2 0.25784867E+03</rscale>
<asrwt>0</asrwt>
<pdfrwt beam="1">  1       21 0.27640525E+00 0.25829590E+03</pdfrwt>
<pdfrwt beam="2">  1       21 0.11486110E-01 0.25829590E+03</pdfrwt>
<totfact> 0.27708494E+03</totfact>
</mgrwt>
</event>
<event>
12    1  0.2768653E-001  0.1774399E+03  0.7546771E-02  0.1171259E+00
         21   -1    0    0  504  503  0.00000000000E+00  0.00000000000E+00  0.64544454340E+02  0.64544454340E+02  0.00000000000E+00 0.  1.
         21   -1    0    0  502  504 -0.00000000000E+00 -0.00000000000E+00 -0.59281831977E+03  0.59281831977E+03  0.00000000000E+00 0.  1.
          6    2    1    2  502    0  0.23230537249E+01  0.35398876907E+02 -0.40687894482E+03  0.44237060573E+03  0.16994940425E+03 0.  0.
         24    2    3    3    0    0  0.49669970524E+02  0.33166266199E+02 -0.36565777616E+03  0.37937862349E+03  0.81580779010E+02 0.  0.
         -6    2    1    2    0  503 -0.23230537249E+01 -0.35398876907E+02 -0.12139492060E+03  0.21499216838E+03  0.17385749524E+03 0.  0.
        -24    2    5    5    0    0 -0.37499199340E+02 -0.74223508743E+02 -0.11132111830E+03  0.16143579854E+03  0.82181545795E+02 0.  0.
          4    1    4    4  501    0  0.61329662737E+02 -0.22028673007E+01 -0.18470434368E+03  0.19463266614E+03  0.00000000000E+00 0. -1.
         -3    1    4    4    0  501 -0.11659692213E+02  0.35369133500E+02 -0.18095343248E+03  0.18474595734E+03  0.00000000000E+00 0.  1.
          5    1    3    3  502    0 -0.47346916799E+02  0.22326107077E+01 -0.41221168657E+02  0.62991982239E+02  0.47000000000E+01 0. -1.
         11    1    6    6    0    0 -0.49530521563E+02 -0.17132920222E+02 -0.78806631929E+02  0.94642985782E+02  0.00000000000E+00 0. -1.
        -12    1    6    6    0    0  0.12031322223E+02 -0.57090588521E+02 -0.32514486368E+02  0.66792812756E+02  0.00000000000E+00 0.  1.
         -5    1    5    5    0  503  0.35176145616E+02  0.38824631836E+02 -0.10073802306E+02  0.53556369841E+02  0.47000000000E+01 0.  1.
<mgrwt>
<rscale>  2 0.17647517E+03</rscale>
<asrwt>0</asrwt>
<pdfrwt beam="1">  1       21 0.99299161E-02 0.17743987E+03</pdfrwt>
<pdfrwt beam="2">  1       21 0.91202818E-01 0.17743987E+03</pdfrwt>
<totfact> 0.84245132E+04</totfact>
</mgrwt>
</event>
<event>
12    1  0.2768653E-001  0.2360912E+03  0.7546771E-02  0.1122497E+00
         21   -1    0    0  504  503  0.00000000000E+00  0.00000000000E+00  0.12581416642E+03  0.12581416642E+03  0.00000000000E+00 0.  1.
         21   -1    0    0  502  504 -0.00000000000E+00 -0.00000000000E+00 -0.75283541871E+03  0.75283541871E+03  0.00000000000E+00 0.  1.
          6    2    1    2  502    0  0.82777661274E+02 -0.13865029326E+03 -0.59587008521E+03  0.64093699418E+03  0.17222957654E+03 0.  0.
         24    2    3    3    0    0  0.30241185452E+02 -0.32944535089E+02 -0.12498651856E+03  0.15546072087E+03  0.80910655806E+02 0.  0.
         -6    2    1    2    0  503 -0.82777661274E+02  0.13865029326E+03 -0.31151167076E+02  0.23771259094E+03  0.17164159069E+03 0.  0.
        -24    2    5    5    0    0 -0.71833649482E+02  0.42561549538E+02  0.34478962093E+02  0.12074156069E+03  0.80113462993E+02 0.  0.
          2    1    4    4  501    0 -0.47655523733E+01  0.22425424706E+02 -0.55063558266E+02  0.59645667165E+02  0.00000000000E+00 0. -1.
         -1    1    4    4    0  501  0.35006737825E+02 -0.55369959795E+02 -0.69922960289E+02  0.95815053705E+02  0.00000000000E+00 0.  1.
          5    1    3    3  502    0  0.52536475822E+02 -0.10570575817E+03 -0.47088356666E+03  0.48547627331E+03  0.47000000000E+01 0. -1.
         11    1    6    6    0    0 -0.74790025246E+02  0.59772050165E+02  0.19436732729E+02  0.97693563946E+02  0.00000000000E+00 0. -1.
        -12    1    6    6    0    0  0.29563757639E+01 -0.17210500626E+02  0.15042229364E+02  0.23047996740E+02  0.00000000000E+00 0.  1.
         -5    1    5    5    0  503 -0.10944011791E+02  0.96088743723E+02 -0.65630129168E+02  0.11697103026E+03  0.47000000000E+01 0.  1.
<mgrwt>
<rscale>  2 0.23598401E+03</rscale>
<asrwt>0</asrwt>
<pdfrwt beam="1">  1       21 0.19356026E-01 0.23609124E+03</pdfrwt>
<pdfrwt beam="2">  1       21 0.11582083E+00 0.23609124E+03</pdfrwt>
<totfact> 0.13752178E+04</totfact>
</mgrwt>
</event>
<event>
12    1  0.2768653E-001  0.3158656E+03  0.7546771E-02  0.1077604E+00
         21   -1    0    0  504  503  0.00000000000E+00  0.00000000000E+00  0.32075458804E+03  0.32075458804E+03  0.00000000000E+00 0. -1.
         21   -1    0    0  502  504 -0.00000000000E+00 -0.00000000000E+00 -0.46385458149E+03  0.46385458149E+03  0.00000000000E+00 0. -1.
          6    2    1    2  502    0  0.23583949554E+03  0.11931097307E+03 -0.29695941872E+03  0.43353892856E+03  0.17296164390E+03 0.  0.
         24    2    3    3    0    0  0.22399610869E+03  0.87736143298E+02 -0.17863527837E+03  0.31041326967E+03  0.81079885044E+02 0.  0.
         -6    2    1    2    0  503 -0.23583949554E+03 -0.11931097307E+03  0.15385942526E+03  0.35107024097E+03  0.17240132076E+03 0.  0.
        -24    2    5    5    0    0 -0.21978368373E+03 -0.59923714311E+02  0.16091127213E+03  0.28896988557E+03  0.75600516534E+02 0.  0.
          4    1    4    4  501    0  0.43506614124E+01 -0.11864013260E+02 -0.75531024983E+01  0.14721834897E+02  0.00000000000E+00 0. -1.
         -3    1    4    4    0  501  0.21964544728E+03  0.99600156559E+02 -0.17108217587E+03  0.29569143477E+03  0.00000000000E+00 0.  1.
          5    1    3    3  502    0  0.11843386845E+02  0.31574829773E+02 -0.11832414035E+03  0.12312565889E+03  0.47000000000E+01 0. -1.
         13    1    6    6    0    0 -0.31488678920E+02 -0.37413461069E+02  0.46579599704E+02  0.67534902664E+02  0.00000000000E+00 0. -1.
        -14    1    6    6    0    0 -0.18829500481E+03 -0.22510253243E+02  0.11433167243E+03  0.22143498291E+03  0.00000000000E+00 0.  1.
         -5    1    5    5    0  503 -0.16055811813E+02 -0.59387258760E+02 -0.70518468669E+01  0.62100355395E+02  0.47000000000E+01 0.  1.
<mgrwt>
<rscale>  2 0.31578900E+03</rscale>
<asrwt>0</asrwt>
<pdfrwt beam="1">  1       21 0.49346860E-01 0.31586565E+03</pdfrwt>
<pdfrwt beam="2">  1       21 0.71362243E-01 0.31586565E+03</pdfrwt>
<totfact> 0.64668439E+03</totfact>
</mgrwt>
</event>
<event>
12    1  0.2768653E-001  0.2150989E+03  0.7546771E-02  0.1137754E+00
         21   -1    0    0  504  503  0.00000000000E+00  0.00000000000E+00  0.18557605035E+03  0.18557605035E+03  0.00000000000E+00 0. -1.
         21   -1    0    0  502  504 -0.00000000000E+00 -0.00000000000E+00 -0.34020621411E+04  0.34020621411E+04  0.00000000000E+00 0. -1.
          6    2    1    2  502    0 -0.40421475093E+02 -0.12025757433E+03 -0.33351189634E+04  0.33419935410E+04  0.17264573106E+03 0.  0.
         24    2    3    3    0    0 -0.59641776744E+01 -0.77074136168E+02 -0.96269995643E+03  0.96892671742E+03  0.77793211472E+02 0.  0.
         -6    2    1    2    0  503  0.40421475093E+02  0.12025757433E+03  0.11863287265E+03  0.24564465042E+03  0.17370018990E+03 0.  0.
        -24    2    5    5    0    0  0.63210826475E+02  0.57788733807E+02  0.13318122480E+03  0.17741375475E+03  0.80020343647E+02 0.  0.
          2    1    4    4  501    0 -0.15914629122E+02  0.11596372654E+02 -0.22206933541E+03  0.22294066701E+03  0.00000000000E+00 0. -1.
         -1    1    4    4    0  501  0.99504514477E+01 -0.88670508822E+02 -0.74063062102E+03  0.74598605041E+03  0.00000000000E+00 0.  1.
          5    1    3    3  502    0 -0.34457297419E+02 -0.43183438162E+02 -0.23724190070E+04  0.23730668236E+04  0.47000000000E+01 0. -1.
         11    1    6    6    0    0  0.77555899083E+02  0.34860290065E+02  0.75522706101E+02  0.11372702600E+03  0.00000000000E+00 0. -1.
        -12    1    6    6    0    0 -0.14345072608E+02  0.22928443741E+02  0.57658518700E+02  0.63686728752E+02  0.00000000000E+00 0.  1.
         -5    1    5    5    0  503 -0.22789351382E+02  0.62468840523E+02 -0.14548352148E+02  0.68230895663E+02  0.47000000000E+01 0.  1.
<mgrwt>
<rscale>  2 0.21488593E+03</rscale>
<asrwt>0</asrwt>
<pdfrwt beam="1">  1       21 0.28550161E-01 0.21509890E+03</pdfrwt>
<pdfrwt beam="2">  1       21 0.52339418E+00 0.21509890E+03</pdfrwt>
<totfact> 0.14463610E+01</totfact>
</mgrwt>
</event>
<event>
12    1  0.2768653E-001  0.1870270E+03  0.7546771E-02  0.1162355E+00
         21   -1    0    0  504  503  0.00000000000E+00  0.00000000000E+00  0.12967089800E+03  0.12967089800E+03  0.00000000000E+00 0.  1.
         21   -1    0    0  502  504 -0.00000000000E+00 -0.00000000000E+00 -0.26515553244E+03  0.26515553244E+03  0.00000000000E+00 0.  1.
          6    2    1    2  502    0 -0.44379471066E+02  0.47811011958E+02 -0.86627429095E+02  0.20152320667E+03  0.16985835581E+03 0.  0.
         24    2    3    3    0    0 -0.18176789160E+02  0.59865896468E+02  0.88040132762E+01  0.10171764083E+03  0.79716037175E+02 0.  0.
         -6    2    1    2    0  503  0.44379471066E+02 -0.47811011958E+02 -0.48857205341E+02  0.19330322377E+03  0.17528171465E+03 0.  0.
        -24    2    5    5    0    0  0.35964734848E+02 -0.79523303754E+02  0.16205308038E+02  0.12028474745E+03  0.81168900874E+02 0.  0.
          4    1    4    4  501    0 -0.19302811021E+01  0.67174979510E+02  0.30368840918E+02  0.73745985355E+02  0.00000000000E+00 0. -1.
         -3    1    4    4    0  501 -0.16246508057E+02 -0.73090830420E+01 -0.21564827642E+02  0.27971655478E+02  0.00000000000E+00 0.  1.
          5    1    3    3  502    0 -0.26202681906E+02 -0.12054884510E+02 -0.95431442372E+02  0.99805565840E+02  0.47000000000E+01 0. -1.
         13    1    6    6    0    0  0.21042346260E+02 -0.37983640935E+02  0.48869600984E+02  0.65374117319E+02  0.00000000000E+00 0. -1.
        -14    1    6    6    0    0  0.14922388588E+02 -0.41539662819E+02 -0.32664292947E+02  0.54910630136E+02  0.00000000000E+00 0.  1.
         -5    1    5    5    0  503  0.84147362183E+01  0.31712291796E+02 -0.65062513379E+02  0.73018476318E+02  0.47000000000E+01 0.  1.
<mgrwt>
<rscale>  2 0.18574569E+03</rscale>
<asrwt>0</asrwt>
<pdfrwt beam="1">  1       21 0.19949369E-01 0.18702703E+03</pdfrwt>
<pdfrwt beam="2">  1       21 0.40793158E-01 0.18702703E+03</pdfrwt>
<totfact> 0.13451464E+05</totfact>
</mgrwt>
</event>
<event>
12    1  0.2768653E-001  0.1890357E+03  0.7546771E-02  0.1159456E+00
         21   -1    0    0  504  503  0.00000000000E+00  0.00000000000E+00  0.76069202422E+03  0.76069202422E+03  0.00000000000E+00 0.  1.
         21   -1    0    0  502  504 -0.00000000000E+00 -0.00000000000E+00 -0.84295657520E+02  0.84295657520E+02  0.00000000000E+00 0. -1.
          6    2    1    2  502    0  0.74168716635E+02 -0.84292489311E+00  0.56849022741E+02  0.19739882465E+03  0.17387574741E+03 0.  0.
         24    2    3    3    0    0  0.18119072336E+02 -0.40104130569E+02 -0.21002829086E+02  0.93639460112E+02  0.79941150789E+02 0.  0.
         -6    2    1    2    0  503 -0.74168716635E+02  0.84292489311E+00  0.61954734396E+03  0.64758885709E+03  0.17329370262E+03 0.  0.
        -24    2    5    5    0    0 -0.42449272977E+02  0.63257681406E+02  0.46699475181E+03  0.47967188859E+03  0.78724503532E+02 0.  0.
          2    1    4    4  501    0  0.50014524335E+02 -0.25103152387E+02 -0.14328341081E+02  0.57766099595E+02  0.00000000000E+00 0. -1.
         -1    1    4    4    0  501 -0.31895452000E+02 -0.15000978181E+02 -0.66744880050E+01  0.35873360517E+02  0.00000000000E+00 0.  1.
          5    1    3    3  502    0  0.56049644299E+02  0.39261205676E+02  0.77851851827E+02  0.10375936454E+03  0.47000000000E+01 0. -1.
         11    1    6    6    0    0 -0.41438774274E+02  0.75166145760E+02  0.29421633703E+03  0.30648062656E+03  0.00000000000E+00 0. -1.
        -12    1    6    6    0    0 -0.10104987037E+01 -0.11908464353E+02  0.17277841478E+03  0.17319126203E+03  0.00000000000E+00 0.  1.
         -5    1    5    5    0  503 -0.31719443658E+02 -0.62414756513E+02  0.15255259215E+03  0.16791696850E+03  0.47000000000E+01 0.  1.
<mgrwt>
<rscale>  2 0.18890172E+03</rscale>
<asrwt>0</asrwt>
<pdfrwt beam="1">  1       21 0.11702954E+00 0.18903567E+03</pdfrwt>
<pdfrwt beam="2">  1       21 0.12968563E-01 0.18903567E+03</pdfrwt>
<totfact> 0.28739442E+04</totfact>
</mgrwt>
</event>
<event>
12    1  0.2768653E-001  0.3582448E+03  0.7546771E-02  0.1059336E+00
         21   -1    0    0  504  503  0.00000000000E+00  0.00000000000E+00  0.64150430781E+03  0.64150430781E+03  0.00000000000E+00 0.  1.
         21   -1    0    0  502  504 -0.00000000000E+00 -0.00000000000E+00 -0.20391513852E+03  0.20391513852E+03  0.00000000000E+00 0. -1.
          6    2    1    2  502    0 -0.28037922327E+03 -0.14490891177E+03  0.27902977353E+03  0.45365371069E+03  0.16832401242E+03 0.  0.
         24    2    3    3    0    0 -0.14749316379E+03 -0.80731353146E+02  0.23424522591E+03  0.29936434119E+03  0.80476072043E+02 0.  0.
         -6    2    1    2    0  503  0.28037922327E+03  0.14490891177E+03  0.15855939577E+03  0.39176573564E+03  0.16949397655E+03 0.  0.
        -24    2    5    5    0    0  0.22594935502E+03  0.45792476124E+02  0.11300482359E+03  0.26976578720E+03  0.82785432833E+02 0.  0.
          2    1    4    4  501    0 -0.12211989215E+03 -0.96740831323E+02  0.20484368569E+03  0.25735771228E+03  0.00000000000E+00 0. -1.
         -1    1    4    4    0  501 -0.25373271642E+02  0.16009478177E+02  0.29401540214E+02  0.42006628909E+02  0.00000000000E+00 0.  1.
          5    1    3    3  502    0 -0.13288605948E+03 -0.64177558619E+02  0.44784547618E+02  0.15428936949E+03  0.47000000000E+01 0. -1.
         11    1    6    6    0    0  0.14902845167E+03  0.61125413174E+02  0.48518405303E+02  0.16822553670E+03  0.00000000000E+00 0. -1.
        -12    1    6    6    0    0  0.76920903344E+02 -0.15332937050E+02  0.64486418283E+02  0.10154025051E+03  0.00000000000E+00 0.  1.
         -5    1    5    5    0  503  0.54429868248E+02  0.99116435641E+02  0.45554572183E+02  0.12199994844E+03  0.47000000000E+01 0.  1.
<mgrwt>
<rscale>  2 0.35810667E+03</rscale>
<asrwt>0</asrwt>
<pdfrwt beam="1">  1       21 0.98692969E-01 0.35824476E+03</pdfrwt>
<pdfrwt beam="2">  1       21 0.31371560E-01 0.35824476E+03</pdfrwt>
<totfact> 0.75586826E+03</totfact>
</mgrwt>
</event>
<event>
12    1  0.2768653E-001  0.1856017E+03  0.7546771E-02  0.1162691E+00
         21   -1    0    0  504  503  0.00000000000E+00  0.00000000000E+00  0.51276075160E+02  0.51276075160E+02  0.00000000000E+00 0.  1.
         21   -1    0    0  502  504 -0.00000000000E+00 -0.00000000000E+00 -0.12273670117E+04  0.12273670117E+04  0.00000000000E+00 0.  1.
          6    2    1    2  502    0 -0.93029320861E+01 -0.65018615486E+02 -0.10186320336E+04  0.10352477201E+04  0.17266342177E+03 0.  0.
         24    2    3    3    0    0 -0.51602934523E+02  0.52616538912E+01 -0.43980793928E+03  0.45062131921E+03  0.83294669801E+02 0.  0.
         -6    2    1    2    0  503  0.93029320861E+01  0.65018615486E+02 -0.15745890296E+03  0.24339536676E+03  0.17359157104E+03 0.  0.
        -24    2    5    5    0    0 -0.52662261362E+01  0.90025178900E+02 -0.17173516765E+03  0.21078416748E+03  0.82490796313E+02 0.  0.
          4    1    4    4  501    0 -0.49934510139E+02  0.22935518626E+02 -0.14164321450E+03  0.15192858036E+03  0.00000000000E+00 0. -1.
         -3    1    4    4    0  501 -0.16684243846E+01 -0.17673864734E+02 -0.29816472479E+03  0.29869273885E+03  0.00000000000E+00 0.  1.
          5    1    3    3  502    0  0.42300002437E+02 -0.70280269377E+02 -0.57882409429E+03  0.58462640087E+03  0.47000000000E+01 0. -1.
         11    1    6    6    0    0 -0.28944822784E+01 -0.69561930491E+01 -0.69278920258E+02  0.69687412361E+02  0.00000000000E+00 0. -1.
        -12    1    6    6    0    0 -0.23717438578E+01  0.96981371949E+02 -0.10245624740E+03  0.14109675512E+03  0.00000000000E+00 0.  1.
         -5    1    5    5    0  503  0.14569158222E+02 -0.25006563414E+02  0.14276264699E+02  0.32611199286E+02  0.47000000000E+01 0.  1.
<mgrwt>
<rscale>  2 0.18538439E+03</rscale>
<asrwt>0</asrwt>
<pdfrwt beam="1">  1       21 0.78886268E-02 0.18560172E+03</pdfrwt>
<pdfrwt beam="2">  1       21 0.18882570E+00 0.18560172E+03</pdfrwt>
<totfact> 0.19626834E+04</totfact>
</mgrwt>
</event>
<event>
12    1  0.2768653E-001  0.1815423E+03  0.7546771E-02  0.1166863E+00
         21   -1    0    0  504  503  0.00000000000E+00  0.00000000000E+00  0.81365970062E+03  0.81365970062E+03  0.00000000000E+00 0.  1.
         21   -1    0    0  502  504 -0.00000000000E+00 -0.00000000000E+00 -0.67456730836E+02  0.67456730836E+02  0.00000000000E+00 0.  1.
          6    2    1    2  502    0  0.24406888956E+02  0.43014267536E+02  0.93435297267E+02  0.20417584054E+03  0.17467597329E+03 0.  0.
         24    2    3    3    0    0  0.14312958653E+02  0.59085219062E+02 -0.11038537579E+02  0.97888329143E+02  0.75923328256E+02 0.  0.
         -6    2    1    2    0  503 -0.24406888956E+02 -0.43014267536E+02  0.65276767251E+03  0.67694059091E+03  0.17232819243E+03 0.  0.
        -24    2    5    5    0    0  0.38753041724E+02 -0.19024573711E+02  0.46999162280E+03  0.48202046214E+03  0.97917658100E+02 0.  0.
          4    1    4    4  501    0  0.40505294872E+02  0.36985071046E+02 -0.25749711119E+02  0.60593910714E+02  0.00000000000E+00 0. -1.
         -3    1    4    4    0  501 -0.26192336219E+02  0.22100148016E+02  0.14711173541E+02  0.37294418428E+02  0.00000000000E+00 0.  1.
          5    1    3    3  502    0  0.10093930303E+02 -0.16070951526E+02  0.10447383485E+03  0.10628751140E+03  0.47000000000E+01 0. -1.
         11    1    6    6    0    0 -0.16871479552E+02  0.22576579081E+02  0.24327005327E+03  0.24489725920E+03  0.00000000000E+00 0. -1.
        -12    1    6    6    0    0  0.55624521275E+02 -0.41601152793E+02  0.22672156953E+03  0.23712320294E+03  0.00000000000E+00 0.  1.
         -5    1    5    5    0  503 -0.63159930679E+02 -0.23989693824E+02  0.18277604971E+03  0.19492012877E+03  0.47000000000E+01 0.  1.
<mgrwt>
<rscale>  2 0.18097522E+03</rscale>
<asrwt>0</asrwt>
<pdfrwt beam="1">  1       21 0.12517841E+00 0.18154233E+03</pdfrwt>
<pdfrwt beam="2">  1       21 0.10377959E-01 0.18154233E+03</pdfrwt>
<totfact> 0.36348063E+04</totfact>
</mgrwt>
</event>
<event>
12    1  0.2768653E-001  0.1822992E+03  0.7546771E-02  0.1165626E+00
         21   -1    0    0  504  503  0.00000000000E+00  0.00000000000E+00  0.12498537641E+03  0.12498537641E+03  0.00000000000E+00 0. -1.
         21   -1    0    0  502  504 -0.00000000000E+00 -0.00000000000E+00 -0.27782220112E+03  0.27782220112E+03  0.00000000000E+00 0.  1.
          6    2    1    2  502    0 -0.49500194092E+02 -0.22935961171E+02 -0.34397083729E+02  0.18551593485E+03  0.17394446006E+03 0.  0.
         24    2    3    3    0    0  0.12509777457E+00 -0.51938321202E+02 -0.68788391083E+02  0.11836938988E+03  0.81128693162E+02 0.  0.
         -6    2    1    2    0  503  0.49500194092E+02  0.22935961171E+02 -0.11843974098E+03  0.21729164267E+03  0.17381414845E+03 0.  0.
        -24    2    5    5    0    0  0.56836263933E+02 -0.13403883861E+02 -0.14128068652E+03  0.17349437049E+03  0.82036816166E+02 0.  0.
          4    1    4    4  501    0 -0.17642263402E+02 -0.58004851743E+02 -0.16530982311E+02  0.62841750929E+02  0.00000000000E+00 0. -1.
         -3    1    4    4    0  501  0.17767361177E+02  0.60665305408E+01 -0.52257408771E+02  0.55527638951E+02  0.00000000000E+00 0.  1.
          5    1    3    3  502    0 -0.49625291866E+02  0.29002360031E+02  0.34391307354E+02  0.67146544972E+02  0.47000000000E+01 0. -1.
         11    1    6    6    0    0  0.16558495909E+02 -0.21049850949E+01  0.79664861990E+01  0.18495395410E+02  0.00000000000E+00 0. -1.
        -12    1    6    6    0    0  0.40277768024E+02 -0.11298898766E+02 -0.14924717272E+03  0.15499897508E+03  0.00000000000E+00 0.  1.
         -5    1    5    5    0  503 -0.73360698410E+01  0.36339845032E+02  0.22840945540E+02  0.43797272185E+02  0.47000000000E+01 0.  1.
<mgrwt>
<rscale>  2 0.18226812E+03</rscale>
<asrwt>0</asrwt>
<pdfrwt beam="1">  1       21 0.19228520E-01 0.18229921E+03</pdfrwt>
<pdfrwt beam="2">  1       21 0.42741877E-01 0.18229921E+03</pdfrwt>
<totfact> 0.13124440E+05</totfact>
</mgrwt>
</event>
<event>
12    1  0.2768653E-001  0.1911656E+03  0.7546771E-02  0.1157673E+00
         21   -1    0    0  504  503  0.00000000000E+00  0.00000000000E+00  0.14742121949E+03  0.14742121949E+03  0.00000000000E+00 0. -1.
         21   -1    0    0  502  504 -0.00000000000E+00 -0.00000000000E+00 -0.56289298032E+03  0.56289298032E+03  0.00000000000E+00 0. -1.
          6    2    1    2  502    0  0.75135883082E+02 -0.83621943257E+01 -0.47377269906E+03  0.51045607117E+03  0.17432585294E+03 0.  0.
         24    2    3    3    0    0 -0.30012335879E+02 -0.44173180775E+01 -0.24735707674E+03  0.26074056498E+03  0.76680283074E+02 0.  0.
         -6    2    1    2    0  503 -0.75135883082E+02  0.83621943257E+01  0.58300938229E+02  0.19985812864E+03  0.17558173300E+03 0.  0.
        -24    2    5    5    0    0 -0.10084837948E+03 -0.31859156512E+02  0.12159599528E+02  0.13329986340E+03  0.80222167921E+02 0.  0.
          2    1    4    4  501    0 -0.19537981021E+02 -0.28602249599E+02 -0.22016048530E+03  0.22286870725E+03  0.00000000000E+00 0. -1.
         -1    1    4    4    0  501 -0.10474354858E+02  0.24184931521E+02 -0.27196591441E+02  0.37871857736E+02  0.00000000000E+00 0.  1.
          5    1    3    3  502    0  0.10514821896E+03 -0.39448762482E+01 -0.22641562232E+03  0.24971550618E+03  0.47000000000E+01 0. -1.
         11    1    6    6    0    0 -0.44487042725E+02  0.10936924417E+02  0.36382320224E+02  0.58501166749E+02  0.00000000000E+00 0. -1.
        -12    1    6    6    0    0 -0.56361336750E+02 -0.42796080929E+02 -0.24222720696E+02  0.74798696654E+02  0.00000000000E+00 0.  1.
         -5    1    5    5    0  503  0.25712496393E+02  0.40221350837E+02  0.46141338702E+02  0.66558265235E+02  0.47000000000E+01 0.  1.
<mgrwt>
<rscale>  2 0.19087670E+03</rscale>
<asrwt>0</asrwt>
<pdfrwt beam="1">  1       21 0.22680188E-01 0.19116556E+03</pdfrwt>
<pdfrwt beam="2">  1       21 0.86598920E-01 0.19116556E+03</pdfrwt>
<totfact> 0.20944323E+04</totfact>
</mgrwt>
</event>
<event>
12    1  0.2768653E-001  0.2376995E+03  0.7546771E-02  0.1121458E+00
         21   -1    0    0  504  503  0.00000000000E+00  0.00000000000E+00  0.81845351056E+03  0.81845351056E+03  0.00000000000E+00 0.  1.
         21   -1    0    0  502  504 -0.00000000000E+00 -0.00000000000E+00 -0.68927690256E+02  0.68927690256E+02  0.00000000000E+00 0. -1.
          6    2    1    2  502    0 -0.10394775166E+03  0.12508509972E+03  0.35682180690E+03  0.42834143343E+03  0.17234606020E+03 0.  0.
         24    2    3    3    0    0 -0.64926906312E+02  0.10764324183E+03  0.13177095692E+03  0.19921958844E+03  0.80760687549E+02 0.  0.
         -6    2    1    2    0  503  0.10394775166E+03 -0.12508509972E+03  0.39270401341E+03  0.45903976739E+03  0.17334834481E+03 0.  0.
        -24    2    5    5    0    0  0.11805463867E+03 -0.52970985869E+02  0.32619503255E+03  0.35981787357E+03  0.79516538088E+02 0.  0.
          2    1    4    4  501    0 -0.54698696419E+02  0.10952813448E+03  0.79616350300E+02  0.14603808705E+03  0.00000000000E+00 0. -1.
         -1    1    4    4    0  501 -0.10228209893E+02 -0.18848926540E+01  0.52154606623E+02  0.53181501389E+02  0.00000000000E+00 0.  1.
          5    1    3    3  502    0 -0.39020845352E+02  0.17441857891E+02  0.22505084997E+03  0.22912184499E+03  0.47000000000E+01 0. -1.
         11    1    6    6    0    0  0.30334219329E+02 -0.21965213147E+02  0.26146846537E+02  0.45675956856E+02  0.00000000000E+00 0. -1.
        -12    1    6    6    0    0  0.87720419340E+02 -0.31005772722E+02  0.30004818601E+03  0.31414191672E+03  0.00000000000E+00 0.  1.
         -5    1    5    5    0  503 -0.14106887004E+02 -0.72114113851E+02  0.66508980867E+02  0.99221893821E+02  0.47000000000E+01 0.  1.
<mgrwt>
<rscale>  2 0.23751683E+03</rscale>
<asrwt>0</asrwt>
<pdfrwt beam="1">  1       21 0.12591592E+00 0.23769953E+03</pdfrwt>
<pdfrwt beam="2">  1       21 0.10604261E-01 0.23769953E+03</pdfrwt>
<totfact> 0.33424971E+04</totfact>
</mgrwt>
</event>
<event>
12    1  0.2768653E-001  0.1848728E+03  0.7546771E-02  0.1164253E+00
         21   -1    0    0  504  503  0.00000000000E+00  0.00000000000E+00  0.19535286319E+03  0.19535286319E+03  0.00000000000E+00 0.  1.
         21   -1    0    0  502  504 -0.00000000000E+00 -0.00000000000E+00 -0.17808095338E+03  0.17808095338E+03  0.00000000000E+00 0.  1.
          6    2    1    2  502    0  0.26104989815E+02 -0.60387128047E+02  0.46879752736E+02  0.19072406322E+03  0.17277118206E+03 0.  0.
         24    2    3    3    0    0 -0.26523715129E+02  0.95683939353E+01  0.57342959437E+02  0.10243406190E+03  0.80059105745E+02 0.  0.
         -6    2    1    2    0  503 -0.26104989815E+02  0.60387128047E+02 -0.29607842923E+02  0.18270975335E+03  0.16786349776E+03 0.  0.
        -24    2    5    5    0    0 -0.32517979920E+02 -0.19845321819E+02 -0.46281028516E+02  0.10037836461E+03  0.80514760543E+02 0.  0.
          2    1    4    4  501    0 -0.37787484409E+02 -0.60446605724E+01 -0.36817220545E+01  0.38444596196E+02  0.00000000000E+00 0. -1.
         -1    1    4    4    0  501  0.11263769279E+02  0.15613054508E+02  0.61024681492E+02  0.63989465700E+02  0.00000000000E+00 0.  1.
          5    1    3    3  502    0  0.52628704944E+02 -0.69955521983E+02 -0.10463206702E+02  0.88290001328E+02  0.47000000000E+01 0. -1.
         11    1    6    6    0    0  0.32135623411E+01 -0.28875841314E+02  0.11989687325E+02  0.31430777856E+02  0.00000000000E+00 0. -1.
        -12    1    6    6    0    0 -0.35731542261E+02  0.90305194943E+01 -0.58270715841E+02  0.68947586755E+02  0.00000000000E+00 0.  1.
         -5    1    5    5    0  503  0.64129901047E+01  0.80232449867E+02  0.16673185593E+02  0.82331388738E+02  0.47000000000E+01 0.  1.
<mgrwt>
<rscale>  2 0.18371754E+03</rscale>
<asrwt>0</asrwt>
<pdfrwt beam="1">  1       21 0.30054287E-01 0.18487281E+03</pdfrwt>
<pdfrwt beam="2">  1       21 0.27397069E-01 0.18487281E+03</pdfrwt>
<totfact> 0.13527920E+05</totfact>
</mgrwt>
</event>
<event>
12    1  0.2768653E-001  0.2118750E+03  0.7546771E-02  0.1140199E+00
         21   -1    0    0  504  503  0.00000000000E+00  0.00000000000E+00  0.14837779963E+03  0.14837779963E+03  0.00000000000E+00 0.  1.
         21   -1    0    0  502  504 -0.00000000000E+00 -0.00000000000E+00 -0.35505309663E+03  0.35505309663E+03  0.00000000000E+00 0. -1.
          6    2    1    2  502    0 -0.11997985598E+03  0.42712672716E+01 -0.20075042693E+03  0.29147305796E+03  0.17390342159E+03 0.  0.
         24    2    3    3    0    0 -0.42309521759E+01  0.30305191634E+02 -0.44439264420E+02  0.95180308544E+02  0.78410058768E+02 0.  0.
         -6    2    1    2    0  503  0.11997985598E+03 -0.42712672716E+01 -0.59248700739E+01  0.21195783830E+03  0.17457838230E+03 0.  0.
        -24    2    5    5    0    0  0.78622150771E+02  0.65610084372E+02 -0.39290923016E+01  0.13059484784E+03  0.80953386298E+02 0.  0.
          4    1    4    4  501    0  0.24116504627E+02 -0.23346053894E+01 -0.45923945180E+02  0.51923645082E+02  0.00000000000E+00 0. -1.
         -3    1    4    4    0  501 -0.28347456803E+02  0.32639797023E+02  0.14846807593E+01  0.43256663462E+02  0.00000000000E+00 0.  1.
          5    1    3    3  502    0 -0.11574890380E+03 -0.26033924362E+02 -0.15631116251E+03  0.19629274942E+03  0.47000000000E+01 0. -1.
         13    1    6    6    0    0  0.30899292526E+02 -0.16895063177E+02 -0.16208837331E+01  0.35253889182E+02  0.00000000000E+00 0. -1.
        -14    1    6    6    0    0  0.47722858245E+02  0.82505147550E+02 -0.23082085686E+01  0.95340958659E+02  0.00000000000E+00 0.  1.
         -5    1    5    5    0  503  0.41357705205E+02 -0.69881351644E+02 -0.19957777723E+01  0.81362990458E+02  0.47000000000E+01 0.  1.
<mgrwt>
<rscale>  2 0.21173593E+03</rscale>
<asrwt>0</asrwt>
<pdfrwt beam="1">  1       21 0.22827354E-01 0.21187501E+03</pdfrwt>
<pdfrwt beam="2">  1       21 0.54623553E-01 0.21187501E+03</pdfrwt>
<totfact> 0.56465795E+04</totfact>
</mgrwt>
</event>
<event>
12    1  0.2768653E-001  0.1799804E+03  0.7546771E-02  0.1167832E+00
         21   -1    0    0  504  503  0.00000000000E+00  0.00000000000E+00  0.39025735521E+03  0.39025735521E+03  0.00000000000E+00 0.  1.
         21   -1    0    0  502  504 -0.00000000000E+00 -0.00000000000E+00 -0.11757396467E+03  0.11757396467E+03  0.00000000000E+00 0.  1.
          6    2    1    2  502    0 -0.43466071752E+02 -0.21682906037E+02  0.27407542725E+03  0.32788759089E+03  0.17330171560E+03 0.  0.
         24    2    3    3    0    0 -0.28945058156E+02 -0.80919673595E+02  0.17292488000E+03  0.20967854862E+03  0.81708443020E+02 0.  0.
         -6    2    1    2    0  503  0.43466071752E+02  0.21682906037E+02 -0.13920367101E+01  0.17994372900E+03  0.17325807350E+03 0.  0.
        -24    2    5    5    0    0  0.48164836855E+02  0.11579494405E+01 -0.65988358053E+02  0.11183993345E+03  0.76370903881E+02 0.  0.
          4    1    4    4  501    0  0.14512931338E+02  0.30715446657E+01  0.62767692989E+02  0.64496843689E+02  0.00000000000E+00 0. -1.
         -3    1    4    4    0  501 -0.43457989494E+02 -0.83991218260E+02  0.11015718701E+03  0.14518170493E+03  0.00000000000E+00 0.  1.
          5    1    3    3  502    0 -0.14521013595E+02  0.59236767557E+02  0.10115054725E+03  0.11820904227E+03  0.47000000000E+01 0. -1.
         13    1    6    6    0    0  0.21800841385E+02 -0.37563422222E+02 -0.32980688249E+02  0.54534513581E+02  0.00000000000E+00 0. -1.
        -14    1    6    6    0    0  0.26363995470E+02  0.38721371663E+02 -0.33007669805E+02  0.57305419870E+02  0.00000000000E+00 0.  1.
         -5    1    5    5    0  503 -0.46987651032E+01  0.20524956597E+02  0.64596321343E+02  0.68103795547E+02  0.47000000000E+01 0.  1.
<mgrwt>
<rscale>  2 0.17996986E+03</rscale>
<asrwt>0</asrwt>
<pdfrwt beam="1">  1       21 0.60039593E-01 0.17998037E+03</pdfrwt>
<pdfrwt beam="2">  1       21 0.18088302E-01 0.17998037E+03</pdfrwt>
<totfact> 0.72381326E+04</totfact>
</mgrwt>
</event>
<event>
12    1  0.2768653E-001  0.3061674E+03  0.7546771E-02  0.1082491E+00
         21   -1    0    0  504  503  0.00000000000E+00  0.00000000000E+00  0.17288099418E+03  0.17288099418E+03  0.00000000000E+00 0.  1.
         21   -1    0    0  502  504 -0.00000000000E+00 -0.00000000000E+00 -0.78965934077E+03  0.78965934077E+03  0.00000000000E+00 0.  1.
          6    2    1    2  502    0 -0.21610724906E+03 -0.12498021065E+03 -0.57926545655E+03  0.65408340329E+03  0.17307291281E+03 0.  0.
         24    2    3    3    0    0 -0.30665618455E+02 -0.50625591992E+02 -0.15734264739E+03  0.18722351577E+03  0.82417264275E+02 0.  0.
         -6    2    1    2    0  503  0.21610724906E+03  0.12498021065E+03 -0.37512890035E+02  0.30845693167E+03  0.17724577745E+03 0.  0.
        -24    2    5    5    0    0  0.75936830830E+02  0.11134173901E+03  0.16182237106E+02  0.15766233384E+03  0.80200758057E+02 0.  0.
          2    1    4    4  501    0 -0.19432437751E+01  0.22620614350E+02 -0.32051414242E+02  0.39278003321E+02  0.00000000000E+00 0. -1.
         -1    1    4    4    0  501 -0.28722374680E+02 -0.73246206342E+02 -0.12529123315E+03  0.14794551245E+03  0.00000000000E+00 0.  1.
          5    1    3    3  502    0 -0.18544163060E+03 -0.74354618661E+02 -0.42192280916E+03  0.46685988751E+03  0.47000000000E+01 0. -1.
         11    1    6    6    0    0  0.78722638443E+01  0.89502176438E+01 -0.25247163755E+02  0.27919495188E+02  0.00000000000E+00 0. -1.
        -12    1    6    6    0    0  0.68064566985E+02  0.10239152136E+03  0.41429400861E+02  0.12974283865E+03  0.00000000000E+00 0.  1.
         -5    1    5    5    0  503  0.14017041823E+03  0.13638471646E+02 -0.53695127141E+02  0.15079459783E+03  0.47000000000E+01 0.  1.
<mgrwt>
<rscale>  2 0.30556644E+03</rscale>
<asrwt>0</asrwt>
<pdfrwt beam="1">  1       21 0.26597076E-01 0.30616738E+03</pdfrwt>
<pdfrwt beam="2">  1       21 0.12148605E+00 0.30616738E+03</pdfrwt>
<totfact> 0.64183880E+03</totfact>
</mgrwt>
</event>
<event>
12    1  0.2768653E-001  0.1955559E+03  0.7546771E-02  0.1153635E+00
         21   -1    0    0  504  503  0.00000000000E+00  0.00000000000E+00  0.36120463635E+03  0.36120463635E+03  0.00000000000E+00 0. -1.
         21   -1    0    0  502  504 -0.00000000000E+00 -0.00000000000E+00 -0.18329957063E+03  0.18329957063E+03  0.00000000000E+00 0. -1.
          6    2    1    2  502    0 -0.92341107644E+02  0.66842362712E+01 -0.88306078122E+02  0.21418542190E+03  0.17177273458E+03 0.  0.
         24    2    3    3    0    0 -0.11346145860E+03  0.45729917796E+02 -0.48037741181E+02  0.15406667748E+03  0.80400177642E+02 0.  0.
         -6    2    1    2    0  503  0.92341107644E+02 -0.66842362712E+01  0.26621114385E+03  0.33031878508E+03  0.17225146586E+03 0.  0.
        -24    2    5    5    0    0  0.69482381596E+01 -0.27816476850E+02  0.20798204158E+03  0.22471939066E+03  0.80126403389E+02 0.  0.
          4    1    4    4  501    0 -0.10623415978E+03  0.30247079768E+02 -0.66485158690E+02  0.12892190995E+03  0.00000000000E+00 0. -1.
         -3    1    4    4    0  501 -0.72272988124E+01  0.15482838028E+02  0.18447417509E+02  0.25144767533E+02  0.00000000000E+00 0.  1.
          5    1    3    3  502    0  0.21120350952E+02 -0.39045681525E+02 -0.40268336941E+02  0.60118744416E+02  0.47000000000E+01 0. -1.
         11    1    6    6    0    0  0.35942957245E+02  0.60239634112E-01  0.14937032570E+03  0.15363396110E+03  0.00000000000E+00 0. -1.
        -12    1    6    6    0    0 -0.28994719085E+02 -0.27876716484E+02  0.58611715885E+02  0.71085429560E+02  0.00000000000E+00 0.  1.
         -5    1    5    5    0  503  0.85392869485E+02  0.21132240579E+02  0.58229102267E+02  0.10559939442E+03  0.47000000000E+01 0.  1.
<mgrwt>
<rscale>  2 0.19545047E+03</rscale>
<asrwt>0</asrwt>
<pdfrwt beam="1">  1       21 0.55569944E-01 0.19555594E+03</pdfrwt>
<pdfrwt beam="2">  1       21 0.28199934E-01 0.19555594E+03</pdfrwt>
<totfact> 0.36618865E+04</totfact>
</mgrwt>
</event>
<event>
12    1  0.2768653E-001  0.1915536E+03  0.7546771E-02  0.1157310E+00
         21   -1    0    0  504  503  0.00000000000E+00  0.00000000000E+00  0.57586220879E+03  0.57586220879E+03  0.00000000000E+00 0. -1.
         21   -1    0    0  502  504 -0.00000000000E+00 -0.00000000000E+00 -0.12123283884E+03  0.12123283884E+03  0.00000000000E+00 0. -1.
          6    2    1    2  502    0 -0.74167641962E+02 -0.29344797453E+02 -0.13169546245E+02  0.19200578621E+03  0.17415748257E+03 0.  0.
         24    2    3    3    0    0 -0.76759558693E+02 -0.44488180353E+02 -0.65928116738E+02  0.13685511224E+03  0.80694343845E+02 0.  0.
         -6    2    1    2    0  503  0.74167641962E+02  0.29344797453E+02  0.46779891620E+03  0.50508926142E+03  0.17296641222E+03 0.  0.
        -24    2    5    5    0    0  0.41347501277E+02  0.74054670140E+02  0.40258333813E+03  0.41934956249E+03  0.81160343696E+02 0.  0.
          4    1    4    4  501    0 -0.71139568344E+02 -0.54476638527E+02 -0.23116596610E+02  0.92536043617E+02  0.00000000000E+00 0. -1.
         -3    1    4    4    0  501 -0.56199903492E+01  0.99884581742E+01 -0.42811520128E+02  0.44319068627E+02  0.00000000000E+00 0.  1.
          5    1    3    3  502    0  0.25919167307E+01  0.15143382900E+02  0.52758570493E+02  0.55150673962E+02  0.47000000000E+01 0. -1.
         11    1    6    6    0    0  0.53446359364E+02  0.14825206917E+02  0.22594205264E+03  0.23265019072E+03  0.00000000000E+00 0. -1.
        -12    1    6    6    0    0 -0.12098858087E+02  0.59229463223E+02  0.17664128549E+03  0.18669937177E+03  0.00000000000E+00 0.  1.
         -5    1    5    5    0  503  0.32820140685E+02 -0.44709872686E+02  0.65215578066E+02  0.85739698930E+02  0.47000000000E+01 0.  1.
<mgrwt>
<rscale>  2 0.19128247E+03</rscale>
<asrwt>0</asrwt>
<pdfrwt beam="1">  1       21 0.88594185E-01 0.19155361E+03</pdfrwt>
<pdfrwt beam="2">  1       21 0.18651206E-01 0.19155361E+03</pdfrwt>
<totfact> 0.28659201E+04</totfact>
</mgrwt>
</event>
<event>
12    1  0.2768653E-001  0.1950765E+03  0.7546771E-02  0.1157211E+00
         21   -1    0    0  504  503  0.00000000000E+00  0.00000000000E+00  0.92727507971E+03  0.92727507971E+03  0.00000000000E+00 0.  1.
         21   -1    0    0  502  504 -0.00000000000E+00 -0.00000000000E+00 -0.39041286016E+02  0.39041286016E+02  0.00000000000E+00 0.  1.
          6    2    1    2  502    0 -0.46495745841E+02  0.32103547240E+02  0.35191452327E+03  0.39562100483E+03  0.17169640546E+03 0.  0.
         24    2    3    3    0    0  0.25342626517E+02  0.47233350733E+01  0.27046480144E+03  0.28352026912E+03  0.81043047634E+02 0.  0.
         -6    2    1    2    0  503  0.46495745841E+02 -0.32103547240E+02  0.53631927043E+03  0.57069536090E+03  0.18671460305E+03 0.  0.
        -24    2    5    5    0    0  0.43252459642E+02  0.52536217709E+02  0.36541123285E+03  0.37989165018E+03  0.78495014778E+02 0.  0.
          4    1    4    4  501    0 -0.97149675190E+01 -0.28687930932E+02  0.16095418381E+03  0.16377920277E+03  0.00000000000E+00 0. -1.
         -3    1    4    4    0  501  0.35057594036E+02  0.33411266005E+02  0.10951061763E+03  0.11974106634E+03  0.00000000000E+00 0.  1.
          5    1    3    3  502    0 -0.71838372358E+02  0.27380212166E+02  0.81449721828E+02  0.11210073571E+03  0.47000000000E+01 0. -1.
         13    1    6    6    0    0  0.62304344191E+02  0.34409290946E+02  0.19749838467E+03  0.20993199507E+03  0.00000000000E+00 0. -1.
        -14    1    6    6    0    0 -0.19051884549E+02  0.18126926763E+02  0.16791284819E+03  0.16995965511E+03  0.00000000000E+00 0.  1.
         -5    1    5    5    0  503  0.32432861996E+01 -0.84639764949E+02  0.17090803757E+03  0.19080371072E+03  0.47000000000E+01 0.  1.
<mgrwt>
<rscale>  2 0.19139293E+03</rscale>
<asrwt>0</asrwt>
<pdfrwt beam="1">  1       21 0.14265769E+00 0.19507649E+03</pdfrwt>
<pdfrwt beam="2">  1       21 0.60063524E-02 0.19507649E+03</pdfrwt>
<totfact> 0.66995838E+04</totfact>
</mgrwt>
</event>
<event>
12    1  0.2768653E-001  0.2720974E+03  0.7546771E-02  0.1100221E+00
         21   -1    0    0  504  503  0.00000000000E+00  0.00000000000E+00  0.69258981880E+03  0.69258981880E+03  0.00000000000E+00 0.  1.
         21   -1    0    0  502  504 -0.00000000000E+00 -0.00000000000E+00 -0.12300371153E+03  0.12300371153E+03  0.00000000000E+00 0.  1.
          6    2    1    2  502    0  0.20502274584E+03 -0.41708060481E+02  0.13508880776E+03  0.30292900957E+03  0.17246190952E+03 0.  0.
         24    2    3    3    0    0  0.20047720232E+03  0.12484107823E+02  0.10922086781E+03  0.24252459426E+03  0.80882750061E+02 0.  0.
         -6    2    1    2    0  503 -0.20502274584E+03  0.41708060481E+02  0.43449729950E+03  0.51266452075E+03  0.17396298153E+03 0.  0.
        -24    2    5    5    0    0 -0.92194671972E+02 -0.97197532249E+01  0.10722658003E+03  0.16265993778E+03  0.79789628097E+02 0.  0.
          4    1    4    4  501    0  0.89993023876E+02  0.37123234897E+02  0.22472789108E+02  0.99909484864E+02  0.00000000000E+00 0. -1.
         -3    1    4    4    0  501  0.11048417845E+03 -0.24639127074E+02  0.86748078703E+02  0.14261510940E+03  0.00000000000E+00 0.  1.
          5    1    3    3  502    0  0.45455435166E+01 -0.54192168304E+02  0.25867939953E+02  0.60404415309E+02  0.47000000000E+01 0. -1.
         13    1    6    6    0    0 -0.15381047256E+02 -0.26887254537E+02  0.67989638884E+02  0.74713399513E+02  0.00000000000E+00 0. -1.
        -14    1    6    6    0    0 -0.76813624715E+02  0.17167501312E+02  0.39236941147E+02  0.87946538271E+02  0.00000000000E+00 0.  1.
         -5    1    5    5    0  503 -0.11282807387E+03  0.51427813706E+02  0.32727071947E+03  0.35000458297E+03  0.47000000000E+01 0.  1.
<mgrwt>
<rscale>  2 0.27185780E+03</rscale>
<asrwt>0</asrwt>
<pdfrwt beam="1">  1       21 0.10655228E+00 0.27209742E+03</pdfrwt>
<pdfrwt beam="2">  1       21 0.18923648E-01 0.27209742E+03</pdfrwt>
<totfact> 0.17265086E+04</totfact>
</mgrwt>
</event>
<event>
12    1  0.2768653E-001  0.2067530E+03  0.7546771E-02  0.1144397E+00
         21   -1    0    0  504  503  0.00000000000E+00  0.00000000000E+00  0.12227569380E+04  0.12227569380E+04  0.00000000000E+00 0. -1.
         21   -1    0    0  502  504 -0.00000000000E+00 -0.00000000000E+00 -0.37020848058E+02  0.37020848058E+02  0.00000000000E+00 0. -1.
          6    2    1    2  502    0  0.11117194227E+03  0.12288379503E+02  0.43893361114E+03  0.48519020769E+03  0.17388679546E+03 0.  0.
         24    2    3    3    0    0  0.13436205715E+03  0.18483462774E+02  0.25732265912E+03  0.30193959139E+03  0.80980029332E+02 0.  0.
         -6    2    1    2    0  503 -0.11117194227E+03 -0.12288379503E+02  0.74680247885E+03  0.77458757842E+03  0.17251599693E+03 0.  0.
        -24    2    5    5    0    0 -0.42469275501E+02 -0.53752137318E+02  0.59239879445E+03  0.60051320526E+03  0.70617606854E+02 0.  0.
          4    1    4    4  501    0  0.75307816558E+02  0.37233038466E+02  0.88115688995E+02  0.12174539431E+03  0.00000000000E+00 0. -1.
         -3    1    4    4    0  501  0.59054240588E+02 -0.18749575692E+02  0.16920697013E+03  0.18019419708E+03  0.00000000000E+00 0.  1.
          5    1    3    3  502    0 -0.23190114880E+02 -0.61950832711E+01  0.18161095201E+03  0.18325061630E+03  0.47000000000E+01 0. -1.
         13    1    6    6    0    0 -0.13870590236E+02 -0.28584121620E+02  0.49363946299E+03  0.49466085827E+03  0.00000000000E+00 0. -1.
        -14    1    6    6    0    0 -0.28598685265E+02 -0.25168015698E+02  0.98759331460E+02  0.10585234699E+03  0.00000000000E+00 0.  1.
         -5    1    5    5    0  503 -0.68702666765E+02  0.41463757815E+02  0.15440368441E+03  0.17407437316E+03  0.47000000000E+01 0.  1.
<mgrwt>
<rscale>  2 0.20646456E+03</rscale>
<asrwt>0</asrwt>
<pdfrwt beam="1">  1       21 0.18811642E+00 0.20675305E+03</pdfrwt>
<pdfrwt beam="2">  1       21 0.56955160E-02 0.20675305E+03</pdfrwt>
<totfact> 0.34269191E+04</totfact>
</mgrwt>
</event>
<event>
12    1  0.2768653E-001  0.1845968E+03  0.7546771E-02  0.1163693E+00
         21   -1    0    0  504  503  0.00000000000E+00  0.00000000000E+00  0.10941084145E+03  0.10941084145E+03  0.00000000000E+00 0. -1.
         21   -1    0    0  502  504 -0.00000000000E+00 -0.00000000000E+00 -0.31357605083E+03  0.31357605083E+03  0.00000000000E+00 0. -1.
          6    2    1    2  502    0  0.40468468562E+02 -0.46123962046E+02 -0.12637108163E+03  0.22370883478E+03  0.17410018858E+03 0.  0.
         24    2    3    3    0    0 -0.42974788258E+02 -0.26332347020E+02 -0.86927382504E+02  0.12919756278E+03  0.81212163332E+02 0.  0.
         -6    2    1    2    0  503 -0.40468468562E+02  0.46123962046E+02 -0.77794127749E+02  0.19927805750E+03  0.17290084172E+03 0.  0.
        -24    2    5    5    0    0 -0.97654254962E+00 -0.38416294799E+02 -0.46693533915E+02  0.10080976725E+03  0.80657037653E+02 0.  0.
          2    1    4    4  501    0 -0.37296877581E+02 -0.30770552415E+02 -0.68943545146E+01  0.48840721712E+02  0.00000000000E+00 0. -1.
         -1    1    4    4    0  501 -0.56779106776E+01  0.44382053948E+01 -0.80033027989E+02  0.80356841065E+02  0.00000000000E+00 0.  1.
          5    1    3    3  502    0  0.83443256821E+02 -0.19791615027E+02 -0.39443699126E+02  0.94511271999E+02  0.47000000000E+01 0. -1.
         13    1    6    6    0    0  0.96684837549E+01  0.22821713341E+02 -0.24389112484E+02  0.34772675849E+02  0.00000000000E+00 0. -1.
        -14    1    6    6    0    0 -0.10645026305E+02 -0.61238008139E+02 -0.22304421431E+02  0.66037091405E+02  0.00000000000E+00 0.  1.
         -5    1    5    5    0  503 -0.39491926013E+02  0.84540256845E+02 -0.31100593834E+02  0.98468290249E+02  0.47000000000E+01 0.  1.
<mgrwt>
<rscale>  2 0.18431351E+03</rscale>
<asrwt>0</asrwt>
<pdfrwt beam="1">  1       21 0.16832437E-01 0.18459684E+03</pdfrwt>
<pdfrwt beam="2">  1       21 0.48242469E-01 0.18459684E+03</pdfrwt>
<totfact> 0.13077089E+05</totfact>
</mgrwt>
</event>
<event>
12    1  0.2768653E-001  0.1895586E+03  0.7546771E-02  0.1159446E+00
         21   -1    0    0  504  503  0.00000000000E+00  0.00000000000E+00  0.25633176309E+03  0.25633176309E+03  0.00000000000E+00 0.  1.
         21   -1    0    0  502  504 -0.00000000000E+00 -0.00000000000E+00 -0.16403960561E+03  0.16403960561E+03  0.00000000000E+00 0.  1.
          6    2    1    2  502    0  0.71736241615E+02  0.94484285768E+00 -0.37403332245E+02  0.19069034167E+03  0.17267546454E+03 0.  0.
         24    2    3    3    0    0  0.30889317935E+02 -0.65301256983E+02 -0.32312264917E+02  0.11255567660E+03  0.80039326242E+02 0.  0.
         -6    2    1    2    0  503 -0.71736241615E+02 -0.94484285768E+00  0.12969548972E+03  0.22968102703E+03  0.17545789534E+03 0.  0.
        -24    2    5    5    0    0  0.24031368350E+02 -0.29467367467E+02  0.74774202256E+02  0.11556088269E+03  0.79481468748E+02 0.  0.
          2    1    4    4  501    0 -0.15569847700E+01 -0.71648117206E+02 -0.34268105617E+02  0.79436641188E+02  0.00000000000E+00 0. -1.
         -1    1    4    4    0  501  0.32446302705E+02  0.63468602230E+01  0.19558406998E+01  0.33119035414E+02  0.00000000000E+00 0.  1.
          5    1    3    3  502    0  0.40846923680E+02  0.66246099840E+02 -0.50910673282E+01  0.78134665064E+02  0.47000000000E+01 0. -1.
         13    1    6    6    0    0  0.26863445987E+02 -0.10081646230E+02 -0.85696363817E+01  0.29945333338E+02  0.00000000000E+00 0. -1.
        -14    1    6    6    0    0 -0.28320776367E+01 -0.19385721237E+02  0.83343838638E+02  0.85615549350E+02  0.00000000000E+00 0.  1.
         -5    1    5    5    0  503 -0.95767609965E+02  0.28522524609E+02  0.54921287464E+02  0.11412014434E+03  0.47000000000E+01 0.  1.
<mgrwt>
<rscale>  2 0.18891216E+03</rscale>
<asrwt>0</asrwt>
<pdfrwt beam="1">  1       21 0.39435656E-01 0.18955858E+03</pdfrwt>
<pdfrwt beam="2">  1       21 0.25236862E-01 0.18955858E+03</pdfrwt>
<totfact> 0.92327930E+04</totfact>
</mgrwt>
</event>
<event>
12    1  0.2768653E-001  0.2276591E+03  0.7546771E-02  0.1129799E+00
         21   -1    0    0  504  503  0.00000000000E+00  0.00000000000E+00  0.12163853197E+03  0.12163853197E+03  0.00000000000E+00 0. -1.
         21   -1    0    0  502  504 -0.00000000000E+00 -0.00000000000E+00 -0.51373359664E+03  0.51373359664E+03  0.00000000000E+00 0. -1.
          6    2    1    2  502    0  0.98401498005E+02 -0.11099545892E+03 -0.56744643288E+02  0.23462438952E+03  0.17270148496E+03 0.  0.
         24    2    3    3    0    0  0.88895169651E+02 -0.69886634233E+01  0.84548156713E+00  0.11526570207E+03  0.73036118679E+02 0.  0.
         -6    2    1    2    0  503 -0.98401498005E+02  0.11099545892E+03 -0.33535042138E+03  0.40074773909E+03  0.16166631855E+03 0.  0.
        -24    2    5    5    0    0 -0.11047813652E+03  0.74275268651E+02 -0.16837309540E+03  0.22929006220E+03  0.80636215110E+02 0.  0.
          4    1    4    4  501    0  0.35454292842E+02  0.26691538548E+02 -0.20095705408E+02  0.48716347224E+02  0.00000000000E+00 0. -1.
         -3    1    4    4    0  501  0.53440876810E+02 -0.33680201971E+02  0.20941186975E+02  0.66549354850E+02  0.00000000000E+00 0.  1.
          5    1    3    3  502    0  0.95063283533E+01 -0.10400679550E+03 -0.57590124855E+02  0.11935868745E+03  0.47000000000E+01 0. -1.
         11    1    6    6    0    0 -0.90421264293E+01  0.55557258668E+01 -0.73680046581E+02  0.74440415129E+02  0.00000000000E+00 0. -1.
        -12    1    6    6    0    0 -0.10143601009E+03  0.68719542784E+02 -0.94693048814E+02  0.15484964707E+03  0.00000000000E+00 0.  1.
         -5    1    5    5    0  503  0.12076638516E+02  0.36720190269E+02 -0.16697732599E+03  0.17145767689E+03  0.47000000000E+01 0.  1.
<mgrwt>
<rscale>  2 0.22556705E+03</rscale>
<asrwt>0</asrwt>
<pdfrwt beam="1">  1       21 0.18713620E-01 0.22765906E+03</pdfrwt>
<pdfrwt beam="2">  1       21 0.79035940E-01 0.22765906E+03</pdfrwt>
<totfact> 0.36270825E+04</totfact>
</mgrwt>
</event>
<event>
12    1  0.2768653E-001  0.2102604E+03  0.7546771E-02  0.1141474E+00
         21   -1    0    0  504  503  0.00000000000E+00  0.00000000000E+00  0.65497072578E+02  0.65497072578E+02  0.00000000000E+00 0.  1.
         21   -1    0    0  502  504 -0.00000000000E+00 -0.00000000000E+00 -0.70736272179E+03  0.70736272179E+03  0.00000000000E+00 0. -1.
          6    2    1    2  502    0 -0.10685997955E+03 -0.51400543511E+02 -0.40635586124E+03  0.45753090618E+03  0.17363286856E+03 0.  0.
         24    2    3    3    0    0 -0.13370010192E+03 -0.23544833047E+02 -0.24425555669E+03  0.29081278626E+03  0.80506044893E+02 0.  0.
         -6    2    1    2    0  503  0.10685997955E+03  0.51400543511E+02 -0.23550978798E+03  0.31532888819E+03  0.17293460149E+03 0.  0.
        -24    2    5    5    0    0  0.18857472531E+02  0.77628172444E+02 -0.93328644219E+02  0.14600701305E+03  0.78905478904E+02 0.  0.
          4    1    4    4  501    0 -0.13716989460E+03 -0.55184644625E+01 -0.22875691505E+03  0.26678785508E+03  0.00000000000E+00 0. -1.
         -3    1    4    4    0  501  0.34697926842E+01 -0.18026368585E+02 -0.15498641634E+02  0.24024931179E+02  0.00000000000E+00 0.  1.
          5    1    3    3  502    0  0.26840122369E+02 -0.27855710464E+02 -0.16210030455E+03  0.16671811992E+03  0.47000000000E+01 0. -1.
         13    1    6    6    0    0  0.17957069513E+02  0.50870149539E+02 -0.10402106004E+03  0.11717768299E+03  0.00000000000E+00 0. -1.
        -14    1    6    6    0    0  0.90040301784E+00  0.26758022905E+02  0.10692415823E+02  0.28829330057E+02  0.00000000000E+00 0.  1.
         -5    1    5    5    0  503  0.88002507017E+02 -0.26227628934E+02 -0.14218114376E+03  0.16932187514E+03  0.47000000000E+01 0.  1.
<mgrwt>
<rscale>  2 0.21011621E+03</rscale>
<asrwt>0</asrwt>
<pdfrwt beam="1">  1       21 0.10076473E-01 0.21026042E+03</pdfrwt>
<pdfrwt beam="2">  1       21 0.10882503E+00 0.21026042E+03</pdfrwt>
<totfact> 0.53184787E+04</totfact>
</mgrwt>
</event>
<event>
12    1  0.2768653E-001  0.2030584E+03  0.7546771E-02  0.1149631E+00
         21   -1    0    0  504  503  0.00000000000E+00  0.00000000000E+00  0.12719109617E+04  0.12719109617E+04  0.00000000000E+00 0.  1.
         21   -1    0    0  502  504 -0.00000000000E+00 -0.00000000000E+00 -0.88052426179E+02  0.88052426179E+02  0.00000000000E+00 0.  1.
          6    2    1    2  502    0  0.53648158852E+02  0.64300933092E+02  0.48787910185E+02  0.20883721618E+03  0.18498645285E+03 0.  0.
         24    2    3    3    0    0  0.25114119358E+02  0.60642729693E+02  0.10345285941E+03  0.14688626352E+03  0.81023580730E+02 0.  0.
         -6    2    1    2    0  503 -0.53648158852E+02 -0.64300933092E+02  0.11350706254E+04  0.11511261717E+04  0.17231774061E+03 0.  0.
        -24    2    5    5    0    0 -0.93324401586E+02 -0.59885937742E+02  0.10211244983E+04  0.10302977550E+04  0.80761707564E+02 0.  0.
          2    1    4    4  501    0  0.16671869158E+02 -0.12124642193E+02  0.55823715224E+02  0.59508363706E+02  0.00000000000E+00 0. -1.
         -1    1    4    4    0  501  0.84422502003E+01  0.72767371886E+02  0.47629144186E+02  0.87377899812E+02  0.00000000000E+00 0.  1.
          5    1    3    3  502    0  0.28534039494E+02  0.36582033992E+01 -0.54664949225E+02  0.61950952662E+02  0.47000000000E+01 0. -1.
         11    1    6    6    0    0 -0.73752641296E+02 -0.68808125496E+02  0.58416789959E+03  0.59281206562E+03  0.00000000000E+00 0. -1.
        -12    1    6    6    0    0 -0.19571760290E+02  0.89221877537E+01  0.43695659874E+03  0.43748568939E+03  0.00000000000E+00 0.  1.
         -5    1    5    5    0  503  0.39676242734E+02 -0.44149953500E+01  0.11394612702E+03  0.12082841671E+03  0.47000000000E+01 0.  1.
<mgrwt>
<rscale>  2 0.20012811E+03</rscale>
<asrwt>0</asrwt>
<pdfrwt beam="1">  1       21 0.19567860E+00 0.20305842E+03</pdfrwt>
<pdfrwt beam="2">  1       21 0.13546528E-01 0.20305842E+03</pdfrwt>
<totfact> 0.66957657E+03</totfact>
</mgrwt>
</event>
<event>
12    1  0.2768653E-001  0.2010763E+03  0.7546771E-02  0.1149426E+00
         21   -1    0    0  504  503  0.00000000000E+00  0.00000000000E+00  0.35883945027E+03  0.35883945027E+03  0.00000000000E+00 0.  1.
         21   -1    0    0  502  504 -0.00000000000E+00 -0.00000000000E+00 -0.15957602364E+03  0.15957602364E+03  0.00000000000E+00 0.  1.
          6    2    1    2  502    0 -0.91678953490E+02 -0.28860201164E+02 -0.43709705122E+02  0.20303062645E+03  0.17341555649E+03 0.  0.
         24    2    3    3    0    0 -0.38286570630E+02  0.45296709763E+02 -0.49222565442E+02  0.11136560796E+03  0.80385224281E+02 0.  0.
         -6    2    1    2    0  503  0.91678953490E+02  0.28860201164E+02  0.24297313175E+03  0.31538484746E+03  0.17661743270E+03 0.  0.
        -24    2    5    5    0    0  0.98823591128E+02 -0.16612493051E+02  0.23582886822E+03  0.26856666438E+03  0.80440792148E+02 0.  0.
          4    1    4    4  501    0 -0.39610952611E+02  0.43991077748E+02  0.28448770333E+01  0.59264962782E+02  0.00000000000E+00 0. -1.
         -3    1    4    4    0  501  0.13243819804E+01  0.13056320151E+01 -0.52067442475E+02  0.52100645183E+02  0.00000000000E+00 0.  1.
          5    1    3    3  502    0 -0.53392382860E+02 -0.74156910927E+02  0.55128603192E+01  0.91665018489E+02  0.47000000000E+01 0. -1.
         13    1    6    6    0    0 -0.64634323066E+01 -0.20041250422E+02  0.23581741618E+02  0.31615284490E+02  0.00000000000E+00 0. -1.
        -14    1    6    6    0    0  0.10528702343E+03  0.34287573709E+01  0.21224712660E+03  0.23695137989E+03  0.00000000000E+00 0.  1.
         -5    1    5    5    0  503 -0.71446376377E+01  0.45472694215E+02  0.71442635362E+01  0.46818183088E+02  0.47000000000E+01 0.  1.
<mgrwt>
<rscale>  2 0.20037093E+03</rscale>
<asrwt>0</asrwt>
<pdfrwt beam="1">  1       21 0.55206069E-01 0.20107625E+03</pdfrwt>
<pdfrwt beam="2">  1       21 0.24550158E-01 0.20107625E+03</pdfrwt>
<totfact> 0.48323073E+04</totfact>
</mgrwt>
</event>
<event>
12    1  0.2768653E-001  0.1746355E+03  0.7546771E-02  0.1173526E+00
         21   -1    0    0  504  503  0.00000000000E+00  0.00000000000E+00  0.63746873521E+03  0.63746873521E+03  0.00000000000E+00 0.  1.
         21   -1    0    0  502  504 -0.00000000000E+00 -0.00000000000E+00 -0.62557866696E+02  0.62557866696E+02  0.00000000000E+00 0.  1.
          6    2    1    2  502    0  0.85474442682E+01 -0.21296028902E+02  0.11610851167E+03  0.20971109562E+03  0.17312127972E+03 0.  0.
         24    2    3    3    0    0  0.36644982731E+02  0.62465466418E+00  0.98798858289E+01  0.97565658867E+02  0.89878811148E+02 0.  0.
         -6    2    1    2    0  503 -0.85474442682E+01  0.21296028902E+02  0.45880235684E+03  0.49031550629E+03  0.17141503263E+03 0.  0.
        -24    2    5    5    0    0 -0.64172629637E+02  0.38339452748E+01  0.19514911783E+03  0.22025216917E+03  0.79341126185E+02 0.  0.
          4    1    4    4  501    0  0.63465389617E+02 -0.15320190184E+02  0.17057153187E+01  0.65310591570E+02  0.00000000000E+00 0. -1.
         -3    1    4    4    0  501 -0.26820406886E+02  0.15944844849E+02  0.81741705101E+01  0.32255067297E+02  0.00000000000E+00 0.  1.
          5    1    3    3  502    0 -0.28097538463E+02 -0.21920683566E+02  0.10622862584E+03  0.11214543675E+03  0.47000000000E+01 0. -1.
         11    1    6    6    0    0 -0.42839617447E+02 -0.32955473481E+02  0.14354000930E+03  0.15337871536E+03  0.00000000000E+00 0. -1.
        -12    1    6    6    0    0 -0.21333012190E+02  0.36789418756E+02  0.51609108525E+02  0.66873453808E+02  0.00000000000E+00 0.  1.
         -5    1    5    5    0  503  0.55625185368E+02  0.17462083627E+02  0.26365323902E+03  0.27006333712E+03  0.47000000000E+01 0.  1.
<mgrwt>
<rscale>  2 0.17421113E+03</rscale>
<asrwt>0</asrwt>
<pdfrwt beam="1">  1       21 0.98072109E-01 0.17463550E+03</pdfrwt>
<pdfrwt beam="2">  1       21 0.96242876E-02 0.17463550E+03</pdfrwt>
<totfact> 0.75236924E+04</totfact>
</mgrwt>
</event>
<event>
12    1  0.2768653E-001  0.2617499E+03  0.7546771E-02  0.1107071E+00
         21   -1    0    0  504  503  0.00000000000E+00  0.00000000000E+00  0.15160572175E+03  0.15160572175E+03  0.00000000000E+00 0. -1.
         21   -1    0    0  502  504 -0.00000000000E+00 -0.00000000000E+00 -0.49871944336E+03  0.49871944336E+03  0.00000000000E+00 0. -1.
          6    2    1    2  502    0 -0.16597077430E+03 -0.10154882284E+03 -0.28241473079E+03  0.38069769383E+03  0.16527005954E+03 0.  0.
         24    2    3    3    0    0 -0.34993343260E+01 -0.25934496544E+02 -0.64739327534E+02  0.98706264297E+02  0.69763189651E+02 0.  0.
         -6    2    1    2    0  503  0.16597077430E+03  0.10154882284E+03 -0.64698990823E+02  0.26962747128E+03  0.17508441539E+03 0.  0.
        -24    2    5    5    0    0  0.17422649602E+03  0.79942485150E+02 -0.97339779671E+02  0.22934717999E+03  0.79871292824E+02 0.  0.
          2    1    4    4  501    0 -0.32385594741E+02  0.21848649628E+01 -0.18498690239E+02  0.37360432575E+02  0.00000000000E+00 0. -1.
         -1    1    4    4    0  501  0.28886260415E+02 -0.28119361507E+02 -0.46240637295E+02  0.61345831723E+02  0.00000000000E+00 0.  1.
          5    1    3    3  502    0 -0.16247143997E+03 -0.75614326292E+02 -0.21767540325E+03  0.28199142953E+03  0.47000000000E+01 0. -1.
         13    1    6    6    0    0  0.39244689738E+02  0.56209436870E+02 -0.17566884928E+02  0.70768933240E+02  0.00000000000E+00 0. -1.
        -14    1    6    6    0    0  0.13498180628E+03  0.23733048280E+02 -0.79772894743E+02  0.15857824675E+03  0.00000000000E+00 0.  1.
         -5    1    5    5    0  503 -0.82557217214E+01  0.21606337686E+02  0.32640788848E+02  0.40280291284E+02  0.47000000000E+01 0.  1.
<mgrwt>
<rscale>  2 0.26011960E+03</rscale>
<asrwt>0</asrwt>
<pdfrwt beam="1">  1       21 0.23323957E-01 0.26174991E+03</pdfrwt>
<pdfrwt beam="2">  1       21 0.76726069E-01 0.26174991E+03</pdfrwt>
<totfact> 0.25206216E+04</totfact>
</mgrwt>
</event>
<event>
12    1  0.2768653E-001  0.2244688E+03  0.7546771E-02  0.1130854E+00
         21   -1    0    0  504  503  0.00000000000E+00  0.00000000000E+00  0.73530614966E+02  0.73530614966E+02  0.00000000000E+00 0. -1.
         21   -1    0    0  502  504 -0.00000000000E+00 -0.00000000000E+00 -0.87360079261E+03  0.87360079261E+03  0.00000000000E+00 0. -1.
          6    2    1    2  502    0  0.86744723390E+02  0.11211578549E+03 -0.17662731870E+03  0.28450990788E+03  0.17220360502E+03 0.  0.
         24    2    3    3    0    0  0.10085427662E+03  0.89696665145E+02 -0.66116276041E+02  0.17077127329E+03  0.81082605851E+02 0.  0.
         -6    2    1    2    0  503 -0.86744723390E+02 -0.11211578549E+03 -0.62344285894E+03  0.66262149969E+03  0.17404498585E+03 0.  0.
        -24    2    5    5    0    0  0.61593258144E+01 -0.97788991313E+02 -0.41256673913E+03  0.43169456905E+03  0.80921335841E+02 0.  0.
          4    1    4    4  501    0  0.72570291582E+02  0.59646851827E+02 -0.13159188488E+01  0.93946398524E+02  0.00000000000E+00 0. -1.
         -3    1    4    4    0  501  0.28283985041E+02  0.30049813318E+02 -0.64800357192E+02  0.76824874764E+02  0.00000000000E+00 0.  1.
          5    1    3    3  502    0 -0.14109553233E+02  0.22419120341E+02 -0.11051104266E+03  0.11373863459E+03  0.47000000000E+01 0. -1.
         11    1    6    6    0    0  0.15736296236E+01 -0.23255892680E+02 -0.26771294035E+03  0.26872575479E+03  0.00000000000E+00 0. -1.
        -12    1    6    6    0    0  0.45856961908E+01 -0.74533098633E+02 -0.14485379878E+03  0.16296881426E+03  0.00000000000E+00 0.  1.
         -5    1    5    5    0  503 -0.92904049204E+02 -0.14326794173E+02 -0.21087611981E+03  0.23092693065E+03  0.47000000000E+01 0.  1.
<mgrwt>
<rscale>  2 0.22411180E+03</rscale>
<asrwt>0</asrwt>
<pdfrwt beam="1">  1       21 0.11312403E-01 0.22446883E+03</pdfrwt>
<pdfrwt beam="2">  1       21 0.13440012E+00 0.22446883E+03</pdfrwt>
<totfact> 0.25414133E+04</totfact>
</mgrwt>
</event>
<event>
12    1  0.2768653E-001  0.1814267E+03  0.7546771E-02  0.1167564E+00
         21   -1    0    0  504  503  0.00000000000E+00  0.00000000000E+00  0.14848263898E+04  0.14848263898E+04  0.00000000000E+00 0.  1.
         21   -1    0    0  502  504 -0.00000000000E+00 -0.00000000000E+00 -0.22546086306E+02  0.22546086306E+02  0.00000000000E+00 0.  1.
          6    2    1    2  502    0  0.40073154570E+02 -0.35476918576E+02  0.87632111499E+03  0.89396899680E+03  0.16845593250E+03 0.  0.
         24    2    3    3    0    0 -0.30746309743E+01 -0.23322859520E+02  0.81988164443E+03  0.82174049560E+03  0.49981217472E+02 0.  0.
         -6    2    1    2    0  503 -0.40073154570E+02  0.35476918576E+02  0.58595918846E+03  0.61340347926E+03  0.17335278584E+03 0.  0.
        -24    2    5    5    0    0 -0.87754721444E+02  0.26556080239E+02  0.46494710102E+03  0.48294609740E+03  0.93032304664E+02 0.  0.
          2    1    4    4  501    0  0.14584215518E+01 -0.96164683632E+01  0.76278561183E+03  0.76284762113E+03  0.00000000000E+00 0. -1.
         -1    1    4    4    0  501 -0.45330525262E+01 -0.13706391157E+02  0.57096032601E+02  0.58892874463E+02  0.00000000000E+00 0.  1.
          5    1    3    3  502    0  0.43147785545E+02 -0.12154059056E+02  0.56439470562E+02  0.72228501204E+02  0.47000000000E+01 0. -1.
         11    1    6    6    0    0 -0.39094581024E+02  0.23834242531E+02  0.39528675367E+03  0.39792973627E+03  0.00000000000E+00 0. -1.
        -12    1    6    6    0    0 -0.48660140420E+02  0.27218377081E+01  0.69660347353E+02  0.85016361128E+02  0.00000000000E+00 0.  1.
         -5    1    5    5    0  503  0.47681566874E+02  0.89208383375E+01  0.12101208744E+03  0.13045738186E+03  0.47000000000E+01 0.  1.
<mgrwt>
<rscale>  2 0.18024701E+03</rscale>
<asrwt>0</asrwt>
<pdfrwt beam="1">  1       21 0.22843475E+00 0.18142673E+03</pdfrwt>
<pdfrwt beam="2">  1       21 0.34686298E-02 0.18142673E+03</pdfrwt>
<totfact> 0.44813510E+04</totfact>
</mgrwt>
</event>
<event>
12    1  0.2768653E-001  0.2189707E+03  0.7546771E-02  0.1135275E+00
         21   -1    0    0  504  503  0.00000000000E+00  0.00000000000E+00  0.39984478745E+03  0.39984478745E+03  0.00000000000E+00 0. -1.
         21   -1    0    0  502  504 -0.00000000000E+00 -0.00000000000E+00 -0.26021014107E+03  0.26021014107E+03  0.00000000000E+00 0. -1.
          6    2    1    2  502    0 -0.54226777374E+02  0.12283765799E+03 -0.17429597265E+03  0.27730097097E+03  0.16878124544E+03 0.  0.
         24    2    3    3    0    0 -0.83698869608E+02  0.10465295305E+03 -0.76909917349E+02  0.17383396424E+03  0.79657833142E+02 0.  0.
         -6    2    1    2    0  503  0.54226777374E+02 -0.12283765799E+03  0.31393061902E+03  0.38275395755E+03  0.17296972237E+03 0.  0.
        -24    2    5    5    0    0 -0.26407348328E+02 -0.95499657117E+02  0.22271664345E+03  0.25788879884E+03  0.84180738561E+02 0.  0.
          2    1    4    4  501    0 -0.30002166898E+02  0.90553464849E+02 -0.26901922695E+02  0.99114950736E+02  0.00000000000E+00 0. -1.
         -1    1    4    4    0  501 -0.53696702710E+02  0.14099488198E+02 -0.50007994654E+02  0.74719013502E+02  0.00000000000E+00 0.  1.
          5    1    3    3  502    0  0.29472092234E+02  0.18184704946E+02 -0.97386055299E+02  0.10346700673E+03  0.47000000000E+01 0. -1.
         11    1    6    6    0    0 -0.78860014368E+01 -0.85431154149E+02  0.22060670225E+03  0.23670231979E+03  0.00000000000E+00 0. -1.
        -12    1    6    6    0    0 -0.18521346891E+02 -0.10068502968E+02  0.21099411980E+01  0.21186479050E+02  0.00000000000E+00 0.  1.
         -5    1    5    5    0  503  0.80634125701E+02 -0.27338000876E+02  0.91213975575E+02  0.12486515871E+03  0.47000000000E+01 0.  1.
<mgrwt>
<rscale>  2 0.21814268E+03</rscale>
<asrwt>0</asrwt>
<pdfrwt beam="1">  1       21 0.61514583E-01 0.21897068E+03</pdfrwt>
<pdfrwt beam="2">  1       21 0.40032329E-01 0.21897068E+03</pdfrwt>
<totfact> 0.14528603E+04</totfact>
</mgrwt>
</event>
<event>
12    1  0.2768653E-001  0.2111060E+03  0.7546771E-02  0.1142473E+00
         21   -1    0    0  504  503  0.00000000000E+00  0.00000000000E+00  0.10698735694E+04  0.10698735694E+04  0.00000000000E+00 0.  1.
         21   -1    0    0  502  504 -0.00000000000E+00 -0.00000000000E+00 -0.41770544418E+02  0.41770544418E+02  0.00000000000E+00 0.  1.
          6    2    1    2  502    0  0.62471464318E+02  0.82192583572E+02  0.38682801854E+03  0.43651494431E+03  0.17392836466E+03 0.  0.
         24    2    3    3    0    0 -0.32589770850E+02  0.42412951168E+02  0.22238118513E+03  0.24239150780E+03  0.80245248844E+02 0.  0.
         -6    2    1    2    0  503 -0.62471464318E+02 -0.82192583572E+02  0.64127500649E+03  0.67512916955E+03  0.18413977566E+03 0.  0.
        -24    2    5    5    0    0  0.10719452846E+02 -0.99801381337E+02  0.33123257813E+03  0.35604394974E+03  0.83528743260E+02 0.  0.
          2    1    4    4  501    0 -0.33965184967E+02 -0.88353992867E+01  0.14766355468E+03  0.15177688707E+03  0.00000000000E+00 0. -1.
         -1    1    4    4    0  501  0.13754141167E+01  0.51248350455E+02  0.74717630458E+02  0.90614620728E+02  0.00000000000E+00 0.  1.
          5    1    3    3  502    0  0.95061235168E+02  0.39779632403E+02  0.16444683340E+03  0.19412343651E+03  0.47000000000E+01 0. -1.
         13    1    6    6    0    0  0.69112564309E+01  0.12949745534E+02  0.18698917837E+02  0.23772061398E+02  0.00000000000E+00 0. -1.
        -14    1    6    6    0    0  0.38081964152E+01 -0.11275112687E+03  0.31253366029E+03  0.33227188834E+03  0.00000000000E+00 0.  1.
         -5    1    5    5    0  503 -0.73190917164E+02  0.17608797765E+02  0.31004242837E+03  0.31908521981E+03  0.47000000000E+01 0.  1.
<mgrwt>
<rscale>  2 0.20885908E+03</rscale>
<asrwt>0</asrwt>
<pdfrwt beam="1">  1       21 0.16459591E+00 0.21110604E+03</pdfrwt>
<pdfrwt beam="2">  1       21 0.64262384E-02 0.21110604E+03</pdfrwt>
<totfact> 0.40403734E+04</totfact>
</mgrwt>
</event>
<event>
12    1  0.2768653E-001  0.1785988E+03  0.7546771E-02  0.1169994E+00
         21   -1    0    0  504  503  0.00000000000E+00  0.00000000000E+00  0.15573604933E+04  0.15573604933E+04  0.00000000000E+00 0. -1.
         21   -1    0    0  502  504 -0.00000000000E+00 -0.00000000000E+00 -0.32445111102E+02  0.32445111102E+02  0.00000000000E+00 0. -1.
          6    2    1    2  502    0  0.36823221666E+02 -0.13145408186E+02  0.26764747427E+03  0.31991579963E+03  0.17082797475E+03 0.  0.
         24    2    3    3    0    0  0.84122440860E+02 -0.14170645409E+02  0.13468960504E+03  0.17871327756E+03  0.80744991320E+02 0.  0.
         -6    2    1    2    0  503 -0.36823221666E+02  0.13145408186E+02  0.12572679079E+04  0.12698898047E+04  0.17426638390E+03 0.  0.
        -24    2    5    5    0    0  0.10949802363E+02  0.43418504284E+02  0.10787676083E+04  0.10825847885E+04  0.79026620718E+02 0.  0.
          4    1    4    4  501    0  0.21157727959E+02 -0.40991790484E+02  0.35521396360E+02  0.58221524704E+02  0.00000000000E+00 0. -1.
         -3    1    4    4    0  501  0.62964712901E+02  0.26821145075E+02  0.99168208683E+02  0.12049175286E+03  0.00000000000E+00 0.  1.
          5    1    3    3  502    0 -0.47299219195E+02  0.10252372231E+01  0.13295786923E+03  0.14120252207E+03  0.47000000000E+01 0. -1.
         11    1    6    6    0    0 -0.63458427325E+01  0.37040222200E+02  0.19295934454E+03  0.19658473090E+03  0.00000000000E+00 0. -1.
        -12    1    6    6    0    0  0.17295645095E+02  0.63782820840E+01  0.88580826377E+03  0.88600005755E+03  0.00000000000E+00 0.  1.
         -5    1    5    5    0  503 -0.47773024028E+02 -0.30273096098E+02  0.17850029958E+03  0.18730501627E+03  0.47000000000E+01 0.  1.
<mgrwt>
<rscale>  2 0.17775446E+03</rscale>
<asrwt>0</asrwt>
<pdfrwt beam="1">  1       21 0.23959386E+00 0.17859878E+03</pdfrwt>
<pdfrwt beam="2">  1       21 0.49915568E-02 0.17859878E+03</pdfrwt>
<totfact> 0.20919910E+04</totfact>
</mgrwt>
</event>
<event>
12    1  0.2768653E-001  0.2469437E+03  0.7546771E-02  0.1115664E+00
         21   -1    0    0  504  503  0.00000000000E+00  0.00000000000E+00  0.42248114907E+03  0.42248114907E+03  0.00000000000E+00 0.  1.
         21   -1    0    0  502  504 -0.00000000000E+00 -0.00000000000E+00 -0.41704087267E+03  0.41704087267E+03  0.00000000000E+00 0. -1.
          6    2    1    2  502    0 -0.15758160943E+03  0.78254329941E+02 -0.33764260026E+03  0.41680810813E+03  0.16961948504E+03 0.  0.
         24    2    3    3    0    0 -0.59274067379E+02  0.87454976541E+02 -0.12479617714E+03  0.18212808223E+03  0.80216983999E+02 0.  0.
         -6    2    1    2    0  503  0.15758160943E+03 -0.78254329941E+02  0.34308287666E+03  0.42271391360E+03  0.17327864471E+03 0.  0.
        -24    2    5    5    0    0  0.15203106081E+03 -0.64308245042E+02  0.17394742694E+03  0.25284869578E+03  0.80160849476E+02 0.  0.
          2    1    4    4  501    0 -0.13161085744E+02  0.71204880957E+02 -0.10878446151E+03  0.13068055829E+03  0.00000000000E+00 0. -1.
         -1    1    4    4    0  501 -0.46112981636E+02  0.16250095584E+02 -0.16011715636E+02  0.51447523939E+02  0.00000000000E+00 0.  1.
          5    1    3    3  502    0 -0.98307542051E+02 -0.92006466005E+01 -0.21284642312E+03  0.23468002590E+03  0.47000000000E+01 0. -1.
         13    1    6    6    0    0  0.48343910072E+02 -0.52643682792E+02  0.36415604200E+02  0.80215878779E+02  0.00000000000E+00 0. -1.
        -14    1    6    6    0    0  0.10368715074E+03 -0.11664562249E+02  0.13753182274E+03  0.17263281700E+03  0.00000000000E+00 0.  1.
         -5    1    5    5    0  503  0.55505486215E+01 -0.13946084899E+02  0.16913544972E+03  0.16986521782E+03  0.47000000000E+01 0.  1.
<mgrwt>
<rscale>  2 0.24630279E+03</rscale>
<asrwt>0</asrwt>
<pdfrwt beam="1">  1       21 0.64997100E-01 0.24694370E+03</pdfrwt>
<pdfrwt beam="2">  1       21 0.64160134E-01 0.24694370E+03</pdfrwt>
<totfact> 0.47010671E+03</totfact>
</mgrwt>
</event>
<event>
12    1  0.2768653E-001  0.2119806E+03  0.7546771E-02  0.1140087E+00
         21   -1    0    0  504  503  0.00000000000E+00  0.00000000000E+00  0.32854910296E+04  0.32854910296E+04  0.00000000000E+00 0.  1.
         21   -1    0    0  502  504 -0.00000000000E+00 -0.00000000000E+00 -0.37594595464E+02  0.37594595464E+02  0.00000000000E+00 0.  1.
          6    2    1    2  502    0 -0.11004546352E+03 -0.52753887225E+02  0.29737348811E+03  0.36495759980E+03  0.17282963162E+03 0.  0.
         24    2    3    3    0    0 -0.12114065392E+03 -0.81983934596E+02  0.28557483544E+03  0.33121153152E+03  0.82168536633E+02 0.  0.
         -6    2    1    2    0  503  0.11004546352E+03  0.52753887225E+02  0.29505229460E+04  0.29581280253E+04  0.17332853818E+03 0.  0.
        -24    2    5    5    0    0  0.57212456702E+02  0.89443303813E+02  0.24186058349E+04  0.24223152380E+04  0.81753029089E+02 0.  0.
          2    1    4    4  501    0 -0.29232023992E+02  0.42972014398E+01  0.11724398927E+03  0.12090959510E+03  0.00000000000E+00 0. -1.
         -1    1    4    4    0  501 -0.91908629929E+02 -0.86281136036E+02  0.16833084617E+03  0.21030193642E+03  0.00000000000E+00 0.  1.
          5    1    3    3  502    0  0.11095190406E+02  0.29230047371E+02  0.11798652666E+02  0.33746068278E+02  0.47000000000E+01 0. -1.
         11    1    6    6    0    0  0.13245395631E+02 -0.14055723314E+02  0.54137392768E+03  0.54171831558E+03  0.00000000000E+00 0. -1.
        -12    1    6    6    0    0  0.43967061071E+02  0.10349902713E+03  0.18772319072E+04  0.18805969224E+04  0.00000000000E+00 0.  1.
         -5    1    5    5    0  503  0.52833006814E+02 -0.36689416589E+02  0.53191711115E+03  0.53581278729E+03  0.47000000000E+01 0.  1.
<mgrwt>
<rscale>  2 0.21187855E+03</rscale>
<asrwt>0</asrwt>
<pdfrwt beam="1">  1       21 0.50545993E+00 0.21198056E+03</pdfrwt>
<pdfrwt beam="2">  1       21 0.57837865E-02 0.21198056E+03</pdfrwt>
<totfact> 0.35242359E+02</totfact>
</mgrwt>
</event>
<event>
12    1  0.2768653E-001  0.1846274E+03  0.7546771E-02  0.1163543E+00
         21   -1    0    0  504  503  0.00000000000E+00  0.00000000000E+00  0.35857344244E+03  0.35857344244E+03  0.00000000000E+00 0.  1.
         21   -1    0    0  502  504 -0.00000000000E+00 -0.00000000000E+00 -0.15365855720E+03  0.15365855720E+03  0.00000000000E+00 0.  1.
          6    2    1    2  502    0 -0.47087330253E+02 -0.44225801798E+02 -0.56233824197E+02  0.19241028663E+03  0.17229723504E+03 0.  0.
         24    2    3    3    0    0  0.29955954868E+02  0.53958735333E+01 -0.53053929351E+02  0.10059427400E+03  0.79862468396E+02 0.  0.
         -6    2    1    2    0  503  0.47087330253E+02  0.44225801798E+02  0.26114870944E+03  0.31982171300E+03  0.17295705088E+03 0.  0.
        -24    2    5    5    0    0 -0.52670786515E+01 -0.16927758713E+02  0.57844104552E+02  0.10110821442E+03  0.81010119483E+02 0.  0.
          2    1    4    4  501    0  0.54447239853E+02 -0.36875978077E+01 -0.19236535798E+02  0.57863154207E+02  0.00000000000E+00 0. -1.
         -1    1    4    4    0  501 -0.24491284986E+02  0.90834713410E+01 -0.33817393553E+02  0.42731119791E+02  0.00000000000E+00 0.  1.
          5    1    3    3  502    0 -0.77043285121E+02 -0.49621675331E+02 -0.31798948460E+01  0.91816012635E+02  0.47000000000E+01 0. -1.
         13    1    6    6    0    0 -0.28230523789E+02 -0.10693109437E+01  0.66200771177E+02  0.71976718484E+02  0.00000000000E+00 0. -1.
        -14    1    6    6    0    0  0.22963445137E+02 -0.15858447769E+02 -0.83566666254E+01  0.29131495933E+02  0.00000000000E+00 0.  1.
         -5    1    5    5    0  503  0.52354408904E+02  0.61153560511E+02  0.20330460489E+03  0.21871349858E+03  0.47000000000E+01 0.  1.
<mgrwt>
<rscale>  2 0.18447272E+03</rscale>
<asrwt>0</asrwt>
<pdfrwt beam="1">  1       21 0.55165145E-01 0.18462741E+03</pdfrwt>
<pdfrwt beam="2">  1       21 0.23639778E-01 0.18462741E+03</pdfrwt>
<totfact> 0.52417130E+04</totfact>
</mgrwt>
</event>
<event>
12    1  0.2768653E-001  0.1744828E+03  0.7546771E-02  0.1174299E+00
         21   -1    0    0  504  503  0.00000000000E+00  0.00000000000E+00  0.11679231765E+03  0.11679231765E+03  0.00000000000E+00 0.  1.
         21   -1    0    0  502  504 -0.00000000000E+00 -0.00000000000E+00 -0.25881779244E+03  0.25881779244E+03  0.00000000000E+00 0.  1.
          6    2    1    2  502    0 -0.10260851907E+02 -0.21235532213E+02 -0.94221981031E+02  0.19469737148E+03  0.16873959773E+03 0.  0.
         24    2    3    3    0    0  0.50009332470E+01  0.11837637133E+02 -0.12391019612E+03  0.14747198920E+03  0.78924723064E+02 0.  0.
         -6    2    1    2    0  503  0.10260851907E+02  0.21235532213E+02 -0.47803493764E+02  0.18091273861E+03  0.17288149717E+03 0.  0.
        -24    2    5    5    0    0  0.30136363360E+02  0.51331133883E+02  0.25633061269E+02  0.98962761120E+02  0.74789628667E+02 0.  0.
          2    1    4    4  501    0  0.38422190397E+02 -0.10117533893E+02 -0.67518995384E+02  0.78341840319E+02  0.00000000000E+00 0. -1.
         -1    1    4    4    0  501 -0.33421257150E+02  0.21955171025E+02 -0.56391200732E+02  0.69130148880E+02  0.00000000000E+00 0.  1.
          5    1    3    3  502    0 -0.15261785154E+02 -0.33073169345E+02  0.29688215085E+02  0.47225382281E+02  0.47000000000E+01 0. -1.
         11    1    6    6    0    0 -0.21117543517E+02  0.74173794207E+01 -0.77221215898E+01  0.23676978766E+02  0.00000000000E+00 0. -1.
        -12    1    6    6    0    0  0.51253906877E+02  0.43913754462E+02  0.33355182859E+02  0.75285782354E+02  0.00000000000E+00 0.  1.
         -5    1    5    5    0  503 -0.19875511454E+02 -0.30095601670E+02 -0.73436555033E+02  0.81949977489E+02  0.47000000000E+01 0.  1.
<mgrwt>
<rscale>  2 0.17344788E+03</rscale>
<asrwt>0</asrwt>
<pdfrwt beam="1">  1       21 0.17968049E-01 0.17448279E+03</pdfrwt>
<pdfrwt beam="2">  1       21 0.39818121E-01 0.17448279E+03</pdfrwt>
<totfact> 0.17219811E+05</totfact>
</mgrwt>
</event>
<event>
12    1  0.2768653E-001  0.1807408E+03  0.7546771E-02  0.1167730E+00
         21   -1    0    0  504  503  0.00000000000E+00  0.00000000000E+00  0.67820777070E+03  0.67820777070E+03  0.00000000000E+00 0. -1.
         21   -1    0    0  502  504 -0.00000000000E+00 -0.00000000000E+00 -0.70188867460E+02  0.70188867460E+02  0.00000000000E+00 0. -1.
          6    2    1    2  502    0 -0.16633299229E+02  0.40888905493E+02  0.89577549625E+02  0.19935323451E+03  0.17253696843E+03 0.  0.
         24    2    3    3    0    0 -0.68690063292E+02  0.24103162321E+02  0.94445777109E+02  0.14424010089E+03  0.81153648475E+02 0.  0.
         -6    2    1    2    0  503  0.16633299229E+02 -0.40888905493E+02  0.51844135361E+03  0.54904340365E+03  0.17526737495E+03 0.  0.
        -24    2    5    5    0    0  0.42800797189E+02 -0.19346793235E+02  0.13110785603E+03  0.16020136773E+03  0.79177027362E+02 0.  0.
          4    1    4    4  501    0 -0.18353824467E+02 -0.59452463176E+01  0.82093453683E+02  0.84329970733E+02  0.00000000000E+00 0. -1.
         -3    1    4    4    0  501 -0.50336238825E+02  0.30048408639E+02  0.12352323426E+02  0.59910130152E+02  0.00000000000E+00 0.  1.
          5    1    3    3  502    0  0.52056764063E+02  0.16785743172E+02 -0.48682274844E+01  0.55113133620E+02  0.47000000000E+01 0. -1.
         11    1    6    6    0    0 -0.22666062122E+01 -0.35299981260E+02  0.91562960529E+02  0.98158045628E+02  0.00000000000E+00 0. -1.
        -12    1    6    6    0    0  0.45067403402E+02  0.15953188025E+02  0.39544895503E+02  0.62043322106E+02  0.00000000000E+00 0.  1.
         -5    1    5    5    0  503 -0.26167497960E+02 -0.21542112258E+02  0.38733349758E+03  0.38884203592E+03  0.47000000000E+01 0.  1.
<mgrwt>
<rscale>  2 0.18007548E+03</rscale>
<asrwt>0</asrwt>
<pdfrwt beam="1">  1       21 0.10433965E+00 0.18074076E+03</pdfrwt>
<pdfrwt beam="2">  1       21 0.10798288E-01 0.18074076E+03</pdfrwt>
<totfact> 0.52845955E+04</totfact>
</mgrwt>
</event>
<event>
12    1  0.2768653E-001  0.1898431E+03  0.7546771E-02  0.1158865E+00
         21   -1    0    0  504  503  0.00000000000E+00  0.00000000000E+00  0.25140753975E+03  0.25140753975E+03  0.00000000000E+00 0. -1.
         21   -1    0    0  502  504 -0.00000000000E+00 -0.00000000000E+00 -0.20452131015E+03  0.20452131015E+03  0.00000000000E+00 0. -1.
          6    2    1    2  502    0 -0.24390386147E+02  0.75401566102E+02 -0.10205966110E+03  0.21553783628E+03  0.17251115134E+03 0.  0.
         24    2    3    3    0    0 -0.69441246466E+02  0.55281552625E+02 -0.24514656533E+02  0.12350679428E+03  0.82309313429E+02 0.  0.
         -6    2    1    2    0  503  0.24390386147E+02 -0.75401566102E+02  0.14894589070E+03  0.24039101363E+03  0.17123864625E+03 0.  0.
        -24    2    5    5    0    0  0.19540666842E+02 -0.10534514455E+03  0.60828468409E+02  0.14708020086E+03  0.80330851951E+02 0.  0.
          2    1    4    4  501    0 -0.69249746275E+02  0.71440674156E+02 -0.70985457367E+01  0.99748115945E+02  0.00000000000E+00 0. -1.
         -1    1    4    4    0  501 -0.19150019087E+00 -0.16159121531E+02 -0.17416110796E+02  0.23758678336E+02  0.00000000000E+00 0.  1.
          5    1    3    3  502    0  0.45050860319E+02  0.20120013477E+02 -0.77545004566E+02  0.92031041996E+02  0.47000000000E+01 0. -1.
         13    1    6    6    0    0 -0.24417290267E+02 -0.22514000766E+02 -0.34507726171E+01  0.33391497812E+02  0.00000000000E+00 0. -1.
        -14    1    6    6    0    0  0.43957957109E+02 -0.82831143789E+02  0.64279241026E+02  0.11368870305E+03  0.00000000000E+00 0.  1.
         -5    1    5    5    0  503  0.48497193050E+01  0.29943578452E+02  0.88117422287E+02  0.93310812763E+02  0.47000000000E+01 0.  1.
<mgrwt>
<rscale>  2 0.18955349E+03</rscale>
<asrwt>0</asrwt>
<pdfrwt beam="1">  1       21 0.38678083E-01 0.18984305E+03</pdfrwt>
<pdfrwt beam="2">  1       21 0.31464817E-01 0.18984305E+03</pdfrwt>
<totfact> 0.62653651E+04</totfact>
</mgrwt>
</event>
<event>
12    1  0.2768653E-001  0.2218785E+03  0.7546771E-02  0.1132947E+00
         21   -1    0    0  504  503  0.00000000000E+00  0.00000000000E+00  0.12693958421E+03  0.12693958421E+03  0.00000000000E+00 0.  1.
         21   -1    0    0  502  504 -0.00000000000E+00 -0.00000000000E+00 -0.38574016717E+03  0.38574016717E+03  0.00000000000E+00 0. -1.
          6    2    1    2  502    0 -0.11193320098E+03  0.78742326749E+02 -0.10927162690E+03  0.24511857612E+03  0.17150344722E+03 0.  0.
         24    2    3    3    0    0 -0.91845140700E+02  0.11416138551E+03 -0.11587381288E+03  0.20360088412E+03  0.80982885169E+02 0.  0.
         -6    2    1    2    0  503  0.11193320098E+03 -0.78742326749E+02 -0.14952895606E+03  0.26756117526E+03  0.17464443393E+03 0.  0.
        -24    2    5    5    0    0  0.10573435118E+03 -0.69739408691E+02 -0.18056012726E+03  0.23432712858E+03  0.79144838683E+02 0.  0.
          4    1    4    4  501    0  0.14510901865E+02  0.19917451398E+02 -0.10990924410E+02  0.26982801235E+02  0.00000000000E+00 0. -1.
         -3    1    4    4    0  501 -0.10635604257E+03  0.94243934111E+02 -0.10488288847E+03  0.17661808288E+03  0.00000000000E+00 0.  1.
          5    1    3    3  502    0 -0.20088060279E+02 -0.35419058760E+02  0.66021859805E+01  0.41517692000E+02  0.47000000000E+01 0. -1.
         13    1    6    6    0    0  0.40099064146E+02 -0.10242492935E+02 -0.12021192643E+03  0.12713674081E+03  0.00000000000E+00 0. -1.
        -14    1    6    6    0    0  0.65635287030E+02 -0.59496915756E+02 -0.60348200829E+02  0.10719038777E+03  0.00000000000E+00 0.  1.
         -5    1    5    5    0  503  0.61988498042E+01 -0.90029180582E+01  0.31031171200E+02  0.33234046677E+02  0.47000000000E+01 0.  1.
<mgrwt>
<rscale>  2 0.22125999E+03</rscale>
<asrwt>0</asrwt>
<pdfrwt beam="1">  1       21 0.19529167E-01 0.22187851E+03</pdfrwt>
<pdfrwt beam="2">  1       21 0.59344642E-01 0.22187851E+03</pdfrwt>
<totfact> 0.63189424E+04</totfact>
</mgrwt>
</event>
<event>
12    1  0.2768653E-001  0.1977697E+03  0.7546771E-02  0.1151645E+00
         21   -1    0    0  504  503  0.00000000000E+00  0.00000000000E+00  0.21388034786E+02  0.21388034786E+02  0.00000000000E+00 0. -1.
         21   -1    0    0  502  504 -0.00000000000E+00 -0.00000000000E+00 -0.25939210996E+04  0.25939210996E+04  0.00000000000E+00 0.  1.
          6    2    1    2  502    0 -0.85538764995E+02 -0.41817761370E+02 -0.57593754467E+03  0.60894736629E+03  0.17334138013E+03 0.  0.
         24    2    3    3    0    0 -0.12970263265E+02 -0.69636300012E+02 -0.43475099560E+03  0.44771526597E+03  0.80144177566E+02 0.  0.
         -6    2    1    2    0  503  0.85538764995E+02  0.41817761370E+02 -0.19965955201E+04  0.20063617681E+04  0.17328666407E+03 0.  0.
        -24    2    5    5    0    0  0.35723590707E+02  0.79092017467E+02 -0.86646151812E+03  0.87450670923E+03  0.80465520216E+02 0.  0.
          4    1    4    4  501    0  0.33108281462E+02 -0.35801045051E+02 -0.23135839476E+03  0.23644149372E+03  0.00000000000E+00 0. -1.
         -3    1    4    4    0  501 -0.46078544727E+02 -0.33835254961E+02 -0.20339260084E+03  0.21127377224E+03  0.00000000000E+00 0.  1.
          5    1    3    3  502    0 -0.72568501730E+02  0.27818538641E+02 -0.14118654908E+03  0.16123210033E+03  0.47000000000E+01 0. -1.
         13    1    6    6    0    0  0.54253944286E+02  0.82594362617E+02 -0.75854981717E+03  0.76495957039E+03  0.00000000000E+00 0. -1.
        -14    1    6    6    0    0 -0.18530353579E+02 -0.35023451496E+01 -0.10791170095E+03  0.10954713884E+03  0.00000000000E+00 0.  1.
         -5    1    5    5    0  503  0.49815174288E+02 -0.37274256097E+02 -0.11301340020E+04  0.11318550589E+04  0.47000000000E+01 0.  1.
<mgrwt>
<rscale>  2 0.19775767E+03</rscale>
<asrwt>0</asrwt>
<pdfrwt beam="1">  1       21 0.32904681E-02 0.19776966E+03</pdfrwt>
<pdfrwt beam="2">  1       21 0.39906464E+00 0.19776966E+03</pdfrwt>
<totfact> 0.47599984E+03</totfact>
</mgrwt>
</event>
<event>
12    1  0.2768653E-001  0.1995689E+03  0.7546771E-02  0.1150397E+00
         21   -1    0    0  504  503  0.00000000000E+00  0.00000000000E+00  0.23448982787E+03  0.23448982787E+03  0.00000000000E+00 0. -1.
         21   -1    0    0  502  504 -0.00000000000E+00 -0.00000000000E+00 -0.17051688811E+03  0.17051688811E+03  0.00000000000E+00 0. -1.
          6    2    1    2  502    0 -0.84001981630E+02  0.48354410931E+02  0.11047837687E+02  0.19987450935E+03  0.17445137659E+03 0.  0.
         24    2    3    3    0    0 -0.51011724016E+02  0.88759087705E+01  0.73466006781E+02  0.11884965474E+03  0.77762513700E+02 0.  0.
         -6    2    1    2    0  503  0.84001981630E+02 -0.48354410931E+02  0.52925102081E+02  0.20513220663E+03  0.17286894977E+03 0.  0.
        -24    2    5    5    0    0  0.56382267380E+02  0.31691559748E+02  0.71124923334E+02  0.11839392483E+03  0.69101748763E+02 0.  0.
          4    1    4    4  501    0 -0.36583129881E+02 -0.30859688291E+02  0.23251551756E+02  0.53209777413E+02  0.00000000000E+00 0. -1.
         -3    1    4    4    0  501 -0.14428594135E+02  0.39735597062E+02  0.50214455025E+02  0.65639877331E+02  0.00000000000E+00 0.  1.
          5    1    3    3  502    0 -0.32990257614E+02  0.39478502160E+02 -0.62418169094E+02  0.81024854602E+02  0.47000000000E+01 0. -1.
         11    1    6    6    0    0  0.92937751658E+01 -0.11991135724E+02 -0.74547410488E+01  0.16903690629E+02  0.00000000000E+00 0. -1.
        -12    1    6    6    0    0  0.47088492214E+02  0.43682695472E+02  0.78579664383E+02  0.10149023420E+03  0.00000000000E+00 0.  1.
         -5    1    5    5    0  503  0.27619714251E+02 -0.80045970679E+02 -0.18199821253E+02  0.86738281807E+02  0.47000000000E+01 0.  1.
<mgrwt>
<rscale>  2 0.19922260E+03</rscale>
<asrwt>0</asrwt>
<pdfrwt beam="1">  1       21 0.36075358E-01 0.19956895E+03</pdfrwt>
<pdfrwt beam="2">  1       21 0.26233367E-01 0.19956895E+03</pdfrwt>
<totfact> 0.10206996E+05</totfact>
</mgrwt>
</event>
<event>
12    1  0.2768653E-001  0.2829701E+03  0.7546771E-02  0.1094660E+00
         21   -1    0    0  504  503  0.00000000000E+00  0.00000000000E+00  0.13077902123E+03  0.13077902123E+03  0.00000000000E+00 0. -1.
         21   -1    0    0  502  504 -0.00000000000E+00 -0.00000000000E+00 -0.11042344243E+04  0.11042344243E+04  0.00000000000E+00 0. -1.
          6    2    1    2  502    0  0.17078491349E+03  0.13220630648E+03 -0.90071754505E+03  0.94284423231E+03  0.17611688246E+03 0.  0.
         24    2    3    3    0    0  0.15980800448E+03  0.46065318576E+02 -0.70356193554E+03  0.72736062112E+03  0.79959140491E+02 0.  0.
         -6    2    1    2    0  503 -0.17078491349E+03 -0.13220630648E+03 -0.72737858004E+02  0.29216921321E+03  0.18282794921E+03 0.  0.
        -24    2    5    5    0    0 -0.17008644185E+03 -0.52045528776E+02 -0.73772460734E+02  0.21186106575E+03  0.88343649762E+02 0.  0.
          2    1    4    4  501    0  0.16759087457E+03  0.44379948984E+02 -0.69154141610E+03  0.71294166051E+03  0.00000000000E+00 0. -1.
         -1    1    4    4    0  501 -0.77828700901E+01  0.16853695917E+01 -0.12020519437E+02  0.14418960609E+02  0.00000000000E+00 0.  1.
          5    1    3    3  502    0  0.10976909010E+02  0.86140987904E+02 -0.19715560952E+03  0.21548361119E+03  0.47000000000E+01 0. -1.
         13    1    6    6    0    0 -0.59902379740E+02 -0.52763847507E+02 -0.10385710986E+01  0.79833560188E+02  0.00000000000E+00 0. -1.
        -14    1    6    6    0    0 -0.11018406211E+03  0.71831873107E+00 -0.72733889635E+02  0.13202750557E+03  0.00000000000E+00 0.  1.
         -5    1    5    5    0  503 -0.69847163937E+00 -0.80160777704E+02  0.10346027295E+01  0.80308147454E+02  0.47000000000E+01 0.  1.
<mgrwt>
<rscale>  2 0.28189167E+03</rscale>
<asrwt>0</asrwt>
<pdfrwt beam="1">  1       21 0.20119849E-01 0.28297006E+03</pdfrwt>
<pdfrwt beam="2">  1       21 0.16988222E+00 0.28297006E+03</pdfrwt>
<totfact> 0.45646015E+03</totfact>
</mgrwt>
</event>
<event>
12    1  0.2768653E-001  0.1906270E+03  0.7546771E-02  0.1158189E+00
         21   -1    0    0  504  503  0.00000000000E+00  0.00000000000E+00  0.36262837999E+03  0.36262837999E+03  0.00000000000E+00 0. -1.
         21   -1    0    0  502  504 -0.00000000000E+00 -0.00000000000E+00 -0.99528054299E+02  0.99528054299E+02  0.00000000000E+00 0. -1.
          6    2    1    2  502    0 -0.23322779132E+02 -0.75099974657E+02  0.13093911707E+03  0.23019687191E+03  0.17222540243E+03 0.  0.
         24    2    3    3    0    0  0.27895212900E+02 -0.17950182271E+02  0.12586818193E+03  0.15314373531E+03  0.80683656934E+02 0.  0.
         -6    2    1    2    0  503  0.23322779132E+02  0.75099974657E+02  0.13216120863E+03  0.23195956238E+03  0.17365107340E+03 0.  0.
        -24    2    5    5    0    0  0.75781771051E+02  0.22391363148E+02  0.57842310307E+02  0.12671920791E+03  0.80422477112E+02 0.  0.
          2    1    4    4  501    0  0.82411239830E+01 -0.21238653118E+02  0.13067411640E+03  0.13264509492E+03  0.00000000000E+00 0. -1.
         -1    1    4    4    0  501  0.19654088917E+02  0.32884708470E+01 -0.48059344676E+01  0.20498640388E+02  0.00000000000E+00 0.  1.
          5    1    3    3  502    0 -0.51217992032E+02 -0.57149792386E+02  0.50709351375E+01  0.77053136605E+02  0.47000000000E+01 0. -1.
         13    1    6    6    0    0  0.13431025992E+02  0.35278186775E+02  0.49881581552E+02  0.62554896687E+02  0.00000000000E+00 0. -1.
        -14    1    6    6    0    0  0.62350745059E+02 -0.12886823627E+02  0.79607287544E+01  0.64164311225E+02  0.00000000000E+00 0.  1.
         -5    1    5    5    0  503 -0.52458991919E+02  0.52708611509E+02  0.74318898321E+02  0.10524035447E+03  0.47000000000E+01 0.  1.
<mgrwt>
<rscale>  2 0.19030172E+03</rscale>
<asrwt>0</asrwt>
<pdfrwt beam="1">  1       21 0.55788981E-01 0.19062700E+03</pdfrwt>
<pdfrwt beam="2">  1       21 0.15312009E-01 0.19062700E+03</pdfrwt>
<totfact> 0.11444016E+05</totfact>
</mgrwt>
</event>
<event>
12    1  0.2768653E-001  0.1747607E+03  0.7546771E-02  0.1173156E+00
         21   -1    0    0  504  503  0.00000000000E+00  0.00000000000E+00  0.56559217505E+03  0.56559217505E+03  0.00000000000E+00 0.  1.
         21   -1    0    0  502  504 -0.00000000000E+00 -0.00000000000E+00 -0.93992786427E+02  0.93992786427E+02  0.00000000000E+00 0.  1.
          6    2    1    2  502    0 -0.15197055410E+02  0.96971932200E+01  0.19786939799E+02  0.17515147604E+03  0.17309399331E+03 0.  0.
         24    2    3    3    0    0  0.48244236163E+02  0.26041453964E+02  0.35682817037E+02  0.10757410372E+03  0.85400589648E+02 0.  0.
         -6    2    1    2    0  503  0.15197055410E+02 -0.96971932200E+01  0.45181244882E+03  0.48443348544E+03  0.17382844087E+03 0.  0.
        -24    2    5    5    0    0  0.16274105415E+02  0.14229422998E+02  0.91507598635E+02  0.12330287462E+03  0.79766128756E+02 0.  0.
          2    1    4    4  501    0  0.42301467690E+02  0.43753310764E+02  0.54035429688E+02  0.81385465736E+02  0.00000000000E+00 0. -1.
         -1    1    4    4    0  501  0.59427684730E+01 -0.17711856799E+02 -0.18352612651E+02  0.26188637985E+02  0.00000000000E+00 0.  1.
          5    1    3    3  502    0 -0.63441291573E+02 -0.16344260744E+02 -0.15895877238E+02  0.67577372314E+02  0.47000000000E+01 0. -1.
         13    1    6    6    0    0 -0.69944773997E+01 -0.17205118686E+02 -0.49477315931E+01  0.19220272397E+02  0.00000000000E+00 0. -1.
        -14    1    6    6    0    0  0.23268582815E+02  0.31434541683E+02  0.96455330228E+02  0.10408260223E+03  0.00000000000E+00 0.  1.
         -5    1    5    5    0  503 -0.10770500056E+01 -0.23926616218E+02  0.36030485019E+03  0.36113061082E+03  0.47000000000E+01 0.  1.
<mgrwt>
<rscale>  2 0.17457782E+03</rscale>
<asrwt>0</asrwt>
<pdfrwt beam="1">  1       21 0.87014178E-01 0.17476073E+03</pdfrwt>
<pdfrwt beam="2">  1       21 0.14460429E-01 0.17476073E+03</pdfrwt>
<totfact> 0.48043546E+04</totfact>
</mgrwt>
</event>
<event>
12    1  0.2768653E-001  0.2122355E+03  0.7546771E-02  0.1140413E+00
         21   -1    0    0  504  503  0.00000000000E+00  0.00000000000E+00  0.13540961076E+04  0.13540961076E+04  0.00000000000E+00 0. -1.
         21   -1    0    0  502  504 -0.00000000000E+00 -0.00000000000E+00 -0.82477598690E+02  0.82477598690E+02  0.00000000000E+00 0. -1.
          6    2    1    2  502    0 -0.92734164912E+02  0.74509683997E+02  0.80118053307E+02  0.22685413606E+03  0.17576284656E+03 0.  0.
         24    2    3    3    0    0  0.19937265190E+02  0.32607908913E+02  0.33702779909E+02  0.97908110450E+02  0.83602335202E+02 0.  0.
         -6    2    1    2    0  503  0.92734164912E+02 -0.74509683997E+02  0.11915004556E+04  0.12097195702E+04  0.17203716035E+03 0.  0.
        -24    2    5    5    0    0  0.71147239476E+02 -0.79067577922E+02  0.11730002735E+04  0.11805456695E+04  0.80279664212E+02 0.  0.
          2    1    4    4  501    0 -0.89036423994E+01  0.34674133232E+02  0.52409894073E+02  0.63469420669E+02  0.00000000000E+00 0. -1.
         -1    1    4    4    0  501  0.28840907589E+02 -0.20662243191E+01 -0.18707114163E+02  0.34438689781E+02  0.00000000000E+00 0.  1.
          5    1    3    3  502    0 -0.11267143010E+03  0.41901775085E+02  0.46415273397E+02  0.12894602561E+03  0.47000000000E+01 0. -1.
         13    1    6    6    0    0  0.72514802217E+02 -0.23243147321E+02  0.59465077639E+03  0.59950661906E+03  0.00000000000E+00 0. -1.
        -14    1    6    6    0    0 -0.13675627413E+01 -0.55824430602E+02  0.57834949714E+03  0.58103905043E+03  0.00000000000E+00 0.  1.
         -5    1    5    5    0  503  0.21586925436E+02  0.45578939248E+01  0.18500182037E+02  0.29173900703E+02  0.47000000000E+01 0.  1.
<mgrwt>
<rscale>  2 0.21146251E+03</rscale>
<asrwt>0</asrwt>
<pdfrwt beam="1">  1       21 0.20832246E+00 0.21223547E+03</pdfrwt>
<pdfrwt beam="2">  1       21 0.12688862E-01 0.21223547E+03</pdfrwt>
<totfact> 0.62028957E+03</totfact>
</mgrwt>
</event>
<event>
12    1  0.2768653E-001  0.2207955E+03  0.7546771E-02  0.1133994E+00
         21   -1    0    0  504  503  0.00000000000E+00  0.00000000000E+00  0.13690571147E+04  0.13690571147E+04  0.00000000000E+00 0. -1.
         21   -1    0    0  502  504 -0.00000000000E+00 -0.00000000000E+00 -0.21245169726E+03  0.21245169726E+03  0.00000000000E+00 0. -1.
          6    2    1    2  502    0 -0.20248425729E+02  0.13302345349E+03 -0.14518638144E+03  0.26112532193E+03  0.17030006012E+03 0.  0.
         24    2    3    3    0    0 -0.21399402643E+01  0.16271552360E+03 -0.11501867189E+03  0.21484663383E+03  0.80304795748E+02 0.  0.
         -6    2    1    2    0  503  0.20248425729E+02 -0.13302345349E+03  0.13017917989E+04  0.13203834900E+04  0.17505837648E+03 0.  0.
        -24    2    5    5    0    0 -0.37203064852E+02 -0.12700332469E+03  0.10847247511E+04  0.10957123772E+04  0.80274001470E+02 0.  0.
          2    1    4    4  501    0 -0.40151650582E+02  0.93902227922E+02 -0.74445290891E+02  0.12637992241E+03  0.00000000000E+00 0. -1.
         -1    1    4    4    0  501  0.38011710318E+02  0.68813295676E+02 -0.40573380996E+02  0.88466711415E+02  0.00000000000E+00 0.  1.
          5    1    3    3  502    0 -0.18108485464E+02 -0.29692070109E+02 -0.30167709548E+02  0.46278688103E+02  0.47000000000E+01 0. -1.
         13    1    6    6    0    0 -0.60254162457E+02 -0.71528377959E+02  0.59261638940E+03  0.59995087960E+03  0.00000000000E+00 0. -1.
        -14    1    6    6    0    0  0.23051097604E+02 -0.55474946729E+02  0.49210836171E+03  0.49576149757E+03  0.00000000000E+00 0.  1.
         -5    1    5    5    0  503  0.57451490581E+02 -0.60201288016E+01  0.21706704777E+03  0.22467111285E+03  0.47000000000E+01 0.  1.
<mgrwt>
<rscale>  2 0.21985119E+03</rscale>
<asrwt>0</asrwt>
<pdfrwt beam="1">  1       21 0.21062417E+00 0.22079555E+03</pdfrwt>
<pdfrwt beam="2">  1       21 0.32684877E-01 0.22079555E+03</pdfrwt>
<totfact> 0.10047804E+03</totfact>
</mgrwt>
</event>
<event>
12    1  0.2768653E-001  0.1789412E+03  0.7546771E-02  0.1169039E+00
         21   -1    0    0  504  503  0.00000000000E+00  0.00000000000E+00  0.46688004365E+03  0.46688004365E+03  0.00000000000E+00 0. -1.
         21   -1    0    0  502  504 -0.00000000000E+00 -0.00000000000E+00 -0.12367653299E+03  0.12367653299E+03  0.00000000000E+00 0. -1.
          6    2    1    2  502    0  0.22741019379E+02 -0.38916555331E+02 -0.26279485381E+02  0.18002323730E+03  0.17229655358E+03 0.  0.
         24    2    3    3    0    0  0.34412995094E+02  0.28555472465E+02 -0.52793864220E+02  0.10644462739E+03  0.80892504975E+02 0.  0.
         -6    2    1    2    0  503 -0.22741019379E+02  0.38916555331E+02  0.36948299604E+03  0.41053333934E+03  0.17317126236E+03 0.  0.
        -24    2    5    5    0    0  0.36523067865E+02  0.19443161655E+02  0.10574704789E+03  0.13947949701E+03  0.80994573441E+02 0.  0.
          4    1    4    4  501    0 -0.77956203591E+01  0.11654644338E+02 -0.58921653714E+02  0.60567018317E+02  0.00000000000E+00 0. -1.
         -3    1    4    4    0  501  0.42208615453E+02  0.16900828127E+02  0.61277894939E+01  0.45877609069E+02  0.00000000000E+00 0.  1.
          5    1    3    3  502    0 -0.11671975715E+02 -0.67472027797E+02  0.26514378838E+02  0.73578609917E+02  0.47000000000E+01 0. -1.
         11    1    6    6    0    0  0.16195319475E+00  0.15149874515E+02  0.10149515475E+03  0.10261974159E+03  0.00000000000E+00 0. -1.
        -12    1    6    6    0    0  0.36361114670E+02  0.42932871404E+01  0.42518931476E+01  0.36859755423E+02  0.00000000000E+00 0.  1.
         -5    1    5    5    0  503 -0.59264087244E+02  0.19473393676E+02  0.26373594815E+03  0.27105384233E+03  0.47000000000E+01 0.  1.
<mgrwt>
<rscale>  2 0.17872919E+03</rscale>
<asrwt>0</asrwt>
<pdfrwt beam="1">  1       21 0.71827698E-01 0.17894116E+03</pdfrwt>
<pdfrwt beam="2">  1       21 0.19027159E-01 0.17894116E+03</pdfrwt>
<totfact> 0.44639387E+04</totfact>
</mgrwt>
</event>
<event>
12    1  0.2768653E-001  0.1758754E+03  0.7546771E-02  0.1171992E+00
         21   -1    0    0  504  503  0.00000000000E+00  0.00000000000E+00  0.37162060826E+03  0.37162060826E+03  0.00000000000E+00 0.  1.
         21   -1    0    0  502  504 -0.00000000000E+00 -0.00000000000E+00 -0.11726270406E+03  0.11726270406E+03  0.00000000000E+00 0.  1.
          6    2    1    2  502    0  0.13058143298E+02  0.24220924349E+02  0.25921435910E+03  0.31294084455E+03  0.17315519034E+03 0.  0.
         24    2    3    3    0    0 -0.54395569382E+02 -0.14773176802E+00  0.18763426545E+03  0.21150300860E+03  0.81043230947E+02 0.  0.
         -6    2    1    2    0  503 -0.13058143298E+02 -0.24220924349E+02 -0.48564548962E+01  0.17594246777E+03  0.17370952342E+03 0.  0.
        -24    2    5    5    0    0 -0.35254536998E+02  0.43302760167E+02  0.24324374936E+02  0.98963647995E+02  0.78000749942E+02 0.  0.
          4    1    4    4  501    0 -0.68101026556E+02 -0.12327471351E+02  0.97762163797E+02  0.11977961863E+03  0.00000000000E+00 0. -1.
         -3    1    4    4    0  501  0.13705457174E+02  0.12179739583E+02  0.89872101651E+02  0.91723389972E+02  0.00000000000E+00 0.  1.
          5    1    3    3  502    0  0.67453712680E+02  0.24368656117E+02  0.71580093652E+02  0.10143783595E+03  0.47000000000E+01 0. -1.
         13    1    6    6    0    0  0.54145230881E+01  0.49087533074E+02 -0.32443921351E+01  0.49491706819E+02  0.00000000000E+00 0. -1.
        -14    1    6    6    0    0 -0.40669060086E+02 -0.57847729074E+01  0.27568767071E+02  0.49471941176E+02  0.00000000000E+00 0.  1.
         -5    1    5    5    0  503  0.22196393700E+02 -0.67523684515E+02 -0.29180829832E+02  0.76978819772E+02  0.47000000000E+01 0.  1.
<mgrwt>
<rscale>  2 0.17573840E+03</rscale>
<asrwt>0</asrwt>
<pdfrwt beam="1">  1       21 0.57172401E-01 0.17587543E+03</pdfrwt>
<pdfrwt beam="2">  1       21 0.18040416E-01 0.17587543E+03</pdfrwt>
<totfact> 0.80886502E+04</totfact>
</mgrwt>
</event>
<event>
12    1  0.2768653E-001  0.3067675E+03  0.7546771E-02  0.1081934E+00
         21   -1    0    0  504  503  0.00000000000E+00  0.00000000000E+00  0.47563467475E+03  0.47563467475E+03  0.00000000000E+00 0. -1.
         21   -1    0    0  502  504 -0.00000000000E+00 -0.00000000000E+00 -0.23581999416E+03  0.23581999416E+03  0.00000000000E+00 0. -1.
          6    2    1    2  502    0 -0.24027803679E+03  0.77851092622E+02 -0.23069597024E+02  0.30763367955E+03  0.17410326505E+03 0.  0.
         24    2    3    3    0    0 -0.61396259884E+02  0.19127272032E+02  0.20628287346E+02  0.11429777416E+03  0.92212264240E+02 0.  0.
         -6    2    1    2    0  503  0.24027803679E+03 -0.77851092622E+02  0.26288427761E+03  0.40382098936E+03  0.17369202758E+03 0.  0.
        -24    2    5    5    0    0  0.71492882159E+02  0.38425178980E+01  0.15528998580E+03  0.18757831074E+03  0.77101529354E+02 0.  0.
          2    1    4    4  501    0 -0.47253519223E+02 -0.90022931923E+01  0.51312337176E+02  0.70334147525E+02  0.00000000000E+00 0. -1.
         -1    1    4    4    0  501 -0.14142740662E+02  0.28129565224E+02 -0.30684049829E+02  0.43963626637E+02  0.00000000000E+00 0.  1.
          5    1    3    3  502    0 -0.17888177691E+03  0.58723820590E+02 -0.43697884371E+02  0.19333590539E+03  0.47000000000E+01 0. -1.
         13    1    6    6    0    0  0.10041981752E+02 -0.30929979443E+02  0.32753869076E+02  0.46155400175E+02  0.00000000000E+00 0. -1.
        -14    1    6    6    0    0  0.61450900406E+02  0.34772497341E+02  0.12253611672E+03  0.14142291057E+03  0.00000000000E+00 0.  1.
         -5    1    5    5    0  503  0.16878515463E+03 -0.81693610520E+02  0.10759429181E+03  0.21624267862E+03  0.47000000000E+01 0.  1.
<mgrwt>
<rscale>  2 0.30670914E+03</rscale>
<asrwt>0</asrwt>
<pdfrwt beam="1">  1       21 0.73174565E-01 0.30676746E+03</pdfrwt>
<pdfrwt beam="2">  1       21 0.36279999E-01 0.30676746E+03</pdfrwt>
<totfact> 0.11566375E+04</totfact>
</mgrwt>
</event>
<event>
12    1  0.2768653E-001  0.1845951E+03  0.7546771E-02  0.1163671E+00
         21   -1    0    0  504  503  0.00000000000E+00  0.00000000000E+00  0.19251928202E+04  0.19251928202E+04  0.00000000000E+00 0. -1.
         21   -1    0    0  502  504 -0.00000000000E+00 -0.00000000000E+00 -0.18660833443E+02  0.18660833443E+02  0.00000000000E+00 0. -1.
          6    2    1    2  502    0  0.41775323953E+02  0.50281516242E+02  0.72416186511E+03  0.74731905260E+03  0.17263241563E+03 0.  0.
         24    2    3    3    0    0  0.65383366339E+02  0.21090269792E+02  0.68442313861E+03  0.69244897953E+03  0.79566151799E+02 0.  0.
         -6    2    1    2    0  503 -0.41775323953E+02 -0.50281516242E+02  0.11823701216E+04  0.11965346010E+04  0.17152999263E+03 0.  0.
        -24    2    5    5    0    0 -0.69750792779E+02 -0.54780986064E+02  0.51704369141E+03  0.53058849148E+03  0.79522568680E+02 0.  0.
          4    1    4    4  501    0  0.45005179452E+02  0.50162647206E+02  0.51135729672E+03  0.51577906342E+03  0.00000000000E+00 0. -1.
         -3    1    4    4    0  501  0.20378186887E+02 -0.29072377414E+02  0.17306584189E+03  0.17666991611E+03  0.00000000000E+00 0.  1.
          5    1    3    3  502    0 -0.23608042386E+02  0.29191246450E+02  0.39738726500E+02  0.54870073067E+02  0.47000000000E+01 0. -1.
         13    1    6    6    0    0 -0.57778576163E+02 -0.35067103433E+01  0.17027289625E+03  0.17984304289E+03  0.00000000000E+00 0. -1.
        -14    1    6    6    0    0 -0.11972216616E+02 -0.51274275721E+02  0.34677079517E+03  0.35074544858E+03  0.00000000000E+00 0.  1.
         -5    1    5    5    0  503  0.27975468826E+02  0.44994698224E+01  0.66532643023E+03  0.66594610957E+03  0.47000000000E+01 0.  1.
<mgrwt>
<rscale>  2 0.18433694E+03</rscale>
<asrwt>0</asrwt>
<pdfrwt beam="1">  1       21 0.29618335E+00 0.18459512E+03</pdfrwt>
<pdfrwt beam="2">  1       21 0.28708990E-02 0.18459512E+03</pdfrwt>
<totfact> 0.24628229E+04</totfact>
</mgrwt>
</event>
<event>
12    1  0.2768653E-001  0.2205507E+03  0.7546771E-02  0.1133640E+00
         21   -1    0    0  504  503  0.00000000000E+00  0.00000000000E+00  0.22210397531E+03  0.22210397531E+03  0.00000000000E+00 0. -1.
         21   -1    0    0  502  504 -0.00000000000E+00 -0.00000000000E+00 -0.21829441164E+03  0.21829441164E+03  0.00000000000E+00 0. -1.
          6    2    1    2  502    0  0.11353147075E+03  0.73859075273E+02  0.81180755495E+01  0.21980560293E+03  0.17292785224E+03 0.  0.
         24    2    3    3    0    0  0.81709182032E+02  0.11065503186E+03  0.34792174727E+02  0.16412618082E+03  0.82498371528E+02 0.  0.
         -6    2    1    2    0  503 -0.11353147075E+03 -0.73859075273E+02 -0.43085118813E+01  0.22059278402E+03  0.17406336558E+03 0.  0.
        -24    2    5    5    0    0 -0.13821963337E+03 -0.84859566814E+02  0.22377579753E+02  0.18232068355E+03  0.80213854430E+02 0.  0.
          2    1    4    4  501    0  0.37054199009E+02  0.10133066974E+03  0.19412078409E+01  0.10791054898E+03  0.00000000000E+00 0. -1.
         -1    1    4    4    0  501  0.44654983023E+02  0.93243621199E+01  0.32850966886E+02  0.56215631839E+02  0.00000000000E+00 0.  1.
          5    1    3    3  502    0  0.31822288717E+02 -0.36795956584E+02 -0.26674099177E+02  0.55679422114E+02  0.47000000000E+01 0. -1.
         11    1    6    6    0    0 -0.63796372490E+02 -0.42351685249E+02  0.50950482553E+02  0.91976051550E+02  0.00000000000E+00 0. -1.
        -12    1    6    6    0    0 -0.74423260885E+02 -0.42507881566E+02 -0.28572902800E+02  0.90344631996E+02  0.00000000000E+00 0.  1.
         -5    1    5    5    0  503  0.24688162625E+02  0.11000491542E+02 -0.26686091634E+02  0.38272100474E+02  0.47000000000E+01 0.  1.
<mgrwt>
<rscale>  2 0.22032660E+03</rscale>
<asrwt>0</asrwt>
<pdfrwt beam="1">  1       21 0.34169842E-01 0.22055070E+03</pdfrwt>
<pdfrwt beam="2">  1       21 0.33583756E-01 0.22055070E+03</pdfrwt>
<totfact> 0.69631986E+04</totfact>
</mgrwt>
</event>
<event>
12    1  0.2768653E-001  0.1761848E+03  0.7546771E-02  0.1171881E+00
         21   -1    0    0  504  503  0.00000000000E+00  0.00000000000E+00  0.26903762372E+03  0.26903762372E+03  0.00000000000E+00 0. -1.
         21   -1    0    0  502  504 -0.00000000000E+00 -0.00000000000E+00 -0.58536152520E+03  0.58536152520E+03  0.00000000000E+00 0. -1.
          6    2    1    2  502    0  0.13759654379E+02 -0.27062995572E+02 -0.54118871047E+03  0.56873280919E+03  0.17219191064E+03 0.  0.
         24    2    3    3    0    0 -0.15829125992E+02 -0.76784050325E+02 -0.30828698751E+03  0.32870576536E+03  0.82826697995E+02 0.  0.
         -6    2    1    2    0  503 -0.13759654379E+02  0.27062995572E+02  0.22486480899E+03  0.28566633972E+03  0.17354924808E+03 0.  0.
        -24    2    5    5    0    0 -0.66884730357E+02 -0.16840693243E+02  0.14038130291E+03  0.17653632373E+03  0.81859558316E+02 0.  0.
          2    1    4    4  501    0 -0.32975561424E+02 -0.23424825547E+02 -0.22308598098E+03  0.22672332261E+03  0.00000000000E+00 0. -1.
         -1    1    4    4    0  501  0.17146435432E+02 -0.53359224779E+02 -0.85201006524E+02  0.10198244275E+03  0.00000000000E+00 0.  1.
          5    1    3    3  502    0  0.29588780372E+02  0.49721054754E+02 -0.23290172296E+03  0.24002704383E+03  0.47000000000E+01 0. -1.
         13    1    6    6    0    0 -0.69583128218E+02  0.16768877858E+02  0.10947682577E+03  0.13079825067E+03  0.00000000000E+00 0. -1.
        -14    1    6    6    0    0  0.26983978612E+01 -0.33609571101E+02  0.30904477137E+02  0.45738073066E+02  0.00000000000E+00 0.  1.
         -5    1    5    5    0  503  0.53125075978E+02  0.43903688815E+02  0.84483506087E+02  0.10913001599E+03  0.47000000000E+01 0.  1.
<mgrwt>
<rscale>  2 0.17584960E+03</rscale>
<asrwt>0</asrwt>
<pdfrwt beam="1">  1       21 0.41390404E-01 0.17618478E+03</pdfrwt>
<pdfrwt beam="2">  1       21 0.90055619E-01 0.17618478E+03</pdfrwt>
<totfact> 0.59730958E+03</totfact>
</mgrwt>
</event>
<event>
12    1  0.2768653E-001  0.2585411E+03  0.7546771E-02  0.1108173E+00
         21   -1    0    0  504  503  0.00000000000E+00  0.00000000000E+00  0.49630151003E+03  0.49630151003E+03  0.00000000000E+00 0.  1.
         21   -1    0    0  502  504 -0.00000000000E+00 -0.00000000000E+00 -0.14210415029E+03  0.14210415029E+03  0.00000000000E+00 0.  1.
          6    2    1    2  502    0 -0.17855176817E+03 -0.66816006553E+02  0.10134180395E+03  0.27677124517E+03  0.17316768831E+03 0.  0.
         24    2    3    3    0    0 -0.18226658437E+03 -0.81497438859E+02  0.12665982274E+03  0.24689757132E+03  0.71082766616E+02 0.  0.
         -6    2    1    2    0  503  0.17855176817E+03  0.66816006553E+02  0.25285555579E+03  0.36163441515E+03  0.17463792681E+03 0.  0.
        -24    2    5    5    0    0  0.72235920871E+02  0.35196066333E+02  0.36982699041E+02  0.11888750933E+03  0.79433799455E+02 0.  0.
          2    1    4    4  501    0 -0.35586063351E+02 -0.26155190539E+02 -0.18225030952E+01  0.44201622306E+02  0.00000000000E+00 0. -1.
         -1    1    4    4    0  501 -0.14668052102E+03 -0.55342248320E+02  0.12848232584E+03  0.20269594901E+03  0.00000000000E+00 0.  1.
          5    1    3    3  502    0  0.37148161958E+01  0.14681432306E+02 -0.25318018786E+02  0.29873673848E+02  0.47000000000E+01 0. -1.
         13    1    6    6    0    0  0.41492891961E+02  0.58063859428E+02  0.10088139133E+02  0.72075255158E+02  0.00000000000E+00 0. -1.
        -14    1    6    6    0    0  0.30743028910E+02 -0.22867793095E+02  0.26894559908E+02  0.46812254167E+02  0.00000000000E+00 0.  1.
         -5    1    5    5    0  503  0.10631584730E+03  0.31619940221E+02  0.21587285675E+03  0.24274690583E+03  0.47000000000E+01 0.  1.
<mgrwt>
<rscale>  2 0.25829307E+03</rscale>
<asrwt>0</asrwt>
<pdfrwt beam="1">  1       21 0.76354077E-01 0.25854113E+03</pdfrwt>
<pdfrwt beam="2">  1       21 0.21862177E-01 0.25854113E+03</pdfrwt>
<totfact> 0.28865822E+04</totfact>
</mgrwt>
</event>
<event>
12    1  0.2768653E-001  0.1740173E+03  0.7546771E-02  0.1173806E+00
         21   -1    0    0  504  503  0.00000000000E+00  0.00000000000E+00  0.38410650636E+03  0.38410650636E+03  0.00000000000E+00 0. -1.
         21   -1    0    0  502  504 -0.00000000000E+00 -0.00000000000E+00 -0.91814504935E+02  0.91814504935E+02  0.00000000000E+00 0. -1.
          6    2    1    2  502    0 -0.15314724376E+02 -0.11640671604E+02  0.56050601636E+02  0.18250658385E+03  0.17261789359E+03 0.  0.
         24    2    3    3    0    0  0.51267021489E+02 -0.44228274511E+01  0.64941807911E+02  0.11478384243E+03  0.79435654297E+02 0.  0.
         -6    2    1    2    0  503  0.15314724376E+02  0.11640671604E+02  0.23624139979E+03  0.29341442744E+03  0.17295080583E+03 0.  0.
        -24    2    5    5    0    0  0.28846966638E+02  0.20760676788E+02  0.25334669794E+03  0.26931095673E+03  0.84146829259E+02 0.  0.
          4    1    4    4  501    0  0.31105463120E+02 -0.16446123284E+02 -0.97324749286E+01  0.36506792180E+02  0.00000000000E+00 0. -1.
         -3    1    4    4    0  501  0.20161558369E+02  0.12023295833E+02  0.74674282840E+02  0.78277050252E+02  0.00000000000E+00 0.  1.
          5    1    3    3  502    0 -0.66581745865E+02 -0.72178441530E+01 -0.88912062753E+01  0.67722741421E+02  0.47000000000E+01 0. -1.
         11    1    6    6    0    0  0.53770320788E+02  0.33501377893E+02  0.17619131948E+03  0.18723506824E+03  0.00000000000E+00 0. -1.
        -12    1    6    6    0    0 -0.24923354150E+02 -0.12740701106E+02  0.77155378460E+02  0.82075888494E+02  0.00000000000E+00 0.  1.
         -5    1    5    5    0  503 -0.13532242262E+02 -0.91200051835E+01 -0.17105298153E+02  0.24103470706E+02  0.47000000000E+01 0.  1.
<mgrwt>
<rscale>  2 0.17393454E+03</rscale>
<asrwt>0</asrwt>
<pdfrwt beam="1">  1       21 0.59093308E-01 0.17401732E+03</pdfrwt>
<pdfrwt beam="2">  1       21 0.14125309E-01 0.17401732E+03</pdfrwt>
<totfact> 0.11793344E+05</totfact>
</mgrwt>
</event>
<event>
12    1  0.2768653E-001  0.2429147E+03  0.7546771E-02  0.1118841E+00
         21   -1    0    0  504  503  0.00000000000E+00  0.00000000000E+00  0.14604650276E+03  0.14604650276E+03  0.00000000000E+00 0.  1.
         21   -1    0    0  502  504 -0.00000000000E+00 -0.00000000000E+00 -0.65604931308E+03  0.65604931308E+03  0.00000000000E+00 0.  1.
          6    2    1    2  502    0  0.14400073531E+03 -0.76437786893E+02 -0.50642234259E+03  0.55915474075E+03  0.17207988841E+03 0.  0.
         24    2    3    3    0    0  0.41638429815E+02  0.91554016016E+01 -0.12393950063E+03  0.15403815272E+03  0.80926957570E+02 0.  0.
         -6    2    1    2    0  503 -0.14400073531E+03  0.76437786893E+02 -0.35804677344E+01  0.24294107508E+03  0.18007942464E+03 0.  0.
        -24    2    5    5    0    0 -0.11553875806E+03  0.11364922630E+03  0.33117704456E+02  0.18324500140E+03  0.78845398960E+02 0.  0.
          2    1    4    4  501    0 -0.87418457013E+01  0.33125566197E+02 -0.60739138709E+02  0.69734969515E+02  0.00000000000E+00 0. -1.
         -1    1    4    4    0  501  0.50380275516E+02 -0.23970164596E+02 -0.63200361920E+02  0.84303183206E+02  0.00000000000E+00 0.  1.
          5    1    3    3  502    0  0.10236230550E+03 -0.85593188495E+02 -0.38248284196E+03  0.40511658803E+03  0.47000000000E+01 0. -1.
         11    1    6    6    0    0 -0.86046360059E+02  0.47949829196E+02 -0.10480473069E+02  0.99060600216E+02  0.00000000000E+00 0. -1.
        -12    1    6    6    0    0 -0.29492398004E+02  0.65699397099E+02  0.43598177525E+02  0.84184401184E+02  0.00000000000E+00 0.  1.
         -5    1    5    5    0  503 -0.28461977248E+02 -0.37211439403E+02 -0.36698172190E+02  0.59696073685E+02  0.47000000000E+01 0.  1.
<mgrwt>
<rscale>  2 0.24143383E+03</rscale>
<asrwt>0</asrwt>
<pdfrwt beam="1">  1       21 0.22468693E-01 0.24291469E+03</pdfrwt>
<pdfrwt beam="2">  1       21 0.10093066E+00 0.24291469E+03</pdfrwt>
<totfact> 0.14448321E+04</totfact>
</mgrwt>
</event>
<event>
12    1  0.2768653E-001  0.3607757E+03  0.7546771E-02  0.1058296E+00
         21   -1    0    0  504  503  0.00000000000E+00  0.00000000000E+00  0.40124188413E+03  0.40124188413E+03  0.00000000000E+00 0.  1.
         21   -1    0    0  502  504 -0.00000000000E+00 -0.00000000000E+00 -0.39194914128E+03  0.39194914128E+03  0.00000000000E+00 0. -1.
          6    2    1    2  502    0  0.14928203359E+03 -0.27890740005E+03 -0.16021754399E+03  0.39457740036E+03  0.17305259349E+03 0.  0.
         24    2    3    3    0    0  0.33828187739E+02 -0.42728274000E+02 -0.55728310670E+02  0.11164585390E+03  0.79931848454E+02 0.  0.
         -6    2    1    2    0  503 -0.14928203359E+03  0.27890740005E+03  0.16951028684E+03  0.39861362506E+03  0.17344918963E+03 0.  0.
        -24    2    5    5    0    0 -0.30717977114E+02  0.19386583281E+03  0.75479208430E+02  0.22496617373E+03  0.79906903119E+02 0.  0.
          4    1    4    4  501    0 -0.20815542790E+02 -0.36053986697E+02 -0.22031772687E+02  0.47101759904E+02  0.00000000000E+00 0. -1.
         -3    1    4    4    0  501  0.54643730529E+02 -0.66742873036E+01 -0.33696537984E+02  0.64544093992E+02  0.00000000000E+00 0.  1.
          5    1    3    3  502    0  0.11545384585E+03 -0.23617912605E+03 -0.10448923332E+03  0.28293154646E+03  0.47000000000E+01 0. -1.
         13    1    6    6    0    0 -0.23178175901E+02  0.15909101415E+03  0.24246171300E+02  0.16258860798E+03  0.00000000000E+00 0. -1.
        -14    1    6    6    0    0 -0.75398012128E+01  0.34774818664E+02  0.51233037130E+02  0.62377565751E+02  0.00000000000E+00 0.  1.
         -5    1    5    5    0  503 -0.11856405648E+03  0.85041567235E+02  0.94031078414E+02  0.17364745133E+03  0.47000000000E+01 0.  1.
<mgrwt>
<rscale>  2 0.36072804E+03</rscale>
<asrwt>0</asrwt>
<pdfrwt beam="1">  1       21 0.61729520E-01 0.36077567E+03</pdfrwt>
<pdfrwt beam="2">  1       21 0.60299868E-01 0.36077567E+03</pdfrwt>
<totfact> 0.56914699E+03</totfact>
</mgrwt>
</event>
<event>
12    1  0.2768653E-001  0.4125611E+03  0.7546771E-02  0.1039595E+00
         21   -1    0    0  504  503  0.00000000000E+00  0.00000000000E+00  0.12073544813E+04  0.12073544813E+04  0.00000000000E+00 0. -1.
         21   -1    0    0  502  504 -0.00000000000E+00 -0.00000000000E+00 -0.16165776167E+03  0.16165776167E+03  0.00000000000E+00 0. -1.
          6    2    1    2  502    0  0.36979047330E+03  0.54362336925E+02  0.27659898846E+03  0.49670278300E+03  0.17466080386E+03 0.  0.
         24    2    3    3    0    0  0.36235646496E+03  0.63896369349E+02  0.29199966962E+03  0.47656741028E+03  0.80422234265E+02 0.  0.
         -6    2    1    2    0  503 -0.36979047330E+03 -0.54362336925E+02  0.76909773117E+03  0.87230945997E+03  0.17237231811E+03 0.  0.
        -24    2    5    5    0    0 -0.87544980183E+02 -0.15146650832E+02  0.30323423971E+03  0.32618559939E+03  0.80947492441E+02 0.  0.
          2    1    4    4  501    0  0.36076915676E+03  0.70059410760E+02  0.27679629467E+03  0.46008574662E+03  0.00000000000E+00 0. -1.
         -1    1    4    4    0  501  0.15873082027E+01 -0.61630414108E+01  0.15203374959E+02  0.16481663657E+02  0.00000000000E+00 0.  1.
          5    1    3    3  502    0  0.74340083374E+01 -0.95340324237E+01 -0.15400681166E+02  0.20135372720E+02  0.47000000000E+01 0. -1.
         11    1    6    6    0    0 -0.60227923909E+02  0.53442359334E+01  0.79607193816E+02  0.99966339251E+02  0.00000000000E+00 0. -1.
        -12    1    6    6    0    0 -0.27317056274E+02 -0.20490886765E+02  0.22362704589E+03  0.22621926014E+03  0.00000000000E+00 0.  1.
         -5    1    5    5    0  503 -0.28224549312E+03 -0.39215686094E+02  0.46586349146E+03  0.54612386058E+03  0.47000000000E+01 0.  1.
<mgrwt>
<rscale>  2 0.41231997E+03</rscale>
<asrwt>0</asrwt>
<pdfrwt beam="1">  1       21 0.18574684E+00 0.41256109E+03</pdfrwt>
<pdfrwt beam="2">  1       21 0.24870426E-01 0.41256109E+03</pdfrwt>
<totfact> 0.21997589E+03</totfact>
</mgrwt>
</event>
<event>
12    1  0.2768653E-001  0.2226491E+03  0.7546771E-02  0.1132137E+00
         21   -1    0    0  504  503  0.00000000000E+00  0.00000000000E+00  0.94175919569E+02  0.94175919569E+02  0.00000000000E+00 0.  1.
         21   -1    0    0  502  504 -0.00000000000E+00 -0.00000000000E+00 -0.11559329106E+04  0.11559329106E+04  0.00000000000E+00 0.  1.
          6    2    1    2  502    0  0.13028997259E+03 -0.49521060073E+02 -0.99379440984E+03  0.10184301486E+04  0.17362265450E+03 0.  0.
         24    2    3    3    0    0  0.11633247131E+03 -0.80933414147E+02 -0.56326135317E+03  0.58650150781E+03  0.81469044923E+02 0.  0.
         -6    2    1    2    0  503 -0.13028997259E+03  0.49521060073E+02 -0.67962581234E+02  0.23167868163E+03  0.17212869234E+03 0.  0.
        -24    2    5    5    0    0 -0.13131482628E+03  0.56996893620E+02 -0.10409797004E+03  0.19446585136E+03  0.80550297919E+02 0.  0.
          2    1    4    4  501    0  0.11143415662E+03 -0.72559965581E+02 -0.37302362025E+03  0.39601659199E+03  0.00000000000E+00 0. -1.
         -1    1    4    4    0  501  0.48983146866E+01 -0.83734485666E+01 -0.19023773293E+03  0.19048491583E+03  0.00000000000E+00 0.  1.
          5    1    3    3  502    0  0.13957501278E+02  0.31412354074E+02 -0.43053305666E+03  0.43192864076E+03  0.47000000000E+01 0. -1.
         11    1    6    6    0    0 -0.51860440962E+02 -0.17483860159E+02 -0.42940032988E+02  0.69563188079E+02  0.00000000000E+00 0. -1.
        -12    1    6    6    0    0 -0.79454385321E+02  0.74480753779E+02 -0.61157937056E+02  0.12490266328E+03  0.00000000000E+00 0.  1.
         -5    1    5    5    0  503  0.10248536938E+01 -0.74758335476E+01  0.36135388811E+02  0.37212830272E+02  0.47000000000E+01 0.  1.
<mgrwt>
<rscale>  2 0.22235781E+03</rscale>
<asrwt>0</asrwt>
<pdfrwt beam="1">  1       21 0.14488603E-01 0.22264914E+03</pdfrwt>
<pdfrwt beam="2">  1       21 0.17783583E+00 0.22264914E+03</pdfrwt>
<totfact> 0.76801307E+03</totfact>
</mgrwt>
</event>
<event>
12    1  0.2768653E-001  0.2493186E+03  0.7546771E-02  0.1114194E+00
         21   -1    0    0  504  503  0.00000000000E+00  0.00000000000E+00  0.36602053023E+03  0.36602053023E+03  0.00000000000E+00 0. -1.
         21   -1    0    0  502  504 -0.00000000000E+00 -0.00000000000E+00 -0.19031036626E+03  0.19031036626E+03  0.00000000000E+00 0. -1.
          6    2    1    2  502    0  0.51183899636E+02 -0.16858460292E+03 -0.72000654312E+01  0.24942253371E+03  0.17640634755E+03 0.  0.
         24    2    3    3    0    0 -0.28241203489E+02 -0.97979419063E+02 -0.42780731935E+02  0.13725519076E+03  0.81309681050E+02 0.  0.
         -6    2    1    2    0  503 -0.51183899636E+02  0.16858460292E+03  0.18291022941E+03  0.30690836278E+03  0.17232536435E+03 0.  0.
        -24    2    5    5    0    0  0.29548067921E+02  0.13315491509E+03  0.11029184828E+03  0.19259111717E+03  0.79521864201E+02 0.  0.
          4    1    4    4  501    0  0.55601654041E+01 -0.72208522069E+02 -0.57289560075E+02  0.92342188583E+02  0.00000000000E+00 0. -1.
         -3    1    4    4    0  501 -0.33801368893E+02 -0.25770896994E+02  0.14508828140E+02  0.44913002182E+02  0.00000000000E+00 0.  1.
          5    1    3    3  502    0  0.79425103125E+02 -0.70605183860E+02  0.35580666503E+02  0.11216734294E+03  0.47000000000E+01 0. -1.
         11    1    6    6    0    0 -0.14511004339E+02  0.70921978250E+02  0.86328659681E+02  0.11266380842E+03  0.00000000000E+00 0. -1.
        -12    1    6    6    0    0  0.44059072259E+02  0.62232936840E+02  0.23963188596E+02  0.79927308748E+02  0.00000000000E+00 0.  1.
         -5    1    5    5    0  503 -0.80731967557E+02  0.35429687834E+02  0.72618381130E+02  0.11431724561E+03  0.47000000000E+01 0.  1.
<mgrwt>
<rscale>  2 0.24859781E+03</rscale>
<asrwt>0</asrwt>
<pdfrwt beam="1">  1       21 0.56310851E-01 0.24931859E+03</pdfrwt>
<pdfrwt beam="2">  1       21 0.29278518E-01 0.24931859E+03</pdfrwt>
<totfact> 0.32238434E+04</totfact>
</mgrwt>
</event>
<event>
12    1  0.2768653E-001  0.3053263E+03  0.7546771E-02  0.1082644E+00
         21   -1    0    0  504  503  0.00000000000E+00  0.00000000000E+00  0.45184307246E+03  0.45184307246E+03  0.00000000000E+00 0.  1.
         21   -1    0    0  502  504 -0.00000000000E+00 -0.00000000000E+00 -0.40488833516E+03  0.40488833516E+03  0.00000000000E+00 0. -1.
          6    2    1    2  502    0  0.13269807926E+03  0.21261550665E+03 -0.27665403942E+03  0.41202133802E+03  0.17438460811E+03 0.  0.
         24    2    3    3    0    0  0.12961394665E+03  0.20377313826E+03 -0.29568535222E+03  0.39029623228E+03  0.81105205553E+02 0.  0.
         -6    2    1    2    0  503 -0.13269807926E+03 -0.21261550665E+03  0.32360877672E+03  0.44471006960E+03  0.17386854726E+03 0.  0.
        -24    2    5    5    0    0 -0.13372055172E+03 -0.10971939189E+03  0.14871216010E+03  0.24173329165E+03  0.80000917628E+02 0.  0.
          2    1    4    4  501    0  0.12384555780E+03  0.14099739289E+03 -0.18877702189E+03  0.26618555742E+03  0.00000000000E+00 0. -1.
         -1    1    4    4    0  501  0.57683888446E+01  0.62775745373E+02 -0.10690833034E+03  0.12411067485E+03  0.00000000000E+00 0.  1.
          5    1    3    3  502    0  0.30841326155E+01  0.88423683836E+01  0.19031312799E+02  0.21725105742E+02  0.47000000000E+01 0. -1.
         11    1    6    6    0    0 -0.44253249694E+02 -0.40087809470E-01  0.60488008705E+02  0.74947654483E+02  0.00000000000E+00 0. -1.
        -12    1    6    6    0    0 -0.89467302027E+02 -0.10967930409E+03  0.88224151397E+02  0.16678563717E+03  0.00000000000E+00 0.  1.
         -5    1    5    5    0  503  0.10224724563E+01 -0.10289611475E+03  0.17489661662E+03  0.20297677794E+03  0.47000000000E+01 0.  1.
<mgrwt>
<rscale>  2 0.30525262E+03</rscale>
<asrwt>0</asrwt>
<pdfrwt beam="1">  1       21 0.69514319E-01 0.30532626E+03</pdfrwt>
<pdfrwt beam="2">  1       21 0.62290513E-01 0.30532626E+03</pdfrwt>
<totfact> 0.41824173E+03</totfact>
</mgrwt>
</event>
<event>
12    1  0.2768653E-001  0.1736594E+03  0.7546771E-02  0.1174167E+00
         21   -1    0    0  504  503  0.00000000000E+00  0.00000000000E+00  0.65180462782E+03  0.65180462782E+03  0.00000000000E+00 0. -1.
         21   -1    0    0  502  504 -0.00000000000E+00 -0.00000000000E+00 -0.67204214367E+02  0.67204214367E+02  0.00000000000E+00 0. -1.
          6    2    1    2  502    0  0.16552494050E+02 -0.18062241936E+01  0.91415935311E+02  0.19625101363E+03  0.17285930584E+03 0.  0.
         24    2    3    3    0    0  0.65435450599E+02 -0.39867290701E+02  0.49555513572E+02  0.12133390522E+03  0.79968547360E+02 0.  0.
         -6    2    1    2    0  503 -0.16552494050E+02  0.18062241936E+01  0.49318447814E+03  0.52275782855E+03  0.17253280944E+03 0.  0.
        -24    2    5    5    0    0 -0.74860133441E+02  0.14104629311E+02  0.27239964958E+03  0.29402422346E+03  0.80285084173E+02 0.  0.
          4    1    4    4  501    0  0.10287700230E+02  0.16809285863E+02 -0.10224375929E+02  0.22201953301E+02  0.00000000000E+00 0. -1.
         -3    1    4    4    0  501  0.55147750369E+02 -0.56676576564E+02  0.59779889501E+02  0.99131951916E+02  0.00000000000E+00 0.  1.
          5    1    3    3  502    0 -0.48882956550E+02  0.38061066508E+02  0.41860421739E+02  0.74917108413E+02  0.47000000000E+01 0. -1.
         13    1    6    6    0    0  0.59380502067E+01 -0.18131898672E+02  0.89227769898E+02  0.91244841556E+02  0.00000000000E+00 0. -1.
        -14    1    6    6    0    0 -0.80798183648E+02  0.32236527983E+02  0.18317187968E+03  0.20277938190E+03  0.00000000000E+00 0.  1.
         -5    1    5    5    0  503  0.58307639391E+02 -0.12298405118E+02  0.22078482856E+03  0.22873360510E+03  0.47000000000E+01 0.  1.
<mgrwt>
<rscale>  2 0.17357810E+03</rscale>
<asrwt>0</asrwt>
<pdfrwt beam="1">  1       21 0.10027763E+00 0.17365940E+03</pdfrwt>
<pdfrwt beam="2">  1       21 0.10339110E-01 0.17365940E+03</pdfrwt>
<totfact> 0.62956565E+04</totfact>
</mgrwt>
</event>
<event>
12    1  0.2768653E-001  0.1766506E+03  0.7546771E-02  0.1171363E+00
         21   -1    0    0  504  503  0.00000000000E+00  0.00000000000E+00  0.54639018691E+03  0.54639018691E+03  0.00000000000E+00 0. -1.
         21   -1    0    0  502  504 -0.00000000000E+00 -0.00000000000E+00 -0.11047679801E+03  0.11047679801E+03  0.00000000000E+00 0. -1.
          6    2    1    2  502    0 -0.19698703335E+02  0.29544589161E+02 -0.10722846826E+02  0.17697577659E+03  0.17304486238E+03 0.  0.
         24    2    3    3    0    0 -0.41320096492E+02  0.79931165141E+02 -0.15225520321E+02  0.12176114312E+03  0.80607803404E+02 0.  0.
         -6    2    1    2    0  503  0.19698703335E+02 -0.29544589161E+02  0.44663623573E+03  0.47989120833E+03  0.17190323760E+03 0.  0.
        -24    2    5    5    0    0  0.41783838275E+02  0.11963707811E+02  0.12047873575E+03  0.15032862444E+03  0.78705464312E+02 0.  0.
          2    1    4    4  501    0 -0.41606943083E+01  0.56352872814E+02 -0.41858326233E+02  0.70321242356E+02  0.00000000000E+00 0. -1.
         -1    1    4    4    0  501 -0.37159402184E+02  0.23578292327E+02  0.26632805912E+02  0.51439900763E+02  0.00000000000E+00 0.  1.
          5    1    3    3  502    0  0.21621393157E+02 -0.50386575979E+02  0.45026734949E+01  0.55214633473E+02  0.47000000000E+01 0. -1.
         13    1    6    6    0    0 -0.75497805702E+01  0.25046607014E+02  0.82950614338E+02  0.86977791008E+02  0.00000000000E+00 0. -1.
        -14    1    6    6    0    0  0.49333618845E+02 -0.13082899203E+02  0.37528121415E+02  0.63350833434E+02  0.00000000000E+00 0.  1.
         -5    1    5    5    0  503 -0.22085134939E+02 -0.41508296972E+02  0.32615749998E+03  0.32956258389E+03  0.47000000000E+01 0.  1.
<mgrwt>
<rscale>  2 0.17637042E+03</rscale>
<asrwt>0</asrwt>
<pdfrwt beam="1">  1       21 0.84060027E-01 0.17665063E+03</pdfrwt>
<pdfrwt beam="2">  1       21 0.16996431E-01 0.17665063E+03</pdfrwt>
<totfact> 0.38681789E+04</totfact>
</mgrwt>
</event>
<event>
12    1  0.2768653E-001  0.1779797E+03  0.7546771E-02  0.1170568E+00
         21   -1    0    0  504  503  0.00000000000E+00  0.00000000000E+00  0.66279664568E+03  0.66279664568E+03  0.00000000000E+00 0. -1.
         21   -1    0    0  502  504 -0.00000000000E+00 -0.00000000000E+00 -0.88275731839E+02  0.88275731839E+02  0.00000000000E+00 0. -1.
          6    2    1    2  502    0  0.38613784868E+02 -0.17814945036E+02  0.28886529580E+02  0.17714409960E+03  0.16952051139E+03 0.  0.
         24    2    3    3    0    0  0.43598376720E+02  0.22884814752E+02 -0.35106346845E+02  0.10099625106E+03  0.80890382256E+02 0.  0.
         -6    2    1    2    0  503 -0.38613784868E+02  0.17814945036E+02  0.54563438426E+03  0.57392827792E+03  0.17282473858E+03 0.  0.
        -24    2    5    5    0    0  0.12916364232E+02  0.66769510222E+02  0.35368557413E+03  0.36918858605E+03  0.81127842077E+02 0.  0.
          2    1    4    4  501    0  0.44456313404E+02 -0.21326235146E+02 -0.26393629152E+02  0.55926699946E+02  0.00000000000E+00 0. -1.
         -1    1    4    4    0  501 -0.85793668437E+00  0.44211049898E+02 -0.87127176924E+01  0.45069551119E+02  0.00000000000E+00 0.  1.
          5    1    3    3  502    0 -0.49845918514E+01 -0.40699759789E+02  0.63992876425E+02  0.76147848531E+02  0.47000000000E+01 0. -1.
         11    1    6    6    0    0 -0.78775256372E+01  0.77980976287E+02  0.22270071939E+03  0.23609044557E+03  0.00000000000E+00 0. -1.
        -12    1    6    6    0    0  0.20793889869E+02 -0.11211466065E+02  0.13098485474E+03  0.13309814048E+03  0.00000000000E+00 0.  1.
         -5    1    5    5    0  503 -0.51530149100E+02 -0.48954565185E+02  0.19194881013E+03  0.20473969187E+03  0.47000000000E+01 0.  1.
<mgrwt>
<rscale>  2 0.17717258E+03</rscale>
<asrwt>0</asrwt>
<pdfrwt beam="1">  1       21 0.10196871E+00 0.17797974E+03</pdfrwt>
<pdfrwt beam="2">  1       21 0.13580882E-01 0.17797974E+03</pdfrwt>
<totfact> 0.37110085E+04</totfact>
</mgrwt>
</event>
<event>
12    1  0.2768653E-001  0.2596622E+03  0.7546771E-02  0.1107603E+00
         21   -1    0    0  504  503  0.00000000000E+00  0.00000000000E+00  0.54981375530E+02  0.54981375530E+02  0.00000000000E+00 0.  1.
         21   -1    0    0  502  504 -0.00000000000E+00 -0.00000000000E+00 -0.15482324164E+04  0.15482324164E+04  0.00000000000E+00 0. -1.
          6    2    1    2  502    0 -0.13826262593E+03 -0.13551091531E+03 -0.11186092150E+04  0.11483514368E+04  0.17304532579E+03 0.  0.
         24    2    3    3    0    0 -0.16901399071E+03 -0.11291933768E+03 -0.10016003570E+04  0.10251881767E+04  0.80566845124E+02 0.  0.
         -6    2    1    2    0  503  0.13826262593E+03  0.13551091531E+03 -0.37464182595E+03  0.45486235514E+03  0.17048021139E+03 0.  0.
        -24    2    5    5    0    0  0.10462321879E+03  0.12324402243E+03 -0.37776041427E+03  0.41861456945E+03  0.80000751211E+02 0.  0.
          4    1    4    4  501    0 -0.84300742420E+02 -0.93872716812E+02 -0.47467450179E+03  0.49115637509E+03  0.00000000000E+00 0. -1.
         -3    1    4    4    0  501 -0.84713248290E+02 -0.19046620866E+02 -0.52692585522E+03  0.53403180158E+03  0.00000000000E+00 0.  1.
          5    1    3    3  502    0  0.30751364779E+02 -0.22591577629E+02 -0.11700885795E+03  0.12316326016E+03  0.47000000000E+01 0. -1.
         13    1    6    6    0    0 -0.12379121422E+02  0.23332454828E+02 -0.50437896952E+02  0.56935292608E+02  0.00000000000E+00 0. -1.
        -14    1    6    6    0    0  0.11700234021E+03  0.99911567604E+02 -0.32732251732E+03  0.36167927685E+03  0.00000000000E+00 0.  1.
         -5    1    5    5    0  503  0.33639407144E+02  0.12266892875E+02  0.31185883247E+01  0.36247785684E+02  0.47000000000E+01 0.  1.
<mgrwt>
<rscale>  2 0.25923554E+03</rscale>
<asrwt>0</asrwt>
<pdfrwt beam="1">  1       21 0.84586749E-02 0.25966218E+03</pdfrwt>
<pdfrwt beam="2">  1       21 0.23818955E+00 0.25966218E+03</pdfrwt>
<totfact> 0.80432924E+03</totfact>
</mgrwt>
</event>
<event>
12    1  0.2768653E-001  0.2666442E+03  0.7546771E-02  0.1103460E+00
         21   -1    0    0  504  503  0.00000000000E+00  0.00000000000E+00  0.22354984862E+03  0.22354984862E+03  0.00000000000E+00 0. -1.
         21   -1    0    0  502  504 -0.00000000000E+00 -0.00000000000E+00 -0.31876817477E+03  0.31876817477E+03  0.00000000000E+00 0.  1.
          6    2    1    2  502    0 -0.19567436127E+03  0.54223781690E+02 -0.72804450438E+02  0.27640477102E+03  0.17283065492E+03 0.  0.
         24    2    3    3    0    0 -0.15191395575E+03 -0.12878645513E+02 -0.81900626989E+02  0.19564253197E+03  0.91239126221E+02 0.  0.
         -6    2    1    2    0  503  0.19567436127E+03 -0.54223781690E+02 -0.22413875705E+02  0.26591325237E+03  0.17023161224E+03 0.  0.
        -24    2    5    5    0    0  0.20881756368E+03 -0.57582092597E+02  0.87400919449E+01  0.23161045771E+03  0.81526330866E+02 0.  0.
          4    1    4    4  501    0 -0.74946058149E+02 -0.33096898237E+02 -0.67649718947E+00  0.81931519902E+02  0.00000000000E+00 0. -1.
         -3    1    4    4    0  501 -0.76967897597E+02  0.20218252724E+02 -0.81224129799E+02  0.11371101207E+03  0.00000000000E+00 0.  1.
          5    1    3    3  502    0 -0.43760405523E+02  0.67102427203E+02  0.90961765504E+01  0.80762239047E+02  0.47000000000E+01 0. -1.
         13    1    6    6    0    0  0.18113037497E+03 -0.41708982519E+02  0.36372248502E+02  0.18939586167E+03  0.00000000000E+00 0. -1.
        -14    1    6    6    0    0  0.27687188710E+02 -0.15873110078E+02 -0.27632156557E+02  0.42214596033E+02  0.00000000000E+00 0.  1.
         -5    1    5    5    0  503 -0.13143202406E+02  0.33583109068E+01 -0.31153967650E+02  0.34302794667E+02  0.47000000000E+01 0.  1.
<mgrwt>
<rscale>  2 0.26622386E+03</rscale>
<asrwt>0</asrwt>
<pdfrwt beam="1">  1       21 0.34392285E-01 0.26664416E+03</pdfrwt>
<pdfrwt beam="2">  1       21 0.49041257E-01 0.26664416E+03</pdfrwt>
<totfact> 0.31196592E+04</totfact>
</mgrwt>
</event>
<event>
12    1  0.2768653E-001  0.1899948E+03  0.7546771E-02  0.1160803E+00
         21   -1    0    0  504  503  0.00000000000E+00  0.00000000000E+00  0.12662665920E+04  0.12662665920E+04  0.00000000000E+00 0.  1.
         21   -1    0    0  502  504 -0.00000000000E+00 -0.00000000000E+00 -0.43592550109E+02  0.43592550109E+02  0.00000000000E+00 0. -1.
          6    2    1    2  502    0 -0.45160447950E+02  0.21746478721E+02  0.19727255795E+03  0.26700429119E+03  0.17280756349E+03 0.  0.
         24    2    3    3    0    0  0.30466209026E+02  0.34633922211E+02  0.15534511652E+03  0.17945157684E+03  0.77091275403E+02 0.  0.
         -6    2    1    2    0  503  0.45160447950E+02 -0.21746478721E+02  0.10254014839E+04  0.10428548509E+04  0.18326391194E+03 0.  0.
        -24    2    5    5    0    0 -0.34569656256E+02  0.25858963050E+02  0.43849594827E+03  0.44862983848E+03  0.84417345520E+02 0.  0.
          4    1    4    4  501    0  0.56602415704E+02  0.25234996008E+02  0.10350328326E+03  0.12063817030E+03  0.00000000000E+00 0. -1.
         -3    1    4    4    0  501 -0.26136206678E+02  0.93989262027E+01  0.51841833262E+02  0.58813406544E+02  0.00000000000E+00 0.  1.
          5    1    3    3  502    0 -0.75626656975E+02 -0.12887443490E+02  0.41927441423E+02  0.87552714345E+02  0.47000000000E+01 0. -1.
         13    1    6    6    0    0 -0.27802205383E+02 -0.27690336717E+02  0.14519562629E+03  0.15040441239E+03  0.00000000000E+00 0. -1.
        -14    1    6    6    0    0 -0.67674508729E+01  0.53549299767E+02  0.29330032198E+03  0.29822542610E+03  0.00000000000E+00 0.  1.
         -5    1    5    5    0  503  0.79730104206E+02 -0.47605441771E+02  0.58690553568E+03  0.59422501244E+03  0.47000000000E+01 0.  1.
<mgrwt>
<rscale>  2 0.18742705E+03</rscale>
<asrwt>0</asrwt>
<pdfrwt beam="1">  1       21 0.19481022E+00 0.18999483E+03</pdfrwt>
<pdfrwt beam="2">  1       21 0.67065471E-02 0.18999483E+03</pdfrwt>
<totfact> 0.23670099E+04</totfact>
</mgrwt>
</event>
<event>
12    1  0.2768653E-001  0.1801334E+03  0.7546771E-02  0.1167785E+00
         21   -1    0    0  504  503  0.00000000000E+00  0.00000000000E+00  0.75597884524E+02  0.75597884524E+02  0.00000000000E+00 0.  1.
         21   -1    0    0  502  504 -0.00000000000E+00 -0.00000000000E+00 -0.62796793379E+03  0.62796793379E+03  0.00000000000E+00 0.  1.
          6    2    1    2  502    0  0.49059010859E+02 -0.70003391210E+01 -0.77976147000E+02  0.19628635990E+03  0.17318274824E+03 0.  0.
         24    2    3    3    0    0  0.94419718373E+02 -0.64179331642E+01 -0.81967793167E+02  0.15050474544E+03  0.83526559852E+02 0.  0.
         -6    2    1    2    0  503 -0.49059010859E+02  0.70003391210E+01 -0.47439390227E+03  0.50727945841E+03  0.17270519137E+03 0.  0.
        -24    2    5    5    0    0 -0.32556693410E+02 -0.57936221252E+02 -0.21109368073E+03  0.23554764207E+03  0.80657334574E+02 0.  0.
          2    1    4    4  501    0  0.93565257959E+02 -0.21611717399E+02 -0.36793649130E+02  0.10283626035E+03  0.00000000000E+00 0. -1.
         -1    1    4    4    0  501  0.85446041428E+00  0.15193784235E+02 -0.45174144037E+02  0.47668485097E+02  0.00000000000E+00 0.  1.
          5    1    3    3  502    0 -0.45360707515E+02 -0.58240595672E+00  0.39916461678E+01  0.45781614454E+02  0.47000000000E+01 0. -1.
         11    1    6    6    0    0  0.13605583644E+02  0.12824781270E+02 -0.25422010413E+02  0.31557337251E+02  0.00000000000E+00 0. -1.
        -12    1    6    6    0    0 -0.46162277054E+02 -0.70761002523E+02 -0.18567167032E+03  0.20399030482E+03  0.00000000000E+00 0.  1.
         -5    1    5    5    0  503 -0.16502317449E+02  0.64936560373E+02 -0.26330022153E+03  0.27173181634E+03  0.47000000000E+01 0.  1.
<mgrwt>
<rscale>  2 0.18001856E+03</rscale>
<asrwt>0</asrwt>
<pdfrwt beam="1">  1       21 0.11630444E-01 0.18013344E+03</pdfrwt>
<pdfrwt beam="2">  1       21 0.96610450E-01 0.18013344E+03</pdfrwt>
<totfact> 0.55597793E+04</totfact>
</mgrwt>
</event>
<event>
12    1  0.2768653E-001  0.1846436E+03  0.7546771E-02  0.1163819E+00
         21   -1    0    0  504  503  0.00000000000E+00  0.00000000000E+00  0.50160030919E+02  0.50160030919E+02  0.00000000000E+00 0.  1.
         21   -1    0    0  502  504 -0.00000000000E+00 -0.00000000000E+00 -0.94859841869E+03  0.94859841869E+03  0.00000000000E+00 0.  1.
          6    2    1    2  502    0  0.36116213327E+02 -0.49578586179E+02 -0.71683448360E+03  0.73977346551E+03  0.17219374646E+03 0.  0.
         24    2    3    3    0    0 -0.20283024678E+02  0.13954749557E+02 -0.22795048895E+03  0.24354064815E+03  0.82124818201E+02 0.  0.
         -6    2    1    2    0  503 -0.36116213327E+02  0.49578586179E+02 -0.18160390417E+03  0.25898498410E+03  0.17415747732E+03 0.  0.
        -24    2    5    5    0    0 -0.84458947897E+02  0.61813570712E+02 -0.14887407092E+03  0.19915149167E+03  0.80892498022E+02 0.  0.
          4    1    4    4  501    0 -0.98321227357E+00  0.39657021885E+02 -0.18862410088E+03  0.19275035025E+03  0.00000000000E+00 0. -1.
         -3    1    4    4    0  501 -0.19299812405E+02 -0.25702272329E+02 -0.39326388071E+02  0.50790297896E+02  0.00000000000E+00 0.  1.
          5    1    3    3  502    0  0.56399238006E+02 -0.63533335736E+02 -0.48888399465E+03  0.49623281736E+03  0.47000000000E+01 0. -1.
         13    1    6    6    0    0  0.92699568387E+01 -0.87823824356E+01 -0.27554363770E+02  0.30369479808E+02  0.00000000000E+00 0. -1.
        -14    1    6    6    0    0 -0.93728904736E+02  0.70595953148E+02 -0.12131970715E+03  0.16878201186E+03  0.00000000000E+00 0.  1.
         -5    1    5    5    0  503  0.48342734569E+02 -0.12234984533E+02 -0.32729833248E+02  0.59833492432E+02  0.47000000000E+01 0.  1.
<mgrwt>
<rscale>  2 0.18417905E+03</rscale>
<asrwt>0</asrwt>
<pdfrwt beam="1">  1       21 0.77169279E-02 0.18464356E+03</pdfrwt>
<pdfrwt beam="2">  1       21 0.14593822E+00 0.18464356E+03</pdfrwt>
<totfact> 0.41227803E+04</totfact>
</mgrwt>
</event>
<event>
12    1  0.2768653E-001  0.2787663E+03  0.7546771E-02  0.1096887E+00
         21   -1    0    0  504  503  0.00000000000E+00  0.00000000000E+00  0.39654233172E+03  0.39654233172E+03  0.00000000000E+00 0.  1.
         21   -1    0    0  502  504 -0.00000000000E+00 -0.00000000000E+00 -0.24107224295E+03  0.24107224295E+03  0.00000000000E+00 0. -1.
          6    2    1    2  502    0 -0.17983954006E+03  0.11563637347E+03 -0.63717527720E+02  0.28595552060E+03  0.17887594971E+03 0.  0.
         24    2    3    3    0    0 -0.98521411896E+02  0.39470930165E+02 -0.10204416446E+03  0.16803676125E+03  0.80987151462E+02 0.  0.
         -6    2    1    2    0  503  0.17983954006E+03 -0.11563637347E+03  0.21918761649E+03  0.35165905406E+03  0.17293596516E+03 0.  0.
        -24    2    5    5    0    0  0.12950309754E+03 -0.10488291483E+03  0.23364662378E+03  0.29798832451E+03  0.80217321361E+02 0.  0.
          4    1    4    4  501    0 -0.88481210404E+02  0.13740734298E+02 -0.10747535339E+03  0.13988811229E+03  0.00000000000E+00 0. -1.
         -3    1    4    4    0  501 -0.10040201493E+02  0.25730195867E+02  0.54311889278E+01  0.28148648965E+02  0.00000000000E+00 0.  1.
          5    1    3    3  502    0 -0.81318128162E+02  0.76165443309E+02  0.38326636743E+02  0.11791875935E+03  0.47000000000E+01 0. -1.
         11    1    6    6    0    0  0.47952230507E+02 -0.64920263225E+01  0.28108971522E+02  0.55961389336E+02  0.00000000000E+00 0. -1.
        -12    1    6    6    0    0  0.81550867029E+02 -0.98390888507E+02  0.20553765226E+03  0.24202693518E+03  0.00000000000E+00 0.  1.
         -5    1    5    5    0  503  0.50336442522E+02 -0.10753458645E+02 -0.14459007295E+02  0.53670729551E+02  0.47000000000E+01 0.  1.
<mgrwt>
<rscale>  2 0.27781801E+03</rscale>
<asrwt>0</asrwt>
<pdfrwt beam="1">  1       21 0.61006512E-01 0.27876628E+03</pdfrwt>
<pdfrwt beam="2">  1       21 0.37088037E-01 0.27876628E+03</pdfrwt>
<totfact> 0.16742826E+04</totfact>
</mgrwt>
</event>
<event>
12    1  0.2768653E-001  0.2034151E+03  0.7546771E-02  0.1146958E+00
         21   -1    0    0  504  503  0.00000000000E+00  0.00000000000E+00  0.46728288893E+03  0.46728288893E+03  0.00000000000E+00 0. -1.
         21   -1    0    0  502  504 -0.00000000000E+00 -0.00000000000E+00 -0.90064720855E+02  0.90064720855E+02  0.00000000000E+00 0.  1.
          6    2    1    2  502    0 -0.90982261994E+02 -0.54325374794E+02  0.15092399356E+03  0.25328987919E+03  0.17363378912E+03 0.  0.
         24    2    3    3    0    0 -0.95845583764E+02 -0.55415168976E+02  0.17876080379E+03  0.22462251877E+03  0.79010341643E+02 0.  0.
         -6    2    1    2    0  503  0.90982261994E+02  0.54325374794E+02  0.22629417451E+03  0.30405773059E+03  0.17324269615E+03 0.  0.
        -24    2    5    5    0    0  0.12021304563E+03  0.39276667595E+02  0.11762562454E+03  0.19042742630E+03  0.80205886198E+02 0.  0.
          2    1    4    4  501    0 -0.71824570252E+01 -0.27107170134E+02  0.96216368435E+02  0.10021963838E+03  0.00000000000E+00 0. -1.
         -1    1    4    4    0  501 -0.88663126738E+02 -0.28307998842E+02  0.82544435351E+02  0.12440288039E+03  0.00000000000E+00 0.  1.
          5    1    3    3  502    0  0.48633217692E+01  0.10897941822E+01 -0.27836810228E+02  0.28667360424E+02  0.47000000000E+01 0. -1.
         13    1    6    6    0    0  0.77352749517E+02 -0.49235029626E+01  0.99735523714E+02  0.12631256244E+03  0.00000000000E+00 0. -1.
        -14    1    6    6    0    0  0.42860296117E+02  0.44200170558E+02  0.17890100829E+02  0.64114863864E+02  0.00000000000E+00 0.  1.
         -5    1    5    5    0  503 -0.29230783640E+02  0.15048707199E+02  0.10866854997E+03  0.11363030429E+03  0.47000000000E+01 0.  1.
<mgrwt>
<rscale>  2 0.20333164E+03</rscale>
<asrwt>0</asrwt>
<pdfrwt beam="1">  1       21 0.71889674E-01 0.20341512E+03</pdfrwt>
<pdfrwt beam="2">  1       21 0.13856111E-01 0.20341512E+03</pdfrwt>
<totfact> 0.78768443E+04</totfact>
</mgrwt>
</event>
<event>
12    1  0.2768653E-001  0.1942468E+03  0.7546771E-02  0.1155535E+00
         21   -1    0    0  504  503  0.00000000000E+00  0.00000000000E+00  0.45011855339E+02  0.45011855339E+02  0.00000000000E+00 0.  1.
         21   -1    0    0  502  504 -0.00000000000E+00 -0.00000000000E+00 -0.84284594585E+03  0.84284594585E+03  0.00000000000E+00 0. -1.
          6    2    1    2  502    0 -0.48734370451E+02 -0.70978250282E+02 -0.46518625577E+03  0.50264826967E+03  0.16983544851E+03 0.  0.
         24    2    3    3    0    0 -0.18517555310E+02 -0.31768919021E+02 -0.90277110720E+02  0.12445601087E+03  0.77376856047E+02 0.  0.
         -6    2    1    2    0  503  0.48734370451E+02  0.70978250282E+02 -0.33264783474E+03  0.38520953152E+03  0.17412308961E+03 0.  0.
        -24    2    5    5    0    0  0.36158289467E+01  0.47747722840E+02 -0.31953549673E+03  0.33258478828E+03  0.78846613571E+02 0.  0.
          2    1    4    4  501    0 -0.30720322588E+02  0.15850376579E+01 -0.38315230264E+01  0.30998889222E+02  0.00000000000E+00 0. -1.
         -1    1    4    4    0  501  0.12202767279E+02 -0.33353956679E+02 -0.86445587694E+02  0.93457121650E+02  0.00000000000E+00 0.  1.
          5    1    3    3  502    0 -0.30216815142E+02 -0.39209331261E+02 -0.37490914505E+03  0.37819225880E+03  0.47000000000E+01 0. -1.
         13    1    6    6    0    0  0.17173193483E+02  0.65389717692E+02 -0.26904449523E+03  0.27740885741E+03  0.00000000000E+00 0. -1.
        -14    1    6    6    0    0 -0.13557364536E+02 -0.17641994852E+02 -0.50491001491E+02  0.55175930868E+02  0.00000000000E+00 0.  1.
         -5    1    5    5    0  503  0.45118541505E+02  0.23230527442E+02 -0.13112338018E+02  0.52624743240E+02  0.47000000000E+01 0.  1.
<mgrwt>
<rscale>  2 0.19328109E+03</rscale>
<asrwt>0</asrwt>
<pdfrwt beam="1">  1       21 0.69249006E-02 0.19424675E+03</pdfrwt>
<pdfrwt beam="2">  1       21 0.12966861E+00 0.19424675E+03</pdfrwt>
<totfact> 0.66993027E+04</totfact>
</mgrwt>
</event>
<event>
12    1  0.2768653E-001  0.1846828E+03  0.7546771E-02  0.1163734E+00
         21   -1    0    0  504  503  0.00000000000E+00  0.00000000000E+00  0.19172643448E+03  0.19172643448E+03  0.00000000000E+00 0.  1.
         21   -1    0    0  502  504 -0.00000000000E+00 -0.00000000000E+00 -0.21916947922E+03  0.21916947922E+03  0.00000000000E+00 0.  1.
          6    2    1    2  502    0 -0.38133893919E+02 -0.52841451153E+02 -0.10451813799E+03  0.21077519366E+03  0.17104305969E+03 0.  0.
         24    2    3    3    0    0  0.29964624096E+02 -0.27096987737E+02 -0.12025920410E+02  0.92974150094E+02  0.82870045146E+02 0.  0.
         -6    2    1    2    0  503  0.38133893919E+02  0.52841451153E+02  0.77075093240E+02  0.20012072004E+03  0.17280428168E+03 0.  0.
        -24    2    5    5    0    0  0.92926697286E+02  0.28881700798E+02  0.53993032976E+02  0.13584636712E+03  0.77906765689E+02 0.  0.
          4    1    4    4  501    0  0.42941588019E+02  0.14930324344E+02  0.51510136033E+01  0.45753988982E+02  0.00000000000E+00 0. -1.
         -3    1    4    4    0  501 -0.12976963923E+02 -0.42027312081E+02 -0.17176934013E+02  0.47220161112E+02  0.00000000000E+00 0.  1.
          5    1    3    3  502    0 -0.68098518015E+02 -0.25744463416E+02 -0.92492217576E+02  0.11780104356E+03  0.47000000000E+01 0. -1.
         11    1    6    6    0    0  0.36414888474E+02  0.39923728937E+02 -0.39215904429E+01  0.54178659141E+02  0.00000000000E+00 0. -1.
        -12    1    6    6    0    0  0.56511808812E+02 -0.11042028138E+02  0.57914623419E+02  0.81667707978E+02  0.00000000000E+00 0.  1.
         -5    1    5    5    0  503 -0.54792803367E+02  0.23959750355E+02  0.23082060264E+02  0.64274352925E+02  0.47000000000E+01 0.  1.
<mgrwt>
<rscale>  2 0.18426968E+03</rscale>
<asrwt>0</asrwt>
<pdfrwt beam="1">  1       21 0.29496375E-01 0.18468279E+03</pdfrwt>
<pdfrwt beam="2">  1       21 0.33718381E-01 0.18468279E+03</pdfrwt>
<totfact> 0.93598283E+04</totfact>
</mgrwt>
</event>
<event>
12    1  0.2768653E-001  0.1876486E+03  0.7546771E-02  0.1160650E+00
         21   -1    0    0  504  503  0.00000000000E+00  0.00000000000E+00  0.58880885220E+03  0.58880885220E+03  0.00000000000E+00 0.  1.
         21   -1    0    0  502  504 -0.00000000000E+00 -0.00000000000E+00 -0.59733363159E+02  0.59733363159E+02  0.00000000000E+00 0. -1.
          6    2    1    2  502    0  0.38785546277E+02 -0.59354695037E+02  0.26339521852E+03  0.32340226123E+03  0.17373739668E+03 0.  0.
         24    2    3    3    0    0 -0.18507285690E+02 -0.68182059608E+02  0.23752540838E+03  0.25974907563E+03  0.77845679315E+02 0.  0.
         -6    2    1    2    0  503 -0.38785546277E+02  0.59354695037E+02  0.26568027052E+03  0.32513995413E+03  0.17350125419E+03 0.  0.
        -24    2    5    5    0    0 -0.37714846016E+02  0.10465044644E+03  0.22708934632E+03  0.26543902512E+03  0.80710465833E+02 0.  0.
          2    1    4    4  501    0 -0.96804278142E+01 -0.51656683985E+02  0.54301032322E+02  0.75569344275E+02  0.00000000000E+00 0. -1.
         -1    1    4    4    0  501 -0.88268578760E+01 -0.16525375623E+02  0.18322437606E+03  0.18417973136E+03  0.00000000000E+00 0.  1.
          5    1    3    3  502    0  0.57292831967E+02  0.88273645702E+01  0.25869810141E+02  0.63653185598E+02  0.47000000000E+01 0. -1.
         13    1    6    6    0    0 -0.55895799565E+02  0.47122906910E+02  0.92168948424E+02  0.11764363059E+03  0.00000000000E+00 0. -1.
        -14    1    6    6    0    0  0.18180953549E+02  0.57527539531E+02  0.13492039789E+03  0.14779539453E+03  0.00000000000E+00 0.  1.
         -5    1    5    5    0  503 -0.10707002606E+01 -0.45295751404E+02  0.38590924202E+02  0.59700929013E+02  0.47000000000E+01 0.  1.
<mgrwt>
<rscale>  2 0.18759388E+03</rscale>
<asrwt>0</asrwt>
<pdfrwt beam="1">  1       21 0.90585973E-01 0.18764856E+03</pdfrwt>
<pdfrwt beam="2">  1       21 0.91897486E-02 0.18764856E+03</pdfrwt>
<totfact> 0.97654432E+04</totfact>
</mgrwt>
</event>
<event>
12    1  0.2768653E-001  0.1796234E+03  0.7546771E-02  0.1168363E+00
         21   -1    0    0  504  503  0.00000000000E+00  0.00000000000E+00  0.15127250778E+03  0.15127250778E+03  0.00000000000E+00 0.  1.
         21   -1    0    0  502  504 -0.00000000000E+00 -0.00000000000E+00 -0.39341070112E+03  0.39341070112E+03  0.00000000000E+00 0.  1.
          6    2    1    2  502    0 -0.18077607707E+02 -0.50760646060E+02 -0.30568666128E+03  0.35414985490E+03  0.17051199885E+03 0.  0.
         24    2    3    3    0    0 -0.60363460814E+02 -0.35042647348E+02 -0.28627982707E+03  0.30481564698E+03  0.78004517320E+02 0.  0.
         -6    2    1    2    0  503  0.18077607707E+02  0.50760646060E+02  0.63548467932E+02  0.19053335400E+03  0.17135083345E+03 0.  0.
        -24    2    5    5    0    0  0.24755940502E+02  0.84111816146E+02  0.88416060531E+02  0.14813774295E+03  0.80247971442E+02 0.  0.
          4    1    4    4  501    0 -0.55107238029E+02 -0.46558729873E+02 -0.13552515659E+03  0.15353042395E+03  0.00000000000E+00 0. -1.
         -3    1    4    4    0  501 -0.52562227854E+01  0.11516082525E+02 -0.15075467049E+03  0.15128522303E+03  0.00000000000E+00 0.  1.
          5    1    3    3  502    0  0.42285853107E+02 -0.15717998712E+02 -0.19406834205E+02  0.49334207913E+02  0.47000000000E+01 0. -1.
         11    1    6    6    0    0 -0.19728931807E+01 -0.88654811743E+01 -0.75946910454E+01  0.11839273459E+02  0.00000000000E+00 0. -1.
        -12    1    6    6    0    0  0.26728833682E+02  0.92977297320E+02  0.96010751577E+02  0.13629846949E+03  0.00000000000E+00 0.  1.
         -5    1    5    5    0  503 -0.66783327943E+01 -0.33351170086E+02 -0.24867592599E+02  0.42395611054E+02  0.47000000000E+01 0.  1.
<mgrwt>
<rscale>  2 0.17942302E+03</rscale>
<asrwt>0</asrwt>
<pdfrwt beam="1">  1       21 0.23272694E-01 0.17962336E+03</pdfrwt>
<pdfrwt beam="2">  1       21 0.60524722E-01 0.17962336E+03</pdfrwt>
<totfact> 0.44423835E+04</totfact>
</mgrwt>
</event>
<event>
12    1  0.2768653E-001  0.2018859E+03  0.7546771E-02  0.1148347E+00
         21   -1    0    0  504  503  0.00000000000E+00  0.00000000000E+00  0.44596059633E+02  0.44596059633E+02  0.00000000000E+00 0. -1.
         21   -1    0    0  502  504 -0.00000000000E+00 -0.00000000000E+00 -0.14925765064E+04  0.14925765064E+04  0.00000000000E+00 0. -1.
          6    2    1    2  502    0 -0.89769502996E+02  0.51573805191E+02 -0.12032413667E+04  0.12199106478E+04  0.17226079355E+03 0.  0.
         24    2    3    3    0    0 -0.52944226462E+02 -0.97200079082E+01 -0.34091369980E+03  0.35461062605E+03  0.81418522012E+02 0.  0.
         -6    2    1    2    0  503  0.89769502996E+02 -0.51573805191E+02 -0.24473908012E+03  0.31726191830E+03  0.17331903073E+03 0.  0.
        -24    2    5    5    0    0 -0.18213682869E+02 -0.10242638969E+02 -0.74405269573E+02  0.11133879977E+03  0.80146954380E+02 0.  0.
          4    1    4    4  501    0 -0.74604319169E+02 -0.11764053806E+02 -0.27605335424E+03  0.28619862296E+03  0.00000000000E+00 0. -1.
         -3    1    4    4    0  501  0.21660092708E+02  0.20440458975E+01 -0.64860345566E+02  0.68412003089E+02  0.00000000000E+00 0.  1.
          5    1    3    3  502    0 -0.36825276534E+02  0.61293813099E+02 -0.86232766687E+03  0.86530002171E+03  0.47000000000E+01 0. -1.
         13    1    6    6    0    0  0.85117982630E+01 -0.40668604476E+02 -0.30051564487E+02  0.51278481138E+02  0.00000000000E+00 0. -1.
        -14    1    6    6    0    0 -0.26725481132E+02  0.30425965507E+02 -0.44353705086E+02  0.60060318627E+02  0.00000000000E+00 0.  1.
         -5    1    5    5    0  503  0.10798318587E+03 -0.41331166222E+02 -0.17033381054E+03  0.20592311853E+03  0.47000000000E+01 0.  1.
<mgrwt>
<rscale>  2 0.20165855E+03</rscale>
<asrwt>0</asrwt>
<pdfrwt beam="1">  1       21 0.68609334E-02 0.20188588E+03</pdfrwt>
<pdfrwt beam="2">  1       21 0.22962712E+00 0.20188588E+03</pdfrwt>
<totfact> 0.13657154E+04</totfact>
</mgrwt>
</event>
<event>
12    1  0.2768653E-001  0.1753200E+03  0.7546771E-02  0.1173160E+00
         21   -1    0    0  504  503  0.00000000000E+00  0.00000000000E+00  0.44852186796E+03  0.44852186796E+03  0.00000000000E+00 0. -1.
         21   -1    0    0  502  504 -0.00000000000E+00 -0.00000000000E+00 -0.10139600854E+03  0.10139600854E+03  0.00000000000E+00 0. -1.
          6    2    1    2  502    0 -0.18496045918E+02 -0.14259198965E+02  0.13318032236E+02  0.17287043966E+03  0.17076706490E+03 0.  0.
         24    2    3    3    0    0 -0.59742021690E+02 -0.51469630974E+02 -0.88500923572E+01  0.11287575226E+03  0.80276891107E+02 0.  0.
         -6    2    1    2    0  503  0.18496045918E+02  0.14259198965E+02  0.33380782719E+03  0.37704743685E+03  0.17375751976E+03 0.  0.
        -24    2    5    5    0    0  0.12665341077E+02  0.68438044223E+02  0.28505093323E+03  0.30377623445E+03  0.78624355766E+02 0.  0.
          2    1    4    4  501    0 -0.13113284274E+02 -0.60694463008E+02 -0.17608072421E+02  0.64543166011E+02  0.00000000000E+00 0. -1.
         -1    1    4    4    0  501 -0.46628737415E+02  0.92248320337E+01  0.87579800635E+01  0.48332586252E+02  0.00000000000E+00 0.  1.
          5    1    3    3  502    0  0.41245975772E+02  0.37210432010E+02  0.22168124594E+02  0.59994687396E+02  0.47000000000E+01 0. -1.
         11    1    6    6    0    0 -0.11660663797E+02  0.39731263361E+02  0.46450017497E+02  0.62226589927E+02  0.00000000000E+00 0. -1.
        -12    1    6    6    0    0  0.24326004874E+02  0.28706780862E+02  0.23860091573E+03  0.24154964452E+03  0.00000000000E+00 0.  1.
         -5    1    5    5    0  503  0.58307048407E+01 -0.54178845259E+02  0.48756893955E+02  0.73271202397E+02  0.47000000000E+01 0.  1.
<mgrwt>
<rscale>  2 0.17457443E+03</rscale>
<asrwt>0</asrwt>
<pdfrwt beam="1">  1       21 0.69003363E-01 0.17532000E+03</pdfrwt>
<pdfrwt beam="2">  1       21 0.15599386E-01 0.17532000E+03</pdfrwt>
<totfact> 0.70376220E+04</totfact>
</mgrwt>
</event>
<event>
12    1  0.2768653E-001  0.1884684E+03  0.7546771E-02  0.1160390E+00
         21   -1    0    0  504  503  0.00000000000E+00  0.00000000000E+00  0.54722772021E+03  0.54722772021E+03  0.00000000000E+00 0. -1.
         21   -1    0    0  502  504 -0.00000000000E+00 -0.00000000000E+00 -0.79446582596E+02  0.79446582596E+02  0.00000000000E+00 0. -1.
          6    2    1    2  502    0  0.66194433995E+02 -0.20985950659E+02  0.95002143814E+02  0.20896085217E+03  0.17267633652E+03 0.  0.
         24    2    3    3    0    0  0.36579584422E+02 -0.35569249941E+02  0.13165837323E+03  0.15940804107E+03  0.73984855064E+02 0.  0.
         -6    2    1    2    0  503 -0.66194433995E+02  0.20985950659E+02  0.37277899380E+03  0.41771345063E+03  0.17520911907E+03 0.  0.
        -24    2    5    5    0    0 -0.11367034017E+03  0.14548747056E+02  0.29340415219E+03  0.32488104929E+03  0.79555561675E+02 0.  0.
          4    1    4    4  501    0  0.66401876989E+01 -0.45096674264E+02  0.34131591227E+02  0.56945303951E+02  0.00000000000E+00 0. -1.
         -3    1    4    4    0  501  0.29939396723E+02  0.95274243231E+01  0.97526782002E+02  0.10246273712E+03  0.00000000000E+00 0.  1.
          5    1    3    3  502    0  0.29614849573E+02  0.14583299282E+02 -0.36656229415E+02  0.49552811102E+02  0.47000000000E+01 0. -1.
         11    1    6    6    0    0  0.48656695266E+01 -0.88353043495E+01  0.71582086902E+02  0.72289228161E+02  0.00000000000E+00 0. -1.
        -12    1    6    6    0    0 -0.11853600970E+03  0.23384051405E+02  0.22182206528E+03  0.25259182113E+03  0.00000000000E+00 0.  1.
         -5    1    5    5    0  503  0.47475906177E+02  0.64372036037E+01  0.79374841611E+02  0.92832401338E+02  0.47000000000E+01 0.  1.
<mgrwt>
<rscale>  2 0.18787759E+03</rscale>
<asrwt>0</asrwt>
<pdfrwt beam="1">  1       21 0.84188878E-01 0.18846843E+03</pdfrwt>
<pdfrwt beam="2">  1       21 0.12222551E-01 0.18846843E+03</pdfrwt>
<totfact> 0.69677091E+04</totfact>
</mgrwt>
</event>
<event>
12    1  0.2768653E-001  0.1777134E+03  0.7546771E-02  0.1170081E+00
         21   -1    0    0  504  503  0.00000000000E+00  0.00000000000E+00  0.49240594164E+03  0.49240594164E+03  0.00000000000E+00 0.  1.
         21   -1    0    0  502  504 -0.00000000000E+00 -0.00000000000E+00 -0.82630250731E+02  0.82630250731E+02  0.00000000000E+00 0.  1.
          6    2    1    2  502    0 -0.43274086271E+02 -0.29644912607E+01  0.68705542291E+02  0.19053217025E+03  0.17233868285E+03 0.  0.
         24    2    3    3    0    0  0.16234985037E+02 -0.49584963819E+02  0.11540278515E+02  0.95638780529E+02  0.79318061857E+02 0.  0.
         -6    2    1    2    0  503  0.43274086271E+02  0.29644912607E+01  0.34107014862E+03  0.38450402213E+03  0.17214256301E+03 0.  0.
        -24    2    5    5    0    0  0.38544553477E+02  0.29628101693E+01  0.66333421473E+02  0.10968639582E+03  0.78335954565E+02 0.  0.
          2    1    4    4  501    0  0.59128636913E+01  0.20404206554E+02  0.12947902421E+02  0.24878540537E+02  0.00000000000E+00 0. -1.
         -1    1    4    4    0  501  0.10322121346E+02 -0.69989170373E+02 -0.14076239067E+01  0.70760239991E+02  0.00000000000E+00 0.  1.
          5    1    3    3  502    0 -0.59509071308E+02  0.46620472558E+02  0.57165263777E+02  0.94893389718E+02  0.47000000000E+01 0. -1.
         11    1    6    6    0    0  0.39233890837E+02  0.34316718133E+02  0.25020639861E+02  0.57818403235E+02  0.00000000000E+00 0. -1.
        -12    1    6    6    0    0 -0.68933735938E+00 -0.31353907964E+02  0.41312781612E+02  0.51867992588E+02  0.00000000000E+00 0.  1.
         -5    1    5    5    0  503  0.47295327935E+01  0.16810914225E-02  0.27473672715E+03  0.27481762630E+03  0.47000000000E+01 0.  1.
<mgrwt>
<rscale>  2 0.17766585E+03</rscale>
<asrwt>0</asrwt>
<pdfrwt beam="1">  1       21 0.75754758E-01 0.17771341E+03</pdfrwt>
<pdfrwt beam="2">  1       21 0.12712347E-01 0.17771341E+03</pdfrwt>
<totfact> 0.82788761E+04</totfact>
</mgrwt>
</event>
<event>
12    1  0.2768653E-001  0.2036001E+03  0.7546771E-02  0.1146855E+00
         21   -1    0    0  504  503  0.00000000000E+00  0.00000000000E+00  0.12623477506E+03  0.12623477506E+03  0.00000000000E+00 0. -1.
         21   -1    0    0  502  504 -0.00000000000E+00 -0.00000000000E+00 -0.32907352794E+03  0.32907352794E+03  0.00000000000E+00 0. -1.
          6    2    1    2  502    0 -0.87152682205E+01 -0.10390523673E+03 -0.11722385879E+03  0.23443976188E+03  0.17420767710E+03 0.  0.
         24    2    3    3    0    0  0.12624675470E+02 -0.56686172311E+02 -0.14276370591E+03  0.17647936996E+03  0.85969690793E+02 0.  0.
         -6    2    1    2    0  503  0.87152682205E+01  0.10390523673E+03 -0.85614894090E+02  0.22086854112E+03  0.17487352072E+03 0.  0.
        -24    2    5    5    0    0  0.23479777820E+00  0.94995363480E+02 -0.12616486228E+03  0.17823411676E+03  0.82617514430E+02 0.  0.
          2    1    4    4  501    0  0.28816522029E+02 -0.63327800796E+02 -0.14294406268E+03  0.15897738000E+03  0.00000000000E+00 0. -1.
         -1    1    4    4    0  501 -0.16191846559E+02  0.66416284844E+01  0.18035677788E+00  0.17501989958E+02  0.00000000000E+00 0.  1.
          5    1    3    3  502    0 -0.21339943691E+02 -0.47219064416E+02  0.25539847115E+02  0.57960391922E+02  0.47000000000E+01 0. -1.
         11    1    6    6    0    0  0.36447913265E+02  0.59850014704E+02 -0.47083853872E+02  0.84423716673E+02  0.00000000000E+00 0. -1.
        -12    1    6    6    0    0 -0.36213115486E+02  0.35145348776E+02 -0.79081008409E+02  0.93810400089E+02  0.00000000000E+00 0.  1.
         -5    1    5    5    0  503  0.84804704423E+01  0.89098732473E+01  0.40549968191E+02  0.42634424360E+02  0.47000000000E+01 0.  1.
<mgrwt>
<rscale>  2 0.20345705E+03</rscale>
<asrwt>0</asrwt>
<pdfrwt beam="1">  1       21 0.19420735E-01 0.20360010E+03</pdfrwt>
<pdfrwt beam="2">  1       21 0.50626696E-01 0.20360010E+03</pdfrwt>
<totfact> 0.90115496E+04</totfact>
</mgrwt>
</event>
<event>
12    1  0.2768653E-001  0.2192992E+03  0.7546771E-02  0.1134447E+00
         21   -1    0    0  504  503  0.00000000000E+00  0.00000000000E+00  0.63563919702E+02  0.63563919702E+02  0.00000000000E+00 0.  1.
         21   -1    0    0  502  504 -0.00000000000E+00 -0.00000000000E+00 -0.11569525455E+04  0.11569525455E+04  0.00000000000E+00 0. -1.
          6    2    1    2  502    0  0.13088970469E+03 -0.32127390683E+02 -0.90584122501E+03  0.93195769920E+03  0.17272100089E+03 0.  0.
         24    2    3    3    0    0  0.14995028629E+03 -0.88904625827E+01 -0.58523624528E+03  0.60991282092E+03  0.83234954501E+02 0.  0.
         -6    2    1    2    0  503 -0.13088970469E+03  0.32127390683E+02 -0.18754740076E+03  0.28855876597E+03  0.17299667587E+03 0.  0.
        -24    2    5    5    0    0 -0.34536367656E+02  0.42123007448E+02 -0.16047660453E+03  0.18786717784E+03  0.81081609892E+02 0.  0.
          2    1    4    4  501    0  0.76638239635E+02 -0.41446192935E+02 -0.37254941104E+03  0.38260197379E+03  0.00000000000E+00 0. -1.
         -1    1    4    4    0  501  0.73312046655E+02  0.32555730352E+02 -0.21268683424E+03  0.22731084713E+03  0.00000000000E+00 0.  1.
          5    1    3    3  502    0 -0.19060581604E+02 -0.23236928100E+02 -0.32060497973E+03  0.32204487828E+03  0.47000000000E+01 0. -1.
         11    1    6    6    0    0 -0.47300850088E+02  0.47319277013E+02 -0.16071275741E+03  0.17408352820E+03  0.00000000000E+00 0. -1.
        -12    1    6    6    0    0  0.12764482432E+02 -0.51962695650E+01  0.23615288853E+00  0.13783649638E+02  0.00000000000E+00 0.  1.
         -5    1    5    5    0  503 -0.96353337030E+02 -0.99956167654E+01 -0.27070796230E+02  0.10069158813E+03  0.47000000000E+01 0.  1.
<mgrwt>
<rscale>  2 0.21924482E+03</rscale>
<asrwt>0</asrwt>
<pdfrwt beam="1">  1       21 0.97790657E-02 0.21929919E+03</pdfrwt>
<pdfrwt beam="2">  1       21 0.17799268E+00 0.21929919E+03</pdfrwt>
<totfact> 0.15548947E+04</totfact>
</mgrwt>
</event>
<event>
12    1  0.2768653E-001  0.6093800E+03  0.7546771E-02  0.9886353E-01
         21   -1    0    0  504  503  0.00000000000E+00  0.00000000000E+00  0.83963756991E+03  0.83963756991E+03  0.00000000000E+00 0.  1.
         21   -1    0    0  502  504 -0.00000000000E+00 -0.00000000000E+00 -0.45558648970E+03  0.45558648970E+03  0.00000000000E+00 0. -1.
          6    2    1    2  502    0 -0.54500506873E+03  0.20981721388E+03  0.79938983567E+02  0.61417477784E+03  0.17253007988E+03 0.  0.
         24    2    3    3    0    0 -0.17568513819E+03  0.69799819073E+02  0.76801376717E+02  0.21916336469E+03  0.79980287785E+02 0.  0.
         -6    2    1    2    0  503  0.54500506873E+03 -0.20981721388E+03  0.30411209665E+03  0.68104928177E+03  0.17404070985E+03 0.  0.
        -24    2    5    5    0    0  0.43714268089E+03 -0.21354826816E+03  0.29079096447E+03  0.57220187464E+03  0.78479386008E+02 0.  0.
          2    1    4    4  501    0 -0.27945649060E+01 -0.12046829735E+02 -0.15301804721E+01  0.12461025317E+02  0.00000000000E+00 0. -1.
         -1    1    4    4    0  501 -0.17289057328E+03  0.81846648808E+02  0.78331557189E+02  0.20670233938E+03  0.00000000000E+00 0.  1.
          5    1    3    3  502    0 -0.36931993054E+03  0.14001739481E+03  0.31376068496E+01  0.39501141315E+03  0.47000000000E+01 0. -1.
         13    1    6    6    0    0  0.41073294687E+02 -0.26330672929E+01  0.83808188191E+01  0.42002222606E+02  0.00000000000E+00 0. -1.
        -14    1    6    6    0    0  0.39606938620E+03 -0.21091520087E+03  0.28241014565E+03  0.53019965203E+03  0.00000000000E+00 0.  1.
         -5    1    5    5    0  503  0.10786238784E+03  0.37310542780E+01  0.13321132175E+02  0.10884740713E+03  0.47000000000E+01 0.  1.
<mgrwt>
<rscale>  2 0.60927252E+03</rscale>
<asrwt>0</asrwt>
<pdfrwt beam="1">  1       21 0.12917501E+00 0.60937998E+03</pdfrwt>
<pdfrwt beam="2">  1       21 0.70090229E-01 0.60937998E+03</pdfrwt>
<totfact> 0.64314901E+02</totfact>
</mgrwt>
</event>
<event>
12    1  0.2768653E-001  0.1853430E+03  0.7546771E-02  0.1162957E+00
         21   -1    0    0  504  503  0.00000000000E+00  0.00000000000E+00  0.42036202900E+03  0.42036202900E+03  0.00000000000E+00 0.  1.
         21   -1    0    0  502  504 -0.00000000000E+00 -0.00000000000E+00 -0.10420201465E+03  0.10420201465E+03  0.00000000000E+00 0. -1.
          6    2    1    2  502    0 -0.63179295532E+02  0.14161498974E+02  0.28138290694E+03  0.33693968911E+03  0.17366589285E+03 0.  0.
         24    2    3    3    0    0 -0.71681494794E+02 -0.49680874613E+02  0.20569486479E+03  0.23744644420E+03  0.80399070044E+02 0.  0.
         -6    2    1    2    0  503  0.63179295532E+02 -0.14161498974E+02  0.34777107410E+02  0.18762435454E+03  0.17263047176E+03 0.  0.
        -24    2    5    5    0    0 -0.27119599565E+00  0.51524152782E+02  0.12084213247E+02  0.93403193611E+02  0.76963085306E+02 0.  0.
          2    1    4    4  501    0  0.21394125629E+01 -0.76478655778E+01 -0.55981303709E+01  0.97162748860E+01  0.00000000000E+00 0. -1.
         -1    1    4    4    0  501 -0.73820907357E+02 -0.42033009035E+02  0.21129299516E+03  0.22773016932E+03  0.00000000000E+00 0.  1.
          5    1    3    3  502    0  0.85021992615E+01  0.63842373587E+02  0.75688042150E+02  0.99493244907E+02  0.47000000000E+01 0. -1.
         11    1    6    6    0    0  0.34169464305E+02  0.47089839284E+01  0.39552903999E+01  0.34718455362E+02  0.00000000000E+00 0. -1.
        -12    1    6    6    0    0 -0.34440660301E+02  0.46815168854E+02  0.81289228469E+01  0.58684738250E+02  0.00000000000E+00 0.  1.
         -5    1    5    5    0  503  0.63450491528E+02 -0.65685651757E+02  0.22692894163E+02  0.94221160932E+02  0.47000000000E+01 0.  1.
<mgrwt>
<rscale>  2 0.18510003E+03</rscale>
<asrwt>0</asrwt>
<pdfrwt beam="1">  1       21 0.64671081E-01 0.18534296E+03</pdfrwt>
<pdfrwt beam="2">  1       21 0.16031079E-01 0.18534296E+03</pdfrwt>
<totfact> 0.76799701E+04</totfact>
</mgrwt>
</event>
<event>
12    1  0.2768653E-001  0.1802173E+03  0.7546771E-02  0.1168229E+00
         21   -1    0    0  504  503  0.00000000000E+00  0.00000000000E+00  0.27337677459E+03  0.27337677459E+03  0.00000000000E+00 0. -1.
         21   -1    0    0  502  504 -0.00000000000E+00 -0.00000000000E+00 -0.12990532049E+03  0.12990532049E+03  0.00000000000E+00 0. -1.
          6    2    1    2  502    0 -0.46945531571E+02  0.72417722051E+01  0.88740008483E+01  0.18043566712E+03  0.17384463143E+03 0.  0.
         24    2    3    3    0    0  0.89649283538E+01  0.43728647206E+02  0.47466084147E+02  0.10317823725E+03  0.80000968563E+02 0.  0.
         -6    2    1    2    0  503  0.46945531571E+02 -0.72417722051E+01  0.13459745326E+03  0.22284642796E+03  0.17113658239E+03 0.  0.
        -24    2    5    5    0    0 -0.23908551882E+02 -0.16350316516E+02  0.12297015473E+03  0.15031677339E+03  0.81452573345E+02 0.  0.
          4    1    4    4  501    0 -0.13982846993E+02  0.58714092850E+02  0.18105060315E+02  0.63013156708E+02  0.00000000000E+00 0. -1.
         -3    1    4    4    0  501  0.22947775347E+02 -0.14985445645E+02  0.29361023832E+02  0.40165080543E+02  0.00000000000E+00 0.  1.
          5    1    3    3  502    0 -0.55910459925E+02 -0.36486875000E+02 -0.38592083299E+02  0.77257429867E+02  0.47000000000E+01 0. -1.
         11    1    6    6    0    0  0.28140195810E+02  0.65739813960E+01  0.32855977969E+02  0.43756178306E+02  0.00000000000E+00 0. -1.
        -12    1    6    6    0    0 -0.52048747693E+02 -0.22924297912E+02  0.90114176765E+02  0.10656059509E+03  0.00000000000E+00 0.  1.
         -5    1    5    5    0  503  0.70854083453E+02  0.91085443108E+01  0.11627298525E+02  0.72529654573E+02  0.47000000000E+01 0.  1.
<mgrwt>
<rscale>  2 0.17956103E+03</rscale>
<asrwt>0</asrwt>
<pdfrwt beam="1">  1       21 0.42057965E-01 0.18021732E+03</pdfrwt>
<pdfrwt beam="2">  1       21 0.19985434E-01 0.18021732E+03</pdfrwt>
<totfact> 0.12630615E+05</totfact>
</mgrwt>
</event>
<event>
12    1  0.2768653E-001  0.3275966E+03  0.7546771E-02  0.1072258E+00
         21   -1    0    0  504  503  0.00000000000E+00  0.00000000000E+00  0.23660344427E+03  0.23660344427E+03  0.00000000000E+00 0.  1.
         21   -1    0    0  502  504 -0.00000000000E+00 -0.00000000000E+00 -0.14177688414E+04  0.14177688414E+04  0.00000000000E+00 0. -1.
          6    2    1    2  502    0 -0.27719313929E+03 -0.22468700465E+02 -0.12731007372E+04  0.13145740892E+04  0.17314349567E+03 0.  0.
         24    2    3    3    0    0 -0.88077572143E+02  0.28451974281E+02 -0.64996824254E+03  0.66137135751E+03  0.79913594972E+02 0.  0.
         -6    2    1    2    0  503  0.27719313929E+03  0.22468700465E+02  0.91935340045E+02  0.33979819645E+03  0.17224932100E+03 0.  0.
        -24    2    5    5    0    0  0.13667603276E+03  0.77039923581E+02  0.50682141618E+02  0.18344285755E+03  0.80418373213E+02 0.  0.
          4    1    4    4  501    0  0.93998011627E+01 -0.12521160746E+02 -0.11423113585E+03  0.11529912457E+03  0.00000000000E+00 0. -1.
         -3    1    4    4    0  501 -0.97477373306E+02  0.40973135027E+02 -0.53573710670E+03  0.54607223294E+03  0.00000000000E+00 0.  1.
          5    1    3    3  502    0 -0.18911556715E+03 -0.50920674745E+02 -0.62313249461E+03  0.65320273169E+03  0.47000000000E+01 0. -1.
         11    1    6    6    0    0  0.85483250181E+02  0.64284128276E+02 -0.45608733162E+01  0.10705436364E+03  0.00000000000E+00 0. -1.
        -12    1    6    6    0    0  0.51192782579E+02  0.12755795305E+02  0.55243014934E+02  0.76388493905E+02  0.00000000000E+00 0.  1.
         -5    1    5    5    0  503  0.14051710653E+03 -0.54571223116E+02  0.41253198426E+02  0.15635533890E+03  0.47000000000E+01 0.  1.
<mgrwt>
<rscale>  2 0.32747863E+03</rscale>
<asrwt>0</asrwt>
<pdfrwt beam="1">  1       21 0.36400530E-01 0.32759663E+03</pdfrwt>
<pdfrwt beam="2">  1       21 0.21811828E+00 0.32759663E+03</pdfrwt>
<totfact> 0.66432286E+02</totfact>
</mgrwt>
</event>
<event>
12    1  0.2768653E-001  0.2258511E+03  0.7546771E-02  0.1129677E+00
         21   -1    0    0  504  503  0.00000000000E+00  0.00000000000E+00  0.76196546949E+02  0.76196546949E+02  0.00000000000E+00 0.  1.
         21   -1    0    0  502  504 -0.00000000000E+00 -0.00000000000E+00 -0.68600531384E+03  0.68600531384E+03  0.00000000000E+00 0.  1.
          6    2    1    2  502    0  0.11952089879E+03  0.82795056552E+02 -0.36619463043E+03  0.43000226878E+03  0.17223001237E+03 0.  0.
         24    2    3    3    0    0  0.13006276327E+03  0.50973588748E+02 -0.36180045549E+03  0.39586818767E+03  0.79356305810E+02 0.  0.
         -6    2    1    2    0  503 -0.11952089879E+03 -0.82795056552E+02 -0.24361413646E+03  0.33219959201E+03  0.17282492532E+03 0.  0.
        -24    2    5    5    0    0 -0.14513667554E+03 -0.92393566394E+02 -0.17512844255E+03  0.25830318019E+03  0.80307756836E+02 0.  0.
          4    1    4    4  501    0  0.36014996627E+02 -0.17607681972E+02 -0.13666223405E+03  0.14242077328E+03  0.00000000000E+00 0. -1.
         -3    1    4    4    0  501  0.94047766643E+02  0.68581270720E+02 -0.22513822145E+03  0.25344741439E+03  0.00000000000E+00 0.  1.
          5    1    3    3  502    0 -0.10541864482E+02  0.31821467805E+02 -0.43941749377E+01  0.34134081112E+02  0.47000000000E+01 0. -1.
         11    1    6    6    0    0 -0.93442701694E+02 -0.11996775151E+02 -0.90638537627E+02  0.13073180798E+03  0.00000000000E+00 0. -1.
        -12    1    6    6    0    0 -0.51693973846E+02 -0.80396791243E+02 -0.84489904927E+02  0.12757137221E+03  0.00000000000E+00 0.  1.
         -5    1    5    5    0  503  0.25615776753E+02  0.95985098412E+01 -0.68485693904E+02  0.73896411816E+02  0.47000000000E+01 0.  1.
<mgrwt>
<rscale>  2 0.22573729E+03</rscale>
<asrwt>0</asrwt>
<pdfrwt beam="1">  1       21 0.11722546E-01 0.22585110E+03</pdfrwt>
<pdfrwt beam="2">  1       21 0.10553928E+00 0.22585110E+03</pdfrwt>
<totfact> 0.43412251E+04</totfact>
</mgrwt>
</event>
<event>
12    1  0.2768653E-001  0.2507326E+03  0.7546771E-02  0.1113262E+00
         21   -1    0    0  504  503  0.00000000000E+00  0.00000000000E+00  0.78356507539E+03  0.78356507539E+03  0.00000000000E+00 0.  1.
         21   -1    0    0  502  504 -0.00000000000E+00 -0.00000000000E+00 -0.10744782401E+03  0.10744782401E+03  0.00000000000E+00 0.  1.
          6    2    1    2  502    0  0.10535627473E+03  0.14540728581E+03  0.56704993335E+03  0.62001004946E+03  0.17499603175E+03 0.  0.
         24    2    3    3    0    0  0.28839517294E+02  0.99293148175E+02  0.17842798644E+03  0.22122384674E+03  0.80078692484E+02 0.  0.
         -6    2    1    2    0  503 -0.10535627473E+03 -0.14540728581E+03  0.10906731803E+03  0.27100284994E+03  0.17118306406E+03 0.  0.
        -24    2    5    5    0    0 -0.13410716828E+03 -0.80318671932E+02  0.75563896422E+02  0.19221382281E+03  0.82464717253E+02 0.  0.
          2    1    4    4  501    0  0.10557328975E+02  0.48134928645E+02  0.19036237125E+02  0.52828087933E+02  0.00000000000E+00 0. -1.
         -1    1    4    4    0  501  0.18282188319E+02  0.51158219530E+02  0.15939174931E+03  0.16839575881E+03  0.00000000000E+00 0.  1.
          5    1    3    3  502    0  0.76516757432E+02  0.46114137632E+02  0.38862194691E+03  0.39878620272E+03  0.47000000000E+01 0. -1.
         11    1    6    6    0    0 -0.52222076358E+02 -0.44839675370E+01 -0.76903449390E+01  0.52975396453E+02  0.00000000000E+00 0. -1.
        -12    1    6    6    0    0 -0.81885091919E+02 -0.75834704394E+02  0.83254241361E+02  0.13923842636E+03  0.00000000000E+00 0.  1.
         -5    1    5    5    0  503  0.28750893552E+02 -0.65088613875E+02  0.33503421608E+02  0.78789027127E+02  0.47000000000E+01 0.  1.
<mgrwt>
<rscale>  2 0.25006841E+03</rscale>
<asrwt>0</asrwt>
<pdfrwt beam="1">  1       21 0.12054847E+00 0.25073260E+03</pdfrwt>
<pdfrwt beam="2">  1       21 0.16530435E-01 0.25073260E+03</pdfrwt>
<totfact> 0.16564285E+04</totfact>
</mgrwt>
</event>
<event>
12    1  0.2768653E-001  0.1781131E+03  0.7546771E-02  0.1169970E+00
         21   -1    0    0  504  503  0.00000000000E+00  0.00000000000E+00  0.65220416505E+03  0.65220416505E+03  0.00000000000E+00 0. -1.
         21   -1    0    0  502  504 -0.00000000000E+00 -0.00000000000E+00 -0.17801865722E+03  0.17801865722E+03  0.00000000000E+00 0. -1.
          6    2    1    2  502    0 -0.25980085392E+02 -0.18808642340E+02 -0.11704511320E+03  0.21312869135E+03  0.17520145744E+03 0.  0.
         24    2    3    3    0    0 -0.47584503830E+02 -0.36915162406E+02 -0.20343039128E+02  0.11229229864E+03  0.92567309956E+02 0.  0.
         -6    2    1    2    0  503  0.25980085392E+02  0.18808642340E+02  0.59123062102E+03  0.61709413093E+03  0.17384702853E+03 0.  0.
        -24    2    5    5    0    0 -0.27878641205E+02  0.63823006488E+02  0.33638392381E+03  0.35271564374E+03  0.80022411519E+02 0.  0.
          4    1    4    4  501    0 -0.58377766421E+02 -0.12118681282E+02  0.20723268387E+02  0.63121152564E+02  0.00000000000E+00 0. -1.
         -3    1    4    4    0  501  0.10793262591E+02 -0.24796481124E+02 -0.41066307514E+02  0.49171146075E+02  0.00000000000E+00 0.  1.
          5    1    3    3  502    0  0.21604418439E+02  0.18106520066E+02 -0.96702074069E+02  0.10083639271E+03  0.47000000000E+01 0. -1.
         13    1    6    6    0    0  0.20516220719E+02 -0.43828596752E+01  0.93900083263E+02  0.96215125674E+02  0.00000000000E+00 0. -1.
        -14    1    6    6    0    0 -0.48394861925E+02  0.68205866164E+02  0.24248384055E+03  0.25650051807E+03  0.00000000000E+00 0.  1.
         -5    1    5    5    0  503  0.53858726597E+02 -0.45014364149E+02  0.25484669720E+03  0.26437848719E+03  0.47000000000E+01 0.  1.
<mgrwt>
<rscale>  2 0.17777914E+03</rscale>
<asrwt>0</asrwt>
<pdfrwt beam="1">  1       21 0.10033910E+00 0.17811311E+03</pdfrwt>
<pdfrwt beam="2">  1       21 0.27387486E-01 0.17811311E+03</pdfrwt>
<totfact> 0.10462460E+04</totfact>
</mgrwt>
</event>
<event>
12    1  0.2768653E-001  0.2791270E+03  0.7546771E-02  0.1096758E+00
         21   -1    0    0  504  503  0.00000000000E+00  0.00000000000E+00  0.45283003904E+03  0.45283003904E+03  0.00000000000E+00 0.  1.
         21   -1    0    0  502  504 -0.00000000000E+00 -0.00000000000E+00 -0.18783537743E+03  0.18783537743E+03  0.00000000000E+00 0. -1.
          6    2    1    2  502    0  0.21321414562E+03 -0.15330583578E+02  0.23369026591E+03  0.36403714196E+03  0.17948983721E+03 0.  0.
         24    2    3    3    0    0  0.71006144319E+02 -0.37001211183E+01  0.18355651666E+03  0.21272995077E+03  0.80656516903E+02 0.  0.
         -6    2    1    2    0  503 -0.21321414562E+03  0.15330583578E+02  0.31304395699E+02  0.27662827450E+03  0.17276555900E+03 0.  0.
        -24    2    5    5    0    0 -0.10868497303E+03 -0.52381924959E+02  0.28571801042E+02  0.15196517327E+03  0.87867950057E+02 0.  0.
          4    1    4    4  501    0  0.50703668468E+02  0.27052488969E+02  0.57097232297E+02  0.81011067710E+02  0.00000000000E+00 0. -1.
         -3    1    4    4    0  501  0.20302475851E+02 -0.30752610088E+02  0.12645928437E+03  0.13171888306E+03  0.00000000000E+00 0.  1.
          5    1    3    3  502    0  0.14220800130E+03 -0.11630462460E+02  0.50133749248E+02  0.15130719119E+03  0.47000000000E+01 0. -1.
         11    1    6    6    0    0 -0.21545891802E+00  0.12522544916E+02  0.22090747662E+02  0.25394126998E+02  0.00000000000E+00 0. -1.
        -12    1    6    6    0    0 -0.10846951411E+03 -0.64904469875E+02  0.64810533801E+01  0.12657104627E+03  0.00000000000E+00 0.  1.
         -5    1    5    5    0  503 -0.10452917259E+03  0.67712508537E+02  0.27325946574E+01  0.12466310123E+03  0.47000000000E+01 0.  1.
<mgrwt>
<rscale>  2 0.27805190E+03</rscale>
<asrwt>0</asrwt>
<pdfrwt beam="1">  1       21 0.69666159E-01 0.27912703E+03</pdfrwt>
<pdfrwt beam="2">  1       21 0.28897751E-01 0.27912703E+03</pdfrwt>
<totfact> 0.20527241E+04</totfact>
</mgrwt>
</event>
<event>
12    1  0.2768653E-001  0.1833728E+03  0.7546771E-02  0.1164677E+00
         21   -1    0    0  504  503  0.00000000000E+00  0.00000000000E+00  0.11440155645E+03  0.11440155645E+03  0.00000000000E+00 0.  1.
         21   -1    0    0  502  504 -0.00000000000E+00 -0.00000000000E+00 -0.33097982091E+03  0.33097982091E+03  0.00000000000E+00 0.  1.
          6    2    1    2  502    0 -0.38258509993E+02  0.43198505846E+02 -0.18357852615E+03  0.25947379278E+03  0.17405674185E+03 0.  0.
         24    2    3    3    0    0  0.35172719320E+02  0.48006039236E+02 -0.14448999440E+03  0.17601565279E+03  0.81008959747E+02 0.  0.
         -6    2    1    2    0  503  0.38258509993E+02 -0.43198505846E+02 -0.32999738315E+02  0.18590758459E+03  0.17361688508E+03 0.  0.
        -24    2    5    5    0    0  0.10535017480E+02  0.45924450447E+01 -0.79649148241E+02  0.11344501169E+03  0.79960657312E+02 0.  0.
          4    1    4    4  501    0  0.37036036664E+02 -0.13001283150E+02 -0.50792330200E+02  0.64191605233E+02  0.00000000000E+00 0. -1.
         -3    1    4    4    0  501 -0.18633173443E+01  0.61007322386E+02 -0.93697664199E+02  0.11182404756E+03  0.00000000000E+00 0.  1.
          5    1    3    3  502    0 -0.73431229313E+02 -0.48075333898E+01 -0.39088531748E+02  0.83458139986E+02  0.47000000000E+01 0. -1.
         13    1    6    6    0    0 -0.16949567307E+02  0.27532564131E+02 -0.79341757464E+01  0.33290855566E+02  0.00000000000E+00 0. -1.
        -14    1    6    6    0    0  0.27484584787E+02 -0.22940119086E+02 -0.71714972495E+02  0.80154156128E+02  0.00000000000E+00 0.  1.
         -5    1    5    5    0  503  0.27723492513E+02 -0.47790950891E+02  0.46649409927E+02  0.72462572896E+02  0.47000000000E+01 0.  1.
<mgrwt>
<rscale>  2 0.18326832E+03</rscale>
<asrwt>0</asrwt>
<pdfrwt beam="1">  1       21 0.17600239E-01 0.18337277E+03</pdfrwt>
<pdfrwt beam="2">  1       21 0.50919973E-01 0.18337277E+03</pdfrwt>
<totfact> 0.10771345E+05</totfact>
</mgrwt>
</event>
<event>
12    1  0.2768653E-001  0.2072417E+03  0.7546771E-02  0.1143942E+00
         21   -1    0    0  504  503  0.00000000000E+00  0.00000000000E+00  0.11235110074E+03  0.11235110074E+03  0.00000000000E+00 0.  1.
         21   -1    0    0  502  504 -0.00000000000E+00 -0.00000000000E+00 -0.74173541392E+03  0.74173541392E+03  0.00000000000E+00 0.  1.
          6    2    1    2  502    0  0.11057871997E+03  0.21068848410E+02 -0.61296294954E+03  0.64704923839E+03  0.17400456808E+03 0.  0.
         24    2    3    3    0    0  0.45928541238E+02 -0.18241304520E+02 -0.13222787527E+03  0.16037354004E+03  0.76113633836E+02 0.  0.
         -6    2    1    2    0  503 -0.11057871997E+03 -0.21068848410E+02 -0.16421363645E+02  0.20703727628E+03  0.17298330238E+03 0.  0.
        -24    2    5    5    0    0 -0.75953979410E+01 -0.55724775504E+02 -0.20233619116E+02  0.98210711549E+02  0.77929479952E+02 0.  0.
          4    1    4    4  501    0 -0.16455618589E+02 -0.16954136706E+02 -0.16249664758E+02  0.28675455347E+02  0.00000000000E+00 0. -1.
         -3    1    4    4    0  501  0.62384159827E+02 -0.12871678135E+01 -0.11597821051E+03  0.13169808469E+03  0.00000000000E+00 0.  1.
          5    1    3    3  502    0  0.64650178731E+02  0.39310152930E+02 -0.48073507427E+03  0.48667569835E+03  0.47000000000E+01 0. -1.
         13    1    6    6    0    0 -0.25120440829E+02 -0.55818939462E+02 -0.38963771531E+02  0.72560085736E+02  0.00000000000E+00 0. -1.
        -14    1    6    6    0    0  0.17525042888E+02  0.94163958347E-01  0.18730152415E+02  0.25650625813E+02  0.00000000000E+00 0.  1.
         -5    1    5    5    0  503 -0.10298332203E+03  0.34655927093E+02  0.38122554706E+01  0.10882656473E+03  0.47000000000E+01 0.  1.
<mgrwt>
<rscale>  2 0.20702723E+03</rscale>
<asrwt>0</asrwt>
<pdfrwt beam="1">  1       21 0.17284785E-01 0.20724174E+03</pdfrwt>
<pdfrwt beam="2">  1       21 0.11411314E+00 0.20724174E+03</pdfrwt>
<totfact> 0.17907900E+04</totfact>
</mgrwt>
</event>
<event>
12    1  0.2768653E-001  0.1904787E+03  0.7546771E-02  0.1158447E+00
         21   -1    0    0  504  503  0.00000000000E+00  0.00000000000E+00  0.56859231645E+03  0.56859231645E+03  0.00000000000E+00 0. -1.
         21   -1    0    0  502  504 -0.00000000000E+00 -0.00000000000E+00 -0.13095304306E+03  0.13095304306E+03  0.00000000000E+00 0.  1.
          6    2    1    2  502    0 -0.11012951679E+02 -0.76834265843E+02 -0.32265422271E+02  0.19319215859E+03  0.17394643760E+03 0.  0.
         24    2    3    3    0    0  0.21604833923E+02  0.42823373003E+01  0.30679936242E+02  0.85358808459E+02  0.76549072053E+02 0.  0.
         -6    2    1    2    0  503  0.11012951679E+02  0.76834265843E+02  0.46990469566E+03  0.50635320092E+03  0.17192542442E+03 0.  0.
        -24    2    5    5    0    0 -0.22458419359E+02  0.10473570893E+03  0.41459977346E+03  0.43578729112E+03  0.80892778567E+02 0.  0.
          2    1    4    4  501    0  0.30977064764E+02  0.32671429315E+02  0.32313491872E+02  0.55418070986E+02  0.00000000000E+00 0. -1.
         -1    1    4    4    0  501 -0.93722308414E+01 -0.28389092015E+02 -0.16335556303E+01  0.29940737472E+02  0.00000000000E+00 0.  1.
          5    1    3    3  502    0 -0.32617785602E+02 -0.81116603143E+02 -0.62945358512E+02  0.10783335013E+03  0.47000000000E+01 0. -1.
         13    1    6    6    0    0 -0.18786488298E+02 -0.22239393115E+01  0.13650899528E+03  0.13781358366E+03  0.00000000000E+00 0. -1.
        -14    1    6    6    0    0 -0.36719310608E+01  0.10695964824E+03  0.27809077818E+03  0.29797370747E+03  0.00000000000E+00 0.  1.
         -5    1    5    5    0  503  0.33471371038E+02 -0.27901443091E+02  0.55304922202E+02  0.70565909797E+02  0.47000000000E+01 0.  1.
<mgrwt>
<rscale>  2 0.19001611E+03</rscale>
<asrwt>0</asrwt>
<pdfrwt beam="1">  1       21 0.87475740E-01 0.19047875E+03</pdfrwt>
<pdfrwt beam="2">  1       21 0.20146622E-01 0.19047875E+03</pdfrwt>
<totfact> 0.25577670E+04</totfact>
</mgrwt>
</event>
<event>
12    1  0.2768653E-001  0.1806232E+03  0.7546771E-02  0.1168104E+00
         21   -1    0    0  504  503  0.00000000000E+00  0.00000000000E+00  0.75646882904E+03  0.75646882904E+03  0.00000000000E+00 0.  1.
         21   -1    0    0  502  504 -0.00000000000E+00 -0.00000000000E+00 -0.90999419440E+02  0.90999419440E+02  0.00000000000E+00 0.  1.
          6    2    1    2  502    0  0.16594593293E+02  0.34763657330E+02  0.20993295843E+02  0.17815949215E+03  0.17267366265E+03 0.  0.
         24    2    3    3    0    0  0.37385552356E+02  0.27972812836E+01  0.67522998596E+02  0.11781699954E+03  0.88971825500E+02 0.  0.
         -6    2    1    2    0  503 -0.16594593293E+02 -0.34763657330E+02  0.64447611376E+03  0.66930875634E+03  0.17646772425E+03 0.  0.
        -24    2    5    5    0    0 -0.54365404833E+02  0.12204441497E+02  0.23308192502E+03  0.25349641279E+03  0.82635960051E+02 0.  0.
          4    1    4    4  501    0  0.15802291923E+02  0.19648360926E+02  0.82735665638E+02  0.86492548152E+02  0.00000000000E+00 0. -1.
         -3    1    4    4    0  501  0.21583260433E+02 -0.16851079642E+02 -0.15212667043E+02  0.31324451385E+02  0.00000000000E+00 0.  1.
          5    1    3    3  502    0 -0.20790959063E+02  0.31966376046E+02 -0.46529702753E+02  0.60342492612E+02  0.47000000000E+01 0. -1.
         13    1    6    6    0    0 -0.27032877958E+02 -0.31162226968E+02  0.15258358987E+03  0.15806205357E+03  0.00000000000E+00 0. -1.
        -14    1    6    6    0    0 -0.27332526874E+02  0.43366668465E+02  0.80498335148E+02  0.95434359225E+02  0.00000000000E+00 0.  1.
         -5    1    5    5    0  503  0.37770811540E+02 -0.46968098827E+02  0.41139418874E+03  0.41581234354E+03  0.47000000000E+01 0.  1.
<mgrwt>
<rscale>  2 0.17968979E+03</rscale>
<asrwt>0</asrwt>
<pdfrwt beam="1">  1       21 0.11637982E+00 0.18062323E+03</pdfrwt>
<pdfrwt beam="2">  1       21 0.13999911E-01 0.18062323E+03</pdfrwt>
<totfact> 0.25503919E+04</totfact>
</mgrwt>
</event>
<event>
12    1  0.2768653E-001  0.2325570E+03  0.7546771E-02  0.1125358E+00
         21   -1    0    0  504  503  0.00000000000E+00  0.00000000000E+00  0.25921239665E+03  0.25921239665E+03  0.00000000000E+00 0.  1.
         21   -1    0    0  502  504 -0.00000000000E+00 -0.00000000000E+00 -0.21832244800E+03  0.21832244800E+03  0.00000000000E+00 0.  1.
          6    2    1    2  502    0  0.54306325737E+01  0.15527689216E+03 -0.36273803699E+02  0.23251031418E+03  0.16912969094E+03 0.  0.
         24    2    3    3    0    0  0.62315489125E+02  0.12261620674E+03 -0.63557797521E+01  0.16026223162E+03  0.82009954316E+02 0.  0.
         -6    2    1    2    0  503 -0.54306325737E+01 -0.15527689216E+03  0.77163752347E+02  0.24502453047E+03  0.17303863974E+03 0.  0.
        -24    2    5    5    0    0  0.88297146322E+01 -0.11447931226E+03  0.11990765038E+03  0.18405789330E+03  0.79473182097E+02 0.  0.
          4    1    4    4  501    0  0.21666930798E+02  0.12055917497E+02 -0.31222358643E+02  0.39870248508E+02  0.00000000000E+00 0. -1.
         -3    1    4    4    0  501  0.40648558327E+02  0.11056028924E+03  0.24866578891E+02  0.12039198311E+03  0.00000000000E+00 0.  1.
          5    1    3    3  502    0 -0.56884856552E+02  0.32660685421E+02 -0.29918023947E+02  0.72248082562E+02  0.47000000000E+01 0. -1.
         11    1    6    6    0    0 -0.77236617138E+01  0.10775750310E+02  0.10147673457E+02  0.16695718661E+02  0.00000000000E+00 0. -1.
        -12    1    6    6    0    0  0.16553376346E+02 -0.12525506257E+03  0.10975997692E+03  0.16736217464E+03  0.00000000000E+00 0.  1.
         -5    1    5    5    0  503 -0.14260347206E+02 -0.40797579898E+02 -0.42743898029E+02  0.60966637161E+02  0.47000000000E+01 0.  1.
<mgrwt>
<rscale>  2 0.23183022E+03</rscale>
<asrwt>0</asrwt>
<pdfrwt beam="1">  1       21 0.39878830E-01 0.23255704E+03</pdfrwt>
<pdfrwt beam="2">  1       21 0.33588069E-01 0.23255704E+03</pdfrwt>
<totfact> 0.50805131E+04</totfact>
</mgrwt>
</event>
<event>
12    1  0.2768653E-001  0.2051206E+03  0.7546771E-02  0.1145724E+00
         21   -1    0    0  504  503  0.00000000000E+00  0.00000000000E+00  0.15359972451E+03  0.15359972451E+03  0.00000000000E+00 0.  1.
         21   -1    0    0  502  504 -0.00000000000E+00 -0.00000000000E+00 -0.63244796174E+03  0.63244796174E+03  0.00000000000E+00 0.  1.
          6    2    1    2  502    0 -0.10939409650E+03 -0.32379275967E+01 -0.53567993977E+03  0.57319963342E+03  0.17212573707E+03 0.  0.
         24    2    3    3    0    0 -0.14286791796E+03 -0.79770843166E-01 -0.48897937778E+03  0.51546313571E+03  0.78677595547E+02 0.  0.
         -6    2    1    2    0  503  0.10939409650E+03  0.32379275967E+01  0.56831702543E+02  0.21284805283E+03  0.17348457757E+03 0.  0.
        -24    2    5    5    0    0  0.54234628226E+02 -0.62805149671E+02  0.12223368348E+02  0.11581069675E+03  0.79855025034E+02 0.  0.
          4    1    4    4  501    0 -0.13562836075E+03  0.14900735682E+02 -0.35270929567E+03  0.37818108283E+03  0.00000000000E+00 0. -1.
         -3    1    4    4    0  501 -0.72395572146E+01 -0.14980506526E+02 -0.13627008211E+03  0.13728205288E+03  0.00000000000E+00 0.  1.
          5    1    3    3  502    0  0.33473821466E+02 -0.31581567536E+01 -0.46700561990E+02  0.57736497710E+02  0.47000000000E+01 0. -1.
         11    1    6    6    0    0 -0.10408643523E+02 -0.45574311533E+02 -0.41629192933E+01  0.46932799073E+02  0.00000000000E+00 0. -1.
        -12    1    6    6    0    0  0.64643271749E+02 -0.17230838138E+02  0.16386287642E+02  0.68877897674E+02  0.00000000000E+00 0.  1.
         -5    1    5    5    0  503  0.55159468272E+02  0.66043077268E+02  0.44608334195E+02  0.97037356079E+02  0.47000000000E+01 0.  1.
<mgrwt>
<rscale>  2 0.20483298E+03</rscale>
<asrwt>0</asrwt>
<pdfrwt beam="1">  1       21 0.23630726E-01 0.20512058E+03</pdfrwt>
<pdfrwt beam="2">  1       21 0.97299688E-01 0.20512058E+03</pdfrwt>
<totfact> 0.14646456E+04</totfact>
</mgrwt>
</event>
<event>
12    1  0.2768653E-001  0.2545513E+03  0.7546771E-02  0.1110577E+00
         21   -1    0    0  504  503  0.00000000000E+00  0.00000000000E+00  0.22500130254E+03  0.22500130254E+03  0.00000000000E+00 0. -1.
         21   -1    0    0  502  504 -0.00000000000E+00 -0.00000000000E+00 -0.54473713631E+03  0.54473713631E+03  0.00000000000E+00 0. -1.
          6    2    1    2  502    0  0.16447299111E+03  0.84610861835E+02 -0.42440464465E+03  0.49450775533E+03  0.17380522125E+03 0.  0.
         24    2    3    3    0    0  0.96435628476E+02 -0.13975916389E+02 -0.16167934407E+03  0.20572564175E+03  0.81778192066E+02 0.  0.
         -6    2    1    2    0  503 -0.16447299111E+03 -0.84610861835E+02  0.10466881088E+03  0.27523068352E+03  0.17488855433E+03 0.  0.
        -24    2    5    5    0    0 -0.17765114184E+03 -0.10952657061E+03  0.82898534790E+02  0.23930727720E+03  0.82703131647E+02 0.  0.
          2    1    4    4  501    0  0.11079363872E+03 -0.93356603479E+01 -0.13329491259E+03  0.17357971845E+03  0.00000000000E+00 0. -1.
         -1    1    4    4    0  501 -0.14358010248E+02 -0.46402560410E+01 -0.28384431478E+02  0.32145923299E+02  0.00000000000E+00 0.  1.
          5    1    3    3  502    0  0.68037362635E+02  0.98586778224E+02 -0.26272530058E+03  0.28878211357E+03  0.47000000000E+01 0. -1.
         13    1    6    6    0    0 -0.25163612135E+02 -0.58007891784E+02  0.29034690694E+02  0.69578273539E+02  0.00000000000E+00 0. -1.
        -14    1    6    6    0    0 -0.15248752970E+03 -0.51518678827E+02  0.53863844096E+02  0.16972900366E+03  0.00000000000E+00 0.  1.
         -5    1    5    5    0  503  0.13178150729E+02  0.24915708777E+02  0.21770276088E+02  0.35923406317E+02  0.47000000000E+01 0.  1.
<mgrwt>
<rscale>  2 0.25436534E+03</rscale>
<asrwt>0</asrwt>
<pdfrwt beam="1">  1       21 0.34615586E-01 0.25455131E+03</pdfrwt>
<pdfrwt beam="2">  1       21 0.83805711E-01 0.25455131E+03</pdfrwt>
<totfact> 0.95757136E+03</totfact>
</mgrwt>
</event>
<event>
12    1  0.2768653E-001  0.2365915E+03  0.7546771E-02  0.1122100E+00
         21   -1    0    0  504  503  0.00000000000E+00  0.00000000000E+00  0.68336458285E+02  0.68336458285E+02  0.00000000000E+00 0.  1.
         21   -1    0    0  502  504 -0.00000000000E+00 -0.00000000000E+00 -0.16214247326E+04  0.16214247326E+04  0.00000000000E+00 0.  1.
          6    2    1    2  502    0 -0.47792797916E+02 -0.15389512640E+03 -0.13709018917E+04  0.13911520405E+04  0.17310153561E+03 0.  0.
         24    2    3    3    0    0 -0.40542449261E+01 -0.14930822158E+03 -0.12636198376E+04  0.12751105400E+04  0.82839683797E+02 0.  0.
         -6    2    1    2    0  503  0.47792797916E+02  0.15389512640E+03 -0.18218638253E+03  0.29860915031E+03  0.17322726462E+03 0.  0.
        -24    2    5    5    0    0  0.65218041091E+02  0.11389964449E+03 -0.19906057303E+03  0.25159738606E+03  0.80309470410E+02 0.  0.
          4    1    4    4  501    0  0.27526364236E+02 -0.18813222996E+02 -0.16645717554E+03  0.16976345124E+03  0.00000000000E+00 0. -1.
         -3    1    4    4    0  501 -0.31580609162E+02 -0.13049499859E+03 -0.10971626621E+04  0.11053470887E+04  0.00000000000E+00 0.  1.
          5    1    3    3  502    0 -0.43738552989E+02 -0.45869048166E+01 -0.10728205414E+03  0.11604150057E+03  0.47000000000E+01 0. -1.
         11    1    6    6    0    0  0.80165175722E+02  0.67969872558E+02 -0.14527258982E+03  0.17930556134E+03  0.00000000000E+00 0. -1.
        -12    1    6    6    0    0 -0.14947134631E+02  0.45929771932E+02 -0.53787983207E+02  0.72291824717E+02  0.00000000000E+00 0.  1.
         -5    1    5    5    0  503 -0.17425243175E+02  0.39995481909E+02  0.16874190502E+02  0.47011764251E+02  0.47000000000E+01 0.  1.
<mgrwt>
<rscale>  2 0.23656851E+03</rscale>
<asrwt>0</asrwt>
<pdfrwt beam="1">  1       21 0.10513302E-01 0.23659152E+03</pdfrwt>
<pdfrwt beam="2">  1       21 0.24944995E+00 0.23659152E+03</pdfrwt>
<totfact> 0.47702331E+03</totfact>
</mgrwt>
</event>
<event>
12    1  0.2768653E-001  0.2265066E+03  0.7546771E-02  0.1129511E+00
         21   -1    0    0  504  503  0.00000000000E+00  0.00000000000E+00  0.26329310269E+03  0.26329310269E+03  0.00000000000E+00 0.  1.
         21   -1    0    0  502  504 -0.00000000000E+00 -0.00000000000E+00 -0.31471403095E+03  0.31471403095E+03  0.00000000000E+00 0.  1.
          6    2    1    2  502    0  0.28508450249E+02 -0.13889961341E+03 -0.20550123548E+03  0.30583658050E+03  0.17663358074E+03 0.  0.
         24    2    3    3    0    0 -0.10171005151E+02 -0.14372822881E+02 -0.29473603052E+02  0.86722821895E+02  0.79637473449E+02 0.  0.
         -6    2    1    2    0  503 -0.28508450249E+02  0.13889961341E+03  0.15408030722E+03  0.27217055315E+03  0.17386844045E+03 0.  0.
        -24    2    5    5    0    0  0.44513339062E+02  0.10416211321E+03  0.72554203836E+02  0.15724679073E+03  0.81432533538E+02 0.  0.
          2    1    4    4  501    0 -0.13824522059E+02  0.24785819751E+02  0.10861100837E+02  0.30387790020E+02  0.00000000000E+00 0. -1.
         -1    1    4    4    0  501  0.36535169074E+01 -0.39158642632E+02 -0.40334703889E+02  0.56335031875E+02  0.00000000000E+00 0.  1.
          5    1    3    3  502    0  0.38679455400E+02 -0.12452679053E+03 -0.17602763243E+03  0.21911375860E+03  0.47000000000E+01 0. -1.
         13    1    6    6    0    0  0.48810509769E+02  0.39402227261E+02  0.40204180794E+01  0.62858294111E+02  0.00000000000E+00 0. -1.
        -14    1    6    6    0    0 -0.42971707068E+01  0.64759885948E+02  0.68533785757E+02  0.94388496620E+02  0.00000000000E+00 0.  1.
         -5    1    5    5    0  503 -0.73021789311E+02  0.34737500204E+02  0.81526103385E+02  0.11492376242E+03  0.47000000000E+01 0.  1.
<mgrwt>
<rscale>  2 0.22596731E+03</rscale>
<asrwt>0</asrwt>
<pdfrwt beam="1">  1       21 0.40506631E-01 0.22650664E+03</pdfrwt>
<pdfrwt beam="2">  1       21 0.48417543E-01 0.22650664E+03</pdfrwt>
<totfact> 0.23477850E+04</totfact>
</mgrwt>
</event>
<event>
12    1  0.2768653E-001  0.1876246E+03  0.7546771E-02  0.1163759E+00
         21   -1    0    0  504  503  0.00000000000E+00  0.00000000000E+00  0.16019302976E+03  0.16019302976E+03  0.00000000000E+00 0. -1.
         21   -1    0    0  502  504 -0.00000000000E+00 -0.00000000000E+00 -0.24453554456E+03  0.24453554456E+03  0.00000000000E+00 0. -1.
          6    2    1    2  502    0 -0.63011646235E+02 -0.36367822164E+02 -0.12262042734E+03  0.21323912988E+03  0.15856251531E+03 0.  0.
         24    2    3    3    0    0 -0.85723736497E+02 -0.26357758706E+02 -0.13063983906E+03  0.18673551920E+03  0.98793198848E+02 0.  0.
         -6    2    1    2    0  503  0.63011646235E+02  0.36367822164E+02  0.38277912538E+02  0.19148944445E+03  0.17294485450E+03 0.  0.
        -24    2    5    5    0    0  0.89065526855E+02 -0.17592927715E+02 -0.14929935202E+01  0.11941738196E+03  0.77563541079E+02 0.  0.
          4    1    4    4  501    0 -0.88452343108E+02 -0.46893236914E+02 -0.68687959696E+02  0.12141181358E+03  0.00000000000E+00 0. -1.
         -3    1    4    4    0  501  0.27286066110E+01  0.20535478208E+02 -0.61951879365E+02  0.65323705622E+02  0.00000000000E+00 0.  1.
          5    1    3    3  502    0  0.22712090262E+02 -0.10010063458E+02  0.80194117258E+01  0.26503610677E+02  0.47000000000E+01 0. -1.
         13    1    6    6    0    0  0.42622410018E+02 -0.20806120111E+02  0.36079552034E+02  0.59592772589E+02  0.00000000000E+00 0. -1.
        -14    1    6    6    0    0  0.46443116837E+02  0.32131923950E+01 -0.37572545554E+02  0.59824609370E+02  0.00000000000E+00 0.  1.
         -5    1    5    5    0  503 -0.26053880620E+02  0.53960749879E+02  0.39770906058E+02  0.72072062490E+02  0.47000000000E+01 0.  1.
<mgrwt>
<rscale>  2 0.18424231E+03</rscale>
<asrwt>0</asrwt>
<pdfrwt beam="1">  1       21 0.24645082E-01 0.18762465E+03</pdfrwt>
<pdfrwt beam="2">  1       21 0.37620853E-01 0.18762465E+03</pdfrwt>
<totfact> 0.10626323E+05</totfact>
</mgrwt>
</event>
<event>
12    1  0.2768653E-001  0.1805986E+03  0.7546771E-02  0.1167575E+00
         21   -1    0    0  504  503  0.00000000000E+00  0.00000000000E+00  0.51997637796E+03  0.51997637796E+03  0.00000000000E+00 0.  1.
         21   -1    0    0  502  504 -0.00000000000E+00 -0.00000000000E+00 -0.70327845803E+02  0.70327845803E+02  0.00000000000E+00 0.  1.
          6    2    1    2  502    0 -0.23777696064E+02 -0.45679562717E+02  0.12383713832E+03  0.21778723726E+03  0.17159149922E+03 0.  0.
         24    2    3    3    0    0 -0.49657751724E+02 -0.76813720814E+02  0.47030670653E+02  0.13083646637E+03  0.80870618519E+02 0.  0.
         -6    2    1    2    0  503  0.23777696064E+02  0.45679562717E+02  0.32581139384E+03  0.37251698651E+03  0.17310066321E+03 0.  0.
        -24    2    5    5    0    0 -0.17652317208E+02  0.13190362349E+02  0.30282848111E+03  0.31487760398E+03  0.83409990764E+02 0.  0.
          4    1    4    4  501    0 -0.99884995989E+00 -0.58281422207E+02  0.52544155387E+02  0.78476812761E+02  0.00000000000E+00 0. -1.
         -3    1    4    4    0  501 -0.48658901765E+02 -0.18532298607E+02 -0.55134847345E+01  0.52359653613E+02  0.00000000000E+00 0.  1.
          5    1    3    3  502    0  0.25880055661E+02  0.31134158097E+02  0.76806467668E+02  0.86950770882E+02  0.47000000000E+01 0. -1.
         11    1    6    6    0    0 -0.26656451635E+02  0.26719839482E+01  0.24806964756E+02  0.36511524378E+02  0.00000000000E+00 0. -1.
        -12    1    6    6    0    0  0.90041344274E+01  0.10518378400E+02  0.27802151635E+03  0.27836607961E+03  0.00000000000E+00 0.  1.
         -5    1    5    5    0  503  0.41430013271E+02  0.32489200368E+02  0.22982912729E+02  0.57639382524E+02  0.47000000000E+01 0.  1.
<mgrwt>
<rscale>  2 0.18023597E+03</rscale>
<asrwt>0</asrwt>
<pdfrwt beam="1">  1       21 0.79996364E-01 0.18059856E+03</pdfrwt>
<pdfrwt beam="2">  1       21 0.10819669E-01 0.18059856E+03</pdfrwt>
<totfact> 0.97543082E+04</totfact>
</mgrwt>
</event>
<event>
12    1  0.2768653E-001  0.1899946E+03  0.7546771E-02  0.1158916E+00
         21   -1    0    0  504  503  0.00000000000E+00  0.00000000000E+00  0.84264483196E+02  0.84264483196E+02  0.00000000000E+00 0.  1.
         21   -1    0    0  502  504 -0.00000000000E+00 -0.00000000000E+00 -0.85052309651E+03  0.85052309651E+03  0.00000000000E+00 0.  1.
          6    2    1    2  502    0  0.54740755786E+02 -0.53933897897E+02 -0.71514360018E+03  0.73995156350E+03  0.17375998320E+03 0.  0.
         24    2    3    3    0    0  0.12147558196E+02 -0.57829151274E+02 -0.20139430916E+03  0.22440352742E+03  0.79407187649E+02 0.  0.
         -6    2    1    2    0  503 -0.54740755786E+02  0.53933897897E+02 -0.51115013136E+02  0.19483601621E+03  0.17158937309E+03 0.  0.
        -24    2    5    5    0    0 -0.99615961438E+02  0.45035468362E+02 -0.60308256030E+02  0.14793642297E+03  0.79350906191E+02 0.  0.
          4    1    4    4  501    0 -0.13791683764E+02 -0.27184422289E+02 -0.15450996989E+02  0.34175088357E+02  0.00000000000E+00 0. -1.
         -3    1    4    4    0  501  0.25939241960E+02 -0.30644728985E+02 -0.18594331217E+03  0.19022843907E+03  0.00000000000E+00 0.  1.
          5    1    3    3  502    0  0.42593197591E+02  0.38952533767E+01 -0.51374929102E+03  0.51554803607E+03  0.47000000000E+01 0. -1.
         13    1    6    6    0    0 -0.16869600985E+02 -0.22074092759E+02 -0.19055253345E+02  0.33689044043E+02  0.00000000000E+00 0. -1.
        -14    1    6    6    0    0 -0.82746360453E+02  0.67109561121E+02 -0.41253002684E+02  0.11424737893E+03  0.00000000000E+00 0.  1.
         -5    1    5    5    0  503  0.44875205652E+02  0.88984295348E+01  0.91932428934E+01  0.46899593233E+02  0.47000000000E+01 0.  1.
<mgrwt>
<rscale>  2 0.18949687E+03</rscale>
<asrwt>0</asrwt>
<pdfrwt beam="1">  1       21 0.12963766E-01 0.18999460E+03</pdfrwt>
<pdfrwt beam="2">  1       21 0.13084971E+00 0.18999460E+03</pdfrwt>
<totfact> 0.21759196E+04</totfact>
</mgrwt>
</event>
<event>
12    1  0.2768653E-001  0.2648396E+03  0.7546771E-02  0.1105828E+00
         21   -1    0    0  504  503  0.00000000000E+00  0.00000000000E+00  0.18822541750E+03  0.18822541750E+03  0.00000000000E+00 0. -1.
         21   -1    0    0  502  504 -0.00000000000E+00 -0.00000000000E+00 -0.36864617236E+03  0.36864617236E+03  0.00000000000E+00 0.  1.
          6    2    1    2  502    0  0.18668215626E+03  0.75126622676E+00 -0.13542829428E+03  0.28823741109E+03  0.17288490505E+03 0.  0.
         24    2    3    3    0    0  0.10428699608E+03 -0.50162217488E+02 -0.12919468571E+03  0.19106697772E+03  0.80145477388E+02 0.  0.
         -6    2    1    2    0  503 -0.18668215626E+03 -0.75126622676E+00 -0.44992460579E+02  0.26863417877E+03  0.18785422175E+03 0.  0.
        -24    2    5    5    0    0 -0.12228344779E+02 -0.38200830353E+02  0.11990435650E+02  0.81268913435E+02  0.69656513609E+02 0.  0.
          2    1    4    4  501    0  0.11063577033E+03 -0.62124934146E+02 -0.11255483088E+03  0.16961241426E+03  0.00000000000E+00 0. -1.
         -1    1    4    4    0  501 -0.63487742497E+01  0.11962716658E+02 -0.16639854834E+02  0.21454563459E+02  0.00000000000E+00 0.  1.
          5    1    3    3  502    0  0.82395160180E+02  0.50913483715E+02 -0.62336085656E+01  0.97170433367E+02  0.47000000000E+01 0. -1.
         11    1    6    6    0    0  0.44049070679E+01 -0.28449156024E+02  0.38758169873E+02  0.48279948392E+02  0.00000000000E+00 0. -1.
        -12    1    6    6    0    0 -0.16633251847E+02 -0.97516743286E+01 -0.26767734223E+02  0.32988965044E+02  0.00000000000E+00 0.  1.
         -5    1    5    5    0  503 -0.17445381148E+03  0.37449564126E+02 -0.56982896230E+02  0.18736526534E+03  0.47000000000E+01 0.  1.
<mgrwt>
<rscale>  2 0.26220063E+03</rscale>
<asrwt>0</asrwt>
<pdfrwt beam="1">  1       21 0.28957757E-01 0.26483958E+03</pdfrwt>
<pdfrwt beam="2">  1       21 0.56714795E-01 0.26483958E+03</pdfrwt>
<totfact> 0.32227623E+04</totfact>
</mgrwt>
</event>
<event>
12    1  0.2768653E-001  0.1798688E+03  0.7546771E-02  0.1168225E+00
         21   -1    0    0  504  503  0.00000000000E+00  0.00000000000E+00  0.69245622159E+02  0.69245622159E+02  0.00000000000E+00 0.  1.
         21   -1    0    0  502  504 -0.00000000000E+00 -0.00000000000E+00 -0.46441841930E+03  0.46441841930E+03  0.00000000000E+00 0.  1.
          6    2    1    2  502    0  0.43048652298E+02 -0.21894839649E+02 -0.19093119138E+03  0.26231186610E+03  0.17326345485E+03 0.  0.
         24    2    3    3    0    0  0.48485438090E+02 -0.60315568936E+02 -0.19324011279E+03  0.22315663406E+03  0.80425969492E+02 0.  0.
         -6    2    1    2    0  503 -0.43048652298E+02  0.21894839649E+02 -0.20424160575E+03  0.27135217535E+03  0.17200232289E+03 0.  0.
        -24    2    5    5    0    0 -0.31817978208E+02  0.30509752636E+02 -0.22667272630E+03  0.24441539872E+03  0.80094528800E+02 0.  0.
          4    1    4    4  501    0 -0.10523616424E+02 -0.43397858763E+02 -0.11727325161E+03  0.12548759377E+03  0.00000000000E+00 0. -1.
         -3    1    4    4    0  501  0.59009054514E+02 -0.16917710172E+02 -0.75966861185E+02  0.97669040286E+02  0.00000000000E+00 0.  1.
          5    1    3    3  502    0 -0.54367857923E+01  0.38420729287E+02  0.23089214055E+01  0.39155232048E+02  0.47000000000E+01 0. -1.
         11    1    6    6    0    0 -0.51151874332E+01  0.39913080580E+02 -0.20459426385E+03  0.20851386512E+03  0.00000000000E+00 0. -1.
        -12    1    6    6    0    0 -0.26702790775E+02 -0.94033279432E+01 -0.22078462442E+02  0.35901533608E+02  0.00000000000E+00 0.  1.
         -5    1    5    5    0  503 -0.11230674090E+02 -0.86149129876E+01  0.22431120543E+02  0.26936776628E+02  0.47000000000E+01 0.  1.
<mgrwt>
<rscale>  2 0.17956443E+03</rscale>
<asrwt>0</asrwt>
<pdfrwt beam="1">  1       21 0.10653173E-01 0.17986883E+03</pdfrwt>
<pdfrwt beam="2">  1       21 0.71448986E-01 0.17986883E+03</pdfrwt>
<totfact> 0.12905958E+05</totfact>
</mgrwt>
</event>
<event>
12    1  0.2768653E-001  0.2469983E+03  0.7546771E-02  0.1115507E+00
         21   -1    0    0  504  503  0.00000000000E+00  0.00000000000E+00  0.53970394194E+03  0.53970394194E+03  0.00000000000E+00 0.  1.
         21   -1    0    0  502  504 -0.00000000000E+00 -0.00000000000E+00 -0.12269026164E+03  0.12269026164E+03  0.00000000000E+00 0. -1.
          6    2    1    2  502    0  0.70161337511E+02  0.15928202290E+03  0.11243409501E+03  0.27138454362E+03  0.17525629431E+03 0.  0.
         24    2    3    3    0    0  0.13958946391E+02  0.55100935096E+02  0.11663241356E+03  0.15284288975E+03  0.80789008038E+02 0.  0.
         -6    2    1    2    0  503 -0.70161337511E+02 -0.15928202290E+03  0.30457958530E+03  0.39100965996E+03  0.17270337085E+03 0.  0.
        -24    2    5    5    0    0 -0.29083102506E+02 -0.15049165923E+02  0.16344182468E+03  0.18501816525E+03  0.80288150869E+02 0.  0.
          4    1    4    4  501    0 -0.19418040639E+02  0.58796275501E+02  0.55779042993E+02  0.83338850197E+02  0.00000000000E+00 0. -1.
         -3    1    4    4    0  501  0.33376987030E+02 -0.36953404047E+01  0.60853370570E+02  0.69504039550E+02  0.00000000000E+00 0.  1.
          5    1    3    3  502    0  0.56202391120E+02  0.10418108781E+03 -0.41983185566E+01  0.11854165387E+03  0.47000000000E+01 0. -1.
         11    1    6    6    0    0 -0.47634837985E+02 -0.35707604396E+01  0.15401535449E+03  0.16125308536E+03  0.00000000000E+00 0. -1.
        -12    1    6    6    0    0  0.18551735479E+02 -0.11478405483E+02  0.94264701907E+01  0.23765079885E+02  0.00000000000E+00 0.  1.
         -5    1    5    5    0  503 -0.41078235005E+02 -0.14423285698E+03  0.14113776062E+03  0.20599149472E+03  0.47000000000E+01 0.  1.
<mgrwt>
<rscale>  2 0.24654582E+03</rscale>
<asrwt>0</asrwt>
<pdfrwt beam="1">  1       21 0.83031374E-01 0.24699827E+03</pdfrwt>
<pdfrwt beam="2">  1       21 0.18875425E-01 0.24699827E+03</pdfrwt>
<totfact> 0.31614928E+04</totfact>
</mgrwt>
</event>
<event>
12    1  0.2768653E-001  0.1846146E+03  0.7546771E-02  0.1163623E+00
         21   -1    0    0  504  503  0.00000000000E+00  0.00000000000E+00  0.27531528522E+03  0.27531528522E+03  0.00000000000E+00 0. -1.
         21   -1    0    0  502  504 -0.00000000000E+00 -0.00000000000E+00 -0.15182903033E+03  0.15182903033E+03  0.00000000000E+00 0. -1.
          6    2    1    2  502    0  0.10034467456E+02  0.62716134968E+02 -0.30895554058E+02  0.18718195909E+03  0.17334516556E+03 0.  0.
         24    2    3    3    0    0  0.44786575363E+02  0.57226642460E+01 -0.64048590940E+02  0.11250144916E+03  0.80720306257E+02 0.  0.
         -6    2    1    2    0  503 -0.10034467456E+02 -0.62716134968E+02  0.15438180894E+03  0.23996235646E+03  0.17237803069E+03 0.  0.
        -24    2    5    5    0    0  0.20025983441E+02 -0.10088922638E+03  0.86778344143E+02  0.15657690168E+03  0.80038547678E+02 0.  0.
          2    1    4    4  501    0  0.56794810105E+01  0.22296723717E+02 -0.66087493778E+02  0.69978262531E+02  0.00000000000E+00 0. -1.
         -1    1    4    4    0  501  0.39107094352E+02 -0.16574059471E+02  0.20389028383E+01  0.42523186625E+02  0.00000000000E+00 0.  1.
          5    1    3    3  502    0 -0.34752107907E+02  0.56993470722E+02  0.33153036882E+02  0.74680509930E+02  0.47000000000E+01 0. -1.
         11    1    6    6    0    0  0.50760750934E+02 -0.60120394975E+02  0.45273288396E+02  0.90778777088E+02  0.00000000000E+00 0. -1.
        -12    1    6    6    0    0 -0.30734767493E+02 -0.40768831409E+02  0.41505055747E+02  0.65798124592E+02  0.00000000000E+00 0.  1.
         -5    1    5    5    0  503 -0.30060450897E+02  0.38173091416E+02  0.67603464798E+02  0.83385454781E+02  0.47000000000E+01 0.  1.
<mgrwt>
<rscale>  2 0.18438723E+03</rscale>
<asrwt>0</asrwt>
<pdfrwt beam="1">  1       21 0.42356198E-01 0.18461460E+03</pdfrwt>
<pdfrwt beam="2">  1       21 0.23358312E-01 0.18461460E+03</pdfrwt>
<totfact> 0.92728499E+04</totfact>
</mgrwt>
</event>
<event>
12    1  0.2768653E-001  0.1755522E+03  0.7546771E-02  0.1172666E+00
         21   -1    0    0  504  503  0.00000000000E+00  0.00000000000E+00  0.43661395065E+02  0.43661395065E+02  0.00000000000E+00 0. -1.
         21   -1    0    0  502  504 -0.00000000000E+00 -0.00000000000E+00 -0.80303863818E+03  0.80303863818E+03  0.00000000000E+00 0. -1.
          6    2    1    2  502    0  0.18495748662E+02 -0.20905921338E+02 -0.22847080346E+03  0.28812754344E+03  0.17331884777E+03 0.  0.
         24    2    3    3    0    0 -0.21040609969E+02 -0.61507304723E+02 -0.14492955857E+03  0.18706901790E+03  0.98814901259E+02 0.  0.
         -6    2    1    2    0  503 -0.18495748662E+02  0.20905921338E+02 -0.53090643966E+03  0.55857248980E+03  0.17135468603E+03 0.  0.
        -24    2    5    5    0    0  0.20930258276E+02 -0.45958469690E+02 -0.25419358934E+03  0.27114015282E+03  0.79701599495E+02 0.  0.
          2    1    4    4  501    0 -0.17225712225E+02 -0.71872578676E+02 -0.44997470201E+02  0.86528406039E+02  0.00000000000E+00 0. -1.
         -1    1    4    4    0  501 -0.38148977443E+01  0.10365273953E+02 -0.99932088365E+02  0.10054061186E+03  0.00000000000E+00 0.  1.
          5    1    3    3  502    0  0.39536358631E+02  0.40601383385E+02 -0.83541244890E+02  0.10105852554E+03  0.47000000000E+01 0. -1.
         11    1    6    6    0    0  0.38358964764E+02 -0.16499431203E+02 -0.21537743251E+03  0.21938796650E+03  0.00000000000E+00 0. -1.
        -12    1    6    6    0    0 -0.17428706487E+02 -0.29459038487E+02 -0.38816156826E+02  0.51752186322E+02  0.00000000000E+00 0.  1.
         -5    1    5    5    0  503 -0.39426006938E+02  0.66864391028E+02 -0.27671285032E+03  0.28743233698E+03  0.47000000000E+01 0.  1.
<mgrwt>
<rscale>  2 0.17506545E+03</rscale>
<asrwt>0</asrwt>
<pdfrwt beam="1">  1       21 0.67171371E-02 0.17555220E+03</pdfrwt>
<pdfrwt beam="2">  1       21 0.12354442E+00 0.17555220E+03</pdfrwt>
<totfact> 0.80423121E+04</totfact>
</mgrwt>
</event>
<event>
12    1  0.2768653E-001  0.2055104E+03  0.7546771E-02  0.1145230E+00
         21   -1    0    0  504  503  0.00000000000E+00  0.00000000000E+00  0.12463738277E+03  0.12463738277E+03  0.00000000000E+00 0. -1.
         21   -1    0    0  502  504 -0.00000000000E+00 -0.00000000000E+00 -0.13993927535E+04  0.13993927535E+04  0.00000000000E+00 0.  1.
          6    2    1    2  502    0  0.53651121802E+02 -0.97416769418E+02 -0.13010051745E+04  0.13171366558E+04  0.17281792757E+03 0.  0.
         24    2    3    3    0    0 -0.68245890935E+01 -0.10656475456E+03 -0.67767422076E+03  0.69079444490E+03  0.80944386414E+02 0.  0.
         -6    2    1    2    0  503 -0.53651121802E+02  0.97416769418E+02  0.26249803727E+02  0.20689348052E+03  0.17247431766E+03 0.  0.
        -24    2    5    5    0    0  0.16059788909E+02 -0.31514480471E+01  0.69743756571E+01  0.82928930900E+02  0.80998254425E+02 0.  0.
          2    1    4    4  501    0 -0.38536788652E+02 -0.30431581083E+02 -0.19272004936E+03  0.19887730548E+03  0.00000000000E+00 0. -1.
         -1    1    4    4    0  501  0.31712199558E+02 -0.76133173473E+02 -0.48495417140E+03  0.49191713943E+03  0.00000000000E+00 0.  1.
          5    1    3    3  502    0  0.60475710896E+02  0.91479851372E+01 -0.62333095374E+03  0.62634221088E+03  0.47000000000E+01 0. -1.
         13    1    6    6    0    0  0.78467475515E+01 -0.13654011138E+01  0.44125681591E+02  0.44838728162E+02  0.00000000000E+00 0. -1.
        -14    1    6    6    0    0  0.82130413571E+01 -0.17860469334E+01 -0.37151305934E+02  0.38090202738E+02  0.00000000000E+00 0.  1.
         -5    1    5    5    0  503 -0.69710910711E+02  0.10056821747E+03  0.19275428070E+02  0.12396454962E+03  0.47000000000E+01 0.  1.
<mgrwt>
<rscale>  2 0.20543810E+03</rscale>
<asrwt>0</asrwt>
<pdfrwt beam="1">  1       21 0.19174982E-01 0.20551035E+03</pdfrwt>
<pdfrwt beam="2">  1       21 0.21529119E+00 0.20551035E+03</pdfrwt>
<totfact> 0.26506258E+03</totfact>
</mgrwt>
</event>
<event>
12    1  0.2768653E-001  0.1810754E+03  0.7546771E-02  0.1167031E+00
         21   -1    0    0  504  503  0.00000000000E+00  0.00000000000E+00  0.11120371010E+04  0.11120371010E+04  0.00000000000E+00 0. -1.
         21   -1    0    0  502  504 -0.00000000000E+00 -0.00000000000E+00 -0.12450067315E+03  0.12450067315E+03  0.00000000000E+00 0. -1.
          6    2    1    2  502    0  0.37523710206E+02 -0.37653390063E+02 -0.47212556374E+02  0.18606466844E+03  0.17194542376E+03 0.  0.
         24    2    3    3    0    0 -0.13069883285E+02  0.26345165700E+02 -0.55318017079E+02  0.10394697646E+03  0.82945773236E+02 0.  0.
         -6    2    1    2    0  503 -0.37523710206E+02  0.37653390063E+02  0.10347489842E+04  0.10504731057E+04  0.17309673269E+03 0.  0.
        -24    2    5    5    0    0 -0.77019765684E+02  0.66141199977E+02  0.65800479874E+03  0.67056553142E+03  0.79881876058E+02 0.  0.
          4    1    4    4  501    0 -0.17189460700E+02  0.39393780344E+02 -0.71085943197E+02  0.83069602197E+02  0.00000000000E+00 0. -1.
         -3    1    4    4    0  501  0.41195774153E+01 -0.13048614645E+02  0.15767926118E+02  0.20877374267E+02  0.00000000000E+00 0.  1.
          5    1    3    3  502    0  0.50593593491E+02 -0.63998555763E+02  0.81054607057E+01  0.82117691975E+02  0.47000000000E+01 0. -1.
         11    1    6    6    0    0 -0.48791842377E+02  0.48094474935E+02  0.20141241838E+03  0.21274558675E+03  0.00000000000E+00 0. -1.
        -12    1    6    6    0    0 -0.28227923308E+02  0.18046725042E+02  0.45659238036E+03  0.45781994468E+03  0.00000000000E+00 0.  1.
         -5    1    5    5    0  503  0.39496055479E+02 -0.28487809914E+02  0.37674418546E+03  0.37990757427E+03  0.47000000000E+01 0.  1.
<mgrwt>
<rscale>  2 0.18079966E+03</rscale>
<asrwt>0</asrwt>
<pdfrwt beam="1">  1       21 0.17108262E+00 0.18107536E+03</pdfrwt>
<pdfrwt beam="2">  1       21 0.19153951E-01 0.18107536E+03</pdfrwt>
<totfact> 0.53002051E+03</totfact>
</mgrwt>
</event>
<event>
12    1  0.2768653E-001  0.1965063E+03  0.7546771E-02  0.1154654E+00
         21   -1    0    0  504  503  0.00000000000E+00  0.00000000000E+00  0.53352495734E+03  0.53352495734E+03  0.00000000000E+00 0. -1.
         21   -1    0    0  502  504 -0.00000000000E+00 -0.00000000000E+00 -0.15759141898E+03  0.15759141898E+03  0.00000000000E+00 0. -1.
          6    2    1    2  502    0  0.92069755576E+02  0.74862907393E+01 -0.68934942253E+02  0.20824684162E+03  0.17344116104E+03 0.  0.
         24    2    3    3    0    0  0.21513913759E+02  0.55358139552E+02 -0.16941890224E+01  0.99558067510E+02  0.79884707109E+02 0.  0.
         -6    2    1    2    0  503 -0.92069755576E+02 -0.74862907393E+01  0.44486848061E+03  0.48286953469E+03  0.16346907369E+03 0.  0.
        -24    2    5    5    0    0 -0.28475300027E+02  0.33940041415E+02  0.33308550950E+03  0.34767368267E+03  0.89265132404E+02 0.  0.
          4    1    4    4  501    0  0.32902611991E+02  0.85430854261E+01 -0.28555494572E+02  0.44395748160E+02  0.00000000000E+00 0. -1.
         -3    1    4    4    0  501 -0.11388698232E+02  0.46815054126E+02  0.26861305549E+02  0.55162319350E+02  0.00000000000E+00 0.  1.
          5    1    3    3  502    0  0.70555841817E+02 -0.47871848813E+02 -0.67240753231E+02  0.10868877411E+03  0.47000000000E+01 0. -1.
         13    1    6    6    0    0 -0.37899961211E+02  0.20607965622E+02  0.32763204487E+03  0.33046006133E+03  0.00000000000E+00 0. -1.
        -14    1    6    6    0    0  0.94246611842E+01  0.13332075793E+02  0.54534646283E+01  0.17213621346E+02  0.00000000000E+00 0.  1.
         -5    1    5    5    0  503 -0.63594455549E+02 -0.41426332154E+02  0.11178297112E+03  0.13519585202E+03  0.47000000000E+01 0.  1.
<mgrwt>
<rscale>  2 0.19428307E+03</rscale>
<asrwt>0</asrwt>
<pdfrwt beam="1">  1       21 0.82080762E-01 0.19650629E+03</pdfrwt>
<pdfrwt beam="2">  1       21 0.24244834E-01 0.19650629E+03</pdfrwt>
<totfact> 0.20789854E+04</totfact>
</mgrwt>
</event>
<event>
12    1  0.2768653E-001  0.2083871E+03  0.7546771E-02  0.1145115E+00
         21   -1    0    0  504  503  0.00000000000E+00  0.00000000000E+00  0.53400570551E+03  0.53400570551E+03  0.00000000000E+00 0.  1.
         21   -1    0    0  502  504 -0.00000000000E+00 -0.00000000000E+00 -0.12217081081E+03  0.12217081081E+03  0.00000000000E+00 0.  1.
          6    2    1    2  502    0 -0.83687805731E+02 -0.51020390559E+02  0.10171411392E+02  0.20863516036E+03  0.18389791584E+03 0.  0.
         24    2    3    3    0    0 -0.12475157013E+03 -0.24018396553E+02  0.34437582130E+02  0.15362354823E+03  0.79211172722E+02 0.  0.
         -6    2    1    2    0  503  0.83687805731E+02  0.51020390559E+02  0.40166348331E+03  0.44754135596E+03  0.17132712098E+03 0.  0.
        -24    2    5    5    0    0  0.64589770208E+02 -0.25499490811E+02  0.30441081046E+03  0.32224091867E+03  0.79694452110E+02 0.  0.
          4    1    4    4  501    0 -0.22480858863E+02 -0.28758936835E+02  0.35947754643E+02  0.51231889746E+02  0.00000000000E+00 0. -1.
         -3    1    4    4    0  501 -0.10227071127E+03  0.47405402824E+01 -0.15101725128E+01  0.10239165848E+03  0.00000000000E+00 0.  1.
          5    1    3    3  502    0  0.41063764404E+02 -0.27001994006E+02 -0.24266170737E+02  0.55011612134E+02  0.47000000000E+01 0. -1.
         11    1    6    6    0    0 -0.33328453959E+00  0.78030999847E-01 -0.50240556186E+01  0.50357027593E+01  0.00000000000E+00 0. -1.
        -12    1    6    6    0    0  0.64923054748E+02 -0.25577521811E+02  0.30943486608E+03  0.31720521592E+03  0.00000000000E+00 0.  1.
         -5    1    5    5    0  503  0.19098035523E+02  0.76519881370E+02  0.97252672853E+02  0.12530043728E+03  0.47000000000E+01 0.  1.
<mgrwt>
<rscale>  2 0.20557962E+03</rscale>
<asrwt>0</asrwt>
<pdfrwt beam="1">  1       21 0.82154722E-01 0.20838707E+03</pdfrwt>
<pdfrwt beam="2">  1       21 0.18795510E-01 0.20838707E+03</pdfrwt>
<totfact> 0.33271518E+04</totfact>
</mgrwt>
</event>
<event>
12    1  0.2768653E-001  0.2194028E+03  0.7546771E-02  0.1134557E+00
         21   -1    0    0  504  503  0.00000000000E+00  0.00000000000E+00  0.76561658157E+03  0.76561658157E+03  0.00000000000E+00 0. -1.
         21   -1    0    0  502  504 -0.00000000000E+00 -0.00000000000E+00 -0.91060188199E+02  0.91060188199E+02  0.00000000000E+00 0. -1.
          6    2    1    2  502    0 -0.12980522191E+03  0.32491361869E+02  0.98149803650E+02  0.24035596352E+03  0.17387501550E+03 0.  0.
         24    2    3    3    0    0 -0.14993863040E+03 -0.85051520386E+00  0.10685511567E+03  0.20017005353E+03  0.78534822359E+02 0.  0.
         -6    2    1    2    0  503  0.12980522191E+03 -0.32491361869E+02  0.57640658972E+03  0.61632080624E+03  0.17234179791E+03 0.  0.
        -24    2    5    5    0    0  0.83174913849E+02 -0.39503060513E+01  0.53256545260E+03  0.54608468447E+03  0.87457704662E+02 0.  0.
          2    1    4    4  501    0 -0.12071851463E+03  0.25093478536E+02  0.54415682499E+02  0.13477280490E+03  0.00000000000E+00 0. -1.
         -1    1    4    4    0  501 -0.29220115775E+02 -0.25943993740E+02  0.52439433175E+02  0.65397248633E+02  0.00000000000E+00 0.  1.
          5    1    3    3  502    0  0.20133408493E+02  0.33341877073E+02 -0.87053120251E+01  0.40185909990E+02  0.47000000000E+01 0. -1.
         13    1    6    6    0    0  0.83474120346E+02  0.24995613436E+02  0.45555020948E+03  0.46380890765E+03  0.00000000000E+00 0. -1.
        -14    1    6    6    0    0 -0.29920649705E+00 -0.28945919487E+02  0.77015243119E+02  0.82275776825E+02  0.00000000000E+00 0.  1.
         -5    1    5    5    0  503  0.46630308061E+02 -0.28541055818E+02  0.43841137121E+02  0.70236121769E+02  0.47000000000E+01 0.  1.
<mgrwt>
<rscale>  2 0.21909894E+03</rscale>
<asrwt>0</asrwt>
<pdfrwt beam="1">  1       21 0.11778716E+00 0.21940284E+03</pdfrwt>
<pdfrwt beam="2">  1       21 0.14009260E-01 0.21940284E+03</pdfrwt>
<totfact> 0.24168284E+04</totfact>
</mgrwt>
</event>
<event>
12    1  0.2768653E-001  0.2007677E+03  0.7546771E-02  0.1149337E+00
         21   -1    0    0  504  503  0.00000000000E+00  0.00000000000E+00  0.21227261329E+04  0.21227261329E+04  0.00000000000E+00 0.  1.
         21   -1    0    0  502  504 -0.00000000000E+00 -0.00000000000E+00 -0.22830388475E+02  0.22830388475E+02  0.00000000000E+00 0. -1.
          6    2    1    2  502    0  0.60216362723E+02 -0.80551138530E+02  0.60115301593E+03  0.63342641796E+03  0.17242268456E+03 0.  0.
         24    2    3    3    0    0  0.85013743720E+02 -0.35085674218E+02  0.53842785670E+03  0.55194909504E+03  0.79277395837E+02 0.  0.
         -6    2    1    2    0  503 -0.60216362723E+02  0.80551138530E+02  0.14987427285E+04  0.15121301035E+04  0.17376186917E+03 0.  0.
        -24    2    5    5    0    0  0.21696762462E+01  0.17609223108E+02  0.35514826895E+03  0.36509737481E+03  0.82770815660E+02 0.  0.
          2    1    4    4  501    0  0.13910804502E+02  0.24546391316E+02  0.10733745691E+03  0.11098362701E+03  0.00000000000E+00 0. -1.
         -1    1    4    4    0  501  0.71102939218E+02 -0.59632065533E+02  0.43109039979E+03  0.44096546803E+03  0.00000000000E+00 0.  1.
          5    1    3    3  502    0 -0.24797380997E+02 -0.45465464313E+02  0.62725159225E+02  0.81477322914E+02  0.47000000000E+01 0. -1.
         11    1    6    6    0    0  0.17230618069E+02 -0.19352373789E+02  0.26793710174E+03  0.26918710790E+03  0.00000000000E+00 0. -1.
        -12    1    6    6    0    0 -0.15060941823E+02  0.36961596896E+02  0.87211167209E+02  0.95910266915E+02  0.00000000000E+00 0.  1.
         -5    1    5    5    0  503 -0.62386038970E+02  0.62941915423E+02  0.11435944596E+04  0.11470327286E+04  0.47000000000E+01 0.  1.
<mgrwt>
<rscale>  2 0.20047763E+03</rscale>
<asrwt>0</asrwt>
<pdfrwt beam="1">  1       21 0.32657310E+00 0.20076774E+03</pdfrwt>
<pdfrwt beam="2">  1       21 0.35123691E-02 0.20076774E+03</pdfrwt>
<totfact> 0.11570581E+04</totfact>
</mgrwt>
</event>
<event>
12    1  0.2768653E-001  0.2850111E+03  0.7546771E-02  0.1093032E+00
         21   -1    0    0  504  503  0.00000000000E+00  0.00000000000E+00  0.16338708679E+04  0.16338708679E+04  0.00000000000E+00 0. -1.
         21   -1    0    0  502  504 -0.00000000000E+00 -0.00000000000E+00 -0.50751301755E+02  0.50751301755E+02  0.00000000000E+00 0.  1.
          6    2    1    2  502    0  0.17433510985E+01 -0.22595581173E+03  0.91595442629E+03  0.95927256862E+03  0.17370170333E+03 0.  0.
         24    2    3    3    0    0 -0.11097627384E+02 -0.68570884196E+02  0.20267382405E+03  0.22870688802E+03  0.80031482421E+02 0.  0.
         -6    2    1    2    0  503 -0.17433510985E+01  0.22595581173E+03  0.66716513989E+03  0.72534960107E+03  0.17310012062E+03 0.  0.
        -24    2    5    5    0    0  0.24278703551E+02  0.13720831624E+03  0.56482609927E+03  0.58733281035E+03  0.80720073148E+02 0.  0.
          2    1    4    4  501    0  0.31573987685E+02 -0.49748536909E+02  0.10303531132E+03  0.11869334017E+03  0.00000000000E+00 0. -1.
         -1    1    4    4    0  501 -0.42671615068E+02 -0.18822347287E+02  0.99638512737E+02  0.11001354785E+03  0.00000000000E+00 0.  1.
          5    1    3    3  502    0  0.12840978482E+02 -0.15738492754E+03  0.71328060224E+03  0.73056568060E+03  0.47000000000E+01 0. -1.
         11    1    6    6    0    0  0.12513733828E+02  0.10008392417E+03  0.24217151946E+03  0.26233648288E+03  0.00000000000E+00 0. -1.
        -12    1    6    6    0    0  0.11764969724E+02  0.37124392067E+02  0.32265457981E+03  0.32499632747E+03  0.00000000000E+00 0.  1.
         -5    1    5    5    0  503 -0.26022054650E+02  0.88747495497E+02  0.10233904063E+03  0.13801679072E+03  0.47000000000E+01 0.  1.
<mgrwt>
<rscale>  2 0.28491954E+03</rscale>
<asrwt>0</asrwt>
<pdfrwt beam="1">  1       21 0.25136471E+00 0.28501114E+03</pdfrwt>
<pdfrwt beam="2">  1       21 0.78078938E-02 0.28501114E+03</pdfrwt>
<totfact> 0.75753466E+03</totfact>
</mgrwt>
</event>
<event>
12    1  0.2768653E-001  0.1884278E+03  0.7546771E-02  0.1160255E+00
         21   -1    0    0  504  503  0.00000000000E+00  0.00000000000E+00  0.19866748334E+03  0.19866748334E+03  0.00000000000E+00 0.  1.
         21   -1    0    0  502  504 -0.00000000000E+00 -0.00000000000E+00 -0.17910353494E+03  0.17910353494E+03  0.00000000000E+00 0.  1.
          6    2    1    2  502    0 -0.64677490968E+02 -0.32439351921E+02 -0.96662694500E+01  0.18867558653E+03  0.17398146682E+03 0.  0.
         24    2    3    3    0    0 -0.28713933090E+02 -0.86239977118E+02 -0.13205222170E+02  0.12369482820E+03  0.82850522170E+02 0.  0.
         -6    2    1    2    0  503  0.64677490968E+02  0.32439351921E+02  0.29230217850E+02  0.18909543176E+03  0.17224165374E+03 0.  0.
        -24    2    5    5    0    0  0.82037892751E+02 -0.24368340103E+02  0.35633837865E+00  0.12288147296E+03  0.88179915934E+02 0.  0.
          4    1    4    4  501    0 -0.11925104284E+02 -0.16925644207E+02 -0.41965812197E+02  0.46795458513E+02  0.00000000000E+00 0. -1.
         -3    1    4    4    0  501 -0.16788828805E+02 -0.69314332910E+02  0.28760590027E+02  0.76899369686E+02  0.00000000000E+00 0.  1.
          5    1    3    3  502    0 -0.35963557879E+02  0.53800625197E+02  0.35389527203E+01  0.64980758331E+02  0.47000000000E+01 0. -1.
         11    1    6    6    0    0  0.65183343311E+02 -0.54307133481E+02  0.13859022600E+02  0.85966304443E+02  0.00000000000E+00 0. -1.
        -12    1    6    6    0    0  0.16854549440E+02  0.29938793377E+02 -0.13502684221E+02  0.36915168520E+02  0.00000000000E+00 0.  1.
         -5    1    5    5    0  503 -0.17360401783E+02  0.56807692025E+02  0.28873879472E+02  0.66213958792E+02  0.47000000000E+01 0.  1.
<mgrwt>
<rscale>  2 0.18802522E+03</rscale>
<asrwt>0</asrwt>
<pdfrwt beam="1">  1       21 0.30564228E-01 0.18842781E+03</pdfrwt>
<pdfrwt beam="2">  1       21 0.27554390E-01 0.18842781E+03</pdfrwt>
<totfact> 0.12932364E+05</totfact>
</mgrwt>
</event>
<event>
12    1  0.2768653E-001  0.2134016E+03  0.7546771E-02  0.1139063E+00
         21   -1    0    0  504  503  0.00000000000E+00  0.00000000000E+00  0.65702730942E+03  0.65702730942E+03  0.00000000000E+00 0.  1.
         21   -1    0    0  502  504 -0.00000000000E+00 -0.00000000000E+00 -0.99998566194E+02  0.99998566194E+02  0.00000000000E+00 0.  1.
          6    2    1    2  502    0 -0.11774299857E+03 -0.37378715130E+02  0.68288029629E+02  0.22406140804E+03  0.17401056728E+03 0.  0.
         24    2    3    3    0    0 -0.12221453050E+03  0.23121613486E+02  0.24164346163E+02  0.14889975690E+03  0.78206275341E+02 0.  0.
         -6    2    1    2    0  503  0.11774299857E+03  0.37378715130E+02  0.48874071359E+03  0.53296446757E+03  0.17298282143E+03 0.  0.
        -24    2    5    5    0    0  0.87366913851E+02 -0.30156706403E+02  0.39402860049E+03  0.41264732808E+03  0.80479033273E+02 0.  0.
          4    1    4    4  501    0 -0.35480593997E+02 -0.28862555451E+02  0.54167215025E+01  0.46057144173E+02  0.00000000000E+00 0. -1.
         -3    1    4    4    0  501 -0.86733936501E+02  0.51984168937E+02  0.18747624661E+02  0.10284261272E+03  0.00000000000E+00 0.  1.
          5    1    3    3  502    0  0.44715319280E+01 -0.60500328617E+02  0.44123683465E+02  0.75161651146E+02  0.47000000000E+01 0. -1.
         13    1    6    6    0    0  0.36484464719E+01  0.22084218957E+02  0.10094162424E+03  0.10339359455E+03  0.00000000000E+00 0. -1.
        -14    1    6    6    0    0  0.83718467379E+02 -0.52240925360E+02  0.29308697624E+03  0.30925373354E+03  0.00000000000E+00 0.  1.
         -5    1    5    5    0  503  0.30376084719E+02  0.67535421533E+02  0.94712113108E+02  0.12031713949E+03  0.47000000000E+01 0.  1.
<mgrwt>
<rscale>  2 0.21319203E+03</rscale>
<asrwt>0</asrwt>
<pdfrwt beam="1">  1       21 0.10108112E+00 0.21340164E+03</pdfrwt>
<pdfrwt beam="2">  1       21 0.15384395E-01 0.21340164E+03</pdfrwt>
<totfact> 0.29626484E+04</totfact>
</mgrwt>
</event>
<event>
12    1  0.2768653E-001  0.1765693E+03  0.7546771E-02  0.1171242E+00
         21   -1    0    0  504  503  0.00000000000E+00  0.00000000000E+00  0.19440348635E+04  0.19440348635E+04  0.00000000000E+00 0. -1.
         21   -1    0    0  502  504 -0.00000000000E+00 -0.00000000000E+00 -0.16009320202E+02  0.16009320202E+02  0.00000000000E+00 0. -1.
          6    2    1    2  502    0  0.27560449379E+02  0.24788216377E+02  0.96017760048E+03  0.97622186794E+03  0.17231969398E+03 0.  0.
         24    2    3    3    0    0  0.20403426377E+02 -0.24086475575E+01  0.20353683690E+03  0.21904406352E+03  0.78300423999E+02 0.  0.
         -6    2    1    2    0  503 -0.27560449379E+02 -0.24788216377E+02  0.96784794279E+03  0.98382231574E+03  0.17263451143E+03 0.  0.
        -24    2    5    5    0    0 -0.21321863345E+02 -0.19971399985E+02  0.97051915462E+03  0.97426475075E+03  0.80192869928E+02 0.  0.
          4    1    4    4  501    0  0.48979491860E+02  0.80202953751E+01  0.10983626906E+03  0.12052933984E+03  0.00000000000E+00 0. -1.
         -3    1    4    4    0  501 -0.28576065483E+02 -0.10428942933E+02  0.93700567838E+02  0.98514723683E+02  0.00000000000E+00 0.  1.
          5    1    3    3  502    0  0.71570230022E+01  0.27196863934E+02  0.75664076358E+03  0.75717780442E+03  0.47000000000E+01 0. -1.
         11    1    6    6    0    0  0.45524415534E+01 -0.38925977833E+02  0.25193187855E+03  0.25496201267E+03  0.00000000000E+00 0. -1.
        -12    1    6    6    0    0 -0.25874304898E+02  0.18954577847E+02  0.71858727607E+03  0.71930273808E+03  0.00000000000E+00 0.  1.
         -5    1    5    5    0  503 -0.62385860342E+01 -0.48168163916E+01 -0.26712118327E+01  0.95575649886E+01  0.47000000000E+01 0.  1.
<mgrwt>
<rscale>  2 0.17649228E+03</rscale>
<asrwt>0</asrwt>
<pdfrwt beam="1">  1       21 0.29908210E+00 0.17656927E+03</pdfrwt>
<pdfrwt beam="2">  1       21 0.24629739E-02 0.17656927E+03</pdfrwt>
<totfact> 0.30743612E+04</totfact>
</mgrwt>
</event>
<event>
12    1  0.2768653E-001  0.1855399E+03  0.7546771E-02  0.1164438E+00
         21   -1    0    0  504  503  0.00000000000E+00  0.00000000000E+00  0.11166045476E+04  0.11166045476E+04  0.00000000000E+00 0.  1.
         21   -1    0    0  502  504 -0.00000000000E+00 -0.00000000000E+00 -0.29936183299E+02  0.29936183299E+02  0.00000000000E+00 0. -1.
          6    2    1    2  502    0 -0.22883469952E+02  0.43591524751E+02  0.62229527959E+03  0.64936620172E+03  0.17888872160E+03 0.  0.
         24    2    3    3    0    0  0.27525479982E+00  0.41237025559E+01  0.58534766831E+03  0.59036407040E+03  0.76686127443E+02 0.  0.
         -6    2    1    2    0  503  0.22883469952E+02 -0.43591524751E+02  0.46437308472E+03  0.49717452918E+03  0.17063492148E+03 0.  0.
        -24    2    5    5    0    0  0.81592196136E+02 -0.32522505740E+02  0.34792174207E+03  0.36620795743E+03  0.73100818254E+02 0.  0.
          4    1    4    4  501    0 -0.50754856848E+01  0.27906609759E+02  0.88836491074E+02  0.93254820624E+02  0.00000000000E+00 0. -1.
         -3    1    4    4    0  501  0.53507404846E+01 -0.23782907203E+02  0.49651117723E+03  0.49710924978E+03  0.00000000000E+00 0.  1.
          5    1    3    3  502    0 -0.23158724752E+02  0.39467822195E+02  0.36947611278E+02  0.59002131318E+02  0.47000000000E+01 0. -1.
         13    1    6    6    0    0  0.66596088065E+02 -0.44902200783E+02  0.17929387696E+03  0.19646256869E+03  0.00000000000E+00 0. -1.
        -14    1    6    6    0    0  0.14996108071E+02  0.12379695043E+02  0.16862786512E+03  0.16974538875E+03  0.00000000000E+00 0.  1.
         -5    1    5    5    0  503 -0.58708726184E+02 -0.11069019011E+02  0.11645134265E+03  0.13096657175E+03  0.47000000000E+01 0.  1.
<mgrwt>
<rscale>  2 0.18352107E+03</rscale>
<asrwt>0</asrwt>
<pdfrwt beam="1">  1       21 0.17178528E+00 0.18553989E+03</pdfrwt>
<pdfrwt beam="2">  1       21 0.46055675E-02 0.18553989E+03</pdfrwt>
<totfact> 0.64344345E+04</totfact>
</mgrwt>
</event>
<event>
12    1  0.2768653E-001  0.1769910E+03  0.7546771E-02  0.1170790E+00
         21   -1    0    0  504  503  0.00000000000E+00  0.00000000000E+00  0.73023988517E+02  0.73023988517E+02  0.00000000000E+00 0.  1.
         21   -1    0    0  502  504 -0.00000000000E+00 -0.00000000000E+00 -0.42924709271E+03  0.42924709271E+03  0.00000000000E+00 0.  1.
          6    2    1    2  502    0  0.13401117235E+01  0.39843352232E+02 -0.16819071569E+03  0.24415962398E+03  0.17244279203E+03 0.  0.
         24    2    3    3    0    0 -0.51074313276E+02  0.34352895628E+02 -0.16155163379E+03  0.19083435351E+03  0.80809115742E+02 0.  0.
         -6    2    1    2    0  503 -0.13401117235E+01 -0.39843352232E+02 -0.18803238851E+03  0.25811145725E+03  0.17226739859E+03 0.  0.
        -24    2    5    5    0    0 -0.56284278154E+02  0.16721398508E+02 -0.91976552145E+02  0.13374407346E+03  0.77332178980E+02 0.  0.
          4    1    4    4  501    0 -0.14131133198E+02 -0.25742983683E+02 -0.32810549765E+02  0.44033195549E+02  0.00000000000E+00 0. -1.
         -3    1    4    4    0  501 -0.36943180078E+02  0.60095879312E+02 -0.12874108402E+03  0.14680115796E+03  0.00000000000E+00 0.  1.
          5    1    3    3  502    0  0.52414425000E+02  0.54904566036E+01 -0.66390818998E+01  0.53325270466E+02  0.47000000000E+01 0. -1.
         11    1    6    6    0    0 -0.35035360559E+02  0.30652705132E+02 -0.97228657180E+02  0.10779831445E+03  0.00000000000E+00 0. -1.
        -12    1    6    6    0    0 -0.21248917595E+02 -0.13931306624E+02  0.52521050353E+01  0.25945759009E+02  0.00000000000E+00 0.  1.
         -5    1    5    5    0  503  0.54944166431E+02 -0.56564750739E+02 -0.96055836360E+02  0.12436738379E+03  0.47000000000E+01 0.  1.
<mgrwt>
<rscale>  2 0.17694824E+03</rscale>
<asrwt>0</asrwt>
<pdfrwt beam="1">  1       21 0.11234460E-01 0.17699097E+03</pdfrwt>
<pdfrwt beam="2">  1       21 0.66038015E-01 0.17699097E+03</pdfrwt>
<totfact> 0.13973504E+05</totfact>
</mgrwt>
</event>
<event>
12    1  0.2768653E-001  0.1955033E+03  0.7546771E-02  0.1153872E+00
         21   -1    0    0  504  503  0.00000000000E+00  0.00000000000E+00  0.69061015759E+02  0.69061015759E+02  0.00000000000E+00 0.  1.
         21   -1    0    0  502  504 -0.00000000000E+00 -0.00000000000E+00 -0.56309551709E+03  0.56309551709E+03  0.00000000000E+00 0.  1.
          6    2    1    2  502    0  0.73334499398E+02 -0.53847206926E+02 -0.29642339444E+03  0.35508925485E+03  0.17304357729E+03 0.  0.
         24    2    3    3    0    0  0.49156888014E+01  0.28362660734E+02 -0.17089577918E+03  0.19010783717E+03  0.78147411306E+02 0.  0.
         -6    2    1    2    0  503 -0.73334499398E+02  0.53847206926E+02 -0.19761110689E+03  0.27706727800E+03  0.17157696954E+03 0.  0.
        -24    2    5    5    0    0  0.89962261750E+00  0.55064967674E+02 -0.17310953125E+03  0.19874355859E+03  0.80617195986E+02 0.  0.
          4    1    4    4  501    0 -0.11902399323E+02  0.52506445150E+02 -0.11237226546E+03  0.12460385201E+03  0.00000000000E+00 0. -1.
         -3    1    4    4    0  501  0.16818088124E+02 -0.24143784416E+02 -0.58523513717E+02  0.65503985160E+02  0.00000000000E+00 0.  1.
          5    1    3    3  502    0  0.68418810596E+02 -0.82209867660E+02 -0.12552761527E+03  0.16498141768E+03  0.47000000000E+01 0. -1.
         13    1    6    6    0    0 -0.21756409869E+02  0.21727785482E+02 -0.14820977512E+03  0.15136570111E+03  0.00000000000E+00 0. -1.
        -14    1    6    6    0    0  0.22656032487E+02  0.33337182192E+02 -0.24899756130E+02  0.47377857485E+02  0.00000000000E+00 0.  1.
         -5    1    5    5    0  503 -0.74234122015E+02 -0.12177607481E+01 -0.24501575643E+02  0.78323719406E+02  0.47000000000E+01 0.  1.
<mgrwt>
<rscale>  2 0.19517828E+03</rscale>
<asrwt>0</asrwt>
<pdfrwt beam="1">  1       21 0.10624771E-01 0.19550333E+03</pdfrwt>
<pdfrwt beam="2">  1       21 0.86630083E-01 0.19550333E+03</pdfrwt>
<totfact> 0.83517419E+04</totfact>
</mgrwt>
</event>
<event>
12    1  0.2768653E-001  0.2148809E+03  0.7546771E-02  0.1137789E+00
         21   -1    0    0  504  503  0.00000000000E+00  0.00000000000E+00  0.60229025539E+02  0.60229025539E+02  0.00000000000E+00 0.  1.
         21   -1    0    0  502  504 -0.00000000000E+00 -0.00000000000E+00 -0.78431949223E+03  0.78431949223E+03  0.00000000000E+00 0. -1.
          6    2    1    2  502    0 -0.30489696936E+02 -0.12450867148E+03 -0.42661086069E+03  0.47767209631E+03  0.17245803618E+03 0.  0.
         24    2    3    3    0    0 -0.69748144565E+02 -0.13329795024E+03 -0.37136146783E+03  0.40916616560E+03  0.82912387933E+02 0.  0.
         -6    2    1    2    0  503  0.30489696936E+02  0.12450867148E+03 -0.29747960600E+03  0.36687642146E+03  0.17225609349E+03 0.  0.
        -24    2    5    5    0    0 -0.17377696631E+02  0.14153694184E+03 -0.22114649791E+03  0.27506093938E+03  0.80112774204E+02 0.  0.
          4    1    4    4  501    0 -0.55569417665E+02 -0.71336870912E+02 -0.30125900025E+03  0.31453758847E+03  0.00000000000E+00 0. -1.
         -3    1    4    4    0  501 -0.14178726900E+02 -0.61961079329E+02 -0.70102467588E+02  0.94628577132E+02  0.00000000000E+00 0.  1.
          5    1    3    3  502    0  0.39258447629E+02  0.87892787634E+01 -0.55249392851E+02  0.68505930705E+02  0.47000000000E+01 0. -1.
         11    1    6    6    0    0 -0.25150840606E+02  0.30913864645E+02 -0.11437505637E+03  0.12111930205E+03  0.00000000000E+00 0. -1.
        -12    1    6    6    0    0  0.77731439754E+01  0.11062307719E+03 -0.10677144154E+03  0.15394163733E+03  0.00000000000E+00 0.  1.
         -5    1    5    5    0  503  0.47867393567E+02 -0.17028270359E+02 -0.76333108093E+02  0.91815482079E+02  0.47000000000E+01 0.  1.
<mgrwt>
<rscale>  2 0.21484039E+03</rscale>
<asrwt>0</asrwt>
<pdfrwt beam="1">  1       21 0.92660043E-02 0.21488091E+03</pdfrwt>
<pdfrwt beam="2">  1       21 0.12066453E+00 0.21488091E+03</pdfrwt>
<totfact> 0.47783547E+04</totfact>
</mgrwt>
</event>
<event>
12    1  0.2768653E-001  0.1944604E+03  0.7546771E-02  0.1154729E+00
         21   -1    0    0  504  503  0.00000000000E+00  0.00000000000E+00  0.80037010266E+03  0.80037010266E+03  0.00000000000E+00 0.  1.
         21   -1    0    0  502  504 -0.00000000000E+00 -0.00000000000E+00 -0.48598957424E+02  0.48598957424E+02  0.00000000000E+00 0.  1.
          6    2    1    2  502    0  0.86579675071E+02  0.18961915468E+02  0.45209011380E+03  0.49172464659E+03  0.17190713392E+03 0.  0.
         24    2    3    3    0    0  0.27162948580E+02  0.69193218184E+02  0.32639652585E+03  0.34382434500E+03  0.78453558920E+02 0.  0.
         -6    2    1    2    0  503 -0.86579675071E+02 -0.18961915468E+02  0.29968103143E+03  0.35724441349E+03  0.17308742299E+03 0.  0.
        -24    2    5    5    0    0 -0.99867526418E+02  0.19930892843E+02  0.20338096243E+03  0.25243501114E+03  0.10949363291E+03 0.  0.
          2    1    4    4  501    0  0.47918882353E+02  0.35041862053E+02  0.25677556240E+03  0.26354855497E+03  0.00000000000E+00 0. -1.
         -1    1    4    4    0  501 -0.20755933773E+02  0.34151356131E+02  0.69620963451E+02  0.80275790026E+02  0.00000000000E+00 0.  1.
          5    1    3    3  502    0  0.59416726491E+02 -0.50231302716E+02  0.12569358795E+03  0.14790030159E+03  0.47000000000E+01 0. -1.
         13    1    6    6    0    0 -0.83658886377E+02  0.31550565489E+02  0.21247143437E+03  0.23051758691E+03  0.00000000000E+00 0. -1.
        -14    1    6    6    0    0 -0.16208640041E+02 -0.11619672646E+02 -0.90904719444E+01  0.21917424223E+02  0.00000000000E+00 0.  1.
         -5    1    5    5    0  503  0.13287851348E+02 -0.38892808311E+02  0.96300069006E+02  0.10480940236E+03  0.47000000000E+01 0.  1.
<mgrwt>
<rscale>  2 0.19419742E+03</rscale>
<asrwt>0</asrwt>
<pdfrwt beam="1">  1       21 0.12313385E+00 0.19446041E+03</pdfrwt>
<pdfrwt beam="2">  1       21 0.74767633E-02 0.19446041E+03</pdfrwt>
<totfact> 0.66789926E+04</totfact>
</mgrwt>
</event>
<event>
12    1  0.2768653E-001  0.1992338E+03  0.7546771E-02  0.1150428E+00
         21   -1    0    0  504  503  0.00000000000E+00  0.00000000000E+00  0.17828232070E+04  0.17828232070E+04  0.00000000000E+00 0. -1.
         21   -1    0    0  502  504 -0.00000000000E+00 -0.00000000000E+00 -0.77811891950E+02  0.77811891950E+02  0.00000000000E+00 0. -1.
          6    2    1    2  502    0 -0.61083202558E+02 -0.76940201095E+02  0.66441593996E+02  0.21002042313E+03  0.17332957203E+03 0.  0.
         24    2    3    3    0    0 -0.36115570523E+02  0.26813466549E+01  0.87529821450E+02  0.12382426978E+03  0.79746197962E+02 0.  0.
         -6    2    1    2    0  503  0.61083202558E+02  0.76940201095E+02  0.16385697210E+04  0.16506146758E+04  0.17311015305E+03 0.  0.
        -24    2    5    5    0    0  0.52620433780E+02  0.10671858768E+03  0.15521882760E+04  0.15587331499E+04  0.78757991932E+02 0.  0.
          4    1    4    4  501    0 -0.30942129264E+02 -0.36290047656E+02  0.40840292242E+02  0.62787836344E+02  0.00000000000E+00 0. -1.
         -3    1    4    4    0  501 -0.51734412586E+01  0.38971394311E+02  0.46689529208E+02  0.61036433437E+02  0.00000000000E+00 0.  1.
          5    1    3    3  502    0 -0.24967632035E+02 -0.79621547750E+02 -0.21088227454E+02  0.86196153352E+02  0.47000000000E+01 0. -1.
         11    1    6    6    0    0  0.53327487931E+02  0.72947757141E+02  0.69106667241E+03  0.69694931089E+03  0.00000000000E+00 0. -1.
        -12    1    6    6    0    0 -0.70705415045E+00  0.33770830537E+02  0.86112160364E+03  0.86178383901E+03  0.00000000000E+00 0.  1.
         -5    1    5    5    0  503  0.84627687774E+01 -0.29778386583E+02  0.86381444967E+02  0.91881525877E+02  0.47000000000E+01 0.  1.
<mgrwt>
<rscale>  2 0.19918603E+03</rscale>
<asrwt>0</asrwt>
<pdfrwt beam="1">  1       21 0.27428046E+00 0.19923376E+03</pdfrwt>
<pdfrwt beam="2">  1       21 0.11971062E-01 0.19923376E+03</pdfrwt>
<totfact> 0.28085201E+03</totfact>
</mgrwt>
</event>
<event>
12    1  0.2768653E-001  0.2677514E+03  0.7546771E-02  0.1102789E+00
         21   -1    0    0  504  503  0.00000000000E+00  0.00000000000E+00  0.39642412476E+03  0.39642412476E+03  0.00000000000E+00 0. -1.
         21   -1    0    0  502  504 -0.00000000000E+00 -0.00000000000E+00 -0.18057920931E+03  0.18057920931E+03  0.00000000000E+00 0.  1.
          6    2    1    2  502    0 -0.39455400433E+01 -0.20309760754E+03  0.12665963941E+03  0.29619833856E+03  0.17443218176E+03 0.  0.
         24    2    3    3    0    0 -0.38694650180E+02 -0.52907428374E+02  0.14930900061E+02  0.10575151719E+03  0.81633202076E+02 0.  0.
         -6    2    1    2    0  503  0.39455400433E+01  0.20309760754E+03  0.89185276039E+02  0.28080499552E+03  0.17214304103E+03 0.  0.
        -24    2    5    5    0    0 -0.55856742831E+02  0.16913902638E+03  0.50316114951E+02  0.20166966868E+03  0.80068457435E+02 0.  0.
          4    1    4    4  501    0  0.12330388384E+02 -0.44911199677E+02 -0.11154278951E+02  0.47890210618E+02  0.00000000000E+00 0. -1.
         -3    1    4    4    0  501 -0.51025038563E+02 -0.79962286970E+01  0.26085179013E+02  0.57861306569E+02  0.00000000000E+00 0.  1.
          5    1    3    3  502    0  0.34749110136E+02 -0.15019017916E+03  0.11172873935E+03  0.19044682137E+03  0.47000000000E+01 0. -1.
         13    1    6    6    0    0 -0.35187933920E+02  0.14401974277E+03  0.69678283166E+02  0.16381373613E+03  0.00000000000E+00 0. -1.
        -14    1    6    6    0    0 -0.20668808911E+02  0.25119283617E+02 -0.19362168214E+02  0.37855932550E+02  0.00000000000E+00 0.  1.
         -5    1    5    5    0  503  0.59802282875E+02  0.33958581155E+02  0.38869161087E+02  0.79135326844E+02  0.47000000000E+01 0.  1.
<mgrwt>
<rscale>  2 0.26737917E+03</rscale>
<asrwt>0</asrwt>
<pdfrwt beam="1">  1       21 0.60988327E-01 0.26775136E+03</pdfrwt>
<pdfrwt beam="2">  1       21 0.27781417E-01 0.26775136E+03</pdfrwt>
<totfact> 0.29838931E+04</totfact>
</mgrwt>
</event>
<event>
12    1  0.2768653E-001  0.2019287E+03  0.7546771E-02  0.1149414E+00
         21   -1    0    0  504  503  0.00000000000E+00  0.00000000000E+00  0.35719386855E+02  0.35719386855E+02  0.00000000000E+00 0.  1.
         21   -1    0    0  502  504 -0.00000000000E+00 -0.00000000000E+00 -0.11829909631E+04  0.11829909631E+04  0.00000000000E+00 0. -1.
          6    2    1    2  502    0 -0.17901734839E+02 -0.97424054208E+02 -0.71950812319E+03  0.74568101468E+03  0.16892696014E+03 0.  0.
         24    2    3    3    0    0  0.45833807162E+02 -0.75133063931E+02 -0.34082632775E+03  0.36099789864E+03  0.80069856772E+02 0.  0.
         -6    2    1    2    0  503  0.17901734839E+02  0.97424054208E+02 -0.42776345306E+03  0.47302933528E+03  0.17596380826E+03 0.  0.
        -24    2    5    5    0    0  0.57090245631E+02  0.11376017673E+03 -0.37875881585E+03  0.40802046861E+03  0.82594117656E+02 0.  0.
          2    1    4    4  501    0  0.40967371134E+02 -0.66991822381E+00 -0.16461172611E+03  0.16963429683E+03  0.00000000000E+00 0. -1.
         -1    1    4    4    0  501  0.48664360279E+01 -0.74463145707E+02 -0.17621460164E+03  0.19136360181E+03  0.00000000000E+00 0.  1.
          5    1    3    3  502    0 -0.63735542001E+02 -0.22290990277E+02 -0.37868179544E+03  0.38468311603E+03  0.47000000000E+01 0. -1.
         11    1    6    6    0    0  0.11171297843E+02  0.27875927270E+00 -0.13290537962E+03  0.13337434361E+03  0.00000000000E+00 0. -1.
        -12    1    6    6    0    0  0.45918947788E+02  0.11348141746E+03 -0.24585343623E+03  0.27464612500E+03  0.00000000000E+00 0.  1.
         -5    1    5    5    0  503 -0.39188510792E+02 -0.16336122523E+02 -0.49004637212E+02  0.65008866668E+02  0.47000000000E+01 0.  1.
<mgrwt>
<rscale>  2 0.20038566E+03</rscale>
<asrwt>0</asrwt>
<pdfrwt beam="1">  1       21 0.54952903E-02 0.20192865E+03</pdfrwt>
<pdfrwt beam="2">  1       21 0.18199861E+00 0.20192865E+03</pdfrwt>
<totfact> 0.40164507E+04</totfact>
</mgrwt>
</event>
<event>
12    1  0.2768653E-001  0.2025098E+03  0.7546771E-02  0.1147794E+00
         21   -1    0    0  504  503  0.00000000000E+00  0.00000000000E+00  0.63240426146E+02  0.63240426146E+02  0.00000000000E+00 0.  1.
         21   -1    0    0  502  504 -0.00000000000E+00 -0.00000000000E+00 -0.64698737099E+03  0.64698737099E+03  0.00000000000E+00 0. -1.
          6    2    1    2  502    0 -0.10257948373E+03  0.17947108486E+02 -0.27915668480E+03  0.34487488275E+03  0.17368241390E+03 0.  0.
         24    2    3    3    0    0 -0.29961626022E+02  0.70352865848E+02 -0.12714056324E+03  0.16837925142E+03  0.79621760353E+02 0.  0.
         -6    2    1    2    0  503  0.10257948373E+03 -0.17947108486E+02 -0.30459026005E+03  0.36535291439E+03  0.17280878551E+03 0.  0.
        -24    2    5    5    0    0  0.11997311559E+03  0.68509789570E+01 -0.15231729580E+03  0.21002542420E+03  0.80434046471E+02 0.  0.
          4    1    4    4  501    0 -0.29385536042E+02  0.61714691959E+02 -0.13829159735E+03  0.15426204598E+03  0.00000000000E+00 0. -1.
         -3    1    4    4    0  501 -0.57608998030E+00  0.86381738890E+01  0.11151034110E+02  0.14117205444E+02  0.00000000000E+00 0.  1.
          5    1    3    3  502    0 -0.72617857710E+02 -0.52405757362E+02 -0.15201612156E+03  0.17649563133E+03  0.47000000000E+01 0. -1.
         13    1    6    6    0    0  0.18871341739E+02 -0.12294754843E+02 -0.82889558286E+02  0.85895095370E+02  0.00000000000E+00 0. -1.
        -14    1    6    6    0    0  0.10110177385E+03  0.19145733800E+02 -0.69427737517E+02  0.12413032883E+03  0.00000000000E+00 0.  1.
         -5    1    5    5    0  503 -0.17393631855E+02 -0.24798087443E+02 -0.15227296424E+03  0.15532749019E+03  0.47000000000E+01 0.  1.
<mgrwt>
<rscale>  2 0.20232238E+03</rscale>
<asrwt>0</asrwt>
<pdfrwt beam="1">  1       21 0.97292969E-02 0.20250983E+03</pdfrwt>
<pdfrwt beam="2">  1       21 0.99536513E-01 0.20250983E+03</pdfrwt>
<totfact> 0.70367811E+04</totfact>
</mgrwt>
</event>
<event>
12    1  0.2768653E-001  0.2662648E+03  0.7546771E-02  0.1104903E+00
         21   -1    0    0  504  503  0.00000000000E+00  0.00000000000E+00  0.27204308958E+03  0.27204308958E+03  0.00000000000E+00 0. -1.
         21   -1    0    0  502  504 -0.00000000000E+00 -0.00000000000E+00 -0.48985773338E+03  0.48985773338E+03  0.00000000000E+00 0.  1.
          6    2    1    2  502    0  0.13096614523E+03  0.13603470084E+03 -0.37381933422E+03  0.45330011911E+03  0.17344316741E+03 0.  0.
         24    2    3    3    0    0  0.12263092708E+03  0.11856099526E+03 -0.18663676039E+03  0.26506034597E+03  0.79552830267E+02 0.  0.
         -6    2    1    2    0  503 -0.13096614523E+03 -0.13603470084E+03  0.15600469042E+03  0.30860070385E+03  0.18772149572E+03 0.  0.
        -24    2    5    5    0    0 -0.46049590502E+02 -0.14812840088E+03  0.13480761060E+03  0.22012197737E+03  0.78854328417E+02 0.  0.
          2    1    4    4  501    0  0.27372754083E+02  0.27764527379E+02 -0.29531043132E+01  0.39100607051E+02  0.00000000000E+00 0. -1.
         -1    1    4    4    0  501  0.95258172995E+02  0.90796467877E+02 -0.18368365608E+03  0.22595973892E+03  0.00000000000E+00 0.  1.
          5    1    3    3  502    0  0.83352181472E+01  0.17473705585E+02 -0.18718257382E+03  0.18823977314E+03  0.47000000000E+01 0. -1.
         13    1    6    6    0    0 -0.55441862812E+02 -0.11889658778E+03  0.13656524573E+03  0.18936806774E+03  0.00000000000E+00 0. -1.
        -14    1    6    6    0    0  0.93922723094E+01 -0.29231813104E+02 -0.17576351220E+01  0.30753909633E+02  0.00000000000E+00 0.  1.
         -5    1    5    5    0  503 -0.84916554723E+02  0.12093700042E+02  0.21197079816E+02  0.88478726479E+02  0.47000000000E+01 0.  1.
<mgrwt>
<rscale>  2 0.26376313E+03</rscale>
<asrwt>0</asrwt>
<pdfrwt beam="1">  1       21 0.41852783E-01 0.26626478E+03</pdfrwt>
<pdfrwt beam="2">  1       21 0.75362728E-01 0.26626478E+03</pdfrwt>
<totfact> 0.82548236E+03</totfact>
</mgrwt>
</event>
<event>
12    1  0.2768653E-001  0.1916226E+03  0.7546771E-02  0.1157551E+00
         21   -1    0    0  504  503  0.00000000000E+00  0.00000000000E+00  0.21431091105E+03  0.21431091105E+03  0.00000000000E+00 0. -1.
         21   -1    0    0  502  504 -0.00000000000E+00 -0.00000000000E+00 -0.28776304575E+03  0.28776304575E+03  0.00000000000E+00 0. -1.
          6    2    1    2  502    0  0.51067048479E+02 -0.58239253292E+02 -0.19774296364E+03  0.27367205237E+03  0.17261071378E+03 0.  0.
         24    2    3    3    0    0 -0.22392749699E+02  0.27695501414E+01 -0.13404703179E+03  0.15879090605E+03  0.82078252084E+02 0.  0.
         -6    2    1    2    0  503 -0.51067048479E+02  0.58239253292E+02  0.12429082895E+03  0.22840190443E+03  0.17526997953E+03 0.  0.
        -24    2    5    5    0    0 -0.33970054952E+02  0.94884565263E+02  0.13481571832E+03  0.18635372524E+03  0.79971167579E+02 0.  0.
          2    1    4    4  501    0 -0.36870044016E+02  0.13149208114E+02 -0.13538162966E+03  0.14092724176E+03  0.00000000000E+00 0. -1.
         -1    1    4    4    0  501  0.14477294317E+02 -0.10379657973E+02  0.13345978729E+01  0.17863664289E+02  0.00000000000E+00 0.  1.
          5    1    3    3  502    0  0.73459798179E+02 -0.61008803433E+02 -0.63695931849E+02  0.11488114632E+03  0.47000000000E+01 0. -1.
         13    1    6    6    0    0  0.24678280469E+02  0.21315250771E+02  0.21450411767E+02  0.39031751271E+02  0.00000000000E+00 0. -1.
        -14    1    6    6    0    0 -0.58648335421E+02  0.73569314492E+02  0.11336530656E+03  0.14732197397E+03  0.00000000000E+00 0.  1.
         -5    1    5    5    0  503 -0.17096993527E+02 -0.36645311971E+02 -0.10524889379E+02  0.42048179194E+02  0.47000000000E+01 0.  1.
<mgrwt>
<rscale>  2 0.19101237E+03</rscale>
<asrwt>0</asrwt>
<pdfrwt beam="1">  1       21 0.32970909E-01 0.19162260E+03</pdfrwt>
<pdfrwt beam="2">  1       21 0.44271238E-01 0.19162260E+03</pdfrwt>
<totfact> 0.43418494E+04</totfact>
</mgrwt>
</event>
<event>
12    1  0.2768653E-001  0.2159245E+03  0.7546771E-02  0.1136996E+00
         21   -1    0    0  504  503  0.00000000000E+00  0.00000000000E+00  0.24073286483E+03  0.24073286483E+03  0.00000000000E+00 0.  1.
         21   -1    0    0  502  504 -0.00000000000E+00 -0.00000000000E+00 -0.31576583519E+03  0.31576583519E+03  0.00000000000E+00 0.  1.
          6    2    1    2  502    0 -0.69895216998E+02 -0.10769485416E+03 -0.21067263094E+03  0.30167255081E+03  0.17360831637E+03 0.  0.
         24    2    3    3    0    0 -0.79503232527E+02 -0.60574670316E+02 -0.21812421764E+03  0.25278245127E+03  0.79565939238E+02 0.  0.
         -6    2    1    2    0  503  0.69895216998E+02  0.10769485416E+03  0.13563966057E+03  0.25482614922E+03  0.17336298865E+03 0.  0.
        -24    2    5    5    0    0  0.21814484848E+02  0.10934817191E+03  0.15130697673E+03  0.20401232177E+03  0.79336824867E+02 0.  0.
          4    1    4    4  501    0 -0.32432314715E+02 -0.63928442437E+02 -0.17395464216E+03  0.18814600266E+03  0.00000000000E+00 0. -1.
         -3    1    4    4    0  501 -0.47070917812E+02  0.33537721210E+01 -0.44169575479E+02  0.64636448612E+02  0.00000000000E+00 0.  1.
          5    1    3    3  502    0  0.96080155290E+01 -0.47120183844E+02  0.74515866981E+01  0.48890099532E+02  0.47000000000E+01 0. -1.
         11    1    6    6    0    0  0.59865371408E+00 -0.63521078486E+01  0.45040960773E+02  0.45490612303E+02  0.00000000000E+00 0. -1.
        -12    1    6    6    0    0  0.21215831134E+02  0.11570027976E+03  0.10626601596E+03  0.15852170947E+03  0.00000000000E+00 0.  1.
         -5    1    5    5    0  503  0.48080732150E+02 -0.16533177463E+01 -0.15667316159E+02  0.50813827442E+02  0.47000000000E+01 0.  1.
<mgrwt>
<rscale>  2 0.21587514E+03</rscale>
<asrwt>0</asrwt>
<pdfrwt beam="1">  1       21 0.37035825E-01 0.21592446E+03</pdfrwt>
<pdfrwt beam="2">  1       21 0.48579359E-01 0.21592446E+03</pdfrwt>
<totfact> 0.28088591E+04</totfact>
</mgrwt>
</event>
<event>
12    1  0.2768653E-001  0.1799878E+03  0.7546771E-02  0.1168041E+00
         21   -1    0    0  504  503  0.00000000000E+00  0.00000000000E+00  0.32415031958E+03  0.32415031958E+03  0.00000000000E+00 0. -1.
         21   -1    0    0  502  504 -0.00000000000E+00 -0.00000000000E+00 -0.42502843206E+03  0.42502843206E+03  0.00000000000E+00 0. -1.
          6    2    1    2  502    0  0.44210891782E+02  0.75105195601E+01 -0.37827133440E+03  0.41850879838E+03  0.17334763060E+03 0.  0.
         24    2    3    3    0    0 -0.22089962239E+02  0.41777540763E+02 -0.27386514959E+03  0.29008460513E+03  0.83148232856E+02 0.  0.
         -6    2    1    2    0  503 -0.44210891782E+02 -0.75105195601E+01  0.27739322191E+03  0.33066995326E+03  0.17431181134E+03 0.  0.
        -24    2    5    5    0    0 -0.29650568707E+02 -0.27784935580E+02  0.28934817869E+03  0.30259744100E+03  0.78687253874E+02 0.  0.
          4    1    4    4  501    0 -0.45396052304E+02  0.13563744229E+02 -0.21946617213E+03  0.22452210900E+03  0.00000000000E+00 0. -1.
         -3    1    4    4    0  501  0.23306090065E+02  0.28213796535E+02 -0.54398977461E+02  0.65562496122E+02  0.00000000000E+00 0.  1.
          5    1    3    3  502    0  0.66300854021E+02 -0.34267021203E+02 -0.10440618481E+03  0.12842419325E+03  0.47000000000E+01 0. -1.
         13    1    6    6    0    0 -0.40039392972E+02  0.15616261104E+02  0.11984471803E+03  0.12731762266E+03  0.00000000000E+00 0. -1.
        -14    1    6    6    0    0  0.10388824265E+02 -0.43401196684E+02  0.16950346066E+03  0.17527981834E+03  0.00000000000E+00 0.  1.
         -5    1    5    5    0  503 -0.14560323075E+02  0.20274416020E+02 -0.11954956776E+02  0.28072512259E+02  0.47000000000E+01 0.  1.
<mgrwt>
<rscale>  2 0.17975397E+03</rscale>
<asrwt>0</asrwt>
<pdfrwt beam="1">  1       21 0.49869280E-01 0.17998783E+03</pdfrwt>
<pdfrwt beam="2">  1       21 0.65388990E-01 0.17998783E+03</pdfrwt>
<totfact> 0.83179863E+03</totfact>
</mgrwt>
</event>
<event>
12    1  0.2768653E-001  0.2292913E+03  0.7546771E-02  0.1127376E+00
         21   -1    0    0  504  503  0.00000000000E+00  0.00000000000E+00  0.14141991789E+03  0.14141991789E+03  0.00000000000E+00 0. -1.
         21   -1    0    0  502  504 -0.00000000000E+00 -0.00000000000E+00 -0.49170101759E+03  0.49170101759E+03  0.00000000000E+00 0.  1.
          6    2    1    2  502    0 -0.44435356380E+00 -0.14863527403E+03 -0.33250529337E+03  0.40314163864E+03  0.17283161907E+03 0.  0.
         24    2    3    3    0    0  0.48380150812E+02 -0.15254938515E+03 -0.26391934106E+03  0.31873029256E+03  0.79521235569E+02 0.  0.
         -6    2    1    2    0  503  0.44435356380E+00  0.14863527403E+03 -0.17775806333E+02  0.22997929684E+03  0.17459053682E+03 0.  0.
        -24    2    5    5    0    0  0.58715731146E+02  0.76061377038E+02  0.25291274189E+02  0.12731777827E+03  0.79607147620E+02 0.  0.
          2    1    4    4  501    0  0.59277444587E+02 -0.10979035176E+03 -0.14177271203E+03  0.18885772066E+03  0.00000000000E+00 0. -1.
         -1    1    4    4    0  501 -0.10897293775E+02 -0.42759033386E+02 -0.12214662903E+03  0.12987257189E+03  0.00000000000E+00 0.  1.
          5    1    3    3  502    0 -0.48824504376E+02  0.39141111185E+01 -0.68585952308E+02  0.84411346082E+02  0.47000000000E+01 0. -1.
         13    1    6    6    0    0 -0.64544886256E+01 -0.12790836232E+02  0.55965161153E+01  0.15381381848E+02  0.00000000000E+00 0. -1.
        -14    1    6    6    0    0  0.65170219771E+02  0.88852213269E+02  0.19694758074E+02  0.11193639642E+03  0.00000000000E+00 0.  1.
         -5    1    5    5    0  503 -0.58271377582E+02  0.72573896994E+02 -0.43067080522E+02  0.10266151857E+03  0.47000000000E+01 0.  1.
<mgrwt>
<rscale>  2 0.22895645E+03</rscale>
<asrwt>0</asrwt>
<pdfrwt beam="1">  1       21 0.21756910E-01 0.22929129E+03</pdfrwt>
<pdfrwt beam="2">  1       21 0.75646310E-01 0.22929129E+03</pdfrwt>
<totfact> 0.30152431E+04</totfact>
</mgrwt>
</event>
<event>
12    1  0.2768653E-001  0.3640974E+03  0.7546771E-02  0.1056985E+00
         21   -1    0    0  504  503  0.00000000000E+00  0.00000000000E+00  0.21660588720E+04  0.21660588720E+04  0.00000000000E+00 0. -1.
         21   -1    0    0  502  504 -0.00000000000E+00 -0.00000000000E+00 -0.23565637318E+03  0.23565637318E+03  0.00000000000E+00 0.  1.
          6    2    1    2  502    0  0.31904604299E+03  0.37800510694E+02 -0.68125003126E+02  0.37029232199E+03  0.17104423849E+03 0.  0.
         24    2    3    3    0    0  0.23602040946E+03 -0.12737097769E+02 -0.98594676714E+02  0.26832273486E+03  0.80051935786E+02 0.  0.
         -6    2    1    2    0  503 -0.31904604299E+03 -0.37800510694E+02  0.19985275020E+04  0.20314229232E+04  0.17131158934E+03 0.  0.
        -24    2    5    5    0    0 -0.21049354445E+03 -0.64924028860E+02  0.10374290177E+04  0.10638219121E+04  0.83279242168E+02 0.  0.
          4    1    4    4  501    0  0.15043721014E+03  0.14432107424E+02 -0.27087337426E+02  0.15353619693E+03  0.00000000000E+00 0. -1.
         -3    1    4    4    0  501  0.85583199322E+02 -0.27169205193E+02 -0.71507339289E+02  0.11478653793E+03  0.00000000000E+00 0.  1.
          5    1    3    3  502    0  0.83025633527E+02  0.50537608463E+02  0.30469673588E+02  0.10196958713E+03  0.47000000000E+01 0. -1.
         13    1    6    6    0    0 -0.10758545850E+03 -0.31438855752E+02  0.71460645069E+03  0.72334321861E+03  0.00000000000E+00 0. -1.
        -14    1    6    6    0    0 -0.10290808595E+03 -0.33485173107E+02  0.32282256700E+03  0.34047869352E+03  0.00000000000E+00 0.  1.
         -5    1    5    5    0  503 -0.10855249854E+03  0.27123518165E+02  0.96109848430E+03  0.96760101110E+03  0.47000000000E+01 0.  1.
<mgrwt>
<rscale>  2 0.36406597E+03</rscale>
<asrwt>0</asrwt>
<pdfrwt beam="1">  1       21 0.33323981E+00 0.36409740E+03</pdfrwt>
<pdfrwt beam="2">  1       21 0.36254828E-01 0.36409740E+03</pdfrwt>
<totfact> 0.13170098E+02</totfact>
</mgrwt>
</event>
<event>
12    1  0.2768653E-001  0.2063651E+03  0.7546771E-02  0.1145516E+00
         21   -1    0    0  504  503  0.00000000000E+00  0.00000000000E+00  0.18791987676E+04  0.18791987676E+04  0.00000000000E+00 0. -1.
         21   -1    0    0  502  504 -0.00000000000E+00 -0.00000000000E+00 -0.23329085376E+02  0.23329085376E+02  0.00000000000E+00 0. -1.
          6    2    1    2  502    0 -0.55852974360E+01 -0.10395892343E+03  0.69955663808E+03  0.72794434317E+03  0.17229284247E+03 0.  0.
         24    2    3    3    0    0 -0.51849441808E+01 -0.17829690471E+02  0.14528177671E+03  0.16699771737E+03  0.80228806883E+02 0.  0.
         -6    2    1    2    0  503  0.55852974360E+01  0.10395892343E+03  0.11563130441E+04  0.11745835098E+04  0.17817943804E+03 0.  0.
        -24    2    5    5    0    0 -0.14745238577E+02  0.32056698276E+02  0.96754154879E+03  0.97150710021E+03  0.80276666297E+02 0.  0.
          4    1    4    4  501    0  0.32195259183E+02 -0.28278306706E+02  0.65433896987E+02  0.78216316833E+02  0.00000000000E+00 0. -1.
         -3    1    4    4    0  501 -0.37380203364E+02  0.10448616235E+02  0.79847879727E+02  0.88781400538E+02  0.00000000000E+00 0.  1.
          5    1    3    3  502    0 -0.40035325516E+00 -0.86129232957E+02  0.55427486137E+03  0.56094662580E+03  0.47000000000E+01 0. -1.
         13    1    6    6    0    0  0.19516721285E+02  0.39871080904E+02  0.73348801300E+03  0.73483009650E+03  0.00000000000E+00 0. -1.
        -14    1    6    6    0    0 -0.34261959862E+02 -0.78143826280E+01  0.23405353579E+03  0.23667700371E+03  0.00000000000E+00 0.  1.
         -5    1    5    5    0  503  0.20330536013E+02  0.71902225152E+02  0.18877149533E+03  0.20307640957E+03  0.47000000000E+01 0.  1.
<mgrwt>
<rscale>  2 0.20508815E+03</rscale>
<asrwt>0</asrwt>
<pdfrwt beam="1">  1       21 0.28910738E+00 0.20636513E+03</pdfrwt>
<pdfrwt beam="2">  1       21 0.35890915E-02 0.20636513E+03</pdfrwt>
<totfact> 0.18282980E+04</totfact>
</mgrwt>
</event>
<event>
12    1  0.2768653E-001  0.2099658E+03  0.7546771E-02  0.1143907E+00
         21   -1    0    0  504  503  0.00000000000E+00  0.00000000000E+00  0.32192139012E+03  0.32192139012E+03  0.00000000000E+00 0. -1.
         21   -1    0    0  502  504 -0.00000000000E+00 -0.00000000000E+00 -0.30136458528E+03  0.30136458528E+03  0.00000000000E+00 0.  1.
          6    2    1    2  502    0  0.42948146407E+02 -0.87833410006E+02 -0.22480394697E+03  0.30760764735E+03  0.18581280619E+03 0.  0.
         24    2    3    3    0    0  0.83878522810E+02 -0.10078333883E+03 -0.12796489951E+03  0.20157516421E+03  0.84051432742E+02 0.  0.
         -6    2    1    2    0  503 -0.42948146407E+02  0.87833410006E+02  0.24536075180E+03  0.31567832805E+03  0.17289203879E+03 0.  0.
        -24    2    5    5    0    0 -0.16525055936E+02  0.12583162679E+02  0.21406184254E+03  0.22987336808E+03  0.81165753044E+02 0.  0.
          4    1    4    4  501    0  0.23392618512E+02  0.91532073582E+00  0.46261011840E+01  0.23863219085E+02  0.00000000000E+00 0. -1.
         -3    1    4    4    0  501  0.60485904297E+02 -0.10169865956E+03 -0.13259100069E+03  0.17771194512E+03  0.00000000000E+00 0.  1.
          5    1    3    3  502    0 -0.40930376402E+02  0.12949928819E+02 -0.96839047460E+02  0.10603248314E+03  0.47000000000E+01 0. -1.
         11    1    6    6    0    0  0.16537057529E+02  0.31157478779E+02  0.15996762343E+03  0.16381057139E+03  0.00000000000E+00 0. -1.
        -12    1    6    6    0    0 -0.33062113465E+02 -0.18574316099E+02  0.54094219109E+02  0.66062796689E+02  0.00000000000E+00 0.  1.
         -5    1    5    5    0  503 -0.26423090471E+02  0.75250247327E+02  0.31298909269E+02  0.85804959963E+02  0.47000000000E+01 0.  1.
<mgrwt>
<rscale>  2 0.20707067E+03</rscale>
<asrwt>0</asrwt>
<pdfrwt beam="1">  1       21 0.49526368E-01 0.20996583E+03</pdfrwt>
<pdfrwt beam="2">  1       21 0.46363782E-01 0.20996583E+03</pdfrwt>
<totfact> 0.17137390E+04</totfact>
</mgrwt>
</event>
<event>
12    1  0.2768653E-001  0.2309968E+03  0.7546771E-02  0.1126485E+00
         21   -1    0    0  504  503  0.00000000000E+00  0.00000000000E+00  0.62718823777E+03  0.62718823777E+03  0.00000000000E+00 0.  1.
         21   -1    0    0  502  504 -0.00000000000E+00 -0.00000000000E+00 -0.98849245720E+02  0.98849245720E+02  0.00000000000E+00 0. -1.
          6    2    1    2  502    0 -0.11103936819E+03 -0.10368217453E+03  0.12168944306E+03  0.25835878936E+03  0.16988587016E+03 0.  0.
         24    2    3    3    0    0 -0.44533894859E+01 -0.91865411496E+01  0.20373313945E+02  0.83495861314E+02  0.80325971636E+02 0.  0.
         -6    2    1    2    0  503  0.11103936819E+03  0.10368217453E+03  0.40664954899E+03  0.46767869414E+03  0.17401083487E+03 0.  0.
        -24    2    5    5    0    0  0.98991031508E+02  0.64123868140E+02  0.14886396814E+03  0.20655512623E+03  0.81200026960E+02 0.  0.
          4    1    4    4  501    0 -0.24037542844E+02 -0.37839182706E+02  0.36676268206E+01  0.44978424831E+02  0.00000000000E+00 0. -1.
         -3    1    4    4    0  501  0.19584153358E+02  0.28652641556E+02  0.16705687124E+02  0.38517436482E+02  0.00000000000E+00 0.  1.
          5    1    3    3  502    0 -0.10658597871E+03 -0.94495633378E+02  0.10131612912E+03  0.17486292804E+03  0.47000000000E+01 0. -1.
         11    1    6    6    0    0  0.64432189356E+02  0.81109166619E+02  0.96619108313E+02  0.14165258920E+03  0.00000000000E+00 0. -1.
        -12    1    6    6    0    0  0.34558842151E+02 -0.16985298480E+02  0.52244859829E+02  0.64902537037E+02  0.00000000000E+00 0.  1.
         -5    1    5    5    0  503  0.12048336683E+02  0.39558306388E+02  0.25778558085E+03  0.26112356790E+03  0.47000000000E+01 0.  1.
<mgrwt>
<rscale>  2 0.23022005E+03</rscale>
<asrwt>0</asrwt>
<pdfrwt beam="1">  1       21 0.96490496E-01 0.23099676E+03</pdfrwt>
<pdfrwt beam="2">  1       21 0.15207577E-01 0.23099676E+03</pdfrwt>
<totfact> 0.33483584E+04</totfact>
</mgrwt>
</event>
<event>
12    1  0.2768653E-001  0.2066025E+03  0.7546771E-02  0.1144860E+00
         21   -1    0    0  504  503  0.00000000000E+00  0.00000000000E+00  0.38632366194E+03  0.38632366194E+03  0.00000000000E+00 0. -1.
         21   -1    0    0  502  504 -0.00000000000E+00 -0.00000000000E+00 -0.11807097802E+03  0.11807097802E+03  0.00000000000E+00 0. -1.
          6    2    1    2  502    0 -0.88953690920E+01  0.11217113490E+03  0.65020862091E+02  0.21659245734E+03  0.17327172006E+03 0.  0.
         24    2    3    3    0    0  0.33289630137E+02  0.67261484264E+01  0.49737130524E+02  0.10190199661E+03  0.82199721487E+02 0.  0.
         -6    2    1    2    0  503  0.88953690920E+01 -0.11217113490E+03  0.20323182182E+03  0.28780218262E+03  0.16989829847E+03 0.  0.
        -24    2    5    5    0    0 -0.16026718673E+02 -0.43715511602E+02  0.26367093691E+02  0.96463464956E+02  0.80262536563E+02 0.  0.
          4    1    4    4  501    0 -0.20892819988E+02 -0.81607158975E+01 -0.55143170808E+01  0.23097941551E+02  0.00000000000E+00 0. -1.
         -3    1    4    4    0  501  0.54182450125E+02  0.14886864324E+02  0.55251447605E+02  0.78804055057E+02  0.00000000000E+00 0.  1.
          5    1    3    3  502    0 -0.42184999229E+02  0.10544498648E+03  0.15283731567E+02  0.11469046074E+03  0.47000000000E+01 0. -1.
         13    1    6    6    0    0  0.25120690129E+02 -0.32044367814E+02  0.33964448580E+02  0.53023337772E+02  0.00000000000E+00 0. -1.
        -14    1    6    6    0    0 -0.41147408802E+02 -0.11671143788E+02 -0.75973548893E+01  0.43440127184E+02  0.00000000000E+00 0.  1.
         -5    1    5    5    0  503  0.24922087765E+02 -0.68455623302E+02  0.17686472813E+03  0.19133871766E+03  0.47000000000E+01 0.  1.
<mgrwt>
<rscale>  2 0.20589360E+03</rscale>
<asrwt>0</asrwt>
<pdfrwt beam="1">  1       21 0.59434409E-01 0.20660247E+03</pdfrwt>
<pdfrwt beam="2">  1       21 0.18164766E-01 0.20660247E+03</pdfrwt>
<totfact> 0.72550814E+04</totfact>
</mgrwt>
</event>
<event>
12    1  0.2768653E-001  0.2882271E+03  0.7546771E-02  0.1091598E+00
         21   -1    0    0  504  503  0.00000000000E+00  0.00000000000E+00  0.10359013863E+03  0.10359013863E+03  0.00000000000E+00 0. -1.
         21   -1    0    0  502  504 -0.00000000000E+00 -0.00000000000E+00 -0.81388768272E+03  0.81388768272E+03  0.00000000000E+00 0. -1.
          6    2    1    2  502    0 -0.21086297275E+03  0.86816234239E+02 -0.42604700477E+03  0.51438398913E+03  0.17627985194E+03 0.  0.
         24    2    3    3    0    0 -0.78824733389E+02  0.10508681569E+03 -0.23622261723E+03  0.28238550012E+03  0.81754928672E+02 0.  0.
         -6    2    1    2    0  503  0.21086297275E+03 -0.86816234239E+02 -0.28425053932E+03  0.40309383222E+03  0.17229630485E+03 0.  0.
        -24    2    5    5    0    0  0.11711038946E+03 -0.11530193645E+03 -0.14510009416E+03  0.23284131831E+03  0.78432533552E+02 0.  0.
          4    1    4    4  501    0 -0.90633630287E+02  0.10270155032E+03 -0.18754681600E+03  0.23224097737E+03  0.00000000000E+00 0. -1.
         -3    1    4    4    0  501  0.11808896899E+02  0.23852653697E+01 -0.48675801227E+02  0.50144522751E+02  0.00000000000E+00 0.  1.
          5    1    3    3  502    0 -0.13203823936E+03 -0.18270581446E+02 -0.18982438754E+03  0.23199848901E+03  0.47000000000E+01 0. -1.
         13    1    6    6    0    0  0.71976767903E+02 -0.31799045273E+02 -0.31383982059E+02  0.84715929600E+02  0.00000000000E+00 0. -1.
        -14    1    6    6    0    0  0.45133621555E+02 -0.83502891174E+02 -0.11371611210E+03  0.14812538871E+03  0.00000000000E+00 0.  1.
         -5    1    5    5    0  503  0.93752583290E+02  0.28485702207E+02 -0.13915044516E+03  0.17025251391E+03  0.47000000000E+01 0.  1.
<mgrwt>
<rscale>  2 0.28762041E+03</rscale>
<asrwt>0</asrwt>
<pdfrwt beam="1">  1       21 0.15936944E-01 0.28822706E+03</pdfrwt>
<pdfrwt beam="2">  1       21 0.12521350E+00 0.28822706E+03</pdfrwt>
<totfact> 0.15808052E+04</totfact>
</mgrwt>
</event>
<event>
12    1  0.2768653E-001  0.2635854E+03  0.7546771E-02  0.1105019E+00
         21   -1    0    0  504  503  0.00000000000E+00  0.00000000000E+00  0.21693055064E+03  0.21693055064E+03  0.00000000000E+00 0.  1.
         21   -1    0    0  502  504 -0.00000000000E+00 -0.00000000000E+00 -0.61356192301E+03  0.61356192301E+03  0.00000000000E+00 0.  1.
          6    2    1    2  502    0 -0.19679684673E+03  0.28991462943E+02 -0.48547047997E+03  0.55241185633E+03  0.17293862577E+03 0.  0.
         24    2    3    3    0    0 -0.17919427076E+03  0.57911066537E+02 -0.47416520242E+03  0.51641055839E+03  0.79893349702E+02 0.  0.
         -6    2    1    2    0  503  0.19679684673E+03 -0.28991462943E+02  0.88839107593E+02  0.27808061733E+03  0.17282053954E+03 0.  0.
        -24    2    5    5    0    0  0.67299258405E+02 -0.27803261463E+02  0.10049057834E+03  0.14796957254E+03  0.80588004894E+02 0.  0.
          2    1    4    4  501    0 -0.68367821371E+02  0.49590339980E+02 -0.13254925953E+03  0.15717082115E+03  0.00000000000E+00 0. -1.
         -1    1    4    4    0  501 -0.11082644939E+03  0.83207265578E+01 -0.34161594289E+03  0.35923973724E+03  0.00000000000E+00 0.  1.
          5    1    3    3  502    0 -0.17602575973E+02 -0.28919603594E+02 -0.11305277548E+02  0.36001297940E+02  0.47000000000E+01 0. -1.
         13    1    6    6    0    0 -0.57677341613E+01  0.15977171815E+00  0.59250061161E+02  0.59530345471E+02  0.00000000000E+00 0. -1.
        -14    1    6    6    0    0  0.73066992566E+02 -0.27963033181E+02  0.41240517178E+02  0.88439227069E+02  0.00000000000E+00 0.  1.
         -5    1    5    5    0  503  0.12949758833E+03 -0.11882014804E+01 -0.11651470746E+02  0.13011104479E+03  0.47000000000E+01 0.  1.
<mgrwt>
<rscale>  2 0.26356605E+03</rscale>
<asrwt>0</asrwt>
<pdfrwt beam="1">  1       21 0.33373931E-01 0.26358542E+03</pdfrwt>
<pdfrwt beam="2">  1       21 0.94394142E-01 0.26358542E+03</pdfrwt>
<totfact> 0.77678276E+03</totfact>
</mgrwt>
</event>
<event>
12    1  0.2768653E-001  0.1894268E+03  0.7546771E-02  0.1158980E+00
         21   -1    0    0  504  503  0.00000000000E+00  0.00000000000E+00  0.51118141297E+03  0.51118141297E+03  0.00000000000E+00 0.  1.
         21   -1    0    0  502  504 -0.00000000000E+00 -0.00000000000E+00 -0.65959488490E+03  0.65959488490E+03  0.00000000000E+00 0.  1.
          6    2    1    2  502    0 -0.71427780083E+02 -0.33247439245E+02 -0.62757039191E+03  0.65553574264E+03  0.17226489224E+03 0.  0.
         24    2    3    3    0    0 -0.29329322382E+02 -0.41100772248E+02 -0.20055421964E+03  0.22635180031E+03  0.91998151372E+02 0.  0.
         -6    2    1    2    0  503  0.71427780083E+02  0.33247439245E+02  0.47915691998E+03  0.51524055523E+03  0.17226188146E+03 0.  0.
        -24    2    5    5    0    0  0.25008404846E+01  0.99460499079E+01  0.95900493897E+02  0.12511050527E+03  0.79690373866E+02 0.  0.
          2    1    4    4  501    0 -0.47213079957E+02 -0.11558903043E+02 -0.42494715106E+02  0.64563797677E+02  0.00000000000E+00 0. -1.
         -1    1    4    4    0  501  0.17883757575E+02 -0.29541869205E+02 -0.15805950454E+03  0.16178800263E+03  0.00000000000E+00 0.  1.
          5    1    3    3  502    0 -0.42098457701E+02  0.78533330027E+01 -0.42701617227E+03  0.42918394233E+03  0.47000000000E+01 0. -1.
         11    1    6    6    0    0 -0.17976690915E+02  0.38797871143E+02  0.37733527246E+02  0.57028548113E+02  0.00000000000E+00 0. -1.
        -12    1    6    6    0    0  0.20477531399E+02 -0.28851821235E+02  0.58166966651E+02  0.68081957156E+02  0.00000000000E+00 0.  1.
         -5    1    5    5    0  503  0.68926939599E+02  0.23301389337E+02  0.38325642608E+03  0.39013004996E+03  0.47000000000E+01 0.  1.
<mgrwt>
<rscale>  2 0.18942612E+03</rscale>
<asrwt>0</asrwt>
<pdfrwt beam="1">  1       21 0.78643294E-01 0.18942680E+03</pdfrwt>
<pdfrwt beam="2">  1       21 0.10147614E+00 0.18942680E+03</pdfrwt>
<totfact> 0.11369967E+03</totfact>
</mgrwt>
</event>
<event>
12    1  0.2768653E-001  0.3234343E+03  0.7546771E-02  0.1074097E+00
         21   -1    0    0  504  503  0.00000000000E+00  0.00000000000E+00  0.47441573818E+03  0.47441573818E+03  0.00000000000E+00 0. -1.
         21   -1    0    0  502  504 -0.00000000000E+00 -0.00000000000E+00 -0.22040482310E+03  0.22040482310E+03  0.00000000000E+00 0.  1.
          6    2    1    2  502    0  0.15656782165E+03  0.22346524768E+03  0.12906266950E+03  0.34809043385E+03  0.17337698170E+03 0.  0.
         24    2    3    3    0    0  0.12899925462E+03  0.12175662568E+03  0.18116949706E+02  0.19500316326E+03  0.78946350292E+02 0.  0.
         -6    2    1    2    0  503 -0.15656782165E+03 -0.22346524768E+03  0.12494824558E+03  0.34673012743E+03  0.17366495760E+03 0.  0.
        -24    2    5    5    0    0 -0.29503294892E+02 -0.15544963674E+03  0.68260839952E+02  0.19178797936E+03  0.84190574199E+02 0.  0.
          2    1    4    4  501    0  0.13396722987E+03  0.12754958800E+03  0.12257418373E+02  0.18538166140E+03  0.00000000000E+00 0. -1.
         -1    1    4    4    0  501 -0.49679752523E+01 -0.57929623198E+01  0.58595313329E+01  0.96215018572E+01  0.00000000000E+00 0.  1.
          5    1    3    3  502    0  0.27568567028E+02  0.10170862200E+03  0.11094571980E+03  0.15308727060E+03  0.47000000000E+01 0. -1.
         11    1    6    6    0    0 -0.11495473434E+02 -0.57194335671E+02  0.70956837477E+02  0.91859733981E+02  0.00000000000E+00 0. -1.
        -12    1    6    6    0    0 -0.18007821458E+02 -0.98255301072E+02 -0.26959975249E+01  0.99928245382E+02  0.00000000000E+00 0.  1.
         -5    1    5    5    0  503 -0.12706452676E+03 -0.68015610938E+02  0.56687405624E+02  0.15494214807E+03  0.47000000000E+01 0.  1.
<mgrwt>
<rscale>  2 0.32339561E+03</rscale>
<asrwt>0</asrwt>
<pdfrwt beam="1">  1       21 0.72987036E-01 0.32343425E+03</pdfrwt>
<pdfrwt beam="2">  1       21 0.33908435E-01 0.32343425E+03</pdfrwt>
<totfact> 0.13233160E+04</totfact>
</mgrwt>
</event>
<event>
12    1  0.2768653E-001  0.1853807E+03  0.7546771E-02  0.1162872E+00
         21   -1    0    0  504  503  0.00000000000E+00  0.00000000000E+00  0.43954925683E+03  0.43954925683E+03  0.00000000000E+00 0.  1.
         21   -1    0    0  502  504 -0.00000000000E+00 -0.00000000000E+00 -0.96373559697E+02  0.96373559697E+02  0.00000000000E+00 0.  1.
          6    2    1    2  502    0 -0.43998216437E+02  0.46795088050E+02  0.54440929411E+02  0.19320928842E+03  0.17389764525E+03 0.  0.
         24    2    3    3    0    0 -0.47927818727E+02  0.95434723004E+02  0.52950793021E+02  0.14416271495E+03  0.81081685592E+02 0.  0.
         -6    2    1    2    0  503  0.43998216437E+02 -0.46795088050E+02  0.28873476772E+03  0.34271352810E+03  0.17308718306E+03 0.  0.
        -24    2    5    5    0    0  0.20867729636E+02 -0.47704497448E+02  0.63372581986E+02  0.11611685733E+03  0.82194033799E+02 0.  0.
          4    1    4    4  501    0 -0.55753281200E+02  0.10485244868E+03  0.56364358094E+02  0.13145115147E+03  0.00000000000E+00 0. -1.
         -3    1    4    4    0  501  0.78254624729E+01 -0.94177256745E+01 -0.34135650725E+01  0.12711563488E+02  0.00000000000E+00 0.  1.
          5    1    3    3  502    0  0.39296022904E+01 -0.48639634954E+02  0.14901363900E+01  0.49046573469E+02  0.47000000000E+01 0. -1.
         11    1    6    6    0    0  0.28305924353E+02  0.15185059777E+02  0.11047185921E+02  0.33968392819E+02  0.00000000000E+00 0. -1.
        -12    1    6    6    0    0 -0.74381947172E+01 -0.62889557224E+02  0.52325396065E+02  0.82148464513E+02  0.00000000000E+00 0.  1.
         -5    1    5    5    0  503  0.23130486801E+02  0.90940939773E+00  0.22536218573E+03  0.22659667077E+03  0.47000000000E+01 0.  1.
<mgrwt>
<rscale>  2 0.18519042E+03</rscale>
<asrwt>0</asrwt>
<pdfrwt beam="1">  1       21 0.67622961E-01 0.18538073E+03</pdfrwt>
<pdfrwt beam="2">  1       21 0.14826702E-01 0.18538073E+03</pdfrwt>
<totfact> 0.80338433E+04</totfact>
</mgrwt>
</event>
<event>
12    1  0.2768653E-001  0.2280143E+03  0.7546771E-02  0.1128264E+00
         21   -1    0    0  504  503  0.00000000000E+00  0.00000000000E+00  0.73829093127E+02  0.73829093127E+02  0.00000000000E+00 0.  1.
         21   -1    0    0  502  504 -0.00000000000E+00 -0.00000000000E+00 -0.76010920601E+03  0.76010920601E+03  0.00000000000E+00 0. -1.
          6    2    1    2  502    0  0.78463660743E+02  0.12438498147E+03 -0.22714299374E+03  0.32184541410E+03  0.17424798793E+03 0.  0.
         24    2    3    3    0    0  0.10775491956E+03  0.96043658525E+02 -0.11015253803E+03  0.19786934723E+03  0.78633262077E+02 0.  0.
         -6    2    1    2    0  503 -0.78463660743E+02 -0.12438498147E+03 -0.45913711915E+03  0.51209288504E+03  0.17263852136E+03 0.  0.
        -24    2    5    5    0    0 -0.10106103528E+03 -0.87979977462E+02 -0.43622184577E+03  0.46327520989E+03  0.79878733639E+02 0.  0.
          4    1    4    4  501    0  0.46959422639E+02  0.65283618873E+02 -0.10102770602E+03  0.12912682003E+03  0.00000000000E+00 0. -1.
         -3    1    4    4    0  501  0.60795496923E+02  0.30760039652E+02 -0.91248320035E+01  0.68742527191E+02  0.00000000000E+00 0.  1.
          5    1    3    3  502    0 -0.29291258819E+02  0.28341322945E+02 -0.11699045571E+03  0.12397606688E+03  0.47000000000E+01 0. -1.
         13    1    6    6    0    0 -0.95890178032E+02 -0.10240449482E+03 -0.38273677334E+03  0.40763837463E+03  0.00000000000E+00 0. -1.
        -14    1    6    6    0    0 -0.51708572513E+01  0.14424517354E+02 -0.53485072427E+02  0.55636835264E+02  0.00000000000E+00 0.  1.
         -5    1    5    5    0  503  0.22597374540E+02 -0.36405004008E+02 -0.22915273376E+02  0.48817675148E+02  0.47000000000E+01 0.  1.
<mgrwt>
<rscale>  2 0.22770681E+03</rscale>
<asrwt>0</asrwt>
<pdfrwt beam="1">  1       21 0.11358322E-01 0.22801432E+03</pdfrwt>
<pdfrwt beam="2">  1       21 0.11693988E+00 0.22801432E+03</pdfrwt>
<totfact> 0.35739739E+04</totfact>
</mgrwt>
</event>
<event>
12    1  0.2768653E-001  0.2010774E+03  0.7546771E-02  0.1150231E+00
         21   -1    0    0  504  503  0.00000000000E+00  0.00000000000E+00  0.15627087153E+03  0.15627087153E+03  0.00000000000E+00 0.  1.
         21   -1    0    0  502  504 -0.00000000000E+00 -0.00000000000E+00 -0.15333160840E+04  0.15333160840E+04  0.00000000000E+00 0. -1.
          6    2    1    2  502    0 -0.77570694069E+02 -0.69877884870E+02 -0.14593939419E+04  0.14723004704E+04  0.16412759099E+03 0.  0.
         24    2    3    3    0    0 -0.60557333885E+02 -0.54211942047E+02 -0.14301837358E+04  0.14347478096E+04  0.80434033861E+02 0.  0.
         -6    2    1    2    0  503  0.77570694069E+02  0.69877884870E+02  0.82348729411E+02  0.21728648514E+03  0.17184868931E+03 0.  0.
        -24    2    5    5    0    0  0.71941240488E+02  0.11378079954E+03  0.65061504583E+02  0.16953614685E+03  0.79924297205E+02 0.  0.
          2    1    4    4  501    0 -0.69677207845E+02 -0.61414107829E+02 -0.97455793553E+03  0.97897383807E+03  0.00000000000E+00 0. -1.
         -1    1    4    4    0  501  0.91198739607E+01  0.72021657818E+01 -0.45562580027E+03  0.45577397157E+03  0.00000000000E+00 0.  1.
          5    1    3    3  502    0 -0.17013360185E+02 -0.15665942823E+02 -0.29210206106E+02  0.37552660759E+02  0.47000000000E+01 0. -1.
         11    1    6    6    0    0  0.25418565367E+02  0.47434742827E+02 -0.14748687671E+02  0.55800377063E+02  0.00000000000E+00 0. -1.
        -12    1    6    6    0    0  0.46522675121E+02  0.66346056716E+02  0.79810192254E+02  0.11373576979E+03  0.00000000000E+00 0.  1.
         -5    1    5    5    0  503  0.56294535810E+01 -0.43902914673E+02  0.17287224828E+02  0.47750338289E+02  0.47000000000E+01 0.  1.
<mgrwt>
<rscale>  2 0.19941756E+03</rscale>
<asrwt>0</asrwt>
<pdfrwt beam="1">  1       21 0.24041673E-01 0.20107736E+03</pdfrwt>
<pdfrwt beam="2">  1       21 0.23589478E+00 0.20107736E+03</pdfrwt>
<totfact> 0.13025838E+03</totfact>
</mgrwt>
</event>
<event>
12    1  0.2768653E-001  0.2261638E+03  0.7546771E-02  0.1129387E+00
         21   -1    0    0  504  503  0.00000000000E+00  0.00000000000E+00  0.82286820875E+03  0.82286820875E+03  0.00000000000E+00 0. -1.
         21   -1    0    0  502  504 -0.00000000000E+00 -0.00000000000E+00 -0.73641409670E+02  0.73641409670E+02  0.00000000000E+00 0. -1.
          6    2    1    2  502    0 -0.12685497351E+03 -0.70195329100E+02  0.19748468329E+03  0.30025034568E+03  0.17358139710E+03 0.  0.
         24    2    3    3    0    0 -0.12022569498E+03 -0.10749338869E+03  0.12954974483E+03  0.22232513509E+03  0.81463384190E+02 0.  0.
         -6    2    1    2    0  503  0.12685497351E+03  0.70195329100E+02  0.55174211579E+03  0.59625927274E+03  0.17345370983E+03 0.  0.
        -24    2    5    5    0    0  0.13551880782E+03  0.78264267624E+01  0.27033649816E+03  0.30785650985E+03  0.57159497836E+02 0.  0.
          2    1    4    4  501    0 -0.99542855893E+02 -0.11074201658E+03  0.13467190127E+03  0.20077125139E+03  0.00000000000E+00 0. -1.
         -1    1    4    4    0  501 -0.20682839087E+02  0.32486278964E+01 -0.51221564354E+01  0.21553883698E+02  0.00000000000E+00 0.  1.
          5    1    3    3  502    0 -0.66292785324E+01  0.37298059586E+02  0.67934938457E+02  0.77925210592E+02  0.47000000000E+01 0. -1.
         11    1    6    6    0    0  0.11499413874E+03  0.78523884550E+01  0.26098029138E+03  0.28529988510E+03  0.00000000000E+00 0. -1.
        -12    1    6    6    0    0  0.20524669082E+02 -0.25961692650E-01  0.93562067761E+01  0.22556624751E+02  0.00000000000E+00 0.  1.
         -5    1    5    5    0  503 -0.86638343050E+01  0.62368902338E+02  0.28140561764E+03  0.28840276289E+03  0.47000000000E+01 0.  1.
<mgrwt>
<rscale>  2 0.22613931E+03</rscale>
<asrwt>0</asrwt>
<pdfrwt beam="1">  1       21 0.12659510E+00 0.22616381E+03</pdfrwt>
<pdfrwt beam="2">  1       21 0.11329448E-01 0.22616381E+03</pdfrwt>
<totfact> 0.29475953E+04</totfact>
</mgrwt>
</event>
<event>
12    1  0.2768653E-001  0.2236102E+03  0.7546771E-02  0.1131330E+00
         21   -1    0    0  504  503  0.00000000000E+00  0.00000000000E+00  0.86301917234E+02  0.86301917234E+02  0.00000000000E+00 0. -1.
         21   -1    0    0  502  504 -0.00000000000E+00 -0.00000000000E+00 -0.81146986461E+03  0.81146986461E+03  0.00000000000E+00 0.  1.
          6    2    1    2  502    0 -0.18038296687E+02  0.13952136980E+03 -0.60380017781E+03  0.64387591774E+03  0.17381009737E+03 0.  0.
         24    2    3    3    0    0 -0.57996303189E+02  0.13253674167E+03 -0.56735488655E+03  0.58914223005E+03  0.65325652356E+02 0.  0.
         -6    2    1    2    0  503  0.18038296687E+02 -0.13952136980E+03 -0.12136776957E+03  0.25389586410E+03  0.17303578110E+03 0.  0.
        -24    2    5    5    0    0 -0.38238248622E+02 -0.65862149893E+02 -0.15109653115E+02  0.11280863030E+03  0.81838249046E+02 0.  0.
          4    1    4    4  501    0 -0.14014887104E+02  0.42321725662E+02 -0.80221210432E+02  0.91776838727E+02  0.00000000000E+00 0. -1.
         -3    1    4    4    0  501 -0.43981416085E+02  0.90215016009E+02 -0.48713367612E+03  0.49736539132E+03  0.00000000000E+00 0.  1.
          5    1    3    3  502    0  0.39958006502E+02  0.69846281315E+01 -0.36445291257E+02  0.54733687694E+02  0.47000000000E+01 0. -1.
         13    1    6    6    0    0 -0.26132500957E+01 -0.68221655746E+02  0.10220935467E+02  0.69032535160E+02  0.00000000000E+00 0. -1.
        -14    1    6    6    0    0 -0.35624998526E+02  0.23595058535E+01 -0.25330588582E+02  0.43776095141E+02  0.00000000000E+00 0.  1.
         -5    1    5    5    0  503  0.56276545309E+02 -0.73659219910E+02 -0.10625811645E+03  0.14108723380E+03  0.47000000000E+01 0.  1.
<mgrwt>
<rscale>  2 0.22345976E+03</rscale>
<asrwt>0</asrwt>
<pdfrwt beam="1">  1       21 0.13277218E-01 0.22361025E+03</pdfrwt>
<pdfrwt beam="2">  1       21 0.12484152E+00 0.22361025E+03</pdfrwt>
<totfact> 0.22983825E+04</totfact>
</mgrwt>
</event>
<event>
12    1  0.2768653E-001  0.1869811E+03  0.7546771E-02  0.1161470E+00
         21   -1    0    0  504  503  0.00000000000E+00  0.00000000000E+00  0.10934413004E+04  0.10934413004E+04  0.00000000000E+00 0.  1.
         21   -1    0    0  502  504 -0.00000000000E+00 -0.00000000000E+00 -0.14200919250E+03  0.14200919250E+03  0.00000000000E+00 0.  1.
          6    2    1    2  502    0  0.17983974647E+02 -0.58731644869E+02 -0.68188936642E+02  0.19902678786E+03  0.17660436505E+03 0.  0.
         24    2    3    3    0    0  0.40169977993E+02 -0.89921638932E+02 -0.90707509059E+01  0.12844290614E+03  0.81949822061E+02 0.  0.
         -6    2    1    2    0  503 -0.17983974647E+02  0.58731644869E+02  0.10196210446E+04  0.10364237051E+04  0.17542574624E+03 0.  0.
        -24    2    5    5    0    0  0.99985069427E+01  0.94447654973E+02  0.89227526722E+03  0.90115475201E+03  0.83092748779E+02 0.  0.
          4    1    4    4  501    0 -0.30047179250E+01 -0.57726652937E+02  0.26818898663E+02  0.63723214880E+02  0.00000000000E+00 0. -1.
         -3    1    4    4    0  501  0.43174695918E+02 -0.32194985995E+02 -0.35889649569E+02  0.64719691262E+02  0.00000000000E+00 0.  1.
          5    1    3    3  502    0 -0.22186003345E+02  0.31189994064E+02 -0.59118185736E+02  0.70583881722E+02  0.47000000000E+01 0. -1.
         11    1    6    6    0    0  0.94054311632E+01 -0.13803709833E+02  0.16896116628E+03  0.16978480572E+03  0.00000000000E+00 0. -1.
        -12    1    6    6    0    0  0.59307577949E+00  0.10825136481E+03  0.72331410094E+03  0.73136994629E+03  0.00000000000E+00 0.  1.
         -5    1    5    5    0  503 -0.27982481590E+02 -0.35716010104E+02  0.12734577736E+03  0.13526895307E+03  0.47000000000E+01 0.  1.
<mgrwt>
<rscale>  2 0.18670227E+03</rscale>
<asrwt>0</asrwt>
<pdfrwt beam="1">  1       21 0.16822173E+00 0.18698110E+03</pdfrwt>
<pdfrwt beam="2">  1       21 0.21847569E-01 0.18698110E+03</pdfrwt>
<totfact> 0.43174321E+03</totfact>
</mgrwt>
</event>
<event>
12    1  0.2768653E-001  0.1750946E+03  0.7546771E-02  0.1173088E+00
         21   -1    0    0  504  503  0.00000000000E+00  0.00000000000E+00  0.16101400809E+03  0.16101400809E+03  0.00000000000E+00 0.  1.
         21   -1    0    0  502  504 -0.00000000000E+00 -0.00000000000E+00 -0.21638157124E+03  0.21638157124E+03  0.00000000000E+00 0.  1.
          6    2    1    2  502    0 -0.50193956276E+01 -0.89177821000E+01 -0.95337096560E+02  0.19779688391E+03  0.17300209286E+03 0.  0.
         24    2    3    3    0    0 -0.30844451394E+02  0.15507718092E+02 -0.12381979796E+03  0.15200504136E+03  0.81131502705E+02 0.  0.
         -6    2    1    2    0  503  0.50193956276E+01  0.89177821000E+01  0.39969533411E+02  0.17959869541E+03  0.17479532780E+03 0.  0.
        -24    2    5    5    0    0  0.19009920191E+02  0.71236779041E+02  0.30468511337E+02  0.11485495766E+03  0.82627328184E+02 0.  0.
          2    1    4    4  501    0  0.12423768020E+02  0.37381297589E+02 -0.49351500335E+02  0.63144928589E+02  0.00000000000E+00 0. -1.
         -1    1    4    4    0  501 -0.43268219415E+02 -0.21873579497E+02 -0.74468297625E+02  0.88860112775E+02  0.00000000000E+00 0.  1.
          5    1    3    3  502    0  0.25825055767E+02 -0.24425500192E+02  0.28482701399E+02  0.45791842549E+02  0.47000000000E+01 0. -1.
         11    1    6    6    0    0  0.31847908474E+02  0.18697092529E+02 -0.19023810024E+02  0.41542458895E+02  0.00000000000E+00 0. -1.
        -12    1    6    6    0    0 -0.12837988284E+02  0.52539686512E+02  0.49492321360E+02  0.73312498767E+02  0.00000000000E+00 0.  1.
         -5    1    5    5    0  503 -0.13990524563E+02 -0.62318996941E+02  0.95010220741E+01  0.64743737749E+02  0.47000000000E+01 0.  1.
<mgrwt>
<rscale>  2 0.17464536E+03</rscale>
<asrwt>0</asrwt>
<pdfrwt beam="1">  1       21 0.24771386E-01 0.17509463E+03</pdfrwt>
<pdfrwt beam="2">  1       21 0.33289473E-01 0.17509463E+03</pdfrwt>
<totfact> 0.13474602E+05</totfact>
</mgrwt>
</event>
<event>
12    1  0.2768653E-001  0.2155435E+03  0.7546771E-02  0.1137327E+00
         21   -1    0    0  504  503  0.00000000000E+00  0.00000000000E+00  0.19522995688E+03  0.19522995688E+03  0.00000000000E+00 0. -1.
         21   -1    0    0  502  504 -0.00000000000E+00 -0.00000000000E+00 -0.28909370001E+03  0.28909370001E+03  0.00000000000E+00 0. -1.
          6    2    1    2  502    0 -0.12635200010E+03 -0.23025899595E+02 -0.14917161585E+03  0.26179737809E+03  0.17259975730E+03 0.  0.
         24    2    3    3    0    0 -0.54367792321E+02 -0.54614745581E+02 -0.14511989367E+03  0.18294252528E+03  0.80433554811E+02 0.  0.
         -6    2    1    2    0  503  0.12635200010E+03  0.23025899595E+02  0.55307872719E+02  0.22252627880E+03  0.17310102249E+03 0.  0.
        -24    2    5    5    0    0  0.83796608289E+02 -0.50173245644E+02  0.10990330828E+02  0.12684341327E+03  0.80182529138E+02 0.  0.
          4    1    4    4  501    0 -0.55322449232E+02  0.72496252706E+00 -0.82907440863E+02  0.99673179492E+02  0.00000000000E+00 0. -1.
         -3    1    4    4    0  501  0.95465691074E+00 -0.55339708108E+02 -0.62212452805E+02  0.83269345784E+02  0.00000000000E+00 0.  1.
          5    1    3    3  502    0 -0.71984207779E+02  0.31588845986E+02 -0.40517221865E+01  0.78854852818E+02  0.47000000000E+01 0. -1.
         13    1    6    6    0    0  0.25308838134E+02  0.20598448753E+02  0.12698438892E+02  0.35015478420E+02  0.00000000000E+00 0. -1.
        -14    1    6    6    0    0  0.58487770156E+02 -0.70771694396E+02 -0.17081080649E+01  0.91827934849E+02  0.00000000000E+00 0.  1.
         -5    1    5    5    0  503  0.42555391811E+02  0.73199145239E+02  0.44317541892E+02  0.95682865526E+02  0.47000000000E+01 0.  1.
<mgrwt>
<rscale>  2 0.21544280E+03</rscale>
<asrwt>0</asrwt>
<pdfrwt beam="1">  1       21 0.30035378E-01 0.21554346E+03</pdfrwt>
<pdfrwt beam="2">  1       21 0.44475954E-01 0.21554346E+03</pdfrwt>
<totfact> 0.51047173E+04</totfact>
</mgrwt>
</event>
<event>
12    1  0.2768653E-001  0.2260692E+03  0.7546771E-02  0.1129443E+00
         21   -1    0    0  504  503  0.00000000000E+00  0.00000000000E+00  0.83011349056E+03  0.83011349056E+03  0.00000000000E+00 0.  1.
         21   -1    0    0  502  504 -0.00000000000E+00 -0.00000000000E+00 -0.79815785792E+02  0.79815785792E+02  0.00000000000E+00 0. -1.
          6    2    1    2  502    0  0.80505828509E+02  0.12261684813E+03  0.59276966374E+03  0.63441560777E+03  0.17202095589E+03 0.  0.
         24    2    3    3    0    0  0.22477369453E+02 -0.49206034858E+01  0.16857053828E+03  0.18764934711E+03  0.79163164534E+02 0.  0.
         -6    2    1    2    0  503 -0.80505828509E+02 -0.12261684813E+03  0.15752804103E+03  0.27551366858E+03  0.17197853934E+03 0.  0.
        -24    2    5    5    0    0 -0.10418917215E+03 -0.35129667613E+02  0.10618954881E+03  0.17124172459E+03  0.77188281641E+02 0.  0.
          4    1    4    4  501    0 -0.69650605067E+01 -0.16660732630E+02  0.20903759446E+01  0.18178606966E+02  0.00000000000E+00 0. -1.
         -3    1    4    4    0  501  0.29442429960E+02  0.11740129144E+02  0.16648016234E+03  0.16947074015E+03  0.00000000000E+00 0.  1.
          5    1    3    3  502    0  0.58028459056E+02  0.12753745162E+03  0.42419912546E+03  0.44676626066E+03  0.47000000000E+01 0. -1.
         11    1    6    6    0    0 -0.32365058450E+02 -0.22240178271E+02 -0.35776142729E+01  0.39432497535E+02  0.00000000000E+00 0. -1.
        -12    1    6    6    0    0 -0.71824113701E+02 -0.12889489342E+02  0.10976716308E+03  0.13180922705E+03  0.00000000000E+00 0.  1.
         -5    1    5    5    0  503  0.23683343642E+02 -0.87487180517E+02  0.51338492221E+02  0.10427194399E+03  0.47000000000E+01 0.  1.
<mgrwt>
<rscale>  2 0.22606114E+03</rscale>
<asrwt>0</asrwt>
<pdfrwt beam="1">  1       21 0.12770976E+00 0.22606921E+03</pdfrwt>
<pdfrwt beam="2">  1       21 0.12279352E-01 0.22606921E+03</pdfrwt>
<totfact> 0.24955392E+04</totfact>
</mgrwt>
</event>
<event>
12    1  0.2768653E-001  0.2037273E+03  0.7546771E-02  0.1146638E+00
         21   -1    0    0  504  503  0.00000000000E+00  0.00000000000E+00  0.72100414054E+03  0.72100414054E+03  0.00000000000E+00 0. -1.
         21   -1    0    0  502  504 -0.00000000000E+00 -0.00000000000E+00 -0.20685460187E+03  0.20685460187E+03  0.00000000000E+00 0. -1.
          6    2    1    2  502    0 -0.71737437886E+02 -0.80243224387E+02 -0.13706698554E+03  0.24551880846E+03  0.17293609147E+03 0.  0.
         24    2    3    3    0    0 -0.39131443156E+02 -0.75566514910E+01 -0.30490623806E+01  0.89540019848E+02  0.80123314632E+02 0.  0.
         -6    2    1    2    0  503  0.71737437886E+02  0.80243224387E+02  0.65121652421E+03  0.68233993395E+03  0.17297279844E+03 0.  0.
        -24    2    5    5    0    0  0.62076079185E+02  0.35974808409E+00  0.22155410323E+03  0.24518252792E+03  0.84703496475E+02 0.  0.
          2    1    4    4  501    0 -0.93138443392E+01  0.18510771855E+02 -0.33630368418E+02  0.39501874018E+02  0.00000000000E+00 0. -1.
         -1    1    4    4    0  501 -0.29817598817E+02 -0.26067423346E+02  0.30581306037E+02  0.50038145829E+02  0.00000000000E+00 0.  1.
          5    1    3    3  502    0 -0.32605994730E+02 -0.72686572896E+02 -0.13401792315E+03  0.15597878862E+03  0.47000000000E+01 0. -1.
         13    1    6    6    0    0  0.83024579154E+01 -0.36239619599E+01  0.17109318359E+03  0.17133283801E+03  0.00000000000E+00 0. -1.
        -14    1    6    6    0    0  0.53773621270E+02  0.39837100440E+01  0.50460919640E+02  0.73849689919E+02  0.00000000000E+00 0.  1.
         -5    1    5    5    0  503  0.96613587006E+01  0.79883476303E+02  0.42966242098E+03  0.43715740602E+03  0.47000000000E+01 0.  1.
<mgrwt>
<rscale>  2 0.20371954E+03</rscale>
<asrwt>0</asrwt>
<pdfrwt beam="1">  1       21 0.11092371E+00 0.20372733E+03</pdfrwt>
<pdfrwt beam="2">  1       21 0.31823785E-01 0.20372733E+03</pdfrwt>
<totfact> 0.60248122E+03</totfact>
</mgrwt>
</event>
<event>
12    1  0.2768653E-001  0.1943936E+03  0.7546771E-02  0.1154732E+00
         21   -1    0    0  504  503  0.00000000000E+00  0.00000000000E+00  0.45977782630E+02  0.45977782630E+02  0.00000000000E+00 0.  1.
         21   -1    0    0  502  504 -0.00000000000E+00 -0.00000000000E+00 -0.81859771759E+03  0.81859771759E+03  0.00000000000E+00 0.  1.
          6    2    1    2  502    0 -0.18593593329E+02 -0.85220086719E+02 -0.38289103922E+03  0.42941172010E+03  0.17372591214E+03 0.  0.
         24    2    3    3    0    0 -0.51671967216E+02 -0.11734607102E+03 -0.29227699722E+03  0.32763130796E+03  0.74002285601E+02 0.  0.
         -6    2    1    2    0  503  0.18593593329E+02  0.85220086719E+02 -0.38972889574E+03  0.43516378012E+03  0.17283147417E+03 0.  0.
        -24    2    5    5    0    0 -0.11599313967E+02  0.23870966727E+01 -0.85536361337E+02  0.11841766116E+03  0.81031049907E+02 0.  0.
          2    1    4    4  501    0 -0.29929579099E+01 -0.89522159194E+02 -0.20728987274E+03  0.22581467207E+03  0.00000000000E+00 0. -1.
         -1    1    4    4    0  501 -0.48679009306E+02 -0.27823911826E+02 -0.84987124481E+02  0.10181663589E+03  0.00000000000E+00 0.  1.
          5    1    3    3  502    0  0.33078373887E+02  0.32125984301E+02 -0.90614042005E+02  0.10178041214E+03  0.47000000000E+01 0. -1.
         11    1    6    6    0    0 -0.17115630035E+02  0.40174033944E+02 -0.43869525663E+02  0.61898570878E+02  0.00000000000E+00 0. -1.
        -12    1    6    6    0    0  0.55163160674E+01 -0.37786937272E+02 -0.41666835674E+02  0.56519090283E+02  0.00000000000E+00 0.  1.
         -5    1    5    5    0  503  0.30192907296E+02  0.82832990046E+02 -0.30419253440E+03  0.31674611896E+03  0.47000000000E+01 0.  1.
<mgrwt>
<rscale>  2 0.19419357E+03</rscale>
<asrwt>0</asrwt>
<pdfrwt beam="1">  1       21 0.70735052E-02 0.19439361E+03</pdfrwt>
<pdfrwt beam="2">  1       21 0.12593811E+00 0.19439361E+03</pdfrwt>
<totfact> 0.69494626E+04</totfact>
</mgrwt>
</event>
<event>
12    1  0.2768653E-001  0.1974538E+03  0.7546771E-02  0.1152790E+00
         21   -1    0    0  504  503  0.00000000000E+00  0.00000000000E+00  0.38542058520E+03  0.38542058520E+03  0.00000000000E+00 0. -1.
         21   -1    0    0  502  504 -0.00000000000E+00 -0.00000000000E+00 -0.15029498626E+03  0.15029498626E+03  0.00000000000E+00 0. -1.
          6    2    1    2  502    0 -0.46365531596E+02  0.73935487579E+02 -0.37987602674E+02  0.20107472457E+03  0.17712077252E+03 0.  0.
         24    2    3    3    0    0 -0.25112954871E+02 -0.27034359410E+02  0.85565000276E+01  0.87782952958E+02  0.79190378495E+02 0.  0.
         -6    2    1    2    0  503  0.46365531596E+02 -0.73935487579E+02  0.27311320162E+03  0.33464084689E+03  0.17256145765E+03 0.  0.
        -24    2    5    5    0    0  0.75013449399E+02  0.56495293057E+01  0.16335278651E+03  0.19599050671E+03  0.77905141601E+02 0.  0.
          4    1    4    4  501    0 -0.47622799756E+02 -0.38342389962E+02 -0.12041668266E+00  0.61139875897E+02  0.00000000000E+00 0. -1.
         -3    1    4    4    0  501  0.22509844884E+02  0.11308030552E+02  0.86769167102E+01  0.26643077061E+02  0.00000000000E+00 0.  1.
          5    1    3    3  502    0 -0.21252576725E+02  0.10096984699E+03 -0.46544102702E+02  0.11329177161E+03  0.47000000000E+01 0. -1.
         11    1    6    6    0    0  0.48326603058E+02 -0.21500275486E+02  0.14374565462E+03  0.15316832451E+03  0.00000000000E+00 0. -1.
        -12    1    6    6    0    0  0.26686846341E+02  0.27149804792E+02  0.19607131889E+02  0.42822182205E+02  0.00000000000E+00 0.  1.
         -5    1    5    5    0  503 -0.28647917803E+02 -0.79585016885E+02  0.10976041510E+03  0.13865034018E+03  0.47000000000E+01 0.  1.
<mgrwt>
<rscale>  2 0.19642593E+03</rscale>
<asrwt>0</asrwt>
<pdfrwt beam="1">  1       21 0.59295474E-01 0.19745376E+03</pdfrwt>
<pdfrwt beam="2">  1       21 0.23122306E-01 0.19745376E+03</pdfrwt>
<totfact> 0.46587381E+04</totfact>
</mgrwt>
</event>
<event>
12    1  0.2768653E-001  0.1845036E+03  0.7546771E-02  0.1163756E+00
         21   -1    0    0  504  503  0.00000000000E+00  0.00000000000E+00  0.10319455109E+04  0.10319455109E+04  0.00000000000E+00 0. -1.
         21   -1    0    0  502  504 -0.00000000000E+00 -0.00000000000E+00 -0.57387253963E+02  0.57387253963E+02  0.00000000000E+00 0. -1.
          6    2    1    2  502    0 -0.53867828803E+02 -0.36581803265E+02  0.84298508872E+03  0.86272058008E+03  0.17153124553E+03 0.  0.
         24    2    3    3    0    0 -0.37450743492E+02  0.44129324049E+02  0.38133553144E+03  0.39375767058E+03  0.79236103949E+02 0.  0.
         -6    2    1    2    0  503  0.53867828803E+02  0.36581803265E+02  0.13157316823E+03  0.22661218479E+03  0.17263143510E+03 0.  0.
        -24    2    5    5    0    0  0.93402356306E+02  0.56373271883E+02  0.11455030351E+03  0.17900389750E+03  0.83777546759E+02 0.  0.
          4    1    4    4  501    0 -0.57328636434E+02  0.31271775113E+02  0.18885382409E+03  0.19982558231E+03  0.00000000000E+00 0. -1.
         -3    1    4    4    0  501  0.19877892942E+02  0.12857548935E+02  0.19248170736E+03  0.19393208827E+03  0.00000000000E+00 0.  1.
          5    1    3    3  502    0 -0.16417085311E+02 -0.80711127314E+02  0.46164955727E+03  0.46896290951E+03  0.47000000000E+01 0. -1.
         13    1    6    6    0    0  0.29740937893E+02  0.10162819525E+02 -0.88597180481E+01  0.32654262989E+02  0.00000000000E+00 0. -1.
        -14    1    6    6    0    0  0.63661418412E+02  0.46210452358E+02  0.12341002156E+03  0.14634963452E+03  0.00000000000E+00 0.  1.
         -5    1    5    5    0  503 -0.39534527502E+02 -0.19791468618E+02  0.17022864720E+02  0.47608287284E+02  0.47000000000E+01 0.  1.
<mgrwt>
<rscale>  2 0.18424583E+03</rscale>
<asrwt>0</asrwt>
<pdfrwt beam="1">  1       21 0.15876083E+00 0.18450361E+03</pdfrwt>
<pdfrwt beam="2">  1       21 0.88288091E-02 0.18450361E+03</pdfrwt>
<totfact> 0.26104780E+04</totfact>
</mgrwt>
</event>
<event>
12    1  0.2768653E-001  0.4036966E+03  0.7546771E-02  0.1042922E+00
         21   -1    0    0  504  503  0.00000000000E+00  0.00000000000E+00  0.24398222505E+03  0.24398222505E+03  0.00000000000E+00 0. -1.
         21   -1    0    0  502  504 -0.00000000000E+00 -0.00000000000E+00 -0.72896996560E+03  0.72896996560E+03  0.00000000000E+00 0.  1.
          6    2    1    2  502    0 -0.33295581357E+01  0.36414772161E+03 -0.39341808141E+03  0.56369206529E+03  0.17423061893E+03 0.  0.
         24    2    3    3    0    0 -0.70792141608E+01  0.63177774275E+02 -0.11753432161E+03  0.15536510311E+03  0.79261920694E+02 0.  0.
         -6    2    1    2    0  503  0.33295581357E+01 -0.36414772161E+03 -0.91569659141E+02  0.40926012537E+03  0.16277038623E+03 0.  0.
        -24    2    5    5    0    0  0.57413553358E+02 -0.26791251960E+03 -0.41259965857E+02  0.28785399751E+03  0.78000671984E+02 0.  0.
          2    1    4    4  501    0 -0.15824004025E+02  0.28195387506E+02  0.95572492163E-01  0.32332462234E+02  0.00000000000E+00 0. -1.
         -1    1    4    4    0  501  0.87447898644E+01  0.34982386769E+02 -0.11762989411E+03  0.12303264088E+03  0.00000000000E+00 0.  1.
          5    1    3    3  502    0  0.37496560251E+01  0.30096994733E+03 -0.27588375980E+03  0.40832696217E+03  0.47000000000E+01 0. -1.
         13    1    6    6    0    0  0.60592549738E+01 -0.12812254694E+03  0.13956414413E+02  0.12902280073E+03  0.00000000000E+00 0. -1.
        -14    1    6    6    0    0  0.51354298385E+02 -0.13978997266E+03 -0.55216380270E+02  0.15883119678E+03  0.00000000000E+00 0.  1.
         -5    1    5    5    0  503 -0.54083995223E+02 -0.96235202005E+02 -0.50309693285E+02  0.12140612786E+03  0.47000000000E+01 0.  1.
<mgrwt>
<rscale>  2 0.40248817E+03</rscale>
<asrwt>0</asrwt>
<pdfrwt beam="1">  1       21 0.37535727E-01 0.40369662E+03</pdfrwt>
<pdfrwt beam="2">  1       21 0.11214922E+00 0.40369662E+03</pdfrwt>
<totfact> 0.37837376E+03</totfact>
</mgrwt>
</event>
<event>
12    1  0.2768653E-001  0.2029534E+03  0.7546771E-02  0.1147386E+00
         21   -1    0    0  504  503  0.00000000000E+00  0.00000000000E+00  0.86182627280E+02  0.86182627280E+02  0.00000000000E+00 0.  1.
         21   -1    0    0  502  504 -0.00000000000E+00 -0.00000000000E+00 -0.56219227769E+03  0.56219227769E+03  0.00000000000E+00 0.  1.
          6    2    1    2  502    0 -0.10525624097E+03  0.15593972361E+02 -0.36475697193E+03  0.41741792424E+03  0.17282368666E+03 0.  0.
         24    2    3    3    0    0 -0.94604437679E+02  0.59913967973E+02 -0.18175876760E+03  0.22876969151E+03  0.82217023588E+02 0.  0.
         -6    2    1    2    0  503  0.10525624097E+03 -0.15593972361E+02 -0.11125267848E+03  0.23095698073E+03  0.17216829047E+03 0.  0.
        -24    2    5    5    0    0  0.48589895446E+02  0.61055092884E+02 -0.74386553098E+02  0.12864688778E+03  0.70199431252E+02 0.  0.
          4    1    4    4  501    0 -0.77969815293E+02  0.80445007428E+02 -0.13930346574E+03  0.17876282299E+03  0.00000000000E+00 0. -1.
         -3    1    4    4    0  501 -0.16634622386E+02 -0.20531039455E+02 -0.42455301865E+02  0.50006868523E+02  0.00000000000E+00 0.  1.
          5    1    3    3  502    0 -0.10651803287E+02 -0.44319995612E+02 -0.18299820432E+03  0.18864823273E+03  0.47000000000E+01 0. -1.
         13    1    6    6    0    0  0.32786605099E+02  0.15184387959E+02 -0.71419985434E+02  0.80039624131E+02  0.00000000000E+00 0. -1.
        -14    1    6    6    0    0  0.15803290347E+02  0.45870704925E+02 -0.29665676645E+01  0.48607263653E+02  0.00000000000E+00 0.  1.
         -5    1    5    5    0  503  0.56666345520E+02 -0.76649065246E+02 -0.36866125381E+02  0.10231009294E+03  0.47000000000E+01 0.  1.
<mgrwt>
<rscale>  2 0.20281379E+03</rscale>
<asrwt>0</asrwt>
<pdfrwt beam="1">  1       21 0.13258865E-01 0.20295338E+03</pdfrwt>
<pdfrwt beam="2">  1       21 0.86491121E-01 0.20295338E+03</pdfrwt>
<totfact> 0.56201389E+04</totfact>
</mgrwt>
</event>
<event>
12    1  0.2768653E-001  0.2909198E+03  0.7546771E-02  0.1089913E+00
         21   -1    0    0  504  503  0.00000000000E+00  0.00000000000E+00  0.68937380030E+03  0.68937380030E+03  0.00000000000E+00 0. -1.
         21   -1    0    0  502  504 -0.00000000000E+00 -0.00000000000E+00 -0.13867214319E+03  0.13867214319E+03  0.00000000000E+00 0.  1.
          6    2    1    2  502    0  0.77581429077E+02 -0.22029086313E+03  0.41630310864E+03  0.50788051301E+03  0.17345718410E+03 0.  0.
         24    2    3    3    0    0 -0.36353651641E+01 -0.18681750708E+03  0.29237886845E+03  0.35590702671E+03  0.79185933800E+02 0.  0.
         -6    2    1    2    0  503 -0.77581429077E+02  0.22029086313E+03  0.13439854848E+03  0.32016543048E+03  0.17290457058E+03 0.  0.
        -24    2    5    5    0    0 -0.15575948676E+02  0.11126813882E+03  0.13487147166E+03  0.19465468325E+03  0.84124449175E+02 0.  0.
          4    1    4    4  501    0 -0.24836669858E+02 -0.16755482549E+03  0.27314813711E+03  0.32140532746E+03  0.00000000000E+00 0. -1.
         -3    1    4    4    0  501  0.21201304694E+02 -0.19262681598E+02  0.19230731335E+02  0.34501699244E+02  0.00000000000E+00 0.  1.
          5    1    3    3  502    0  0.81216794241E+02 -0.33473356044E+02  0.12392424019E+03  0.15197348630E+03  0.47000000000E+01 0. -1.
         13    1    6    6    0    0  0.34228043790E+02  0.34245968517E+02  0.41515141744E+02  0.63779717273E+02  0.00000000000E+00 0. -1.
        -14    1    6    6    0    0 -0.49803992466E+02  0.77022170306E+02  0.93356329918E+02  0.13087496598E+03  0.00000000000E+00 0.  1.
         -5    1    5    5    0  503 -0.62005480400E+02  0.10902272430E+03 -0.47292318505E+00  0.12551074723E+03  0.47000000000E+01 0.  1.
<mgrwt>
<rscale>  2 0.29083749E+03</rscale>
<asrwt>0</asrwt>
<pdfrwt beam="1">  1       21 0.10605751E+00 0.29091981E+03</pdfrwt>
<pdfrwt beam="2">  1       21 0.21334176E-01 0.29091981E+03</pdfrwt>
<totfact> 0.13807861E+04</totfact>
</mgrwt>
</event>
<event>
12    1  0.2768653E-001  0.2084042E+03  0.7546771E-02  0.1142928E+00
         21   -1    0    0  504  503  0.00000000000E+00  0.00000000000E+00  0.22110779297E+03  0.22110779297E+03  0.00000000000E+00 0.  1.
         21   -1    0    0  502  504 -0.00000000000E+00 -0.00000000000E+00 -0.20804093244E+03  0.20804093244E+03  0.00000000000E+00 0.  1.
          6    2    1    2  502    0  0.10790936243E+03 -0.38507017774E+02 -0.45101107022E+02  0.21277912030E+03  0.17353277288E+03 0.  0.
         24    2    3    3    0    0  0.13779685661E+03 -0.52283530972E+02 -0.58016956004E+02  0.17711451910E+03  0.79259348912E+02 0.  0.
         -6    2    1    2    0  503 -0.10790936243E+03  0.38507017774E+02  0.58167967558E+02  0.21636960511E+03  0.17408352204E+03 0.  0.
        -24    2    5    5    0    0 -0.40238761855E+02 -0.16261571078E+02  0.85747571640E+02  0.12492763953E+03  0.79816492200E+02 0.  0.
          4    1    4    4  501    0  0.76443117110E+02  0.57437089833E+00  0.17494888074E+01  0.76465291254E+02  0.00000000000E+00 0. -1.
         -3    1    4    4    0  501  0.61353739497E+02 -0.52857901871E+02 -0.59766444811E+02  0.10064922784E+03  0.00000000000E+00 0.  1.
          5    1    3    3  502    0 -0.29887494176E+02  0.13776513198E+02  0.12915848981E+02  0.35664601203E+02  0.47000000000E+01 0. -1.
         11    1    6    6    0    0 -0.13749421828E+02 -0.41392293711E+02  0.16480556276E+02  0.46625929636E+02  0.00000000000E+00 0. -1.
        -12    1    6    6    0    0 -0.26489340027E+02  0.25130722632E+02  0.69267015365E+02  0.78301709896E+02  0.00000000000E+00 0.  1.
         -5    1    5    5    0  503 -0.67670600575E+02  0.54768588853E+02 -0.27579604082E+02  0.91441965577E+02  0.47000000000E+01 0.  1.
<mgrwt>
<rscale>  2 0.20828911E+03</rscale>
<asrwt>0</asrwt>
<pdfrwt beam="1">  1       21 0.34016584E-01 0.20840416E+03</pdfrwt>
<pdfrwt beam="2">  1       21 0.32006297E-01 0.20840416E+03</pdfrwt>
<totfact> 0.77646732E+04</totfact>
</mgrwt>
</event>
<event>
12    1  0.2768653E-001  0.1813730E+03  0.7546771E-02  0.1166608E+00
         21   -1    0    0  504  503  0.00000000000E+00  0.00000000000E+00  0.47656660043E+02  0.47656660043E+02  0.00000000000E+00 0.  1.
         21   -1    0    0  502  504 -0.00000000000E+00 -0.00000000000E+00 -0.70583024195E+03  0.70583024195E+03  0.00000000000E+00 0.  1.
          6    2    1    2  502    0  0.44654462909E+02  0.26355987452E+02 -0.26916112975E+03  0.32427035524E+03  0.17324806028E+03 0.  0.
         24    2    3    3    0    0  0.38268747950E+02 -0.44905197652E+02 -0.20366857650E+03  0.22716063179E+03  0.81486745766E+02 0.  0.
         -6    2    1    2    0  503 -0.44654462909E+02 -0.26355987452E+02 -0.38901245215E+03  0.42921654675E+03  0.17380304065E+03 0.  0.
        -24    2    5    5    0    0 -0.82664168694E+02 -0.37732415106E+02 -0.35805131568E+03  0.37867109382E+03  0.83270359054E+02 0.  0.
          4    1    4    4  501    0  0.93412660985E+01 -0.63469342635E+02 -0.15329618851E+03  0.16617863316E+03  0.00000000000E+00 0. -1.
         -3    1    4    4    0  501  0.28927481852E+02  0.18564144983E+02 -0.50372387993E+02  0.60981998634E+02  0.00000000000E+00 0.  1.
          5    1    3    3  502    0  0.63857149587E+01  0.71261185105E+02 -0.65492553248E+02  0.97109723453E+02  0.47000000000E+01 0. -1.
         13    1    6    6    0    0 -0.34285957353E+02 -0.12386454824E+02 -0.33348940520E+02  0.49407519352E+02  0.00000000000E+00 0. -1.
        -14    1    6    6    0    0 -0.48378211341E+02 -0.25345960282E+02 -0.32470237516E+03  0.32926357447E+03  0.00000000000E+00 0.  1.
         -5    1    5    5    0  503  0.38009705784E+02  0.11376427653E+02 -0.30961136472E+02  0.50545452927E+02  0.47000000000E+01 0.  1.
<mgrwt>
<rscale>  2 0.18123989E+03</rscale>
<asrwt>0</asrwt>
<pdfrwt beam="1">  1       21 0.73317944E-02 0.18137298E+03</pdfrwt>
<pdfrwt beam="2">  1       21 0.10858926E+00 0.18137298E+03</pdfrwt>
<totfact> 0.94532585E+04</totfact>
</mgrwt>
</event>
<event>
12    1  0.2768653E-001  0.1972753E+03  0.7546771E-02  0.1152447E+00
         21   -1    0    0  504  503  0.00000000000E+00  0.00000000000E+00  0.72515447099E+02  0.72515447099E+02  0.00000000000E+00 0.  1.
         21   -1    0    0  502  504 -0.00000000000E+00 -0.00000000000E+00 -0.26363312987E+04  0.26363312987E+04  0.00000000000E+00 0.  1.
          6    2    1    2  502    0 -0.10815655708E+02  0.95876051397E+02 -0.24932220960E+04  0.25010145851E+04  0.17207073911E+03 0.  0.
         24    2    3    3    0    0 -0.21072052508E+02 -0.16714849573E+02 -0.83223283088E+03  0.83617545369E+03  0.76514619205E+02 0.  0.
         -6    2    1    2    0  503  0.10815655708E+02 -0.95876051397E+02 -0.70593755624E+02  0.20783216072E+03  0.17000450893E+03 0.  0.
        -24    2    5    5    0    0  0.62092010400E+02 -0.10033338268E+03 -0.41873943342E+02  0.14870475616E+03  0.80233857808E+02 0.  0.
          2    1    4    4  501    0  0.18726491138E+02 -0.45186929446E+01 -0.64507075857E+02  0.67322083240E+02  0.00000000000E+00 0. -1.
         -1    1    4    4    0  501 -0.39798543645E+02 -0.12196156629E+02 -0.76772575503E+03  0.76885337044E+03  0.00000000000E+00 0.  1.
          5    1    3    3  502    0  0.10256396800E+02  0.11259090097E+03 -0.16609892651E+04  0.16648391314E+04  0.47000000000E+01 0. -1.
         11    1    6    6    0    0  0.20507343871E+02 -0.73336209968E+02 -0.58913836506E+02  0.96278715078E+02  0.00000000000E+00 0. -1.
        -12    1    6    6    0    0  0.41584666529E+02 -0.26997172711E+02  0.17039893164E+02  0.52426041084E+02  0.00000000000E+00 0.  1.
         -5    1    5    5    0  503 -0.51276354692E+02  0.44573312823E+01 -0.28719812283E+02  0.59127404562E+02  0.47000000000E+01 0.  1.
<mgrwt>
<rscale>  2 0.19682382E+03</rscale>
<asrwt>0</asrwt>
<pdfrwt beam="1">  1       21 0.11156225E-01 0.19727528E+03</pdfrwt>
<pdfrwt beam="2">  1       21 0.40558936E+00 0.19727528E+03</pdfrwt>
<totfact> 0.53334605E+02</totfact>
</mgrwt>
</event>
<event>
12    1  0.2768653E-001  0.2110916E+03  0.7546771E-02  0.1140860E+00
         21   -1    0    0  504  503  0.00000000000E+00  0.00000000000E+00  0.89468299862E+03  0.89468299862E+03  0.00000000000E+00 0. -1.
         21   -1    0    0  502  504 -0.00000000000E+00 -0.00000000000E+00 -0.53354485365E+02  0.53354485365E+02  0.00000000000E+00 0.  1.
          6    2    1    2  502    0 -0.68524052968E+02 -0.10023816015E+03  0.29450064870E+03  0.36188016925E+03  0.17170728064E+03 0.  0.
         24    2    3    3    0    0 -0.22804243384E+02  0.11873386341E+02  0.95455794953E+02  0.12885604250E+03  0.82650227336E+02 0.  0.
         -6    2    1    2    0  503  0.68524052968E+02  0.10023816015E+03  0.54682786455E+03  0.58615731473E+03  0.17267440338E+03 0.  0.
        -24    2    5    5    0    0  0.60914524135E+02  0.58410226530E+02  0.52585457906E+03  0.53851857352E+03  0.79730056433E+02 0.  0.
          2    1    4    4  501    0 -0.53747703349E+02  0.14815630956E+01  0.55719731914E+02  0.77431900203E+02  0.00000000000E+00 0. -1.
         -1    1    4    4    0  501  0.30943459965E+02  0.10391823245E+02  0.39736063039E+02  0.51424142295E+02  0.00000000000E+00 0.  1.
          5    1    3    3  502    0 -0.45719809584E+02 -0.11211154649E+03  0.19904485375E+03  0.23302412675E+03  0.47000000000E+01 0. -1.
         13    1    6    6    0    0  0.91807880662E+01  0.62169140264E+02  0.24617770970E+03  0.25407233935E+03  0.00000000000E+00 0. -1.
        -14    1    6    6    0    0  0.51733736069E+02 -0.37589137331E+01  0.27967686936E+03  0.28444623417E+03  0.00000000000E+00 0.  1.
         -5    1    5    5    0  503  0.76095288324E+01  0.41827933616E+02  0.20973285489E+02  0.47638741208E+02  0.47000000000E+01 0.  1.
<mgrwt>
<rscale>  2 0.21089378E+03</rscale>
<asrwt>0</asrwt>
<pdfrwt beam="1">  1       21 0.13764353E+00 0.21109165E+03</pdfrwt>
<pdfrwt beam="2">  1       21 0.82083830E-02 0.21109165E+03</pdfrwt>
<totfact> 0.42453282E+04</totfact>
</mgrwt>
</event>
<event>
12    1  0.2768653E-001  0.2385133E+03  0.7546771E-02  0.1120805E+00
         21   -1    0    0  504  503  0.00000000000E+00  0.00000000000E+00  0.57359106101E+03  0.57359106101E+03  0.00000000000E+00 0. -1.
         21   -1    0    0  502  504 -0.00000000000E+00 -0.00000000000E+00 -0.14387596508E+03  0.14387596508E+03  0.00000000000E+00 0.  1.
          6    2    1    2  502    0  0.56341910746E+02 -0.15278745509E+03  0.14781149077E+02  0.23886616672E+03  0.17412680981E+03 0.  0.
         24    2    3    3    0    0  0.10389470923E+03 -0.13158177879E+03  0.21583280277E+01  0.18508536194E+03  0.78384039882E+02 0.  0.
         -6    2    1    2    0  503 -0.56341910746E+02  0.15278745509E+03  0.41493394686E+03  0.47860085937E+03  0.17427043640E+03 0.  0.
        -24    2    5    5    0    0 -0.10254353079E+03  0.13161754904E+03  0.36167902733E+03  0.40483819219E+03  0.72414695504E+02 0.  0.
          2    1    4    4  501    0  0.62170359350E+02 -0.11434200164E+03  0.27912464270E+02  0.13311030232E+03  0.00000000000E+00 0. -1.
         -1    1    4    4    0  501  0.41724349881E+02 -0.17239777150E+02 -0.25754136243E+02  0.51975059623E+02  0.00000000000E+00 0.  1.
          5    1    3    3  502    0 -0.47552798485E+02 -0.21205676298E+02  0.12622821049E+02  0.53780804775E+02  0.47000000000E+01 0. -1.
         11    1    6    6    0    0 -0.23383519344E+02  0.88249520373E+02  0.19403557786E+03  0.21444013687E+03  0.00000000000E+00 0. -1.
        -12    1    6    6    0    0 -0.79160011442E+02  0.43368028667E+02  0.16764344946E+03  0.19039805532E+03  0.00000000000E+00 0.  1.
         -5    1    5    5    0  503  0.46201620039E+02  0.21169906050E+02  0.53254919530E+02  0.73762667187E+02  0.47000000000E+01 0.  1.
<mgrwt>
<rscale>  2 0.23848708E+03</rscale>
<asrwt>0</asrwt>
<pdfrwt beam="1">  1       21 0.88244778E-01 0.23851332E+03</pdfrwt>
<pdfrwt beam="2">  1       21 0.22134764E-01 0.23851332E+03</pdfrwt>
<totfact> 0.20440119E+04</totfact>
</mgrwt>
</event>
<event>
12    1  0.2768653E-001  0.2191612E+03  0.7546771E-02  0.1134539E+00
         21   -1    0    0  504  503  0.00000000000E+00  0.00000000000E+00  0.75262216610E+03  0.75262216610E+03  0.00000000000E+00 0. -1.
         21   -1    0    0  502  504 -0.00000000000E+00 -0.00000000000E+00 -0.69636521066E+02  0.69636521066E+02  0.00000000000E+00 0.  1.
          6    2    1    2  502    0 -0.13366252470E+03  0.92900695650E+01  0.46067257217E+03  0.51008127901E+03  0.17323890020E+03 0.  0.
         24    2    3    3    0    0 -0.45762515350E+02  0.46475761939E+02  0.12584633331E+03  0.16188609295E+03  0.78202322377E+02 0.  0.
         -6    2    1    2    0  503  0.13366252470E+03 -0.92900695650E+01  0.22231307286E+03  0.31217740815E+03  0.17343487508E+03 0.  0.
        -24    2    5    5    0    0  0.13811949135E+03  0.34094556612E+02  0.12568599315E+03  0.20605967696E+03  0.80151038124E+02 0.  0.
          2    1    4    4  501    0  0.18287554798E+02  0.21222525740E+02  0.61802222445E+02  0.67855323729E+02  0.00000000000E+00 0. -1.
         -1    1    4    4    0  501 -0.64050070147E+02  0.25253236200E+02  0.64044110865E+02  0.94030769224E+02  0.00000000000E+00 0.  1.
          5    1    3    3  502    0 -0.87900009353E+02 -0.37185692374E+02  0.33482623886E+03  0.34819518606E+03  0.47000000000E+01 0. -1.
         13    1    6    6    0    0  0.48859435256E+02  0.40063699840E+02  0.89505593726E+02  0.10956092263E+03  0.00000000000E+00 0. -1.
        -14    1    6    6    0    0  0.89260056098E+02 -0.59691432271E+01  0.36180399420E+02  0.96498754332E+02  0.00000000000E+00 0.  1.
         -5    1    5    5    0  503 -0.44569666516E+01 -0.43384626177E+02  0.96627079713E+02  0.10611773120E+03  0.47000000000E+01 0.  1.
<mgrwt>
<rscale>  2 0.21912243E+03</rscale>
<asrwt>0</asrwt>
<pdfrwt beam="1">  1       21 0.11578802E+00 0.21916120E+03</pdfrwt>
<pdfrwt beam="2">  1       21 0.10713311E-01 0.21916120E+03</pdfrwt>
<totfact> 0.40828724E+04</totfact>
</mgrwt>
</event>
<event>
12    1  0.2768653E-001  0.2126297E+03  0.7546771E-02  0.1140259E+00
         21   -1    0    0  504  503  0.00000000000E+00  0.00000000000E+00  0.19810149269E+03  0.19810149269E+03  0.00000000000E+00 0.  1.
         21   -1    0    0  502  504 -0.00000000000E+00 -0.00000000000E+00 -0.28525667954E+03  0.28525667954E+03  0.00000000000E+00 0. -1.
          6    2    1    2  502    0 -0.54282699943E+02  0.95603301119E+02 -0.15578594220E+03  0.26359184548E+03  0.18200219372E+03 0.  0.
         24    2    3    3    0    0 -0.51568922839E+02  0.82503394243E+02 -0.24176055471E+02  0.13122030613E+03  0.84664769638E+02 0.  0.
         -6    2    1    2    0  503  0.54282699943E+02 -0.95603301119E+02  0.68630755343E+02  0.21976632675E+03  0.17748367558E+03 0.  0.
        -24    2    5    5    0    0  0.65922566626E+02 -0.11457368162E+03  0.84128798228E+01  0.15539518132E+03  0.81264829529E+02 0.  0.
          2    1    4    4  501    0  0.32634075087E+01  0.73272552048E+02 -0.15027343080E+02  0.74868803598E+02  0.00000000000E+00 0. -1.
         -1    1    4    4    0  501 -0.54832330348E+02  0.92308421954E+01 -0.91487123910E+01  0.56351502530E+02  0.00000000000E+00 0.  1.
          5    1    3    3  502    0 -0.27137771041E+01  0.13099906877E+02 -0.13160988673E+03  0.13237153935E+03  0.47000000000E+01 0. -1.
         13    1    6    6    0    0 -0.54281442147E+01 -0.16820844908E+02 -0.24282049674E+02  0.30033706222E+02  0.00000000000E+00 0. -1.
        -14    1    6    6    0    0  0.71350710841E+02 -0.97752836713E+02  0.32694929497E+02  0.12536147509E+03  0.00000000000E+00 0.  1.
         -5    1    5    5    0  503 -0.11639866683E+02  0.18970380501E+02  0.60217875520E+02  0.64371145438E+02  0.47000000000E+01 0.  1.
<mgrwt>
<rscale>  2 0.21165946E+03</rscale>
<asrwt>0</asrwt>
<pdfrwt beam="1">  1       21 0.30477153E-01 0.21262973E+03</pdfrwt>
<pdfrwt beam="2">  1       21 0.43885643E-01 0.21262973E+03</pdfrwt>
<totfact> 0.51058187E+04</totfact>
</mgrwt>
</event>
<event>
12    1  0.2768653E-001  0.2043072E+03  0.7546771E-02  0.1146162E+00
         21   -1    0    0  504  503  0.00000000000E+00  0.00000000000E+00  0.21978208454E+03  0.21978208454E+03  0.00000000000E+00 0.  1.
         21   -1    0    0  502  504 -0.00000000000E+00 -0.00000000000E+00 -0.19762758573E+03  0.19762758573E+03  0.00000000000E+00 0.  1.
          6    2    1    2  502    0  0.10788025969E+03 -0.13530656547E+02  0.52372556340E+02  0.21091308830E+03  0.17297461392E+03 0.  0.
         24    2    3    3    0    0  0.10658278162E+03  0.29453001218E+02 -0.79323326303E+01  0.13669686421E+03  0.79973384112E+02 0.  0.
         -6    2    1    2    0  503 -0.10788025969E+03  0.13530656547E+02 -0.30218057530E+02  0.20649658196E+03  0.17293489602E+03 0.  0.
        -24    2    5    5    0    0 -0.35838163296E+02  0.59414103653E+02 -0.56692086082E+02  0.11695151756E+03  0.75161527214E+02 0.  0.
          4    1    4    4  501    0  0.11391121386E+03  0.12497197982E+02 -0.17452610896E+02  0.11591608269E+03  0.00000000000E+00 0. -1.
         -3    1    4    4    0  501 -0.73284322360E+01  0.16955803236E+02  0.95202782655E+01  0.20780781522E+02  0.00000000000E+00 0.  1.
          5    1    3    3  502    0  0.12974780733E+01 -0.42983657765E+02  0.60304888970E+02  0.74216224088E+02  0.47000000000E+01 0. -1.
         13    1    6    6    0    0  0.91204719849E+01  0.56488147735E+02 -0.32824237826E+02  0.65966085473E+02  0.00000000000E+00 0. -1.
        -14    1    6    6    0    0 -0.44958635281E+02  0.29259559175E+01 -0.23867848256E+02  0.50985432083E+02  0.00000000000E+00 0.  1.
         -5    1    5    5    0  503 -0.72042096398E+02 -0.45883447106E+02  0.26474028552E+02  0.89545064406E+02  0.47000000000E+01 0.  1.
<mgrwt>
<rscale>  2 0.20429883E+03</rscale>
<asrwt>0</asrwt>
<pdfrwt beam="1">  1       21 0.33812629E-01 0.20430723E+03</pdfrwt>
<pdfrwt beam="2">  1       21 0.30404244E-01 0.20430723E+03</pdfrwt>
<totfact> 0.87050860E+04</totfact>
</mgrwt>
</event>
<event>
12    1  0.2768653E-001  0.2144391E+03  0.7546771E-02  0.1138829E+00
         21   -1    0    0  504  503  0.00000000000E+00  0.00000000000E+00  0.54420526564E+03  0.54420526564E+03  0.00000000000E+00 0.  1.
         21   -1    0    0  502  504 -0.00000000000E+00 -0.00000000000E+00 -0.12269894586E+03  0.12269894586E+03  0.00000000000E+00 0.  1.
          6    2    1    2  502    0  0.11993248834E+03 -0.35569106369E+02  0.22402391971E+02  0.21560607738E+03  0.17416988933E+03 0.  0.
         24    2    3    3    0    0  0.15235948035E+03 -0.44912455066E+02  0.30007672251E+02  0.18069564535E+03  0.80745996687E+02 0.  0.
         -6    2    1    2    0  503 -0.11993248834E+03  0.35569106369E+02  0.39910392781E+03  0.45129813413E+03  0.16952019818E+03 0.  0.
        -24    2    5    5    0    0 -0.32452102052E+01  0.43134420355E+02  0.21144745703E+03  0.23014163778E+03  0.79900167377E+02 0.  0.
          2    1    4    4  501    0  0.84632225576E+02 -0.37639835783E+02  0.55483091578E+02  0.10797103452E+03  0.00000000000E+00 0. -1.
         -1    1    4    4    0  501  0.67727254779E+02 -0.72726192834E+01 -0.25475419327E+02  0.72724610834E+02  0.00000000000E+00 0.  1.
          5    1    3    3  502    0 -0.32426992015E+02  0.93433486969E+01 -0.76052802795E+01  0.34910432025E+02  0.47000000000E+01 0. -1.
         11    1    6    6    0    0 -0.38183992434E+01  0.58913981878E+02  0.89766767280E+02  0.10744072757E+03  0.00000000000E+00 0. -1.
        -12    1    6    6    0    0  0.57318903820E+00 -0.15779561523E+02  0.12168068975E+03  0.12270091020E+03  0.00000000000E+00 0.  1.
         -5    1    5    5    0  503 -0.11668727813E+03 -0.75653139859E+01  0.18765647078E+03  0.22115649635E+03  0.47000000000E+01 0.  1.
<mgrwt>
<rscale>  2 0.21349306E+03</rscale>
<asrwt>0</asrwt>
<pdfrwt beam="1">  1       21 0.83723885E-01 0.21443907E+03</pdfrwt>
<pdfrwt beam="2">  1       21 0.18876761E-01 0.21443907E+03</pdfrwt>
<totfact> 0.31509903E+04</totfact>
</mgrwt>
</event>
<event>
12    1  0.2768653E-001  0.3029201E+03  0.7546771E-02  0.1083859E+00
         21   -1    0    0  504  503  0.00000000000E+00  0.00000000000E+00  0.20859435226E+03  0.20859435226E+03  0.00000000000E+00 0.  1.
         21   -1    0    0  502  504 -0.00000000000E+00 -0.00000000000E+00 -0.61835733754E+03  0.61835733754E+03  0.00000000000E+00 0.  1.
          6    2    1    2  502    0  0.22148376690E+03 -0.11136911332E+03 -0.42764163965E+03  0.52405912952E+03  0.17407602037E+03 0.  0.
         24    2    3    3    0    0  0.16059244753E+03 -0.12959596100E+03 -0.24263146102E+03  0.32837870907E+03  0.79859272351E+02 0.  0.
         -6    2    1    2    0  503 -0.22148376690E+03  0.11136911332E+03  0.17878654368E+02  0.30289256028E+03  0.17310724534E+03 0.  0.
        -24    2    5    5    0    0 -0.23520908047E+03  0.69705126065E+02  0.14582795803E+02  0.25865202739E+03  0.80660381855E+02 0.  0.
          4    1    4    4  501    0  0.77294413401E+02 -0.77988515815E+02 -0.18375479653E+03  0.21406181395E+03  0.00000000000E+00 0. -1.
         -3    1    4    4    0  501  0.83298034134E+02 -0.51607445188E+02 -0.58876664491E+02  0.11431689512E+03  0.00000000000E+00 0.  1.
          5    1    3    3  502    0  0.60891319365E+02  0.18226847682E+02 -0.18501017863E+03  0.19568042045E+03  0.47000000000E+01 0. -1.
         13    1    6    6    0    0  0.49461571093E+01  0.78224089679E+01 -0.37265429212E+01  0.99770573996E+01  0.00000000000E+00 0. -1.
        -14    1    6    6    0    0 -0.24015523758E+03  0.61882717097E+02  0.18309338724E+02  0.24867496999E+03  0.00000000000E+00 0.  1.
         -5    1    5    5    0  503  0.13725313574E+02  0.41663987256E+02  0.32958585654E+01  0.44240532891E+02  0.47000000000E+01 0.  1.
<mgrwt>
<rscale>  2 0.30278111E+03</rscale>
<asrwt>0</asrwt>
<pdfrwt beam="1">  1       21 0.32091439E-01 0.30292012E+03</pdfrwt>
<pdfrwt beam="2">  1       21 0.95131897E-01 0.30292012E+03</pdfrwt>
<totfact> 0.80800668E+03</totfact>
</mgrwt>
</event>
<event>
12    1  0.2768653E-001  0.1956460E+03  0.7546771E-02  0.1153486E+00
         21   -1    0    0  504  503  0.00000000000E+00  0.00000000000E+00  0.30581872052E+03  0.30581872052E+03  0.00000000000E+00 0.  1.
         21   -1    0    0  502  504 -0.00000000000E+00 -0.00000000000E+00 -0.55713979866E+03  0.55713979866E+03  0.00000000000E+00 0.  1.
          6    2    1    2  502    0 -0.47691824746E+02  0.78105385617E+02 -0.50561403071E+03  0.54211235226E+03  0.17281577769E+03 0.  0.
         24    2    3    3    0    0 -0.88327581963E+02  0.22111417790E+02 -0.37524982115E+03  0.39445224820E+03  0.80557254836E+02 0.  0.
         -6    2    1    2    0  503  0.47691824746E+02 -0.78105385617E+02  0.25429295256E+03  0.32084616692E+03  0.17292309184E+03 0.  0.
        -24    2    5    5    0    0  0.52914889917E+02 -0.10927846944E+03  0.24821194631E+03  0.28831756102E+03  0.82316925604E+02 0.  0.
          4    1    4    4  501    0 -0.55610479252E+02 -0.16715826627E+02 -0.10999619555E+03  0.12438290597E+03  0.00000000000E+00 0. -1.
         -3    1    4    4    0  501 -0.32717102711E+02  0.38827244417E+02 -0.26525362560E+03  0.27006934223E+03  0.00000000000E+00 0.  1.
          5    1    3    3  502    0  0.40635757217E+02  0.55993967827E+02 -0.13036420956E+03  0.14766010406E+03  0.47000000000E+01 0. -1.
         13    1    6    6    0    0 -0.21150244470E+02 -0.13872819228E+02  0.53671961471E+02  0.59333526801E+02  0.00000000000E+00 0. -1.
        -14    1    6    6    0    0  0.74065134387E+02 -0.95405650213E+02  0.19453998484E+03  0.22898403421E+03  0.00000000000E+00 0.  1.
         -5    1    5    5    0  503 -0.52230651714E+01  0.31173083824E+02  0.60810062535E+01  0.32528605903E+02  0.47000000000E+01 0.  1.
<mgrwt>
<rscale>  2 0.19562228E+03</rscale>
<asrwt>0</asrwt>
<pdfrwt beam="1">  1       21 0.47049034E-01 0.19564600E+03</pdfrwt>
<pdfrwt beam="2">  1       21 0.85713815E-01 0.19564600E+03</pdfrwt>
<totfact> 0.50703859E+03</totfact>
</mgrwt>
</event>
<event>
12    1  0.2768653E-001  0.1891570E+03  0.7546771E-02  0.1159285E+00
         21   -1    0    0  504  503  0.00000000000E+00  0.00000000000E+00  0.76339933026E+02  0.76339933026E+02  0.00000000000E+00 0.  1.
         21   -1    0    0  502  504 -0.00000000000E+00 -0.00000000000E+00 -0.59780501086E+03  0.59780501086E+03  0.00000000000E+00 0.  1.
          6    2    1    2  502    0  0.13330599749E+02 -0.75459801208E+02 -0.10382614533E+03  0.21577824929E+03  0.17294073529E+03 0.  0.
         24    2    3    3    0    0  0.61554033330E+02 -0.13918264696E+02 -0.26379292548E+02  0.10562850908E+03  0.80491600453E+02 0.  0.
         -6    2    1    2    0  503 -0.13330599749E+02  0.75459801208E+02 -0.41763893251E+03  0.45836669460E+03  0.17264374383E+03 0.  0.
        -24    2    5    5    0    0  0.46122119689E+02  0.25053997081E+02 -0.31879910214E+03  0.33240331498E+03  0.78129018871E+02 0.  0.
          4    1    4    4  501    0  0.27088933090E+02  0.92735740904E+01 -0.50163707592E+02  0.57759908516E+02  0.00000000000E+00 0. -1.
         -3    1    4    4    0  501  0.34465100240E+02 -0.23191838786E+02  0.23784415044E+02  0.47868600563E+02  0.00000000000E+00 0.  1.
          5    1    3    3  502    0 -0.48223433581E+02 -0.61541536512E+02 -0.77446852778E+02  0.11014974021E+03  0.47000000000E+01 0. -1.
         11    1    6    6    0    0  0.23288985306E+02 -0.25087034569E+02 -0.74786925613E+02  0.82248528149E+02  0.00000000000E+00 0. -1.
        -12    1    6    6    0    0  0.22833134383E+02  0.50141031650E+02 -0.24401217652E+03  0.25015478683E+03  0.00000000000E+00 0.  1.
         -5    1    5    5    0  503 -0.59452719438E+02  0.50405804127E+02 -0.98839830372E+02  0.12596337962E+03  0.47000000000E+01 0.  1.
<mgrwt>
<rscale>  2 0.18908913E+03</rscale>
<asrwt>0</asrwt>
<pdfrwt beam="1">  1       21 0.11744605E-01 0.18915704E+03</pdfrwt>
<pdfrwt beam="2">  1       21 0.91970000E-01 0.18915704E+03</pdfrwt>
<totfact> 0.61028723E+04</totfact>
</mgrwt>
</event>
<event>
12    1  0.2768653E-001  0.2153127E+03  0.7546771E-02  0.1137742E+00
         21   -1    0    0  504  503  0.00000000000E+00  0.00000000000E+00  0.10466924649E+03  0.10466924649E+03  0.00000000000E+00 0.  1.
         21   -1    0    0  502  504 -0.00000000000E+00 -0.00000000000E+00 -0.17732071035E+04  0.17732071035E+04  0.00000000000E+00 0.  1.
          6    2    1    2  502    0  0.12528501132E+03 -0.28230868226E+02 -0.16493469683E+04  0.16633415073E+04  0.17281849420E+03 0.  0.
         24    2    3    3    0    0  0.11478958568E+03 -0.46294464387E+02 -0.16213404926E+04  0.16280867183E+04  0.81249878995E+02 0.  0.
         -6    2    1    2    0  503 -0.12528501132E+03  0.28230868226E+02 -0.19190888640E+02  0.21453484267E+03  0.17077351238E+03 0.  0.
        -24    2    5    5    0    0 -0.20372866560E+02 -0.29025215059E+02  0.20139825871E+02  0.88622919902E+02  0.78682225088E+02 0.  0.
          4    1    4    4  501    0  0.13675067594E+02 -0.70101743925E+01 -0.73109705995E+03  0.73125854599E+03  0.00000000000E+00 0. -1.
         -3    1    4    4    0  501  0.10111451809E+03 -0.39284289994E+02 -0.89024343267E+03  0.89682817230E+03  0.00000000000E+00 0.  1.
          5    1    3    3  502    0  0.10495425639E+02  0.18063596160E+02 -0.28006475701E+02  0.35254788991E+02  0.47000000000E+01 0. -1.
         11    1    6    6    0    0  0.98487783036E+01  0.23501079323E+02  0.88896154116E+01  0.26987486463E+02  0.00000000000E+00 0. -1.
        -12    1    6    6    0    0 -0.30221644864E+02 -0.52526294382E+02  0.11250210459E+02  0.61635433438E+02  0.00000000000E+00 0.  1.
         -5    1    5    5    0  503 -0.10491214476E+03  0.57256083285E+02 -0.39330714511E+02  0.12591192277E+03  0.47000000000E+01 0.  1.
<mgrwt>
<rscale>  2 0.21490203E+03</rscale>
<asrwt>0</asrwt>
<pdfrwt beam="1">  1       21 0.16102961E-01 0.21531267E+03</pdfrwt>
<pdfrwt beam="2">  1       21 0.27280109E+00 0.21531267E+03</pdfrwt>
<totfact> 0.16433759E+03</totfact>
</mgrwt>
</event>
<event>
12    1  0.2768653E-001  0.3584331E+03  0.7546771E-02  0.1059208E+00
         21   -1    0    0  504  503  0.00000000000E+00  0.00000000000E+00  0.15701193193E+03  0.15701193193E+03  0.00000000000E+00 0.  1.
         21   -1    0    0  502  504 -0.00000000000E+00 -0.00000000000E+00 -0.91627890426E+03  0.91627890426E+03  0.00000000000E+00 0. -1.
          6    2    1    2  502    0 -0.19840108196E+03  0.24304467976E+03 -0.55520857959E+03  0.66085615080E+03  0.17332218415E+03 0.  0.
         24    2    3    3    0    0 -0.38714088513E+02  0.95550761016E+02 -0.13674006295E+03  0.18927118353E+03  0.80604016753E+02 0.  0.
         -6    2    1    2    0  503  0.19840108196E+03 -0.24304467976E+03 -0.20405839274E+03  0.41243468539E+03  0.17328830424E+03 0.  0.
        -24    2    5    5    0    0  0.13270209905E+03 -0.22676139217E+03 -0.20758207484E+03  0.34449347444E+03  0.80962090298E+02 0.  0.
          2    1    4    4  501    0 -0.15433496180E+02 -0.41463738436E+01  0.27773114863E+01  0.16220316873E+02  0.00000000000E+00 0. -1.
         -1    1    4    4    0  501 -0.23280592333E+02  0.99697134860E+02 -0.13951737444E+03  0.17305086665E+03  0.00000000000E+00 0.  1.
          5    1    3    3  502    0 -0.15968699344E+03  0.14749391874E+03 -0.41846851664E+03  0.47158496727E+03  0.47000000000E+01 0. -1.
         11    1    6    6    0    0  0.20507997806E+02 -0.96909542265E+02 -0.10597765450E+03  0.14506309183E+03  0.00000000000E+00 0. -1.
        -12    1    6    6    0    0  0.11219410124E+03 -0.12985184991E+03 -0.10160442033E+03  0.19943038261E+03  0.00000000000E+00 0.  1.
         -5    1    5    5    0  503  0.65698982912E+02 -0.16283287587E+02  0.35236821002E+01  0.67941210954E+02  0.47000000000E+01 0.  1.
<mgrwt>
<rscale>  2 0.35842900E+03</rscale>
<asrwt>0</asrwt>
<pdfrwt beam="1">  1       21 0.24155682E-01 0.35843310E+03</pdfrwt>
<pdfrwt beam="2">  1       21 0.14096599E+00 0.35843310E+03</pdfrwt>
<totfact> 0.51427293E+03</totfact>
</mgrwt>
</event>
<event>
12    1  0.2768653E-001  0.1814484E+03  0.7546771E-02  0.1166730E+00
         21   -1    0    0  504  503  0.00000000000E+00  0.00000000000E+00  0.45088595615E+02  0.45088595615E+02  0.00000000000E+00 0.  1.
         21   -1    0    0  502  504 -0.00000000000E+00 -0.00000000000E+00 -0.10487553872E+04  0.10487553872E+04  0.00000000000E+00 0.  1.
          6    2    1    2  502    0 -0.14452293465E+02 -0.49140982865E+02 -0.80450841834E+03  0.82442317535E+03  0.17267330974E+03 0.  0.
         24    2    3    3    0    0 -0.36874501842E+02 -0.43348315705E+02 -0.24230812272E+03  0.26172647835E+03  0.80924148272E+02 0.  0.
         -6    2    1    2    0  503  0.14452293465E+02  0.49140982865E+02 -0.19915837328E+03  0.26942080749E+03  0.17406840288E+03 0.  0.
        -24    2    5    5    0    0 -0.21054896226E+02 -0.37777245634E+01 -0.18422081687E+03  0.20379786404E+03  0.84490710505E+02 0.  0.
          2    1    4    4  501    0 -0.96808722152E+01  0.24225140334E+02 -0.64945979264E+02  0.69989691624E+02  0.00000000000E+00 0. -1.
         -1    1    4    4    0  501 -0.27193629627E+02 -0.67573456039E+02 -0.17736214346E+03  0.19173678673E+03  0.00000000000E+00 0.  1.
          5    1    3    3  502    0  0.22422208377E+02 -0.57926671602E+01 -0.56220029561E+03  0.56269669700E+03  0.47000000000E+01 0. -1.
         13    1    6    6    0    0 -0.36426844857E+02  0.31802844272E+02 -0.10535475123E+03  0.11592221330E+03  0.00000000000E+00 0. -1.
        -14    1    6    6    0    0  0.15371948631E+02 -0.35580568835E+02 -0.78866065639E+02  0.87875650738E+02  0.00000000000E+00 0.  1.
         -5    1    5    5    0  503  0.35507189691E+02  0.52918707428E+02 -0.14937556403E+02  0.65622943449E+02  0.47000000000E+01 0.  1.
<mgrwt>
<rscale>  2 0.18111297E+03</rscale>
<asrwt>0</asrwt>
<pdfrwt beam="1">  1       21 0.69367070E-02 0.18144838E+03</pdfrwt>
<pdfrwt beam="2">  1       21 0.16134698E+00 0.18144838E+03</pdfrwt>
<totfact> 0.38069783E+04</totfact>
</mgrwt>
</event>
<event>
12    1  0.2768653E-001  0.1741974E+03  0.7546771E-02  0.1173619E+00
         21   -1    0    0  504  503  0.00000000000E+00  0.00000000000E+00  0.32426903845E+02  0.32426903845E+02  0.00000000000E+00 0.  1.
         21   -1    0    0  502  504 -0.00000000000E+00 -0.00000000000E+00 -0.96170676692E+03  0.96170676692E+03  0.00000000000E+00 0.  1.
          6    2    1    2  502    0  0.84612752166E+01 -0.81753962199E+01 -0.54925476813E+03  0.57621656665E+03  0.17379960034E+03 0.  0.
         24    2    3    3    0    0  0.11257846735E+02  0.44896831788E+02 -0.48045495624E+03  0.48915344981E+03  0.79320034417E+02 0.  0.
         -6    2    1    2    0  503 -0.84612752166E+01  0.81753962199E+01 -0.38002509494E+03  0.41791710412E+03  0.17348545428E+03 0.  0.
        -24    2    5    5    0    0  0.49154314384E+02 -0.19736728370E+02 -0.14050560915E+03  0.16994469247E+03  0.79584465993E+02 0.  0.
          2    1    4    4  501    0 -0.46352382490E+01  0.10523392697E+02 -0.40069297918E+03  0.40085794341E+03  0.00000000000E+00 0. -1.
         -1    1    4    4    0  501  0.15893084984E+02  0.34373439091E+02 -0.79761977061E+02  0.88295506397E+02  0.00000000000E+00 0.  1.
          5    1    3    3  502    0 -0.27965715182E+01 -0.53072228007E+02 -0.68799811889E+02  0.87063116840E+02  0.47000000000E+01 0. -1.
         13    1    6    6    0    0  0.29500547721E+02  0.29065755126E+02 -0.77414337785E+02  0.87795672624E+02  0.00000000000E+00 0. -1.
        -14    1    6    6    0    0  0.19653766664E+02 -0.48802483496E+02 -0.63091271369E+02  0.82149019851E+02  0.00000000000E+00 0.  1.
         -5    1    5    5    0  503 -0.57615589601E+02  0.27912124590E+02 -0.23951948579E+03  0.24797241164E+03  0.47000000000E+01 0.  1.
<mgrwt>
<rscale>  2 0.17411898E+03</rscale>
<asrwt>0</asrwt>
<pdfrwt beam="1">  1       21 0.49887549E-02 0.17419739E+03</pdfrwt>
<pdfrwt beam="2">  1       21 0.14795487E+00 0.17419739E+03</pdfrwt>
<totfact> 0.84448210E+04</totfact>
</mgrwt>
</event>
<event>
12    1  0.2768653E-001  0.1818179E+03  0.7546771E-02  0.1166092E+00
         21   -1    0    0  504  503  0.00000000000E+00  0.00000000000E+00  0.60700493336E+03  0.60700493336E+03  0.00000000000E+00 0.  1.
         21   -1    0    0  502  504 -0.00000000000E+00 -0.00000000000E+00 -0.55428422462E+02  0.55428422462E+02  0.00000000000E+00 0.  1.
          6    2    1    2  502    0  0.49330848549E+02  0.23818288903E+02  0.32071238234E+03  0.36866538975E+03  0.17336924153E+03 0.  0.
         24    2    3    3    0    0 -0.58790430265E+01  0.15218376440E+02  0.58411985870E+02  0.10043847348E+03  0.80061006328E+02 0.  0.
         -6    2    1    2    0  503 -0.49330848549E+02 -0.23818288903E+02  0.23086412856E+03  0.29376796607E+03  0.17320660648E+03 0.  0.
        -24    2    5    5    0    0 -0.52612691935E+02 -0.66503164811E+02  0.21994719352E+03  0.24933781192E+03  0.81251524482E+02 0.  0.
          4    1    4    4  501    0  0.66664250742E+01  0.32529413295E+02  0.69005266548E+02  0.76578918535E+02  0.00000000000E+00 0. -1.
         -3    1    4    4    0  501 -0.12545468101E+02 -0.17311036855E+02 -0.10593280678E+02  0.23859554949E+02  0.00000000000E+00 0.  1.
          5    1    3    3  502    0  0.55209891575E+02  0.85999124634E+01  0.26230039647E+03  0.26822691627E+03  0.47000000000E+01 0. -1.
         11    1    6    6    0    0  0.21594992597E+02 -0.22213233032E+02  0.61011414193E+02  0.68426340606E+02  0.00000000000E+00 0. -1.
        -12    1    6    6    0    0 -0.74207684532E+02 -0.44289931779E+02  0.15893577933E+03  0.18091147131E+03  0.00000000000E+00 0.  1.
         -5    1    5    5    0  503  0.32818433866E+01  0.42684875908E+02  0.10916935033E+02  0.44430154150E+02  0.47000000000E+01 0.  1.
<mgrwt>
<rscale>  2 0.18177909E+03</rscale>
<asrwt>0</asrwt>
<pdfrwt beam="1">  1       21 0.93385370E-01 0.18181787E+03</pdfrwt>
<pdfrwt beam="2">  1       21 0.85274500E-02 0.18181787E+03</pdfrwt>
<totfact> 0.10396179E+05</totfact>
</mgrwt>
</event>
<event>
12    1  0.2768653E-001  0.1860909E+03  0.7546771E-02  0.1162743E+00
         21   -1    0    0  504  503  0.00000000000E+00  0.00000000000E+00  0.15563165170E+03  0.15563165170E+03  0.00000000000E+00 0.  1.
         21   -1    0    0  502  504 -0.00000000000E+00 -0.00000000000E+00 -0.22028871626E+03  0.22028871626E+03  0.00000000000E+00 0.  1.
          6    2    1    2  502    0  0.54140118031E+02  0.26118690968E+02 -0.17163029439E+02  0.18386435675E+03  0.17291094155E+03 0.  0.
         24    2    3    3    0    0 -0.26701326173E+02 -0.10264760712E+02 -0.36791030413E+02  0.92944375014E+02  0.80416110301E+02 0.  0.
         -6    2    1    2    0  503 -0.54140118031E+02 -0.26118690968E+02 -0.47494035128E+02  0.19205601121E+03  0.17611498991E+03 0.  0.
        -24    2    5    5    0    0 -0.21078933595E+01  0.19385569751E+02  0.30007053343E+02  0.88101699795E+02  0.80506165773E+02 0.  0.
          2    1    4    4  501    0 -0.26343770542E+02  0.13295305102E+02 -0.55500184710E+02  0.62857218257E+02  0.00000000000E+00 0. -1.
         -1    1    4    4    0  501 -0.35755563103E+00 -0.23560065814E+02  0.18709154297E+02  0.30087156757E+02  0.00000000000E+00 0.  1.
          5    1    3    3  502    0  0.80841444204E+02  0.36383451680E+02  0.19628000974E+02  0.90919981739E+02  0.47000000000E+01 0. -1.
         11    1    6    6    0    0  0.10733427645E+02 -0.72310514035E+01  0.50504653143E+02  0.52136499331E+02  0.00000000000E+00 0. -1.
        -12    1    6    6    0    0 -0.12841321005E+02  0.26616621154E+02 -0.20497599800E+02  0.35965200463E+02  0.00000000000E+00 0.  1.
         -5    1    5    5    0  503 -0.52032224671E+02 -0.45504260718E+02 -0.77501088471E+02  0.10395431142E+03  0.47000000000E+01 0.  1.
<mgrwt>
<rscale>  2 0.18532891E+03</rscale>
<asrwt>0</asrwt>
<pdfrwt beam="1">  1       21 0.23943331E-01 0.18609091E+03</pdfrwt>
<pdfrwt beam="2">  1       21 0.33890571E-01 0.18609091E+03</pdfrwt>
<totfact> 0.13824322E+05</totfact>
</mgrwt>
</event>
<event>
12    1  0.2768653E-001  0.2006265E+03  0.7546771E-02  0.1149519E+00
         21   -1    0    0  504  503  0.00000000000E+00  0.00000000000E+00  0.48174374575E+03  0.48174374575E+03  0.00000000000E+00 0.  1.
         21   -1    0    0  502  504 -0.00000000000E+00 -0.00000000000E+00 -0.16571673039E+03  0.16571673039E+03  0.00000000000E+00 0.  1.
          6    2    1    2  502    0  0.68782784978E+02 -0.71489780115E+02 -0.71062411471E+02  0.21146825317E+03  0.17270522750E+03 0.  0.
         24    2    3    3    0    0  0.53552112578E+02  0.25308625369E+02 -0.32028592153E+02  0.10588589794E+03  0.81716812144E+02 0.  0.
         -6    2    1    2    0  503 -0.68782784978E+02  0.71489780115E+02  0.38708942684E+03  0.43599222297E+03  0.17438214918E+03 0.  0.
        -24    2    5    5    0    0 -0.53409130134E+02  0.11698090110E+03  0.30336583447E+03  0.33936137246E+03  0.81229583221E+02 0.  0.
          4    1    4    4  501    0  0.82537725343E+01  0.25355004173E+02  0.22575874164E+02  0.34938103725E+02  0.00000000000E+00 0. -1.
         -3    1    4    4    0  501  0.45298340043E+02 -0.46378804112E-01 -0.54604466317E+02  0.70947794211E+02  0.00000000000E+00 0.  1.
          5    1    3    3  502    0  0.15230672400E+02 -0.96798405483E+02 -0.39033819318E+02  0.10558235523E+03  0.47000000000E+01 0. -1.
         11    1    6    6    0    0 -0.16067689572E+02  0.66963655083E+02  0.71619405870E+02  0.99356132410E+02  0.00000000000E+00 0. -1.
        -12    1    6    6    0    0 -0.37341440563E+02  0.50017246016E+02  0.23174642860E+03  0.24000524005E+03  0.00000000000E+00 0.  1.
         -5    1    5    5    0  503 -0.15373654844E+02 -0.45491120984E+02  0.83723592365E+02  0.96630850510E+02  0.47000000000E+01 0.  1.
<mgrwt>
<rscale>  2 0.20026155E+03</rscale>
<asrwt>0</asrwt>
<pdfrwt beam="1">  1       21 0.74114421E-01 0.20062650E+03</pdfrwt>
<pdfrwt beam="2">  1       21 0.25494882E-01 0.20062650E+03</pdfrwt>
<totfact> 0.23708165E+04</totfact>
</mgrwt>
</event>
<event>
12    1  0.2768653E-001  0.3266183E+03  0.7546771E-02  0.1072665E+00
         21   -1    0    0  504  503  0.00000000000E+00  0.00000000000E+00  0.30832817440E+03  0.30832817440E+03  0.00000000000E+00 0.  1.
         21   -1    0    0  502  504 -0.00000000000E+00 -0.00000000000E+00 -0.50122179506E+03  0.50122179506E+03  0.00000000000E+00 0. -1.
          6    2    1    2  502    0 -0.19518652325E+03  0.19589578649E+03 -0.32187762116E+03  0.45856815132E+03  0.17380048439E+03 0.  0.
         24    2    3    3    0    0 -0.26783732490E+02  0.10984873134E+03 -0.14919988573E+03  0.20243676716E+03  0.77044965404E+02 0.  0.
         -6    2    1    2    0  503  0.19518652325E+03 -0.19589578649E+03  0.12898400051E+03  0.35098181814E+03  0.17343133008E+03 0.  0.
        -24    2    5    5    0    0  0.19153681643E+03 -0.15117933669E+03  0.51987492916E+02  0.26174374653E+03  0.79155199052E+02 0.  0.
          2    1    4    4  501    0  0.16319743841E+02  0.19589087756E+02 -0.71102296587E+02  0.75535441868E+02  0.00000000000E+00 0. -1.
         -1    1    4    4    0  501 -0.43103476331E+02  0.90259643583E+02 -0.78097589146E+02  0.12690132530E+03  0.00000000000E+00 0.  1.
          5    1    3    3  502    0 -0.16840279076E+03  0.86047055155E+02 -0.17267773543E+03  0.25613138416E+03  0.47000000000E+01 0. -1.
         11    1    6    6    0    0  0.42491881038E+02 -0.36199987287E+00 -0.32837134780E+01  0.42620109951E+02  0.00000000000E+00 0. -1.
        -12    1    6    6    0    0  0.14904493540E+03 -0.15081733682E+03  0.55271206394E+02  0.21912363658E+03  0.00000000000E+00 0.  1.
         -5    1    5    5    0  503  0.36497068184E+01 -0.44716449802E+02  0.76996507593E+02  0.89238071608E+02  0.47000000000E+01 0.  1.
<mgrwt>
<rscale>  2 0.32656927E+03</rscale>
<asrwt>0</asrwt>
<pdfrwt beam="1">  1       21 0.47435104E-01 0.32661835E+03</pdfrwt>
<pdfrwt beam="2">  1       21 0.77111045E-01 0.32661835E+03</pdfrwt>
<totfact> 0.58697911E+03</totfact>
</mgrwt>
</event>
<event>
12    1  0.2768653E-001  0.1916357E+03  0.7546771E-02  0.1157130E+00
         21   -1    0    0  504  503  0.00000000000E+00  0.00000000000E+00  0.36078149026E+03  0.36078149026E+03  0.00000000000E+00 0.  1.
         21   -1    0    0  502  504 -0.00000000000E+00 -0.00000000000E+00 -0.10647903011E+03  0.10647903011E+03  0.00000000000E+00 0.  1.
          6    2    1    2  502    0 -0.23880562346E+02 -0.81177702560E+02  0.76273268567E+02  0.20569096716E+03  0.17126313620E+03 0.  0.
         24    2    3    3    0    0 -0.31134592655E+02 -0.18607017524E+01  0.51169347654E+01  0.98783898106E+02  0.93590867251E+02 0.  0.
         -6    2    1    2    0  503  0.23880562346E+02  0.81177702560E+02  0.17802919159E+03  0.26156955321E+03  0.17194225036E+03 0.  0.
        -24    2    5    5    0    0 -0.47048662681E+02  0.11267323327E+02  0.71844455711E+02  0.11591343689E+03  0.77030966505E+02 0.  0.
          2    1    4    4  501    0  0.19809764645E+02  0.30958809163E+02  0.96922152557E+01  0.38010704764E+02  0.00000000000E+00 0. -1.
         -1    1    4    4    0  501 -0.50944357300E+02 -0.32819510916E+02 -0.45752804903E+01  0.60773193342E+02  0.00000000000E+00 0.  1.
          5    1    3    3  502    0  0.72540303086E+01 -0.79317000808E+02  0.71156333802E+02  0.10690706905E+03  0.47000000000E+01 0. -1.
         11    1    6    6    0    0 -0.50360365750E+02 -0.23389543056E+02  0.37459879667E+02  0.66981189505E+02  0.00000000000E+00 0. -1.
        -12    1    6    6    0    0  0.33117030681E+01  0.34656866383E+02  0.34384576044E+02  0.48932247388E+02  0.00000000000E+00 0.  1.
         -5    1    5    5    0  503  0.70929225028E+02  0.69910379233E+02  0.10618473588E+03  0.14565611632E+03  0.47000000000E+01 0.  1.
<mgrwt>
<rscale>  2 0.19148324E+03</rscale>
<asrwt>0</asrwt>
<pdfrwt beam="1">  1       21 0.55504844E-01 0.19163569E+03</pdfrwt>
<pdfrwt beam="2">  1       21 0.16381389E-01 0.19163569E+03</pdfrwt>
<totfact> 0.10221387E+05</totfact>
</mgrwt>
</event>
<event>
12    1  0.2768653E-001  0.2080890E+03  0.7546771E-02  0.1143163E+00
         21   -1    0    0  504  503  0.00000000000E+00  0.00000000000E+00  0.41479611118E+02  0.41479611118E+02  0.00000000000E+00 0.  1.
         21   -1    0    0  502  504 -0.00000000000E+00 -0.00000000000E+00 -0.14289850620E+04  0.14289850620E+04  0.00000000000E+00 0. -1.
          6    2    1    2  502    0  0.11754413765E+03 -0.16113609646E+02 -0.10758905553E+04  0.10957582610E+04  0.17049752792E+03 0.  0.
         24    2    3    3    0    0  0.14849682463E+03 -0.24652590480E+01 -0.96761019402E+03  0.98221940014E+03  0.80175295453E+02 0.  0.
         -6    2    1    2    0  503 -0.11754413765E+03  0.16113609646E+02 -0.31161489563E+03  0.37470641208E+03  0.17095256467E+03 0.  0.
        -24    2    5    5    0    0 -0.12572667052E+03  0.53410143925E+02 -0.29028781012E+03  0.33071868778E+03  0.80299430809E+02 0.  0.
          4    1    4    4  501    0  0.14313190505E+03  0.19668590518E+02 -0.78388602147E+03  0.79708901031E+03  0.00000000000E+00 0. -1.
         -3    1    4    4    0  501  0.53649195882E+01 -0.22133849566E+02 -0.18372417255E+03  0.18513038983E+03  0.00000000000E+00 0.  1.
          5    1    3    3  502    0 -0.30952686981E+02 -0.13648350598E+02 -0.10828036123E+03  0.11353886090E+03  0.47000000000E+01 0. -1.
         13    1    6    6    0    0  0.59719649919E+01  0.36261767657E+01 -0.62790713949E+02  0.63178218414E+02  0.00000000000E+00 0. -1.
        -14    1    6    6    0    0 -0.13169863551E+03  0.49783967160E+02 -0.22749709617E+03  0.26754046936E+03  0.00000000000E+00 0.  1.
         -5    1    5    5    0  503  0.81825328659E+01 -0.37296534279E+02 -0.21327085512E+02  0.43987724308E+02  0.47000000000E+01 0.  1.
<mgrwt>
<rscale>  2 0.20799557E+03</rscale>
<asrwt>0</asrwt>
<pdfrwt beam="1">  1       21 0.63814796E-02 0.20808905E+03</pdfrwt>
<pdfrwt beam="2">  1       21 0.21984382E+00 0.20808905E+03</pdfrwt>
<totfact> 0.17664933E+04</totfact>
</mgrwt>
</event>
<event>
12    1  0.2768653E-001  0.2127383E+03  0.7546771E-02  0.1139740E+00
         21   -1    0    0  504  503  0.00000000000E+00  0.00000000000E+00  0.15059361977E+03  0.15059361977E+03  0.00000000000E+00 0. -1.
         21   -1    0    0  502  504 -0.00000000000E+00 -0.00000000000E+00 -0.29985626971E+03  0.29985626971E+03  0.00000000000E+00 0.  1.
          6    2    1    2  502    0  0.40523434512E+02 -0.11996005901E+03 -0.91151576728E+02  0.22991762741E+03  0.16888144052E+03 0.  0.
         24    2    3    3    0    0  0.62801041180E+02 -0.84093256683E+02 -0.12035290758E+03  0.17836641994E+03  0.79461379350E+02 0.  0.
         -6    2    1    2    0  503 -0.40523434512E+02  0.11996005901E+03 -0.58111073216E+02  0.22053226207E+03  0.17095326052E+03 0.  0.
        -24    2    5    5    0    0 -0.57872541810E+02  0.78319265735E+02  0.21915714921E+02  0.12854680666E+03  0.80999039871E+02 0.  0.
          4    1    4    4  501    0 -0.13790006988E+02 -0.41803327137E+02 -0.36545976678E+02  0.57212680970E+02  0.00000000000E+00 0. -1.
         -3    1    4    4    0  501  0.76591048168E+02 -0.42289929546E+02 -0.83806930899E+02  0.12115373897E+03  0.00000000000E+00 0.  1.
          5    1    3    3  502    0 -0.22277606668E+02 -0.35866802327E+02  0.29201330850E+02  0.51551207468E+02  0.47000000000E+01 0. -1.
         13    1    6    6    0    0 -0.62939027288E+02  0.87076693410E+02  0.34568606396E+01  0.10749707706E+03  0.00000000000E+00 0. -1.
        -14    1    6    6    0    0  0.50664854784E+01 -0.87574276755E+01  0.18458854281E+02  0.21049729594E+02  0.00000000000E+00 0.  1.
         -5    1    5    5    0  503  0.17349107298E+02  0.41640793276E+02 -0.80026788137E+02  0.91985455417E+02  0.47000000000E+01 0.  1.
<mgrwt>
<rscale>  2 0.21232175E+03</rscale>
<asrwt>0</asrwt>
<pdfrwt beam="1">  1       21 0.23168249E-01 0.21273829E+03</pdfrwt>
<pdfrwt beam="2">  1       21 0.46131733E-01 0.21273829E+03</pdfrwt>
<totfact> 0.78143852E+04</totfact>
</mgrwt>
</event>
<event>
12    1  0.2768653E-001  0.1931437E+03  0.7546771E-02  0.1155838E+00
         21   -1    0    0  504  503  0.00000000000E+00  0.00000000000E+00  0.24563651665E+04  0.24563651665E+04  0.00000000000E+00 0.  1.
         21   -1    0    0  502  504 -0.00000000000E+00 -0.00000000000E+00 -0.19241929291E+02  0.19241929291E+02  0.00000000000E+00 0.  1.
          6    2    1    2  502    0  0.18591722442E+02 -0.82316412557E+02  0.64379036647E+03  0.67190333442E+03  0.17281901206E+03 0.  0.
         24    2    3    3    0    0 -0.30603213104E+02 -0.10358381834E+03  0.38853107384E+03  0.41103585714E+03  0.79548201976E+02 0.  0.
         -6    2    1    2    0  503 -0.18591722442E+02  0.82316412557E+02  0.17933328708E+04  0.18037037614E+04  0.17373206264E+03 0.  0.
        -24    2    5    5    0    0 -0.70413508192E+02  0.55325763209E+02  0.83723706899E+03  0.84581271080E+03  0.80088887229E+02 0.  0.
          4    1    4    4  501    0 -0.29553604478E+02 -0.11063937616E+03  0.38719932782E+03  0.40377940333E+03  0.00000000000E+00 0. -1.
         -3    1    4    4    0  501 -0.10496086261E+01  0.70555578171E+01  0.13317460285E+01  0.72564538077E+01  0.00000000000E+00 0.  1.
          5    1    3    3  502    0  0.49194935546E+02  0.21267405782E+02  0.25525929262E+03  0.26086747728E+03  0.47000000000E+01 0. -1.
         13    1    6    6    0    0 -0.82666018344E+02  0.25224705962E+02  0.55113613656E+03  0.55787184676E+03  0.00000000000E+00 0. -1.
        -14    1    6    6    0    0  0.12252510152E+02  0.30101057247E+02  0.28610093243E+03  0.28794086405E+03  0.00000000000E+00 0.  1.
         -5    1    5    5    0  503  0.51821785750E+02  0.26990649348E+02  0.95609580179E+03  0.95789105061E+03  0.47000000000E+01 0.  1.
<mgrwt>
<rscale>  2 0.19293811E+03</rscale>
<asrwt>0</asrwt>
<pdfrwt beam="1">  1       21 0.37790208E+00 0.19314366E+03</pdfrwt>
<pdfrwt beam="2">  1       21 0.29602988E-02 0.19314366E+03</pdfrwt>
<totfact> 0.76972737E+03</totfact>
</mgrwt>
</event>
<event>
12    1  0.2768653E-001  0.2123035E+03  0.7546771E-02  0.1140052E+00
         21   -1    0    0  504  503  0.00000000000E+00  0.00000000000E+00  0.37241575221E+03  0.37241575221E+03  0.00000000000E+00 0.  1.
         21   -1    0    0  502  504 -0.00000000000E+00 -0.00000000000E+00 -0.44380384904E+03  0.44380384904E+03  0.00000000000E+00 0.  1.
          6    2    1    2  502    0  0.64081426637E+02  0.10361423223E+03 -0.38423472585E+03  0.43898643659E+03  0.17386899839E+03 0.  0.
         24    2    3    3    0    0  0.66952806413E+02  0.41478487323E+02 -0.10802473824E+03  0.15582015528E+03  0.80046446031E+02 0.  0.
         -6    2    1    2    0  503 -0.64081426637E+02 -0.10361423223E+03  0.31284662902E+03  0.37723316466E+03  0.17201601341E+03 0.  0.
        -24    2    5    5    0    0 -0.80870456292E+02 -0.13240990893E+03  0.27981570304E+03  0.33007179716E+03  0.81105788504E+02 0.  0.
          2    1    4    4  501    0 -0.10325095346E+02  0.11679638076E+02  0.43837779724E+01  0.16193796615E+02  0.00000000000E+00 0. -1.
         -1    1    4    4    0  501  0.77277901759E+02  0.29798849247E+02 -0.11240851621E+03  0.13962635867E+03  0.00000000000E+00 0.  1.
          5    1    3    3  502    0 -0.28713797756E+01  0.62135744911E+02 -0.27620998761E+03  0.28316628131E+03  0.47000000000E+01 0. -1.
         11    1    6    6    0    0 -0.69731159410E+02 -0.64506543400E+02  0.10188302929E+03  0.13929709398E+03  0.00000000000E+00 0. -1.
        -12    1    6    6    0    0 -0.11139296882E+02 -0.67903365532E+02  0.17793267375E+03  0.19077470318E+03  0.00000000000E+00 0.  1.
         -5    1    5    5    0  503  0.16789029654E+02  0.28795676698E+02  0.33030925984E+02  0.47161367501E+02  0.47000000000E+01 0.  1.
<mgrwt>
<rscale>  2 0.21192375E+03</rscale>
<asrwt>0</asrwt>
<pdfrwt beam="1">  1       21 0.57294731E-01 0.21230348E+03</pdfrwt>
<pdfrwt beam="2">  1       21 0.68277515E-01 0.21230348E+03</pdfrwt>
<totfact> 0.55157375E+03</totfact>
</mgrwt>
</event>
<event>
12    1  0.2768653E-001  0.2748328E+03  0.7546771E-02  0.1098560E+00
         21   -1    0    0  504  503  0.00000000000E+00  0.00000000000E+00  0.57726150205E+02  0.57726150205E+02  0.00000000000E+00 0. -1.
         21   -1    0    0  502  504 -0.00000000000E+00 -0.00000000000E+00 -0.22419890882E+04  0.22419890882E+04  0.00000000000E+00 0.  1.
          6    2    1    2  502    0 -0.49947524632E+02 -0.20707590175E+03 -0.18341822372E+04  0.18546426765E+04  0.17349292199E+03 0.  0.
         24    2    3    3    0    0 -0.69604806886E+02 -0.10861097038E+03 -0.72987078905E+03  0.74576594036E+03  0.82548755730E+02 0.  0.
         -6    2    1    2    0  503  0.49947524632E+02  0.20707590175E+03 -0.35008070085E+03  0.44507256195E+03  0.17366031207E+03 0.  0.
        -24    2    5    5    0    0  0.94845534271E+02  0.18522078367E+03 -0.26675740677E+03  0.34781857081E+03  0.80720691633E+02 0.  0.
          2    1    4    4  501    0 -0.15773232333E+02 -0.34369708712E+02 -0.70074917198E+02  0.79627669534E+02  0.00000000000E+00 0. -1.
         -1    1    4    4    0  501 -0.53831574552E+02 -0.74241261664E+02 -0.65979587185E+03  0.66613827083E+03  0.00000000000E+00 0.  1.
          5    1    3    3  502    0  0.19657282254E+02 -0.98464931376E+02 -0.11043114481E+04  0.11088767361E+04  0.47000000000E+01 0. -1.
         11    1    6    6    0    0  0.27320066332E+02  0.17825233864E+02 -0.10300075396E+02  0.34208427907E+02  0.00000000000E+00 0. -1.
        -12    1    6    6    0    0  0.67525467939E+02  0.16739554981E+03 -0.25645733137E+03  0.31361014290E+03  0.00000000000E+00 0.  1.
         -5    1    5    5    0  503 -0.44898009639E+02  0.21855118081E+02 -0.83323294087E+02  0.97253991143E+02  0.47000000000E+01 0.  1.
<mgrwt>
<rscale>  2 0.27480640E+03</rscale>
<asrwt>0</asrwt>
<pdfrwt beam="1">  1       21 0.88809464E-02 0.27483284E+03</pdfrwt>
<pdfrwt beam="2">  1       21 0.34492139E+00 0.27483284E+03</pdfrwt>
<totfact> 0.17038202E+03</totfact>
</mgrwt>
</event>
<event>
12    1  0.2768653E-001  0.2136944E+03  0.7546771E-02  0.1138796E+00
         21   -1    0    0  504  503  0.00000000000E+00  0.00000000000E+00  0.11991324440E+04  0.11991324440E+04  0.00000000000E+00 0.  1.
         21   -1    0    0  502  504 -0.00000000000E+00 -0.00000000000E+00 -0.62375869152E+02  0.62375869152E+02  0.00000000000E+00 0. -1.
          6    2    1    2  502    0 -0.10005058598E+03  0.78063118749E+02  0.17331406927E+03  0.27465130949E+03  0.17114790368E+03 0.  0.
         24    2    3    3    0    0 -0.98066563234E+01 -0.15444178237E+01  0.27432748573E+02  0.85482663969E+02  0.80350323026E+02 0.  0.
         -6    2    1    2    0  503  0.10005058598E+03 -0.78063118749E+02  0.96344250555E+03  0.98685700364E+03  0.17193403926E+03 0.  0.
        -24    2    5    5    0    0  0.86204555860E+02 -0.42567998642E+02  0.34277776576E+03  0.36500619732E+03  0.80558472049E+02 0.  0.
          4    1    4    4  501    0  0.10885265336E+02  0.17960176975E+01 -0.25914753106E+02  0.28165388503E+02  0.00000000000E+00 0. -1.
         -3    1    4    4    0  501 -0.20691921659E+02 -0.33404355212E+01  0.53347501679E+02  0.57317275466E+02  0.00000000000E+00 0.  1.
          5    1    3    3  502    0 -0.90243929660E+02  0.79607536573E+02  0.14588132069E+03  0.18916864552E+03  0.47000000000E+01 0. -1.
         13    1    6    6    0    0 -0.61230266368E+01  0.15118175405E+02  0.52988885845E+02  0.55442517132E+02  0.00000000000E+00 0. -1.
        -14    1    6    6    0    0  0.92327582497E+02 -0.57686174047E+02  0.28978887992E+03  0.30956368018E+03  0.00000000000E+00 0.  1.
         -5    1    5    5    0  503  0.13846030123E+02 -0.35495120107E+02  0.62066473979E+03  0.62185080632E+03  0.47000000000E+01 0.  1.
<mgrwt>
<rscale>  2 0.21353620E+03</rscale>
<asrwt>0</asrwt>
<pdfrwt beam="1">  1       21 0.18448190E+00 0.21369437E+03</pdfrwt>
<pdfrwt beam="2">  1       21 0.95962884E-02 0.21369437E+03</pdfrwt>
<totfact> 0.14577776E+04</totfact>
</mgrwt>
</event>
<event>
12    1  0.2768653E-001  0.1966752E+03  0.7546771E-02  0.1152744E+00
         21   -1    0    0  504  503  0.00000000000E+00  0.00000000000E+00  0.98411094121E+02  0.98411094121E+02  0.00000000000E+00 0.  1.
         21   -1    0    0  502  504 -0.00000000000E+00 -0.00000000000E+00 -0.54328492416E+03  0.54328492416E+03  0.00000000000E+00 0. -1.
          6    2    1    2  502    0 -0.57170014764E+02  0.72810848580E+02 -0.39234880242E+03  0.43888349723E+03  0.17352611080E+03 0.  0.
         24    2    3    3    0    0 -0.24348117534E+02  0.83163739816E+01 -0.76040680507E+02  0.11436888712E+03  0.81462042362E+02 0.  0.
         -6    2    1    2    0  503  0.57170014764E+02 -0.72810848580E+02 -0.52525027625E+02  0.20281252105E+03  0.17263895826E+03 0.  0.
        -24    2    5    5    0    0 -0.30214296633E+02 -0.13877545453E+02 -0.79368622170E+01  0.88272804834E+02  0.81385528828E+02 0.  0.
          4    1    4    4  501    0 -0.52980160192E+01 -0.29394462603E+02 -0.63698849642E+02  0.70353726634E+02  0.00000000000E+00 0. -1.
         -3    1    4    4    0  501 -0.19050101515E+02  0.37710836585E+02 -0.12341830864E+02  0.44015160488E+02  0.00000000000E+00 0.  1.
          5    1    3    3  502    0 -0.32821897230E+02  0.64494474598E+02 -0.31630812191E+03  0.32451461011E+03  0.47000000000E+01 0. -1.
         11    1    6    6    0    0 -0.27813483428E+02 -0.46920411589E+02 -0.17670592667E+01  0.54573229541E+02  0.00000000000E+00 0. -1.
        -12    1    6    6    0    0 -0.24008132054E+01  0.33042866136E+02 -0.61698029502E+01  0.33699575293E+02  0.00000000000E+00 0.  1.
         -5    1    5    5    0  503  0.87384311397E+02 -0.58933303126E+02 -0.44588165408E+02  0.11453971621E+03  0.47000000000E+01 0.  1.
<mgrwt>
<rscale>  2 0.19647935E+03</rscale>
<asrwt>0</asrwt>
<pdfrwt beam="1">  1       21 0.15140168E-01 0.19667522E+03</pdfrwt>
<pdfrwt beam="2">  1       21 0.83582295E-01 0.19667522E+03</pdfrwt>
<totfact> 0.47928724E+04</totfact>
</mgrwt>
</event>
<event>
12    1  0.2768653E-001  0.2018460E+03  0.7546771E-02  0.1148270E+00
         21   -1    0    0  504  503  0.00000000000E+00  0.00000000000E+00  0.91504117314E+02  0.91504117314E+02  0.00000000000E+00 0. -1.
         21   -1    0    0  502  504 -0.00000000000E+00 -0.00000000000E+00 -0.57754464880E+03  0.57754464880E+03  0.00000000000E+00 0.  1.
          6    2    1    2  502    0  0.10417147606E+03 -0.46095877280E+01 -0.40381397872E+03  0.45145049189E+03  0.17282613371E+03 0.  0.
         24    2    3    3    0    0 -0.76344175968E+00 -0.33629041228E+02 -0.13367522968E+03  0.16015940141E+03  0.81550423498E+02 0.  0.
         -6    2    1    2    0  503 -0.10417147606E+03  0.46095877280E+01 -0.82226552764E+02  0.21759827423E+03  0.17237998214E+03 0.  0.
        -24    2    5    5    0    0 -0.12748113398E+03  0.19246654940E+02 -0.28448786469E+02  0.15700353818E+03  0.84964135373E+02 0.  0.
          2    1    4    4  501    0  0.11031419253E+02 -0.35153003617E+02 -0.13257699776E+02  0.39156001805E+02  0.00000000000E+00 0. -1.
         -1    1    4    4    0  501 -0.11794861012E+02  0.15239623892E+01 -0.12041752990E+03  0.12100339960E+03  0.00000000000E+00 0.  1.
          5    1    3    3  502    0  0.10493491782E+03  0.29019453500E+02 -0.27013874904E+03  0.29129109048E+03  0.47000000000E+01 0. -1.
         13    1    6    6    0    0 -0.10384200865E+03 -0.21745134740E+02 -0.11394052755E+02  0.10670444266E+03  0.00000000000E+00 0. -1.
        -14    1    6    6    0    0 -0.23639125338E+02  0.40991789680E+02 -0.17054733714E+02  0.50299095519E+02  0.00000000000E+00 0.  1.
         -5    1    5    5    0  503  0.23309657929E+02 -0.14637067213E+02 -0.53777766294E+02  0.60594736050E+02  0.47000000000E+01 0.  1.
<mgrwt>
<rscale>  2 0.20175049E+03</rscale>
<asrwt>0</asrwt>
<pdfrwt beam="1">  1       21 0.14077557E-01 0.20184602E+03</pdfrwt>
<pdfrwt beam="2">  1       21 0.88853022E-01 0.20184602E+03</pdfrwt>
<totfact> 0.47416128E+04</totfact>
</mgrwt>
</event>
<event>
12    1  0.2768653E-001  0.2041302E+03  0.7546771E-02  0.1146323E+00
         21   -1    0    0  504  503  0.00000000000E+00  0.00000000000E+00  0.30399673332E+03  0.30399673332E+03  0.00000000000E+00 0.  1.
         21   -1    0    0  502  504 -0.00000000000E+00 -0.00000000000E+00 -0.16985977454E+03  0.16985977454E+03  0.00000000000E+00 0.  1.
          6    2    1    2  502    0  0.10784127285E+03  0.12635232235E+02 -0.37159576632E+02  0.20737639944E+03  0.17272737966E+03 0.  0.
         24    2    3    3    0    0  0.40131934523E+02 -0.56595914878E+02 -0.18536678302E+02  0.10865249874E+03  0.81535803735E+02 0.  0.
         -6    2    1    2    0  503 -0.10784127285E+03 -0.12635232235E+02  0.17129653542E+03  0.26648010842E+03  0.17285761746E+03 0.  0.
        -24    2    5    5    0    0 -0.92384061450E+02 -0.35487171887E+02  0.39742561090E+02  0.13198224713E+03  0.77754023799E+02 0.  0.
          4    1    4    4  501    0  0.10694742700E+02 -0.31839709817E+02  0.31156046760E+02  0.45813141045E+02  0.00000000000E+00 0. -1.
         -3    1    4    4    0  501  0.29437191823E+02 -0.24756205061E+02 -0.49692725063E+02  0.62839357695E+02  0.00000000000E+00 0.  1.
          5    1    3    3  502    0  0.67709338325E+02  0.69231147113E+02 -0.18622898330E+02  0.98723900699E+02  0.47000000000E+01 0. -1.
         13    1    6    6    0    0 -0.38743987517E+02 -0.55534993713E+02  0.13755190335E+02  0.69097303540E+02  0.00000000000E+00 0. -1.
        -14    1    6    6    0    0 -0.53640073934E+02  0.20047821825E+02  0.25987370755E+02  0.62884943590E+02  0.00000000000E+00 0.  1.
         -5    1    5    5    0  503 -0.15457211397E+02  0.22851939652E+02  0.13155397433E+03  0.13449786129E+03  0.47000000000E+01 0.  1.
<mgrwt>
<rscale>  2 0.20410264E+03</rscale>
<asrwt>0</asrwt>
<pdfrwt beam="1">  1       21 0.46768728E-01 0.20413022E+03</pdfrwt>
<pdfrwt beam="2">  1       21 0.26132273E-01 0.20413022E+03</pdfrwt>
<totfact> 0.60585670E+04</totfact>
</mgrwt>
</event>
<event>
12    1  0.2768653E-001  0.1831493E+03  0.7546771E-02  0.1164932E+00
         21   -1    0    0  504  503  0.00000000000E+00  0.00000000000E+00  0.12021517171E+04  0.12021517171E+04  0.00000000000E+00 0.  1.
         21   -1    0    0  502  504 -0.00000000000E+00 -0.00000000000E+00 -0.99909743832E+02  0.99909743832E+02  0.00000000000E+00 0.  1.
          6    2    1    2  502    0 -0.33848526527E+02 -0.48157377666E+02 -0.16705975767E+01  0.18315689494E+03  0.17343241189E+03 0.  0.
         24    2    3    3    0    0 -0.43443756726E+02 -0.93614744257E+02 -0.19644608706E+02  0.13312095090E+03  0.81756935948E+02 0.  0.
         -6    2    1    2    0  503  0.33848526527E+02  0.48157377666E+02  0.11039125708E+04  0.11189045660E+04  0.17279932861E+03 0.  0.
        -24    2    5    5    0    0  0.33698560334E+02  0.61836317629E+02  0.37614327994E+03  0.39099154463E+03  0.80195372581E+02 0.  0.
          2    1    4    4  501    0 -0.52618883984E+02 -0.27367440267E+02  0.96793645943E+01  0.60095040041E+02  0.00000000000E+00 0. -1.
         -1    1    4    4    0  501  0.91751272588E+01 -0.66247303990E+02 -0.29323973300E+02  0.73025910855E+02  0.00000000000E+00 0.  1.
          5    1    3    3  502    0  0.95952301982E+01  0.45457366591E+02  0.17974011129E+02  0.50035944040E+02  0.47000000000E+01 0. -1.
         11    1    6    6    0    0  0.53138451760E+02  0.28757790468E+02  0.15165550311E+03  0.16324857485E+03  0.00000000000E+00 0. -1.
        -12    1    6    6    0    0 -0.19439891425E+02  0.33078527162E+02  0.22448777683E+03  0.22774296978E+03  0.00000000000E+00 0.  1.
         -5    1    5    5    0  503  0.14996619326E+00 -0.13678939963E+02  0.72776929087E+03  0.72791302133E+03  0.47000000000E+01 0.  1.
<mgrwt>
<rscale>  2 0.18299925E+03</rscale>
<asrwt>0</asrwt>
<pdfrwt beam="1">  1       21 0.18494641E+00 0.18314928E+03</pdfrwt>
<pdfrwt beam="2">  1       21 0.15370731E-01 0.18314928E+03</pdfrwt>
<totfact> 0.63753983E+03</totfact>
</mgrwt>
</event>
<event>
12    1  0.2768653E-001  0.2021589E+03  0.7546771E-02  0.1148028E+00
         21   -1    0    0  504  503  0.00000000000E+00  0.00000000000E+00  0.69632583852E+03  0.69632583852E+03  0.00000000000E+00 0.  1.
         21   -1    0    0  502  504 -0.00000000000E+00 -0.00000000000E+00 -0.91520462229E+02  0.91520462229E+02  0.00000000000E+00 0. -1.
          6    2    1    2  502    0  0.42022911278E+02  0.96112249540E+02  0.66208909712E+02  0.21272482770E+03  0.17281418637E+03 0.  0.
         24    2    3    3    0    0  0.27999907081E+02  0.12522672304E+03  0.86697338367E+02  0.17417404402E+03  0.79714755038E+02 0.  0.
         -6    2    1    2    0  503 -0.42022911278E+02 -0.96112249540E+02  0.53859646658E+03  0.57512147305E+03  0.17226452149E+03 0.  0.
        -24    2    5    5    0    0  0.24588389522E+02 -0.45498949279E+02  0.41580233921E+03  0.42646327693E+03  0.79401498665E+02 0.  0.
          4    1    4    4  501    0 -0.21542712065E+02  0.56793641472E+02  0.13122065414E+02  0.62143340395E+02  0.00000000000E+00 0. -1.
         -3    1    4    4    0  501  0.49542619145E+02  0.68433081565E+02  0.73575272952E+02  0.11203070362E+03  0.00000000000E+00 0.  1.
          5    1    3    3  502    0  0.14023004197E+02 -0.29114473497E+02 -0.20488428655E+02  0.38550783682E+02  0.47000000000E+01 0. -1.
         11    1    6    6    0    0  0.22166600739E+02 -0.61304967055E+02  0.20637116198E+03  0.21642253504E+03  0.00000000000E+00 0. -1.
        -12    1    6    6    0    0  0.24217887828E+01  0.15806017776E+02  0.20943117723E+03  0.21004074189E+03  0.00000000000E+00 0.  1.
         -5    1    5    5    0  503 -0.66611300799E+02 -0.50613300261E+02  0.12279412737E+03  0.14865819612E+03  0.47000000000E+01 0.  1.
<mgrwt>
<rscale>  2 0.20204141E+03</rscale>
<asrwt>0</asrwt>
<pdfrwt beam="1">  1       21 0.10712705E+00 0.20215893E+03</pdfrwt>
<pdfrwt beam="2">  1       21 0.14080072E-01 0.20215893E+03</pdfrwt>
<totfact> 0.30470162E+04</totfact>
</mgrwt>
</event>
<event>
12    1  0.2768653E-001  0.2480682E+03  0.7546771E-02  0.1114587E+00
         21   -1    0    0  504  503  0.00000000000E+00  0.00000000000E+00  0.14394155806E+03  0.14394155806E+03  0.00000000000E+00 0.  1.
         21   -1    0    0  502  504 -0.00000000000E+00 -0.00000000000E+00 -0.44070523199E+03  0.44070523199E+03  0.00000000000E+00 0.  1.
          6    2    1    2  502    0  0.16675431136E+02 -0.17573368445E+03 -0.20016832965E+03  0.31875571166E+03  0.17429126675E+03 0.  0.
         24    2    3    3    0    0  0.70097961254E+02 -0.68214605756E+02 -0.87081788463E+02  0.15375578801E+03  0.80564557052E+02 0.  0.
         -6    2    1    2    0  503 -0.16675431136E+02  0.17573368445E+03 -0.96595344275E+02  0.26589107840E+03  0.17380163170E+03 0.  0.
        -24    2    5    5    0    0 -0.24022805451E+02  0.17947338744E+02 -0.39182670653E+02  0.97757738777E+02  0.84392485812E+02 0.  0.
          2    1    4    4  501    0  0.70544986202E+02 -0.21382807757E+02 -0.29169612518E+02  0.79276010497E+02  0.00000000000E+00 0. -1.
         -1    1    4    4    0  501 -0.44702494859E+00 -0.46831797999E+02 -0.57912175944E+02  0.74479777509E+02  0.00000000000E+00 0.  1.
          5    1    3    3  502    0 -0.53422530117E+02 -0.10751907869E+03 -0.11308654119E+03  0.16499992365E+03  0.47000000000E+01 0. -1.
         11    1    6    6    0    0  0.27412521424E+02  0.16274928832E+02  0.18586213578E+01  0.31933902246E+02  0.00000000000E+00 0. -1.
        -12    1    6    6    0    0 -0.51435326875E+02  0.16724099122E+01 -0.41041292011E+02  0.65823836531E+02  0.00000000000E+00 0.  1.
         -5    1    5    5    0  503  0.73473743150E+01  0.15778634570E+03 -0.57412673622E+02  0.16813333962E+03  0.47000000000E+01 0.  1.
<mgrwt>
<rscale>  2 0.24798224E+03</rscale>
<asrwt>0</asrwt>
<pdfrwt beam="1">  1       21 0.22144855E-01 0.24806822E+03</pdfrwt>
<pdfrwt beam="2">  1       21 0.67800806E-01 0.24806822E+03</pdfrwt>
<totfact> 0.36891872E+04</totfact>
</mgrwt>
</event>
<event>
12    1  0.2768653E-001  0.1782677E+03  0.7546771E-02  0.1170382E+00
         21   -1    0    0  504  503  0.00000000000E+00  0.00000000000E+00  0.81898656933E+03  0.81898656933E+03  0.00000000000E+00 0.  1.
         21   -1    0    0  502  504 -0.00000000000E+00 -0.00000000000E+00 -0.44627637096E+02  0.44627637096E+02  0.00000000000E+00 0.  1.
          6    2    1    2  502    0 -0.17511922364E+02  0.44065053575E+02  0.21771505404E+03  0.27912146266E+03  0.16810874394E+03 0.  0.
         24    2    3    3    0    0 -0.45840306068E+02  0.84046053046E+02  0.15418723406E+03  0.19875448216E+03  0.81022023798E+02 0.  0.
         -6    2    1    2    0  503  0.17511922364E+02 -0.44065053575E+02  0.55664387819E+03  0.58449274377E+03  0.17184575647E+03 0.  0.
        -24    2    5    5    0    0  0.53885536793E+02 -0.63914125382E+02  0.25900463668E+03  0.28394618570E+03  0.80952875507E+02 0.  0.
          2    1    4    4  501    0 -0.54264199848E+01  0.84447049647E+02  0.11142525022E+03  0.13991546239E+03  0.00000000000E+00 0. -1.
         -1    1    4    4    0  501 -0.40413886083E+02 -0.40099660080E+00  0.42761983835E+02  0.58839019775E+02  0.00000000000E+00 0.  1.
          5    1    3    3  502    0  0.28328383704E+02 -0.39980999471E+02  0.63527819980E+02  0.80366980492E+02  0.47000000000E+01 0. -1.
         11    1    6    6    0    0  0.45290690314E+02 -0.83487690259E+02  0.20985670897E+03  0.23035034047E+03  0.00000000000E+00 0. -1.
        -12    1    6    6    0    0  0.85948464793E+01  0.19573564876E+02  0.49147927711E+02  0.53595845233E+02  0.00000000000E+00 0.  1.
         -5    1    5    5    0  503 -0.36373614429E+02  0.19849071807E+02  0.29763924151E+03  0.30054655807E+03  0.47000000000E+01 0.  1.
<mgrwt>
<rscale>  2 0.17736088E+03</rscale>
<asrwt>0</asrwt>
<pdfrwt beam="1">  1       21 0.12599792E+00 0.17826767E+03</pdfrwt>
<pdfrwt beam="2">  1       21 0.68657909E-02 0.17826767E+03</pdfrwt>
<totfact> 0.73645477E+04</totfact>
</mgrwt>
</event>
<event>
12    1  0.2768653E-001  0.2602045E+03  0.7546771E-02  0.1107413E+00
         21   -1    0    0  504  503  0.00000000000E+00  0.00000000000E+00  0.20965915928E+03  0.20965915928E+03  0.00000000000E+00 0.  1.
         21   -1    0    0  502  504 -0.00000000000E+00 -0.00000000000E+00 -0.31994181959E+03  0.31994181959E+03  0.00000000000E+00 0.  1.
          6    2    1    2  502    0 -0.13321101448E+03  0.13975425072E+03 -0.61878540958E+02  0.26493258639E+03  0.17054001444E+03 0.  0.
         24    2    3    3    0    0 -0.84113910834E+02  0.78402767176E+02 -0.10437654292E+03  0.17547477348E+03  0.81699385058E+02 0.  0.
         -6    2    1    2    0  503  0.13321101448E+03 -0.13975425072E+03 -0.48404119345E+02  0.26466839248E+03  0.17444189359E+03 0.  0.
        -24    2    5    5    0    0  0.15149644282E+03 -0.75807352422E+02 -0.60324372901E+02  0.19693549696E+03  0.80290928065E+02 0.  0.
          4    1    4    4  501    0  0.64885725428E+01  0.22256539523E+02 -0.51528931089E+02  0.56503857075E+02  0.00000000000E+00 0. -1.
         -3    1    4    4    0  501 -0.90602483377E+02  0.56146227653E+02 -0.52847611833E+02  0.11897091641E+03  0.00000000000E+00 0.  1.
          5    1    3    3  502    0 -0.49097103647E+02  0.61351483539E+02  0.42498001965E+02  0.89457812906E+02  0.47000000000E+01 0. -1.
         11    1    6    6    0    0  0.22303686435E+02  0.15225987644E+02  0.19261683657E+01  0.27073885072E+02  0.00000000000E+00 0. -1.
        -12    1    6    6    0    0  0.12919275639E+03 -0.91033340066E+02 -0.62250541267E+02  0.16986161189E+03  0.00000000000E+00 0.  1.
         -5    1    5    5    0  503 -0.18285428339E+02 -0.63946898294E+02  0.11920253556E+02  0.67732895522E+02  0.47000000000E+01 0.  1.
<mgrwt>
<rscale>  2 0.25955219E+03</rscale>
<asrwt>0</asrwt>
<pdfrwt beam="1">  1       21 0.32255255E-01 0.26020453E+03</pdfrwt>
<pdfrwt beam="2">  1       21 0.49221818E-01 0.26020453E+03</pdfrwt>
<totfact> 0.35260799E+04</totfact>
</mgrwt>
</event>
<event>
12    1  0.2768653E-001  0.1981046E+03  0.7546771E-02  0.1151728E+00
         21   -1    0    0  504  503  0.00000000000E+00  0.00000000000E+00  0.14247950951E+03  0.14247950951E+03  0.00000000000E+00 0. -1.
         21   -1    0    0  502  504 -0.00000000000E+00 -0.00000000000E+00 -0.38428510748E+03  0.38428510748E+03  0.00000000000E+00 0. -1.
          6    2    1    2  502    0  0.72654899037E+02 -0.58920069854E+02 -0.26302686076E+03  0.32928490474E+03  0.17462849145E+03 0.  0.
         24    2    3    3    0    0 -0.15155263217E+01  0.21402101012E+02 -0.75304618468E+02  0.11199561973E+03  0.80074256342E+02 0.  0.
         -6    2    1    2    0  503 -0.72654899037E+02  0.58920069854E+02  0.21221262784E+02  0.19747971225E+03  0.17261977225E+03 0.  0.
        -24    2    5    5    0    0 -0.19069317144E+02  0.45772742965E+02 -0.50616460428E+02  0.10677681666E+03  0.79877904678E+02 0.  0.
          2    1    4    4  501    0  0.24375407270E+02 -0.12209509610E+02 -0.20471649038E+01  0.27339046959E+02  0.00000000000E+00 0. -1.
         -1    1    4    4    0  501 -0.25890933591E+02  0.33611610622E+02 -0.73257453564E+02  0.84656572773E+02  0.00000000000E+00 0.  1.
          5    1    3    3  502    0  0.74170425359E+02 -0.80322170866E+02 -0.18772224229E+03  0.21728928501E+03  0.47000000000E+01 0. -1.
         11    1    6    6    0    0 -0.23330091270E+02  0.21686773279E+02  0.16119610238E+02  0.35699455572E+02  0.00000000000E+00 0. -1.
        -12    1    6    6    0    0  0.42607741263E+01  0.24085969686E+02 -0.66736070666E+02  0.71077361092E+02  0.00000000000E+00 0.  1.
         -5    1    5    5    0  503 -0.53585581893E+02  0.13147326889E+02  0.71837723213E+02  0.90702895585E+02  0.47000000000E+01 0.  1.
<mgrwt>
<rscale>  2 0.19766098E+03</rscale>
<asrwt>0</asrwt>
<pdfrwt beam="1">  1       21 0.21919925E-01 0.19810457E+03</pdfrwt>
<pdfrwt beam="2">  1       21 0.59120785E-01 0.19810457E+03</pdfrwt>
<totfact> 0.51845843E+04</totfact>
</mgrwt>
</event>
<event>
12    1  0.2768653E-001  0.2711106E+03  0.7546771E-02  0.1100732E+00
         21   -1    0    0  504  503  0.00000000000E+00  0.00000000000E+00  0.17914774738E+04  0.17914774738E+04  0.00000000000E+00 0.  1.
         21   -1    0    0  502  504 -0.00000000000E+00 -0.00000000000E+00 -0.73080365949E+02  0.73080365949E+02  0.00000000000E+00 0.  1.
          6    2    1    2  502    0  0.19325227247E+03  0.79671221447E+02  0.24144326071E+03  0.36303689819E+03  0.17264702998E+03 0.  0.
         24    2    3    3    0    0  0.17513433282E+03  0.32186673444E+02  0.24347985491E+03  0.31195578865E+03  0.79535890265E+02 0.  0.
         -6    2    1    2    0  503 -0.19325227247E+03 -0.79671221447E+02  0.14769538472E+04  0.15015209416E+04  0.17169311871E+03 0.  0.
        -24    2    5    5    0    0 -0.19223849486E+03 -0.11083909054E+03  0.12207214268E+04  0.12433550897E+04  0.80809247302E+02 0.  0.
          2    1    4    4  501    0  0.10420319793E+03  0.31532180082E+02  0.20282597486E+03  0.23019765619E+03  0.00000000000E+00 0. -1.
         -1    1    4    4    0  501  0.70931134890E+02  0.65449336214E+00  0.40653880055E+02  0.81758132450E+02  0.00000000000E+00 0.  1.
          5    1    3    3  502    0  0.18117939654E+02  0.47484548004E+02 -0.20365942034E+01  0.51081109545E+02  0.47000000000E+01 0. -1.
         13    1    6    6    0    0 -0.73461646743E+02 -0.40735633357E+02  0.27242531237E+03  0.28508166582E+03  0.00000000000E+00 0. -1.
        -14    1    6    6    0    0 -0.11877684812E+03 -0.70103457184E+02  0.94829611443E+03  0.95827342392E+03  0.00000000000E+00 0.  1.
         -5    1    5    5    0  503 -0.10137776144E+01  0.31167869094E+02  0.25623242036E+03  0.25816585184E+03  0.47000000000E+01 0.  1.
<mgrwt>
<rscale>  2 0.27095883E+03</rscale>
<asrwt>0</asrwt>
<pdfrwt beam="1">  1       21 0.27561189E+00 0.27111057E+03</pdfrwt>
<pdfrwt beam="2">  1       21 0.11243135E-01 0.27111057E+03</pdfrwt>
<totfact> 0.28785355E+03</totfact>
</mgrwt>
</event>
<event>
12    1  0.2768653E-001  0.2947501E+03  0.7546771E-02  0.1088084E+00
         21   -1    0    0  504  503  0.00000000000E+00  0.00000000000E+00  0.49566351190E+03  0.49566351190E+03  0.00000000000E+00 0. -1.
         21   -1    0    0  502  504 -0.00000000000E+00 -0.00000000000E+00 -0.17867066731E+03  0.17867066731E+03  0.00000000000E+00 0.  1.
          6    2    1    2  502    0 -0.21800909844E+03 -0.99276458800E+02  0.10597712326E+03  0.31183556356E+03  0.16919363396E+03 0.  0.
         24    2    3    3    0    0 -0.14355364055E+03 -0.86357958667E+02  0.47530851475E+01  0.18542789470E+03  0.79344612750E+02 0.  0.
         -6    2    1    2    0  503  0.21800909844E+03  0.99276458800E+02  0.21101572133E+03  0.36249861565E+03  0.17173767621E+03 0.  0.
        -24    2    5    5    0    0  0.11722132028E+03  0.25495516680E+02  0.19087216470E+03  0.23589033583E+03  0.69434919043E+02 0.  0.
          2    1    4    4  501    0 -0.88023042529E+02 -0.10183204349E+02 -0.12833294665E+02  0.89534614082E+02  0.00000000000E+00 0. -1.
         -1    1    4    4    0  501 -0.55530598025E+02 -0.76174754318E+02  0.17586379812E+02  0.95893280616E+02  0.00000000000E+00 0.  1.
          5    1    3    3  502    0 -0.74455457886E+02 -0.12918500133E+02  0.10122403812E+03  0.12640766886E+03  0.47000000000E+01 0. -1.
         11    1    6    6    0    0  0.52239169293E+02 -0.14644333156E+02  0.12000132377E+03  0.13169550109E+03  0.00000000000E+00 0. -1.
        -12    1    6    6    0    0  0.64982150985E+02  0.40139849836E+02  0.70870840928E+02  0.10419483473E+03  0.00000000000E+00 0.  1.
         -5    1    5    5    0  503  0.10078777816E+03  0.73780942120E+02  0.20143556633E+02  0.12660827983E+03  0.47000000000E+01 0.  1.
<mgrwt>
<rscale>  2 0.29438064E+03</rscale>
<asrwt>0</asrwt>
<pdfrwt beam="1">  1       21 0.76255924E-01 0.29475008E+03</pdfrwt>
<pdfrwt beam="2">  1       21 0.27487795E-01 0.29475008E+03</pdfrwt>
<totfact> 0.18357943E+04</totfact>
</mgrwt>
</event>
<event>
12    1  0.2768653E-001  0.1991014E+03  0.7546771E-02  0.1150501E+00
         21   -1    0    0  504  503  0.00000000000E+00  0.00000000000E+00  0.44868478556E+03  0.44868478556E+03  0.00000000000E+00 0.  1.
         21   -1    0    0  502  504 -0.00000000000E+00 -0.00000000000E+00 -0.15490669739E+03  0.15490669739E+03  0.00000000000E+00 0. -1.
          6    2    1    2  502    0  0.23177901889E+02 -0.96111700418E+02 -0.50938222971E+02  0.20550771698E+03  0.17281216707E+03 0.  0.
         24    2    3    3    0    0 -0.17032384923E+02 -0.46978337030E+01  0.18971421143E+02  0.83512591942E+02  0.79386815121E+02 0.  0.
         -6    2    1    2    0  503 -0.23177901889E+02  0.96111700418E+02  0.34471631113E+03  0.39808376597E+03  0.17281977744E+03 0.  0.
        -24    2    5    5    0    0 -0.20747161003E+02  0.12063790954E+03  0.34316776659E+03  0.37294551970E+03  0.79625967677E+02 0.  0.
          4    1    4    4  501    0 -0.41614975057E+02 -0.21610790935E+02 -0.21722874028E+01  0.46941998960E+02  0.00000000000E+00 0. -1.
         -3    1    4    4    0  501  0.24582590134E+02  0.16912957232E+02  0.21143708546E+02  0.36570592982E+02  0.00000000000E+00 0.  1.
          5    1    3    3  502    0  0.40210286812E+02 -0.91413866715E+02 -0.69909644114E+02  0.12199512504E+03  0.47000000000E+01 0. -1.
         11    1    6    6    0    0  0.19580539207E+02  0.97554753533E+02  0.22884599114E+03  0.24954120925E+03  0.00000000000E+00 0. -1.
        -12    1    6    6    0    0 -0.40327700210E+02  0.23083156010E+02  0.11432177545E+03  0.12340431045E+03  0.00000000000E+00 0.  1.
         -5    1    5    5    0  503 -0.24307408858E+01 -0.24526209125E+02  0.15485445435E+01  0.25138246270E+02  0.47000000000E+01 0.  1.
<mgrwt>
<rscale>  2 0.19909970E+03</rscale>
<asrwt>0</asrwt>
<pdfrwt beam="1">  1       21 0.69028428E-01 0.19910136E+03</pdfrwt>
<pdfrwt beam="2">  1       21 0.23831800E-01 0.19910136E+03</pdfrwt>
<totfact> 0.31592292E+04</totfact>
</mgrwt>
</event>
<event>
12    1  0.2768653E-001  0.2383208E+03  0.7546771E-02  0.1121013E+00
         21   -1    0    0  504  503  0.00000000000E+00  0.00000000000E+00  0.20009662432E+03  0.20009662432E+03  0.00000000000E+00 0.  1.
         21   -1    0    0  502  504 -0.00000000000E+00 -0.00000000000E+00 -0.32526225930E+03  0.32526225930E+03  0.00000000000E+00 0. -1.
          6    2    1    2  502    0  0.16139828190E+03  0.24176625891E+02 -0.15701914605E+03  0.28491878671E+03  0.17288663383E+03 0.  0.
         24    2    3    3    0    0  0.41634761394E+02  0.10331457528E+02 -0.19916732925E+02  0.10228759766E+03  0.90696659327E+02 0.  0.
         -6    2    1    2    0  503 -0.16139828190E+03 -0.24176625891E+02  0.31853511066E+02  0.24044009691E+03  0.17367463660E+03 0.  0.
        -24    2    5    5    0    0 -0.17478753396E+03  0.10581023919E+02  0.49965812187E+02  0.19875662605E+03  0.79655344545E+02 0.  0.
          2    1    4    4  501    0  0.32471640281E+02  0.40945711349E+02  0.15574120376E+02  0.54529917714E+02  0.00000000000E+00 0. -1.
         -1    1    4    4    0  501  0.91631211130E+01 -0.30614253821E+02 -0.35490853301E+02  0.47757679943E+02  0.00000000000E+00 0.  1.
          5    1    3    3  502    0  0.11976352050E+03  0.13845168363E+02 -0.13710241312E+03  0.18263118905E+03  0.47000000000E+01 0. -1.
         11    1    6    6    0    0 -0.61503119388E+02  0.26800004827E+01 -0.20766911179E+02  0.64969844520E+02  0.00000000000E+00 0. -1.
        -12    1    6    6    0    0 -0.11328441458E+03  0.79010234367E+01  0.70732723366E+02  0.13378678153E+03  0.00000000000E+00 0.  1.
         -5    1    5    5    0  503  0.13389252067E+02 -0.34757649810E+02 -0.18112301121E+02  0.41683470862E+02  0.47000000000E+01 0.  1.
<mgrwt>
<rscale>  2 0.23817724E+03</rscale>
<asrwt>0</asrwt>
<pdfrwt beam="1">  1       21 0.30784096E-01 0.23832078E+03</pdfrwt>
<pdfrwt beam="2">  1       21 0.50040347E-01 0.23832078E+03</pdfrwt>
<totfact> 0.37696301E+04</totfact>
</mgrwt>
</event>
<event>
12    1  0.2768653E-001  0.1813636E+03  0.7546771E-02  0.1166667E+00
         21   -1    0    0  504  503  0.00000000000E+00  0.00000000000E+00  0.17441131440E+03  0.17441131440E+03  0.00000000000E+00 0.  1.
         21   -1    0    0  502  504 -0.00000000000E+00 -0.00000000000E+00 -0.23775392113E+03  0.23775392113E+03  0.00000000000E+00 0.  1.
          6    2    1    2  502    0  0.31905946249E+01  0.53534600388E+02  0.62818034871E+02  0.19123706756E+03  0.17248007760E+03 0.  0.
         24    2    3    3    0    0 -0.33744897350E+02  0.94240507475E+02  0.48571018199E+02  0.13426102941E+03  0.75145784065E+02 0.  0.
         -6    2    1    2    0  503 -0.31905946249E+01 -0.53534600388E+02 -0.12616064160E+03  0.22092816798E+03  0.17325303629E+03 0.  0.
        -24    2    5    5    0    0  0.21005727052E+02  0.28111332235E+02 -0.10052524132E+03  0.13187321840E+03  0.77805745417E+02 0.  0.
          4    1    4    4  501    0 -0.47282247241E+02  0.37639101006E+02  0.32921645018E+01  0.60523971911E+02  0.00000000000E+00 0. -1.
         -3    1    4    4    0  501  0.13537349892E+02  0.56601406469E+02  0.45278853697E+02  0.73737057498E+02  0.00000000000E+00 0.  1.
          5    1    3    3  502    0  0.36935491975E+02 -0.40705907087E+02  0.14247016672E+02  0.56976038149E+02  0.47000000000E+01 0. -1.
         11    1    6    6    0    0  0.41342947202E+02  0.11127943416E+02 -0.20294904515E+02  0.47380940866E+02  0.00000000000E+00 0. -1.
        -12    1    6    6    0    0 -0.20337220150E+02  0.16983388819E+02 -0.80230336804E+02  0.84492277534E+02  0.00000000000E+00 0.  1.
         -5    1    5    5    0  503 -0.24196321677E+02 -0.81645932623E+02 -0.25635400286E+02  0.89054949578E+02  0.47000000000E+01 0.  1.
<mgrwt>
<rscale>  2 0.18117874E+03</rscale>
<asrwt>0</asrwt>
<pdfrwt beam="1">  1       21 0.26832510E-01 0.18136358E+03</pdfrwt>
<pdfrwt beam="2">  1       21 0.36577527E-01 0.18136358E+03</pdfrwt>
<totfact> 0.95752750E+04</totfact>
</mgrwt>
</event>
<event>
12    1  0.2768653E-001  0.1988741E+03  0.7546771E-02  0.1150777E+00
         21   -1    0    0  504  503  0.00000000000E+00  0.00000000000E+00  0.39707882000E+03  0.39707882000E+03  0.00000000000E+00 0.  1.
         21   -1    0    0  502  504 -0.00000000000E+00 -0.00000000000E+00 -0.10061467676E+03  0.10061467676E+03  0.00000000000E+00 0. -1.
          6    2    1    2  502    0 -0.16129322979E+02  0.96376622820E+02  0.12110340809E+03  0.23284534940E+03  0.17321175710E+03 0.  0.
         24    2    3    3    0    0  0.98756468604E+01  0.98631483911E+02  0.14739265079E+03  0.19550157969E+03  0.81673595087E+02 0.  0.
         -6    2    1    2    0  503  0.16129322979E+02 -0.96376622820E+02  0.17536073515E+03  0.26484814736E+03  0.17275573866E+03 0.  0.
        -24    2    5    5    0    0 -0.22420873243E+02  0.10891780732E+01  0.12421907215E+03  0.14812942707E+03  0.77511724340E+02 0.  0.
          2    1    4    4  501    0 -0.21164140662E+02  0.39276895377E+02  0.14896515473E+02  0.47037235608E+02  0.00000000000E+00 0. -1.
         -1    1    4    4    0  501  0.31039787523E+02  0.59354588534E+02  0.13249613531E+03  0.14846434408E+03  0.00000000000E+00 0.  1.
          5    1    3    3  502    0 -0.26004969839E+02 -0.22548610909E+01 -0.26289242695E+02  0.37343769712E+02  0.47000000000E+01 0. -1.
         11    1    6    6    0    0 -0.20789407939E+00 -0.36311345095E+02  0.45741977006E+02  0.58402786432E+02  0.00000000000E+00 0. -1.
        -12    1    6    6    0    0 -0.22212979164E+02  0.37400523168E+02  0.78477095147E+02  0.89726640633E+02  0.00000000000E+00 0.  1.
         -5    1    5    5    0  503  0.38550196222E+02 -0.97465800893E+02  0.51141662997E+02  0.11671872029E+03  0.47000000000E+01 0.  1.
<mgrwt>
<rscale>  2 0.19877480E+03</rscale>
<asrwt>0</asrwt>
<pdfrwt beam="1">  1       21 0.61089048E-01 0.19887413E+03</pdfrwt>
<pdfrwt beam="2">  1       21 0.15479181E-01 0.19887413E+03</pdfrwt>
<totfact> 0.92102946E+04</totfact>
</mgrwt>
</event>
<event>
12    1  0.2768653E-001  0.2176676E+03  0.7546771E-02  0.1136046E+00
         21   -1    0    0  504  503  0.00000000000E+00  0.00000000000E+00  0.10999818285E+03  0.10999818285E+03  0.00000000000E+00 0.  1.
         21   -1    0    0  502  504 -0.00000000000E+00 -0.00000000000E+00 -0.45644721010E+03  0.45644721010E+03  0.00000000000E+00 0.  1.
          6    2    1    2  502    0  0.11265164338E+03 -0.62388209318E+02 -0.99807105718E+02  0.23749032098E+03  0.17279326604E+03 0.  0.
         24    2    3    3    0    0  0.34718449009E+02 -0.57727586894E+02  0.71478262795E+01  0.10498842792E+03  0.80209934457E+02 0.  0.
         -6    2    1    2    0  503 -0.11265164338E+03  0.62388209318E+02 -0.24664192154E+03  0.32895507197E+03  0.17548937432E+03 0.  0.
        -24    2    5    5    0    0 -0.11464810989E+03  0.71604647967E+02 -0.26355594878E+03  0.30902763016E+03  0.88118802496E+02 0.  0.
          4    1    4    4  501    0 -0.10641916085E+02 -0.19377034432E+02  0.33394064168E+02  0.40048512618E+02  0.00000000000E+00 0. -1.
         -3    1    4    4    0  501  0.45360365093E+02 -0.38350552462E+02 -0.26246237888E+02  0.64939915298E+02  0.00000000000E+00 0.  1.
          5    1    3    3  502    0  0.77933194369E+02 -0.46606224240E+01 -0.10695493200E+03  0.13250189306E+03  0.47000000000E+01 0. -1.
         11    1    6    6    0    0 -0.60731703148E+01  0.47489507124E+02 -0.57065201909E+02  0.74488750516E+02  0.00000000000E+00 0. -1.
        -12    1    6    6    0    0 -0.10857493957E+03  0.24115140843E+02 -0.20649074687E+03  0.23453887964E+03  0.00000000000E+00 0.  1.
         -5    1    5    5    0  503  0.19964665071E+01 -0.92164386491E+01  0.16914027240E+02  0.19927441817E+02  0.47000000000E+01 0.  1.
<mgrwt>
<rscale>  2 0.21712366E+03</rscale>
<asrwt>0</asrwt>
<pdfrwt beam="1">  1       21 0.16922798E-01 0.21766764E+03</pdfrwt>
<pdfrwt beam="2">  1       21 0.70222647E-01 0.21766764E+03</pdfrwt>
<totfact> 0.57211344E+04</totfact>
</mgrwt>
</event>
<event>
12    1  0.2768653E-001  0.1763493E+03  0.7546771E-02  0.1171671E+00
         21   -1    0    0  504  503  0.00000000000E+00  0.00000000000E+00  0.10653192272E+03  0.10653192272E+03  0.00000000000E+00 0.  1.
         21   -1    0    0  502  504 -0.00000000000E+00 -0.00000000000E+00 -0.44520153225E+03  0.44520153225E+03  0.00000000000E+00 0.  1.
          6    2    1    2  502    0  0.28992487556E+02 -0.21565322588E+01 -0.33256497845E+03  0.37642867544E+03  0.17393639020E+03 0.  0.
         24    2    3    3    0    0  0.49583378969E+01  0.60478031078E+02 -0.24610709504E+03  0.26689427684E+03  0.83556420571E+02 0.  0.
         -6    2    1    2    0  503 -0.28992487556E+02  0.21565322588E+01 -0.61046310780E+01  0.17530477953E+03  0.17276945402E+03 0.  0.
        -24    2    5    5    0    0  0.74164802458E+00 -0.55628259571E+02  0.28321827754E+02  0.10161304287E+03  0.80175003888E+02 0.  0.
          2    1    4    4  501    0  0.15661574386E+02  0.32142551415E+02 -0.24776301700E+02  0.43500501717E+02  0.00000000000E+00 0. -1.
         -1    1    4    4    0  501 -0.10703236489E+02  0.28335479662E+02 -0.22133079334E+03  0.22339377512E+03  0.00000000000E+00 0.  1.
          5    1    3    3  502    0  0.24034149659E+02 -0.62634563337E+02 -0.86457883404E+02  0.10953439860E+03  0.47000000000E+01 0. -1.
         11    1    6    6    0    0  0.40121560190E+02 -0.34265125327E+02  0.16411582741E+02  0.55255573962E+02  0.00000000000E+00 0. -1.
        -12    1    6    6    0    0 -0.39379912166E+02 -0.21363134244E+02  0.11910245013E+02  0.46357468904E+02  0.00000000000E+00 0.  1.
         -5    1    5    5    0  503 -0.29734135580E+02  0.57784791829E+02 -0.34426458832E+02  0.73691736668E+02  0.47000000000E+01 0.  1.
<mgrwt>
<rscale>  2 0.17606090E+03</rscale>
<asrwt>0</asrwt>
<pdfrwt beam="1">  1       21 0.16389526E-01 0.17634932E+03</pdfrwt>
<pdfrwt beam="2">  1       21 0.68492544E-01 0.17634932E+03</pdfrwt>
<totfact> 0.65328954E+04</totfact>
</mgrwt>
</event>
<event>
12    1  0.2768653E-001  0.2180162E+03  0.7546771E-02  0.1135400E+00
         21   -1    0    0  504  503  0.00000000000E+00  0.00000000000E+00  0.68373398620E+03  0.68373398620E+03  0.00000000000E+00 0. -1.
         21   -1    0    0  502  504 -0.00000000000E+00 -0.00000000000E+00 -0.13485043965E+03  0.13485043965E+03  0.00000000000E+00 0. -1.
          6    2    1    2  502    0  0.46309553288E+02  0.12697943063E+03 -0.10503612885E+02  0.21826912256E+03  0.17106353629E+03 0.  0.
         24    2    3    3    0    0 -0.35111575848E+02  0.73876156665E+02  0.20582591285E+02  0.11610357031E+03  0.79786506962E+02 0.  0.
         -6    2    1    2    0  503 -0.46309553288E+02 -0.12697943063E+03  0.55938715944E+03  0.60031530329E+03  0.17086871770E+03 0.  0.
        -24    2    5    5    0    0 -0.45880755706E+02 -0.35092607590E+02  0.43238344418E+03  0.44348607831E+03  0.79924489419E+02 0.  0.
          4    1    4    4  501    0  0.21831946144E+02  0.97908703839E+01  0.18676821434E+02  0.30353231693E+02  0.00000000000E+00 0. -1.
         -3    1    4    4    0  501 -0.56943521993E+02  0.64085286281E+02  0.19057698513E+01  0.85750338620E+02  0.00000000000E+00 0.  1.
          5    1    3    3  502    0  0.81421129136E+02  0.53103273964E+02 -0.31086204171E+02  0.10216555224E+03  0.47000000000E+01 0. -1.
         11    1    6    6    0    0 -0.54612436905E+02 -0.54608061569E+02  0.33737576349E+03  0.34610253458E+03  0.00000000000E+00 0. -1.
        -12    1    6    6    0    0  0.87316811989E+01  0.19515453979E+02  0.95007680685E+02  0.97383543731E+02  0.00000000000E+00 0.  1.
         -5    1    5    5    0  503 -0.42879758183E+00 -0.91886823039E+02  0.12700371526E+03  0.15682922497E+03  0.47000000000E+01 0.  1.
<mgrwt>
<rscale>  2 0.21797803E+03</rscale>
<asrwt>0</asrwt>
<pdfrwt beam="1">  1       21 0.10518984E+00 0.21801625E+03</pdfrwt>
<pdfrwt beam="2">  1       21 0.20746222E-01 0.21801625E+03</pdfrwt>
<totfact> 0.15427457E+04</totfact>
</mgrwt>
</event>
<event>
12    1  0.2768653E-001  0.2027974E+03  0.7546771E-02  0.1150247E+00
         21   -1    0    0  504  503  0.00000000000E+00  0.00000000000E+00  0.10648454977E+04  0.10648454977E+04  0.00000000000E+00 0.  1.
         21   -1    0    0  502  504 -0.00000000000E+00 -0.00000000000E+00 -0.11181855768E+03  0.11181855768E+03  0.00000000000E+00 0. -1.
          6    2    1    2  502    0 -0.57171639643E+02 -0.56679618519E+02 -0.22042548657E+01  0.20280940015E+03  0.18613333532E+03 0.  0.
         24    2    3    3    0    0  0.35991724402E+02 -0.30480748992E+02  0.40772266976E+02  0.96814755977E+02  0.74069149691E+02 0.  0.
         -6    2    1    2    0  503  0.57171639643E+02  0.56679618519E+02  0.95523119484E+03  0.97385465517E+03  0.17159568258E+03 0.  0.
        -24    2    5    5    0    0  0.52918290950E+02 -0.60034363840E+01  0.77908800521E+03  0.78678309240E+03  0.95985039760E+02 0.  0.
          2    1    4    4  501    0  0.10623521747E+02 -0.35855805911E+02 -0.10940969642E+02  0.38964122581E+02  0.00000000000E+00 0. -1.
         -1    1    4    4    0  501  0.25368202656E+02  0.53750569190E+01  0.51713236618E+02  0.57850633396E+02  0.00000000000E+00 0.  1.
          5    1    3    3  502    0 -0.93163364045E+02 -0.26198869527E+02 -0.42976521842E+02  0.10599464418E+03  0.47000000000E+01 0. -1.
         11    1    6    6    0    0  0.68135941145E+01 -0.31833782125E+02  0.90627567709E+02  0.96297304105E+02  0.00000000000E+00 0. -1.
        -12    1    6    6    0    0  0.46104696835E+02  0.25830345741E+02  0.68846043750E+03  0.69048578829E+03  0.00000000000E+00 0.  1.
         -5    1    5    5    0  503  0.42533486933E+01  0.62683054903E+02  0.17614318963E+03  0.18707156278E+03  0.47000000000E+01 0.  1.
<mgrwt>
<rscale>  2 0.19939915E+03</rscale>
<asrwt>0</asrwt>
<pdfrwt beam="1">  1       21 0.16382238E+00 0.20279742E+03</pdfrwt>
<pdfrwt beam="2">  1       21 0.17202856E-01 0.20279742E+03</pdfrwt>
<totfact> 0.71474872E+03</totfact>
</mgrwt>
</event>
<event>
12    1  0.2768653E-001  0.2091872E+03  0.7546771E-02  0.1143767E+00
         21   -1    0    0  504  503  0.00000000000E+00  0.00000000000E+00  0.29850647547E+02  0.29850647547E+02  0.00000000000E+00 0. -1.
         21   -1    0    0  502  504 -0.00000000000E+00 -0.00000000000E+00 -0.14539582386E+04  0.14539582386E+04  0.00000000000E+00 0. -1.
          6    2    1    2  502    0  0.21202982266E+02 -0.10053314797E+03 -0.60002979233E+03  0.63544867264E+03  0.18221630987E+03 0.  0.
         24    2    3    3    0    0  0.83585532566E+02 -0.77754426013E+02 -0.33119480385E+03  0.35849236962E+03  0.76121540682E+02 0.  0.
         -6    2    1    2    0  503 -0.21202982266E+02  0.10053314797E+03 -0.82407779873E+03  0.84836021351E+03  0.17336191397E+03 0.  0.
        -24    2    5    5    0    0  0.29843248899E+02  0.11925845881E+03 -0.61395680035E+03  0.63126742473E+03  0.80264620610E+02 0.  0.
          4    1    4    4  501    0  0.24383917895E+02 -0.65384281326E+02 -0.12007215807E+03  0.13887765421E+03  0.00000000000E+00 0. -1.
         -3    1    4    4    0  501  0.59201614671E+02 -0.12370144687E+02 -0.21112264578E+03  0.21961471540E+03  0.00000000000E+00 0.  1.
          5    1    3    3  502    0 -0.62382550300E+02 -0.22778721954E+02 -0.26883498848E+03  0.27695630303E+03  0.47000000000E+01 0. -1.
         11    1    6    6    0    0 -0.13825560210E+02  0.57966972369E+02 -0.40100598878E+03  0.40540981616E+03  0.00000000000E+00 0. -1.
        -12    1    6    6    0    0  0.43668809109E+02  0.61291486446E+02 -0.21295081157E+03  0.22585760857E+03  0.00000000000E+00 0.  1.
         -5    1    5    5    0  503 -0.51046231165E+02 -0.18725310848E+02 -0.21012099838E+03  0.21709278878E+03  0.47000000000E+01 0.  1.
<mgrwt>
<rscale>  2 0.20724377E+03</rscale>
<asrwt>0</asrwt>
<pdfrwt beam="1">  1       21 0.45924084E-02 0.20918715E+03</pdfrwt>
<pdfrwt beam="2">  1       21 0.22368583E+00 0.20918715E+03</pdfrwt>
<totfact> 0.29298817E+04</totfact>
</mgrwt>
</event>
<event>
12    1  0.2768653E-001  0.2104829E+03  0.7546771E-02  0.1141276E+00
         21   -1    0    0  504  503  0.00000000000E+00  0.00000000000E+00  0.11331911877E+03  0.11331911877E+03  0.00000000000E+00 0. -1.
         21   -1    0    0  502  504 -0.00000000000E+00 -0.00000000000E+00 -0.67521173384E+03  0.67521173384E+03  0.00000000000E+00 0. -1.
          6    2    1    2  502    0 -0.10593630101E+03  0.57094336597E+02 -0.53696606319E+03  0.57657709632E+03  0.17212301370E+03 0.  0.
         24    2    3    3    0    0 -0.15594678562E+02  0.40649530325E+01 -0.11738158958E+03  0.14408785396E+03  0.81994842784E+02 0.  0.
         -6    2    1    2    0  503  0.10593630101E+03 -0.57094336597E+02 -0.24926551878E+02  0.21195375629E+03  0.17268699625E+03 0.  0.
        -24    2    5    5    0    0  0.78851208062E+02 -0.58757893093E+02  0.47073102666E+02  0.13486672798E+03  0.79392407109E+02 0.  0.
          4    1    4    4  501    0  0.22787862085E+02  0.15407146642E+02 -0.93541703331E+02  0.97502395294E+02  0.00000000000E+00 0. -1.
         -3    1    4    4    0  501 -0.38382540648E+02 -0.11342193609E+02 -0.23839886247E+02  0.46585458662E+02  0.00000000000E+00 0.  1.
          5    1    3    3  502    0 -0.90341622450E+02  0.53029383564E+02 -0.41958447361E+03  0.43248924237E+03  0.47000000000E+01 0. -1.
         13    1    6    6    0    0  0.43140585269E+00 -0.12029942086E+01  0.37056313464E+02  0.37078345076E+02  0.00000000000E+00 0. -1.
        -14    1    6    6    0    0  0.78419802209E+02 -0.57554898885E+02  0.10016789203E+02  0.97788382899E+02  0.00000000000E+00 0.  1.
         -5    1    5    5    0  503  0.27085092951E+02  0.16635564964E+01 -0.71999654544E+02  0.77087028318E+02  0.47000000000E+01 0.  1.
<mgrwt>
<rscale>  2 0.21036721E+03</rscale>
<asrwt>0</asrwt>
<pdfrwt beam="1">  1       21 0.17433711E-01 0.21048293E+03</pdfrwt>
<pdfrwt beam="2">  1       21 0.10387873E+00 0.21048293E+03</pdfrwt>
<totfact> 0.22087492E+04</totfact>
</mgrwt>
</event>
<event>
12    1  0.2768653E-001  0.2195473E+03  0.7546771E-02  0.1134243E+00
         21   -1    0    0  504  503  0.00000000000E+00  0.00000000000E+00  0.41252257156E+03  0.41252257156E+03  0.00000000000E+00 0.  1.
         21   -1    0    0  502  504 -0.00000000000E+00 -0.00000000000E+00 -0.12106392056E+03  0.12106392056E+03  0.00000000000E+00 0.  1.
          6    2    1    2  502    0 -0.13071983392E+03 -0.51229848065E+02  0.95590182115E+02  0.23945456664E+03  0.16878635684E+03 0.  0.
         24    2    3    3    0    0 -0.10214978395E+03 -0.66415358718E+02  0.85050925896E+01  0.14643440589E+03  0.80778217321E+02 0.  0.
         -6    2    1    2    0  503  0.13071983392E+03  0.51229848065E+02  0.19586846889E+03  0.29413192548E+03  0.16863261893E+03 0.  0.
        -24    2    5    5    0    0  0.44926585078E+01  0.22150257269E+02  0.72218544420E+02  0.11499422360E+03  0.86587155083E+02 0.  0.
          4    1    4    4  501    0 -0.56708066296E+02 -0.80472596940E+02  0.23758977938E+01  0.98474811661E+02  0.00000000000E+00 0. -1.
         -3    1    4    4    0  501 -0.45441717653E+02  0.14057238222E+02  0.61291947958E+01  0.47959594228E+02  0.00000000000E+00 0.  1.
          5    1    3    3  502    0 -0.28570049975E+02  0.15185510653E+02  0.87085089525E+02  0.93020160755E+02  0.47000000000E+01 0. -1.
         11    1    6    6    0    0 -0.97520454214E+01  0.46823291481E+02  0.13448649170E+02  0.49682886183E+02  0.00000000000E+00 0. -1.
        -12    1    6    6    0    0  0.14244703929E+02 -0.24673034212E+02  0.58769895250E+02  0.65311337415E+02  0.00000000000E+00 0.  1.
         -5    1    5    5    0  503  0.12622717542E+03  0.29079590796E+02  0.12364992447E+03  0.17913770188E+03  0.47000000000E+01 0.  1.
<mgrwt>
<rscale>  2 0.21951773E+03</rscale>
<asrwt>0</asrwt>
<pdfrwt beam="1">  1       21 0.63465010E-01 0.21954728E+03</pdfrwt>
<pdfrwt beam="2">  1       21 0.18625219E-01 0.21954728E+03</pdfrwt>
<totfact> 0.59761367E+04</totfact>
</mgrwt>
</event>
<event>
12    1  0.2768653E-001  0.1869110E+03  0.7546771E-02  0.1163875E+00
         21   -1    0    0  504  503  0.00000000000E+00  0.00000000000E+00  0.28055169450E+03  0.28055169450E+03  0.00000000000E+00 0.  1.
         21   -1    0    0  502  504 -0.00000000000E+00 -0.00000000000E+00 -0.13569639852E+03  0.13569639852E+03  0.00000000000E+00 0.  1.
          6    2    1    2  502    0  0.33282329787E+02  0.47140297344E+01 -0.59379373574E+01  0.17609331540E+03  0.17275317964E+03 0.  0.
         24    2    3    3    0    0  0.11492384864E+02  0.51271146291E+02 -0.50929920147E+02  0.10761897483E+03  0.78912493463E+02 0.  0.
         -6    2    1    2    0  503 -0.33282329787E+02 -0.47140297344E+01  0.15079323334E+03  0.24015477762E+03  0.18386348860E+03 0.  0.
        -24    2    5    5    0    0 -0.60409630140E+02  0.55476308583E+02  0.12575030300E+03  0.16938751392E+03  0.78434985433E+02 0.  0.
          4    1    4    4  501    0  0.21303717121E+02  0.69423557798E+02 -0.31090635469E+02  0.78994343812E+02  0.00000000000E+00 0. -1.
         -3    1    4    4    0  501 -0.98113322572E+01 -0.18152411506E+02 -0.19839284679E+02  0.28624631014E+02  0.00000000000E+00 0.  1.
          5    1    3    3  502    0  0.21789944923E+02 -0.46557116557E+02  0.44991982790E+02  0.68474340575E+02  0.47000000000E+01 0. -1.
         11    1    6    6    0    0 -0.16999215376E+02 -0.18407540636E+02  0.14463647340E+02  0.28931090025E+02  0.00000000000E+00 0. -1.
        -12    1    6    6    0    0 -0.43410414764E+02  0.73883849219E+02  0.11128665566E+03  0.14045642389E+03  0.00000000000E+00 0.  1.
         -5    1    5    5    0  503  0.27127300353E+02 -0.60190338318E+02  0.25042930341E+02  0.70767263698E+02  0.47000000000E+01 0.  1.
<mgrwt>
<rscale>  2 0.18411963E+03</rscale>
<asrwt>0</asrwt>
<pdfrwt beam="1">  1       21 0.43161799E-01 0.18691099E+03</pdfrwt>
<pdfrwt beam="2">  1       21 0.20876369E-01 0.18691099E+03</pdfrwt>
<totfact> 0.11017522E+05</totfact>
</mgrwt>
</event>
<event>
12    1  0.2768653E-001  0.2799246E+03  0.7546771E-02  0.1095929E+00
         21   -1    0    0  504  503  0.00000000000E+00  0.00000000000E+00  0.46671423883E+03  0.46671423883E+03  0.00000000000E+00 0. -1.
         21   -1    0    0  502  504 -0.00000000000E+00 -0.00000000000E+00 -0.54575626746E+03  0.54575626746E+03  0.00000000000E+00 0.  1.
          6    2    1    2  502    0  0.18656312338E+03 -0.11311524381E+03 -0.46126674061E+03  0.53955978628E+03  0.17537645107E+03 0.  0.
         24    2    3    3    0    0  0.19570517844E+03 -0.13088646179E+03 -0.36803568664E+03  0.44409506618E+03  0.79613933561E+02 0.  0.
         -6    2    1    2    0  503 -0.18656312338E+03  0.11311524381E+03  0.38222471199E+03  0.47291072001E+03  0.17305479267E+03 0.  0.
        -24    2    5    5    0    0 -0.91497449719E+02  0.99534506954E+01  0.10498952596E+03  0.16216761673E+03  0.82490489568E+02 0.  0.
          2    1    4    4  501    0  0.16887457047E+03 -0.11005575917E+03 -0.35395074766E+03  0.40732299523E+03  0.00000000000E+00 0. -1.
         -1    1    4    4    0  501  0.26830607972E+02 -0.20830702618E+02 -0.14084938984E+02  0.36772070949E+02  0.00000000000E+00 0.  1.
          5    1    3    3  502    0 -0.91420550628E+01  0.17771217979E+02 -0.93231053967E+02  0.95464720096E+02  0.47000000000E+01 0. -1.
         11    1    6    6    0    0 -0.34506028515E+02  0.33542757665E+02  0.84374942587E+02  0.97133483065E+02  0.00000000000E+00 0. -1.
        -12    1    6    6    0    0 -0.56991421204E+02 -0.23589306970E+02  0.20614583373E+02  0.65034133667E+02  0.00000000000E+00 0.  1.
         -5    1    5    5    0  503 -0.95065673657E+02  0.10316179311E+03  0.27723518603E+03  0.31074310328E+03  0.47000000000E+01 0.  1.
<mgrwt>
<rscale>  2 0.27956168E+03</rscale>
<asrwt>0</asrwt>
<pdfrwt beam="1">  1       21 0.71802191E-01 0.27992456E+03</pdfrwt>
<pdfrwt beam="2">  1       21 0.83962503E-01 0.27992456E+03</pdfrwt>
<totfact> 0.20201489E+03</totfact>
</mgrwt>
</event>
<event>
12    1  0.2768653E-001  0.1970188E+03  0.7546771E-02  0.1152504E+00
         21   -1    0    0  504  503  0.00000000000E+00  0.00000000000E+00  0.46221293235E+02  0.46221293235E+02  0.00000000000E+00 0. -1.
         21   -1    0    0  502  504 -0.00000000000E+00 -0.00000000000E+00 -0.86720891213E+03  0.86720891213E+03  0.00000000000E+00 0. -1.
          6    2    1    2  502    0  0.33487288492E+02  0.86235770774E+02 -0.49907661937E+03  0.53655742662E+03  0.17394939900E+03 0.  0.
         24    2    3    3    0    0  0.28764893770E+01 -0.95911052962E+01 -0.33050308938E+03  0.34019313198E+03  0.79992571292E+02 0.  0.
         -6    2    1    2    0  503 -0.33487288492E+02 -0.86235770774E+02 -0.32191099953E+03  0.37687277875E+03  0.17276687497E+03 0.  0.
        -24    2    5    5    0    0 -0.42054147482E+01  0.19714766135E+02 -0.11119630117E+03  0.13916346360E+03  0.81212651047E+02 0.  0.
          2    1    4    4  501    0  0.23662475670E-01 -0.27749675969E+02 -0.37689880628E+02  0.46803548777E+02  0.00000000000E+00 0. -1.
         -1    1    4    4    0  501  0.28528269013E+01  0.18158570673E+02 -0.29281320875E+03  0.29338958320E+03  0.00000000000E+00 0.  1.
          5    1    3    3  502    0  0.30610799115E+02  0.95826876070E+02 -0.16857352998E+03  0.19636429464E+03  0.47000000000E+01 0. -1.
         13    1    6    6    0    0 -0.17734625073E+02  0.25443022001E+01 -0.11550205574E+03  0.11688334048E+03  0.00000000000E+00 0. -1.
        -14    1    6    6    0    0  0.13529210325E+02  0.17170463935E+02  0.43057545757E+01  0.22280123120E+02  0.00000000000E+00 0.  1.
         -5    1    5    5    0  503 -0.29281873744E+02 -0.10595053691E+03 -0.21071469836E+03  0.23770931515E+03  0.47000000000E+01 0.  1.
<mgrwt>
<rscale>  2 0.19675744E+03</rscale>
<asrwt>0</asrwt>
<pdfrwt beam="1">  1       21 0.71109685E-02 0.19701878E+03</pdfrwt>
<pdfrwt beam="2">  1       21 0.13341675E+00 0.19701878E+03</pdfrwt>
<totfact> 0.59452819E+04</totfact>
</mgrwt>
</event>
<event>
12    1  0.2768653E-001  0.1762755E+03  0.7546771E-02  0.1172978E+00
         21   -1    0    0  504  503  0.00000000000E+00  0.00000000000E+00  0.10681711922E+03  0.10681711922E+03  0.00000000000E+00 0.  1.
         21   -1    0    0  502  504 -0.00000000000E+00 -0.00000000000E+00 -0.29810060405E+03  0.29810060405E+03  0.00000000000E+00 0.  1.
          6    2    1    2  502    0 -0.19350851673E+02 -0.18823447533E+02 -0.48823779017E+02  0.18291199518E+03  0.17419603596E+03 0.  0.
         24    2    3    3    0    0 -0.67657124262E+02  0.26399642547E+02 -0.18907013935E+02  0.11014025148E+03  0.80616203272E+02 0.  0.
         -6    2    1    2    0  503  0.19350851673E+02  0.18823447533E+02 -0.14245970581E+03  0.22200572810E+03  0.16811602509E+03 0.  0.
        -24    2    5    5    0    0  0.43087094390E+02 -0.34056657804E+02 -0.42808751819E+02  0.10662757856E+03  0.80749598352E+02 0.  0.
          2    1    4    4  501    0 -0.37975880578E+02  0.39525398511E+02  0.21004291976E+02  0.58699275247E+02  0.00000000000E+00 0. -1.
         -1    1    4    4    0  501 -0.29681243684E+02 -0.13125755964E+02 -0.39911305911E+02  0.51440976232E+02  0.00000000000E+00 0.  1.
          5    1    3    3  502    0  0.48306272590E+02 -0.45223090080E+02 -0.29916765081E+02  0.72771743698E+02  0.47000000000E+01 0. -1.
         11    1    6    6    0    0 -0.22179381946E+01 -0.30071677103E+02 -0.52110904154E+02  0.60206073991E+02  0.00000000000E+00 0. -1.
        -12    1    6    6    0    0  0.45305032585E+02 -0.39849807003E+01  0.93021523345E+01  0.46421504572E+02  0.00000000000E+00 0.  1.
         -5    1    5    5    0  503 -0.23736242717E+02  0.52880105336E+02 -0.99650953990E+02  0.11537814953E+03  0.47000000000E+01 0.  1.
<mgrwt>
<rscale>  2 0.17475445E+03</rscale>
<asrwt>0</asrwt>
<pdfrwt beam="1">  1       21 0.16433403E-01 0.17627546E+03</pdfrwt>
<pdfrwt beam="2">  1       21 0.45861632E-01 0.17627546E+03</pdfrwt>
<totfact> 0.15211849E+05</totfact>
</mgrwt>
</event>
<event>
12    1  0.2768653E-001  0.1942217E+03  0.7546771E-02  0.1154712E+00
         21   -1    0    0  504  503  0.00000000000E+00  0.00000000000E+00  0.85843739349E+02  0.85843739349E+02  0.00000000000E+00 0.  1.
         21   -1    0    0  502  504 -0.00000000000E+00 -0.00000000000E+00 -0.44902879658E+03  0.44902879658E+03  0.00000000000E+00 0.  1.
          6    2    1    2  502    0  0.73823944381E+02 -0.48130286650E+02 -0.22078000261E+03  0.29403801540E+03  0.17305503660E+03 0.  0.
         24    2    3    3    0    0 -0.27329199788E+02 -0.80729981380E+01 -0.10381101824E+03  0.13422444201E+03  0.80171159797E+02 0.  0.
         -6    2    1    2    0  503 -0.73823944381E+02  0.48130286650E+02 -0.14240505462E+03  0.24083452053E+03  0.17307676747E+03 0.  0.
        -24    2    5    5    0    0 -0.40679533352E+02  0.80184785590E+02 -0.14838568486E+03  0.19410229586E+03  0.87022787304E+02 0.  0.
          4    1    4    4  501    0 -0.55512454452E+02 -0.47275342286E+01 -0.78055021780E+02  0.95898741412E+02  0.00000000000E+00 0. -1.
         -3    1    4    4    0  501  0.28183254665E+02 -0.33454639095E+01 -0.25755996462E+02  0.38325700594E+02  0.00000000000E+00 0.  1.
          5    1    3    3  502    0  0.10115314417E+03 -0.40057288512E+02 -0.11696898436E+03  0.15981357339E+03  0.47000000000E+01 0. -1.
         11    1    6    6    0    0  0.17161169838E+02  0.86777266243E+01  0.34325814226E+00  0.19233473834E+02  0.00000000000E+00 0. -1.
        -12    1    6    6    0    0 -0.57840703190E+02  0.71507058966E+02 -0.14872894301E+03  0.17486882202E+03  0.00000000000E+00 0.  1.
         -5    1    5    5    0  503 -0.33144411029E+02 -0.32054498940E+02  0.59806302388E+01  0.46732224672E+02  0.47000000000E+01 0.  1.
<mgrwt>
<rscale>  2 0.19421685E+03</rscale>
<asrwt>0</asrwt>
<pdfrwt beam="1">  1       21 0.13206729E-01 0.19422169E+03</pdfrwt>
<pdfrwt beam="2">  1       21 0.69081352E-01 0.19422169E+03</pdfrwt>
<totfact> 0.94191459E+04</totfact>
</mgrwt>
</event>
<event>
12    1  0.2768653E-001  0.1920478E+03  0.7546771E-02  0.1156917E+00
         21   -1    0    0  504  503  0.00000000000E+00  0.00000000000E+00  0.41605557191E+02  0.41605557191E+02  0.00000000000E+00 0.  1.
         21   -1    0    0  502  504 -0.00000000000E+00 -0.00000000000E+00 -0.93926832943E+03  0.93926832943E+03  0.00000000000E+00 0.  1.
          6    2    1    2  502    0 -0.10498611332E+02  0.80601889729E+02 -0.32472298823E+03  0.37660378820E+03  0.17256450602E+03 0.  0.
         24    2    3    3    0    0  0.52733162699E+02  0.89236433227E+02 -0.19810686025E+03  0.23473572819E+03  0.71488506392E+02 0.  0.
         -6    2    1    2    0  503  0.10498611332E+02 -0.80601889729E+02 -0.57293978401E+03  0.60427009842E+03  0.17399847778E+03 0.  0.
        -24    2    5    5    0    0 -0.34599892908E+02  0.51391972463E+01 -0.36395037270E+03  0.37387028696E+03  0.78074027330E+02 0.  0.
          2    1    4    4  501    0  0.13299177807E+01  0.22698710313E+02 -0.38475393685E+01  0.23060869246E+02  0.00000000000E+00 0. -1.
         -1    1    4    4    0  501  0.51403244918E+02  0.66537722914E+02 -0.19425932088E+03  0.21167485894E+03  0.00000000000E+00 0.  1.
          5    1    3    3  502    0 -0.63231774031E+02 -0.86345434974E+01 -0.12661612798E+03  0.14186806002E+03  0.47000000000E+01 0. -1.
         11    1    6    6    0    0 -0.19401555431E+02  0.34899416410E+01 -0.35617301796E+03  0.35671812229E+03  0.00000000000E+00 0. -1.
        -12    1    6    6    0    0 -0.15198337478E+02  0.16492556053E+01 -0.77773547419E+01  0.17152164671E+02  0.00000000000E+00 0.  1.
         -5    1    5    5    0  503  0.45098504240E+02 -0.85741086976E+02 -0.20898941131E+03  0.23039981146E+03  0.47000000000E+01 0.  1.
<mgrwt>
<rscale>  2 0.19172241E+03</rscale>
<asrwt>0</asrwt>
<pdfrwt beam="1">  1       21 0.64008544E-02 0.19204780E+03</pdfrwt>
<pdfrwt beam="2">  1       21 0.14450283E+00 0.19204780E+03</pdfrwt>
<totfact> 0.58188669E+04</totfact>
</mgrwt>
</event>
<event>
12    1  0.2768653E-001  0.2181387E+03  0.7546771E-02  0.1136268E+00
         21   -1    0    0  504  503  0.00000000000E+00  0.00000000000E+00  0.19312182656E+03  0.19312182656E+03  0.00000000000E+00 0. -1.
         21   -1    0    0  502  504 -0.00000000000E+00 -0.00000000000E+00 -0.24282372535E+03  0.24282372535E+03  0.00000000000E+00 0.  1.
          6    2    1    2  502    0 -0.73547710201E+02 -0.10985802174E+03 -0.45540958643E+02  0.21776718444E+03  0.16694465278E+03 0.  0.
         24    2    3    3    0    0 -0.99940374236E+02 -0.37816473236E+02 -0.36733463474E+02  0.14039652207E+03  0.83328698656E+02 0.  0.
         -6    2    1    2    0  503  0.73547710201E+02  0.10985802174E+03 -0.41609401519E+01  0.21817836746E+03  0.17351206295E+03 0.  0.
        -24    2    5    5    0    0  0.77068330965E+02  0.14170701386E+03  0.14606798692E+02  0.18074748328E+03  0.80223990979E+02 0.  0.
          4    1    4    4  501    0 -0.56969485903E+02 -0.23776533788E+02  0.22656906761E+02  0.65758507488E+02  0.00000000000E+00 0. -1.
         -3    1    4    4    0  501 -0.42970888333E+02 -0.14039939448E+02 -0.59390370235E+02  0.74638014580E+02  0.00000000000E+00 0.  1.
          5    1    3    3  502    0  0.26392664035E+02 -0.72041548502E+02 -0.88074951688E+01  0.77370662376E+02  0.47000000000E+01 0. -1.
         11    1    6    6    0    0  0.48640837339E+02  0.60268978245E+02  0.44662945489E+02  0.89403912081E+02  0.00000000000E+00 0. -1.
        -12    1    6    6    0    0  0.28427493627E+02  0.81438035613E+02 -0.30056146798E+02  0.91343571196E+02  0.00000000000E+00 0.  1.
         -5    1    5    5    0  503 -0.35206207642E+01 -0.31848992120E+02 -0.18767738844E+02  0.37430884186E+02  0.47000000000E+01 0.  1.
<mgrwt>
<rscale>  2 0.21683030E+03</rscale>
<asrwt>0</asrwt>
<pdfrwt beam="1">  1       21 0.29711050E-01 0.21813869E+03</pdfrwt>
<pdfrwt beam="2">  1       21 0.37357496E-01 0.21813869E+03</pdfrwt>
<totfact> 0.74228780E+04</totfact>
</mgrwt>
</event>
<event>
12    1  0.2768653E-001  0.2564294E+03  0.7546771E-02  0.1109455E+00
         21   -1    0    0  504  503  0.00000000000E+00  0.00000000000E+00  0.28892513384E+03  0.28892513384E+03  0.00000000000E+00 0. -1.
         21   -1    0    0  502  504 -0.00000000000E+00 -0.00000000000E+00 -0.61354606280E+03  0.61354606280E+03  0.00000000000E+00 0.  1.
          6    2    1    2  502    0  0.98224379376E+01  0.18926491087E+03 -0.52048340956E+03  0.57979779269E+03  0.17130328079E+03 0.  0.
         24    2    3    3    0    0 -0.33463305793E+02  0.43495775126E+02 -0.24410449902E+03  0.26431453047E+03  0.85226106869E+02 0.  0.
         -6    2    1    2    0  503 -0.98224379376E+01 -0.18926491087E+03  0.19586248060E+03  0.32267340395E+03  0.17273774207E+03 0.  0.
        -24    2    5    5    0    0  0.30758682898E+02 -0.11778527544E+03  0.19051819902E+03  0.24016996769E+03  0.81024450231E+02 0.  0.
          2    1    4    4  501    0 -0.33017696655E+02  0.16807564223E+02 -0.27673351554E+02  0.46243668688E+02  0.00000000000E+00 0. -1.
         -1    1    4    4    0  501 -0.44560913753E+00  0.26688210903E+02 -0.21643114746E+03  0.21807086179E+03  0.00000000000E+00 0.  1.
          5    1    3    3  502    0  0.43285743730E+02  0.14576913574E+03 -0.27637891054E+03  0.31548326222E+03  0.47000000000E+01 0. -1.
         11    1    6    6    0    0 -0.14889216873E+02 -0.79935312555E+02  0.76435850783E+02  0.11159651543E+03  0.00000000000E+00 0. -1.
        -12    1    6    6    0    0  0.45647899771E+02 -0.37849962888E+02  0.11408234824E+03  0.12857345225E+03  0.00000000000E+00 0.  1.
         -5    1    5    5    0  503 -0.40581120836E+02 -0.71479635428E+02  0.53442815744E+01  0.82503436260E+02  0.47000000000E+01 0.  1.
<mgrwt>
<rscale>  2 0.25618799E+03</rscale>
<asrwt>0</asrwt>
<pdfrwt beam="1">  1       21 0.44450021E-01 0.25642936E+03</pdfrwt>
<pdfrwt beam="2">  1       21 0.94391702E-01 0.25642936E+03</pdfrwt>
<totfact> 0.43662475E+03</totfact>
</mgrwt>
</event>
<event>
12    1  0.2768653E-001  0.1985018E+03  0.7546771E-02  0.1151257E+00
         21   -1    0    0  504  503  0.00000000000E+00  0.00000000000E+00  0.12033533881E+04  0.12033533881E+04  0.00000000000E+00 0.  1.
         21   -1    0    0  502  504 -0.00000000000E+00 -0.00000000000E+00 -0.39943738430E+02  0.39943738430E+02  0.00000000000E+00 0.  1.
          6    2    1    2  502    0 -0.91029468509E+02  0.23494933400E+02  0.31570094851E+03  0.37292095433E+03  0.17482726690E+03 0.  0.
         24    2    3    3    0    0 -0.37568245255E+01 -0.35611364430E+02  0.18866637227E+03  0.20778482142E+03  0.79355207636E+02 0.  0.
         -6    2    1    2    0  503  0.91029468509E+02 -0.23494933400E+02  0.84770870116E+03  0.87037617220E+03  0.17351156471E+03 0.  0.
        -24    2    5    5    0    0 -0.10882819199E+02 -0.40417333601E+02  0.41101988671E+03  0.42160931438E+03  0.84053971320E+02 0.  0.
          2    1    4    4  501    0  0.36908713836E+02 -0.25005506888E+02  0.86508504243E+02  0.97320346475E+02  0.00000000000E+00 0. -1.
         -1    1    4    4    0  501 -0.40665538361E+02 -0.10605857542E+02  0.10215786802E+03  0.11046447494E+03  0.00000000000E+00 0.  1.
          5    1    3    3  502    0 -0.87272643983E+02  0.59106297829E+02  0.12703457625E+03  0.16513613291E+03  0.47000000000E+01 0. -1.
         11    1    6    6    0    0 -0.17678650465E+02  0.15240163101E+02  0.39490068214E+02  0.45872243690E+02  0.00000000000E+00 0. -1.
        -12    1    6    6    0    0  0.67958312656E+01 -0.55657496702E+02  0.37152981849E+03  0.37573707069E+03  0.00000000000E+00 0.  1.
         -5    1    5    5    0  503  0.10191228771E+03  0.16922400201E+02  0.43668881445E+03  0.44876685782E+03  0.47000000000E+01 0.  1.
<mgrwt>
<rscale>  2 0.19821168E+03</rscale>
<asrwt>0</asrwt>
<pdfrwt beam="1">  1       21 0.18513126E+00 0.19850176E+03</pdfrwt>
<pdfrwt beam="2">  1       21 0.61451914E-02 0.19850176E+03</pdfrwt>
<totfact> 0.31674149E+04</totfact>
</mgrwt>
</event>
<event>
12    1  0.2768653E-001  0.2625367E+03  0.7546771E-02  0.1105658E+00
         21   -1    0    0  504  503  0.00000000000E+00  0.00000000000E+00  0.17820395936E+03  0.17820395936E+03  0.00000000000E+00 0. -1.
         21   -1    0    0  502  504 -0.00000000000E+00 -0.00000000000E+00 -0.97660045150E+03  0.97660045150E+03  0.00000000000E+00 0.  1.
          6    2    1    2  502    0  0.54109025188E+02 -0.18996698158E+03 -0.84797482719E+03  0.88762747267E+03  0.17264409054E+03 0.  0.
         24    2    3    3    0    0  0.62584314947E+02 -0.58303848935E+02 -0.53967044900E+03  0.55224606197E+03  0.80096093277E+02 0.  0.
         -6    2    1    2    0  503 -0.54109025188E+02  0.18996698158E+03  0.49578335046E+02  0.26717693819E+03  0.17294584210E+03 0.  0.
        -24    2    5    5    0    0 -0.36010153810E+02  0.95023157566E+02 -0.39030064466E+02  0.13596932665E+03  0.81475028113E+02 0.  0.
          4    1    4    4  501    0  0.20640880947E+02 -0.32215642091E+02 -0.43308021059E+03  0.43476702079E+03  0.00000000000E+00 0. -1.
         -3    1    4    4    0  501  0.41943433999E+02 -0.26088206845E+02 -0.10659023841E+03  0.11747904118E+03  0.00000000000E+00 0.  1.
          5    1    3    3  502    0 -0.84752897585E+01 -0.13166313264E+03 -0.30830437819E+03  0.33538141070E+03  0.47000000000E+01 0. -1.
         11    1    6    6    0    0 -0.28072314877E+02  0.10856479119E+03 -0.42455145268E+02  0.11990332818E+03  0.00000000000E+00 0. -1.
        -12    1    6    6    0    0 -0.79378389327E+01 -0.13541633628E+02  0.34250808020E+01  0.16065998467E+02  0.00000000000E+00 0.  1.
         -5    1    5    5    0  503 -0.18098871378E+02  0.94943824013E+02  0.88608399512E+02  0.13120761155E+03  0.47000000000E+01 0.  1.
<mgrwt>
<rscale>  2 0.26248699E+03</rscale>
<asrwt>0</asrwt>
<pdfrwt beam="1">  1       21 0.27415993E-01 0.26253667E+03</pdfrwt>
<pdfrwt beam="2">  1       21 0.15024623E+00 0.26253667E+03</pdfrwt>
<totfact> 0.35783778E+03</totfact>
</mgrwt>
</event>
<event>
12    1  0.2768653E-001  0.1919112E+03  0.7546771E-02  0.1157480E+00
         21   -1    0    0  504  503  0.00000000000E+00  0.00000000000E+00  0.43775711601E+03  0.43775711601E+03  0.00000000000E+00 0.  1.
         21   -1    0    0  502  504 -0.00000000000E+00 -0.00000000000E+00 -0.82992797022E+02  0.82992797022E+02  0.00000000000E+00 0.  1.
          6    2    1    2  502    0 -0.33728116180E+02  0.76694444533E+02  0.19100518308E+03  0.26846638023E+03  0.16903133943E+03 0.  0.
         24    2    3    3    0    0  0.30463579613E+02 -0.17418775415E+01  0.95176921867E+02  0.12890286037E+03  0.81401702287E+02 0.  0.
         -6    2    1    2    0  503  0.33728116180E+02 -0.76694444533E+02  0.16375913591E+03  0.25228353280E+03  0.17265660336E+03 0.  0.
        -24    2    5    5    0    0  0.16906364499E+02 -0.49604554663E+02  0.18829609276E+03  0.21177445092E+03  0.81526452821E+02 0.  0.
          4    1    4    4  501    0  0.24350968102E+02  0.25688611435E+02  0.66408956679E+01  0.36013551619E+02  0.00000000000E+00 0. -1.
         -3    1    4    4    0  501  0.61126115109E+01 -0.27430488977E+02  0.88536026199E+02  0.92889308750E+02  0.00000000000E+00 0.  1.
          5    1    3    3  502    0 -0.64191695793E+02  0.78436322075E+02  0.95828261211E+02  0.13956351986E+03  0.47000000000E+01 0. -1.
         13    1    6    6    0    0 -0.32057212973E+01 -0.12945727703E+02 -0.48218802786E+01  0.14181644624E+02  0.00000000000E+00 0. -1.
        -14    1    6    6    0    0  0.20112085796E+02 -0.36658826960E+02  0.19311797304E+03  0.19759280630E+03  0.00000000000E+00 0.  1.
         -5    1    5    5    0  503  0.16821751681E+02 -0.27089889870E+02 -0.24536956855E+02  0.40509081877E+02  0.47000000000E+01 0.  1.
<mgrwt>
<rscale>  2 0.19109229E+03</rscale>
<asrwt>0</asrwt>
<pdfrwt beam="1">  1       21 0.67347247E-01 0.19191125E+03</pdfrwt>
<pdfrwt beam="2">  1       21 0.12768123E-01 0.19191125E+03</pdfrwt>
<totfact> 0.10593823E+05</totfact>
</mgrwt>
</event>
<event>
12    1  0.2768653E-001  0.1766348E+03  0.7546771E-02  0.1171426E+00
         21   -1    0    0  504  503  0.00000000000E+00  0.00000000000E+00  0.35142090856E+03  0.35142090856E+03  0.00000000000E+00 0. -1.
         21   -1    0    0  502  504 -0.00000000000E+00 -0.00000000000E+00 -0.15164912751E+03  0.15164912751E+03  0.00000000000E+00 0. -1.
          6    2    1    2  502    0  0.27955405841E+02 -0.16446597966E+02 -0.63126570782E+02  0.18634398490E+03  0.17229951093E+03 0.  0.
         24    2    3    3    0    0  0.58242297891E+02  0.39879103110E+02 -0.21664386724E+02  0.10998245572E+03  0.81512494654E+02 0.  0.
         -6    2    1    2    0  503 -0.27955405841E+02  0.16446597966E+02  0.26289835183E+03  0.31672605118E+03  0.17363137043E+03 0.  0.
        -24    2    5    5    0    0  0.45269821662E+02  0.61577133098E+01  0.19775356505E+03  0.21806639207E+03  0.79744621597E+02 0.  0.
          2    1    4    4  501    0  0.37903579035E+02  0.61839165867E+02  0.83744492906E+00  0.72535956965E+02  0.00000000000E+00 0. -1.
         -1    1    4    4    0  501  0.20338718856E+02 -0.21960062757E+02 -0.22501831653E+02  0.37446498751E+02  0.00000000000E+00 0.  1.
          5    1    3    3  502    0 -0.30286892050E+02 -0.56325701077E+02 -0.41462184058E+02  0.76361529180E+02  0.47000000000E+01 0. -1.
         13    1    6    6    0    0 -0.18478649711E+01 -0.27544720872E+02  0.10615838602E+03  0.10968923910E+03  0.00000000000E+00 0. -1.
        -14    1    6    6    0    0  0.47117686633E+02  0.33702434182E+02  0.91595179036E+02  0.10837715297E+03  0.00000000000E+00 0.  1.
         -5    1    5    5    0  503 -0.73225227503E+02  0.10288884657E+02  0.65144786780E+02  0.98659659106E+02  0.47000000000E+01 0.  1.
<mgrwt>
<rscale>  2 0.17630661E+03</rscale>
<asrwt>0</asrwt>
<pdfrwt beam="1">  1       21 0.54064755E-01 0.17663479E+03</pdfrwt>
<pdfrwt beam="2">  1       21 0.23330635E-01 0.17663479E+03</pdfrwt>
<totfact> 0.56285007E+04</totfact>
</mgrwt>
</event>
<event>
12    1  0.2768653E-001  0.1879689E+03  0.7546771E-02  0.1160521E+00
         21   -1    0    0  504  503  0.00000000000E+00  0.00000000000E+00  0.25390862013E+03  0.25390862013E+03  0.00000000000E+00 0.  1.
         21   -1    0    0  502  504 -0.00000000000E+00 -0.00000000000E+00 -0.16272583183E+03  0.16272583183E+03  0.00000000000E+00 0.  1.
          6    2    1    2  502    0 -0.28821209226E+02  0.63572505712E+02 -0.34948828921E+02  0.19026861143E+03  0.17351829376E+03 0.  0.
         24    2    3    3    0    0  0.37430451940E+02  0.50387160968E+02 -0.60627175292E+02  0.11784897738E+03  0.79201151271E+02 0.  0.
         -6    2    1    2    0  503  0.28821209226E+02 -0.63572505712E+02  0.12613161722E+03  0.22636584054E+03  0.17452845990E+03 0.  0.
        -24    2    5    5    0    0  0.40892091538E+02 -0.15882048339E+02 -0.35542085354E-02  0.90895336754E+02  0.79608791105E+02 0.  0.
          2    1    4    4  501    0  0.26846195577E+01 -0.15162476710E+02  0.74974923544E+01  0.17126595509E+02  0.00000000000E+00 0. -1.
         -1    1    4    4    0  501  0.34745832383E+02  0.65549637677E+02 -0.68124667647E+02  0.10072238187E+03  0.00000000000E+00 0.  1.
          5    1    3    3  502    0 -0.66251661167E+02  0.13185344745E+02  0.25678346371E+02  0.72419634049E+02  0.47000000000E+01 0. -1.
         11    1    6    6    0    0 -0.36374896702E+01  0.22757027231E+02  0.18009863861E+02  0.29248398517E+02  0.00000000000E+00 0. -1.
        -12    1    6    6    0    0  0.44529581208E+02 -0.38639075570E+02 -0.18013418069E+02  0.61646938237E+02  0.00000000000E+00 0.  1.
         -5    1    5    5    0  503 -0.12070882311E+02 -0.47690457374E+02  0.12613517143E+03  0.13547050378E+03  0.47000000000E+01 0.  1.
<mgrwt>
<rscale>  2 0.18773407E+03</rscale>
<asrwt>0</asrwt>
<pdfrwt beam="1">  1       21 0.39062864E-01 0.18796890E+03</pdfrwt>
<pdfrwt beam="2">  1       21 0.25034743E-01 0.18796890E+03</pdfrwt>
<totfact> 0.95622878E+04</totfact>
</mgrwt>
</event>
<event>
12    1  0.2768653E-001  0.2642876E+03  0.7546771E-02  0.1104768E+00
         21   -1    0    0  504  503  0.00000000000E+00  0.00000000000E+00  0.20995338875E+04  0.20995338875E+04  0.00000000000E+00 0. -1.
         21   -1    0    0  502  504 -0.00000000000E+00 -0.00000000000E+00 -0.34733174420E+02  0.34733174420E+02  0.00000000000E+00 0.  1.
          6    2    1    2  502    0  0.14826165971E+02  0.19960255113E+03  0.80022023965E+03  0.84236471020E+03  0.17077728021E+03 0.  0.
         24    2    3    3    0    0  0.43396729433E+02  0.42552343340E+02  0.36550554049E+03  0.37924485042E+03  0.80860239856E+02 0.  0.
         -6    2    1    2    0  503 -0.14826165971E+02 -0.19960255113E+03  0.12645804734E+04  0.12919023517E+04  0.17258887268E+03 0.  0.
        -24    2    5    5    0    0  0.37806570836E+02 -0.55933692312E+02  0.65539202690E+03  0.66377529501E+03  0.80628894381E+02 0.  0.
          4    1    4    4  501    0  0.61378572831E+01 -0.11124828012E+02  0.21239547984E+03  0.21277517464E+03  0.00000000000E+00 0. -1.
         -3    1    4    4    0  501  0.37258872149E+02  0.53677171352E+02  0.15311006066E+03  0.16646967577E+03  0.00000000000E+00 0.  1.
          5    1    3    3  502    0 -0.28570563461E+02  0.15705020779E+03  0.43471469916E+03  0.46311985978E+03  0.47000000000E+01 0. -1.
         13    1    6    6    0    0 -0.15540242096E+02  0.10510875503E+02  0.16156957248E+03  0.16265517016E+03  0.00000000000E+00 0. -1.
        -14    1    6    6    0    0  0.53346812932E+02 -0.66444567815E+02  0.49382245443E+03  0.50112012486E+03  0.00000000000E+00 0.  1.
         -5    1    5    5    0  503 -0.52632736808E+02 -0.14366885882E+03  0.60918844649E+03  0.62812705666E+03  0.47000000000E+01 0.  1.
<mgrwt>
<rscale>  2 0.26399220E+03</rscale>
<asrwt>0</asrwt>
<pdfrwt beam="1">  1       21 0.32300511E+00 0.26428756E+03</pdfrwt>
<pdfrwt beam="2">  1       21 0.53435669E-02 0.26428756E+03</pdfrwt>
<totfact> 0.56149741E+03</totfact>
</mgrwt>
</event>
<event>
12    1  0.2768653E-001  0.2308963E+03  0.7546771E-02  0.1126416E+00
         21   -1    0    0  504  503  0.00000000000E+00  0.00000000000E+00  0.45036069791E+03  0.45036069791E+03  0.00000000000E+00 0.  1.
         21   -1    0    0  502  504 -0.00000000000E+00 -0.00000000000E+00 -0.13787872276E+03  0.13787872276E+03  0.00000000000E+00 0.  1.
          6    2    1    2  502    0 -0.11160935513E+03 -0.10432779464E+03  0.41675531327E+02  0.23236132794E+03  0.17004117126E+03 0.  0.
         24    2    3    3    0    0 -0.14043490161E+03 -0.11256117222E+03  0.28059039073E+02  0.19910175041E+03  0.80387923603E+02 0.  0.
         -6    2    1    2    0  503  0.11160935513E+03  0.10432779464E+03  0.27080644382E+03  0.35587809273E+03  0.17312466602E+03 0.  0.
        -24    2    5    5    0    0  0.95381532800E+02  0.10772396440E+03  0.12111429325E+03  0.20519728397E+03  0.82068045017E+02 0.  0.
          2    1    4    4  501    0 -0.22272504942E+02  0.51957122228E+01 -0.14318467803E+02  0.26982928346E+02  0.00000000000E+00 0. -1.
         -1    1    4    4    0  501 -0.11816239667E+03 -0.11775688444E+03  0.42377506876E+02  0.17211882206E+03  0.00000000000E+00 0.  1.
          5    1    3    3  502    0  0.28825546479E+02  0.82333775829E+01  0.13616492254E+02  0.33259577531E+02  0.47000000000E+01 0. -1.
         11    1    6    6    0    0  0.29458540039E+02 -0.65611682881E+01  0.75327530829E+01  0.31106219307E+02  0.00000000000E+00 0. -1.
        -12    1    6    6    0    0  0.65922992760E+02  0.11428513269E+03  0.11358154017E+03  0.17409106466E+03  0.00000000000E+00 0.  1.
         -5    1    5    5    0  503  0.16227822331E+02 -0.33961697647E+01  0.14969215057E+03  0.15068080876E+03  0.47000000000E+01 0.  1.
<mgrwt>
<rscale>  2 0.23031838E+03</rscale>
<asrwt>0</asrwt>
<pdfrwt beam="1">  1       21 0.69286261E-01 0.23089627E+03</pdfrwt>
<pdfrwt beam="2">  1       21 0.21212111E-01 0.23089627E+03</pdfrwt>
<totfact> 0.38441375E+04</totfact>
</mgrwt>
</event>
<event>
12    1  0.2768653E-001  0.3100912E+03  0.7546771E-02  0.1080307E+00
         21   -1    0    0  504  503  0.00000000000E+00  0.00000000000E+00  0.73296134229E+02  0.73296134229E+02  0.00000000000E+00 0.  1.
         21   -1    0    0  502  504 -0.00000000000E+00 -0.00000000000E+00 -0.14251773745E+04  0.14251773745E+04  0.00000000000E+00 0. -1.
          6    2    1    2  502    0 -0.24413740452E+02  0.25589206550E+03 -0.46451558367E+03  0.55848715774E+03  0.17336781126E+03 0.  0.
         24    2    3    3    0    0 -0.69849933842E+02  0.10577850909E+03 -0.26570190409E+03  0.30521359679E+03  0.80558870315E+02 0.  0.
         -6    2    1    2    0  503  0.24413740452E+02 -0.25589206550E+03 -0.88736565664E+03  0.93998635103E+03  0.17343515105E+03 0.  0.
        -24    2    5    5    0    0 -0.45134007129E+02 -0.95849039434E+02 -0.32923382187E+03  0.35519246052E+03  0.80886695990E+02 0.  0.
          4    1    4    4  501    0 -0.70025115254E+02  0.11228615675E+03 -0.26751486525E+03  0.29845586088E+03  0.00000000000E+00 0. -1.
         -3    1    4    4    0  501  0.17518141167E+00 -0.65076476545E+01  0.18129611592E+01  0.67577359142E+01  0.00000000000E+00 0.  1.
          5    1    3    3  502    0  0.45436193389E+02  0.15011355641E+03 -0.19881367957E+03  0.25327356094E+03  0.47000000000E+01 0. -1.
         11    1    6    6    0    0  0.13796337167E+02 -0.51942136389E+01 -0.10743824999E+03  0.10844490000E+03  0.00000000000E+00 0. -1.
        -12    1    6    6    0    0 -0.58930344296E+02 -0.90654825795E+02 -0.22179557188E+03  0.24674756052E+03  0.00000000000E+00 0.  1.
         -5    1    5    5    0  503  0.69547747581E+02 -0.16004302607E+03 -0.55813183478E+03  0.58479389051E+03  0.47000000000E+01 0.  1.
<mgrwt>
<rscale>  2 0.31008175E+03</rscale>
<asrwt>0</asrwt>
<pdfrwt beam="1">  1       21 0.11276329E-01 0.31009117E+03</pdfrwt>
<pdfrwt beam="2">  1       21 0.21925804E+00 0.31009117E+03</pdfrwt>
<totfact> 0.61082977E+03</totfact>
</mgrwt>
</event>
<event>
12    1  0.2768653E-001  0.1965982E+03  0.7546771E-02  0.1152673E+00
         21   -1    0    0  504  503  0.00000000000E+00  0.00000000000E+00  0.16932509826E+04  0.16932509826E+04  0.00000000000E+00 0. -1.
         21   -1    0    0  502  504 -0.00000000000E+00 -0.00000000000E+00 -0.12189529414E+03  0.12189529414E+03  0.00000000000E+00 0. -1.
          6    2    1    2  502    0 -0.47112228983E+02  0.78587667820E+02 -0.32643664570E+02  0.19914356432E+03  0.17377274446E+03 0.  0.
         24    2    3    3    0    0  0.19116191789E+02  0.86065519733E+02  0.81554191566E+01  0.12085705705E+03  0.82263083466E+02 0.  0.
         -6    2    1    2    0  503  0.47112228983E+02 -0.78587667820E+02  0.16039993530E+04  0.16160027124E+04  0.17394038744E+03 0.  0.
        -24    2    5    5    0    0  0.81315913811E+02 -0.11932563888E+02  0.75514884971E+03  0.76383954617E+03  0.80289495887E+02 0.  0.
          2    1    4    4  501    0 -0.38446014916E+01  0.89683178546E+02 -0.11392910851E+02  0.90485644676E+02  0.00000000000E+00 0. -1.
         -1    1    4    4    0  501  0.22960793281E+02 -0.36176588133E+01  0.19548330008E+02  0.30371412372E+02  0.00000000000E+00 0.  1.
          5    1    3    3  502    0 -0.66228420773E+02 -0.74778519128E+01 -0.40799083727E+02  0.78286507268E+02  0.47000000000E+01 0. -1.
         13    1    6    6    0    0  0.46309159601E+02 -0.44959078821E+02  0.50451208447E+03  0.50862392827E+03  0.00000000000E+00 0. -1.
        -14    1    6    6    0    0  0.35006754210E+02  0.33026514933E+02  0.25063676524E+03  0.25521561790E+03  0.00000000000E+00 0.  1.
         -5    1    5    5    0  503 -0.34203684828E+02 -0.66655103932E+02  0.84885050332E+03  0.85216316625E+03  0.47000000000E+01 0.  1.
<mgrwt>
<rscale>  2 0.19656109E+03</rscale>
<asrwt>0</asrwt>
<pdfrwt beam="1">  1       21 0.26050013E+00 0.19659817E+03</pdfrwt>
<pdfrwt beam="2">  1       21 0.18753123E-01 0.19659817E+03</pdfrwt>
<totfact> 0.14949492E+03</totfact>
</mgrwt>
</event>
<event>
12    1  0.2768653E-001  0.1994036E+03  0.7546771E-02  0.1150344E+00
         21   -1    0    0  504  503  0.00000000000E+00  0.00000000000E+00  0.12865543877E+03  0.12865543877E+03  0.00000000000E+00 0. -1.
         21   -1    0    0  502  504 -0.00000000000E+00 -0.00000000000E+00 -0.51793473134E+03  0.51793473134E+03  0.00000000000E+00 0. -1.
          6    2    1    2  502    0 -0.19004500170E+02  0.97076229056E+02 -0.40044898430E+03  0.44734906980E+03  0.17313819897E+03 0.  0.
         24    2    3    3    0    0  0.24591988146E+02  0.11835503875E+03 -0.25336410333E+03  0.29239909805E+03  0.81799649147E+02 0.  0.
         -6    2    1    2    0  503  0.19004500170E+02 -0.97076229056E+02  0.11169691732E+02  0.19924110032E+03  0.17258994399E+03 0.  0.
        -24    2    5    5    0    0  0.92263281052E+01 -0.97451806371E+02  0.66456992523E+02  0.14289813859E+03  0.80133429120E+02 0.  0.
          4    1    4    4  501    0 -0.14584771692E+02  0.86161421200E+02 -0.20262372640E+03  0.22066463371E+03  0.00000000000E+00 0. -1.
         -3    1    4    4    0  501  0.39176759839E+02  0.32193617550E+02 -0.50740376931E+02  0.71734464336E+02  0.00000000000E+00 0.  1.
          5    1    3    3  502    0 -0.43596488316E+02 -0.21278809695E+02 -0.14708488097E+03  0.15494997175E+03  0.47000000000E+01 0. -1.
         13    1    6    6    0    0  0.44073320099E+02 -0.48817087690E+02  0.26254951870E+02  0.70815874582E+02  0.00000000000E+00 0. -1.
        -14    1    6    6    0    0 -0.34846991993E+02 -0.48634718680E+02  0.40202040653E+02  0.72082264010E+02  0.00000000000E+00 0.  1.
         -5    1    5    5    0  503  0.97781720649E+01  0.37557731483E+00 -0.55287300791E+02  0.56342961726E+02  0.47000000000E+01 0.  1.
<mgrwt>
<rscale>  2 0.19928454E+03</rscale>
<asrwt>0</asrwt>
<pdfrwt beam="1">  1       21 0.19793144E-01 0.19940361E+03</pdfrwt>
<pdfrwt beam="2">  1       21 0.79682268E-01 0.19940361E+03</pdfrwt>
<totfact> 0.32540693E+04</totfact>
</mgrwt>
</event>
<event>
12    1  0.2768653E-001  0.2263783E+03  0.7546771E-02  0.1129234E+00
         21   -1    0    0  504  503  0.00000000000E+00  0.00000000000E+00  0.21822158618E+03  0.21822158618E+03  0.00000000000E+00 0.  1.
         21   -1    0    0  502  504 -0.00000000000E+00 -0.00000000000E+00 -0.36500294407E+03  0.36500294407E+03  0.00000000000E+00 0.  1.
          6    2    1    2  502    0  0.11989629747E+03  0.83252874698E+02 -0.24761716558E+03  0.33550170736E+03  0.17303459671E+03 0.  0.
         24    2    3    3    0    0  0.12315586135E+03  0.99293260080E+02 -0.25936654267E+03  0.31481217904E+03  0.82517797674E+02 0.  0.
         -6    2    1    2    0  503 -0.11989629747E+03 -0.83252874698E+02  0.10083580768E+03  0.24772282289E+03  0.17289468927E+03 0.  0.
        -24    2    5    5    0    0 -0.99780050223E+02  0.71436267104E+00  0.19225195877E+02  0.12882142545E+03  0.79175645000E+02 0.  0.
          2    1    4    4  501    0  0.83950658878E+02  0.40303186529E+02 -0.20618436824E+03  0.22623893051E+03  0.00000000000E+00 0. -1.
         -1    1    4    4    0  501  0.39205202475E+02  0.58990073551E+02 -0.53182174430E+02  0.88573248534E+02  0.00000000000E+00 0.  1.
          5    1    3    3  502    0 -0.32595638789E+01 -0.16040385382E+02  0.11749377093E+02  0.20689528316E+02  0.47000000000E+01 0. -1.
         11    1    6    6    0    0 -0.61898141891E+02  0.33122387207E+02 -0.10187739275E+02  0.70938441873E+02  0.00000000000E+00 0. -1.
        -12    1    6    6    0    0 -0.37881908332E+02 -0.32408024536E+02  0.29412935152E+02  0.57882983574E+02  0.00000000000E+00 0.  1.
         -5    1    5    5    0  503 -0.20116247252E+02 -0.83967237370E+02  0.81610611804E+02  0.11890139744E+03  0.47000000000E+01 0.  1.
<mgrwt>
<rscale>  2 0.22635157E+03</rscale>
<asrwt>0</asrwt>
<pdfrwt beam="1">  1       21 0.33572552E-01 0.22637830E+03</pdfrwt>
<pdfrwt beam="2">  1       21 0.56154298E-01 0.22637830E+03</pdfrwt>
<totfact> 0.25039596E+04</totfact>
</mgrwt>
</event>
<event>
12    1  0.2768653E-001  0.1900759E+03  0.7546771E-02  0.1158703E+00
         21   -1    0    0  504  503  0.00000000000E+00  0.00000000000E+00  0.99474291046E+02  0.99474291046E+02  0.00000000000E+00 0.  1.
         21   -1    0    0  502  504 -0.00000000000E+00 -0.00000000000E+00 -0.71013836218E+03  0.71013836218E+03  0.00000000000E+00 0.  1.
          6    2    1    2  502    0 -0.53840742011E+02  0.52182845382E+02 -0.58877949959E+03  0.61828102132E+03  0.17317115040E+03 0.  0.
         24    2    3    3    0    0  0.23208682128E+02  0.58634564765E+02 -0.42858913967E+03  0.44034485339E+03  0.78982809264E+02 0.  0.
         -6    2    1    2    0  503  0.53840742011E+02 -0.52182845382E+02 -0.21884571547E+02  0.19133163191E+03  0.17466248608E+03 0.  0.
        -24    2    5    5    0    0  0.93995707587E+02 -0.32129603252E+02 -0.48972837456E+02  0.13869687219E+03  0.83492389461E+02 0.  0.
          2    1    4    4  501    0  0.22707581540E+02  0.78200816822E+02 -0.35162711724E+03  0.36093300152E+03  0.00000000000E+00 0. -1.
         -1    1    4    4    0  501  0.50110058819E+00 -0.19566252057E+02 -0.76962022428E+02  0.79411851871E+02  0.00000000000E+00 0.  1.
          5    1    3    3  502    0 -0.77049424138E+02 -0.64517193837E+01 -0.16019035992E+03  0.17793616792E+03  0.47000000000E+01 0. -1.
         13    1    6    6    0    0  0.27034418310E+02  0.16592646786E+02 -0.45944126085E+02  0.55830443509E+02  0.00000000000E+00 0. -1.
        -14    1    6    6    0    0  0.66961289277E+02 -0.48722250037E+02 -0.30287113710E+01  0.82866428684E+02  0.00000000000E+00 0.  1.
         -5    1    5    5    0  503 -0.40154965577E+02 -0.20053242130E+02  0.27088265910E+02  0.52634759716E+02  0.47000000000E+01 0.  1.
<mgrwt>
<rscale>  2 0.18973263E+03</rscale>
<asrwt>0</asrwt>
<pdfrwt beam="1">  1       21 0.15303737E-01 0.19007593E+03</pdfrwt>
<pdfrwt beam="2">  1       21 0.10925205E+00 0.19007593E+03</pdfrwt>
<totfact> 0.25150979E+04</totfact>
</mgrwt>
</event>
<event>
12    1  0.2768653E-001  0.1939585E+03  0.7546771E-02  0.1155123E+00
         21   -1    0    0  504  503  0.00000000000E+00  0.00000000000E+00  0.10227727429E+04  0.10227727429E+04  0.00000000000E+00 0. -1.
         21   -1    0    0  502  504 -0.00000000000E+00 -0.00000000000E+00 -0.39704471495E+02  0.39704471495E+02  0.00000000000E+00 0. -1.
          6    2    1    2  502    0  0.79826972265E+02 -0.30167090765E+02  0.34453715834E+03  0.39538053103E+03  0.17417666886E+03 0.  0.
         24    2    3    3    0    0 -0.13351003693E+02  0.21439909967E+02  0.12169119236E+03  0.14834241194E+03  0.80986454694E+02 0.  0.
         -6    2    1    2    0  503 -0.79826972265E+02  0.30167090765E+02  0.63853111311E+03  0.66709668341E+03  0.17324434693E+03 0.  0.
        -24    2    5    5    0    0 -0.96619155687E+02  0.80350953376E+01  0.62187596915E+03  0.63436617064E+03  0.79315152714E+02 0.  0.
          4    1    4    4  501    0 -0.19672731153E+02  0.49074490018E+02  0.57179867430E+02  0.77877205656E+02  0.00000000000E+00 0. -1.
         -3    1    4    4    0  501  0.63217274599E+01 -0.27634580051E+02  0.64511324932E+02  0.70465206287E+02  0.00000000000E+00 0.  1.
          5    1    3    3  502    0  0.93177975958E+02 -0.51607000732E+02  0.22284596598E+03  0.24703811909E+03  0.47000000000E+01 0. -1.
         13    1    6    6    0    0 -0.52358893037E+02  0.43873512578E+02  0.34066048359E+03  0.34744194316E+03  0.00000000000E+00 0. -1.
        -14    1    6    6    0    0 -0.44260262650E+02 -0.35838417240E+02  0.28121548556E+03  0.28692422749E+03  0.00000000000E+00 0.  1.
         -5    1    5    5    0  503  0.16792183422E+02  0.22131995428E+02  0.16655143965E+02  0.32730512770E+02  0.47000000000E+01 0.  1.
<mgrwt>
<rscale>  2 0.19374899E+03</rscale>
<asrwt>0</asrwt>
<pdfrwt beam="1">  1       21 0.15734963E+00 0.19395853E+03</pdfrwt>
<pdfrwt beam="2">  1       21 0.61083810E-02 0.19395853E+03</pdfrwt>
<totfact> 0.50306327E+04</totfact>
</mgrwt>
</event>
<event>
12    1  0.2768653E-001  0.2263544E+03  0.7546771E-02  0.1129463E+00
         21   -1    0    0  504  503  0.00000000000E+00  0.00000000000E+00  0.11706858777E+04  0.11706858777E+04  0.00000000000E+00 0. -1.
         21   -1    0    0  502  504 -0.00000000000E+00 -0.00000000000E+00 -0.45843602397E+02  0.45843602397E+02  0.00000000000E+00 0.  1.
          6    2    1    2  502    0  0.93025216489E+02  0.11234357585E+03  0.69788737295E+03  0.73328337257E+03  0.17141455372E+03 0.  0.
         24    2    3    3    0    0  0.22241450385E+02  0.24738535033E-03  0.17542228925E+03  0.19418855839E+03  0.80259170982E+02 0.  0.
         -6    2    1    2    0  503 -0.93025216489E+02 -0.11234357585E+03  0.42695490231E+03  0.48324610748E+03  0.17309402605E+03 0.  0.
        -24    2    5    5    0    0 -0.86908290163E+02 -0.19346008171E+02  0.15553592504E+03  0.19623336281E+03  0.79929905363E+02 0.  0.
          2    1    4    4  501    0  0.47344582990E+02 -0.14384674789E+02  0.13979014704E+03  0.14828929029E+03  0.00000000000E+00 0. -1.
         -1    1    4    4    0  501 -0.25103132606E+02  0.14384922175E+02  0.35632142213E+02  0.45899268091E+02  0.00000000000E+00 0.  1.
          5    1    3    3  502    0  0.70783766104E+02  0.11234332847E+03  0.52246508370E+03  0.53909481418E+03  0.47000000000E+01 0. -1.
         13    1    6    6    0    0  0.37226699889E+01  0.17712488075E+02  0.45349641046E+02  0.48828070294E+02  0.00000000000E+00 0. -1.
        -14    1    6    6    0    0 -0.90630960152E+02 -0.37058496246E+02  0.11018628400E+03  0.14740529252E+03  0.00000000000E+00 0.  1.
         -5    1    5    5    0  503 -0.61169263257E+01 -0.92997567681E+02  0.27141897726E+03  0.28701274467E+03  0.47000000000E+01 0.  1.
<mgrwt>
<rscale>  2 0.22603329E+03</rscale>
<asrwt>0</asrwt>
<pdfrwt beam="1">  1       21 0.18010550E+00 0.22635439E+03</pdfrwt>
<pdfrwt beam="2">  1       21 0.70528628E-02 0.22635439E+03</pdfrwt>
<totfact> 0.26528003E+04</totfact>
</mgrwt>
</event>
<event>
12    1  0.2768653E-001  0.2074745E+03  0.7546771E-02  0.1144366E+00
         21   -1    0    0  504  503  0.00000000000E+00  0.00000000000E+00  0.86484546731E+02  0.86484546731E+02  0.00000000000E+00 0.  1.
         21   -1    0    0  502  504 -0.00000000000E+00 -0.00000000000E+00 -0.52113489491E+03  0.52113489491E+03  0.00000000000E+00 0.  1.
          6    2    1    2  502    0 -0.60873357767E+02  0.95545338563E+02 -0.29142523389E+03  0.35551012710E+03  0.16918719254E+03 0.  0.
         24    2    3    3    0    0 -0.58103278019E+02  0.13250341505E+03 -0.20232253552E+03  0.25889256340E+03  0.71817860502E+02 0.  0.
         -6    2    1    2    0  503  0.60873357767E+02 -0.95545338563E+02 -0.14322511429E+03  0.25210931454E+03  0.17381368101E+03 0.  0.
        -24    2    5    5    0    0  0.41471647651E+02  0.15513227257E+02 -0.82405471443E+02  0.12392370554E+03  0.81276474411E+02 0.  0.
          2    1    4    4  501    0 -0.17226421360E+02  0.29981929123E+02 -0.81215821205E+01  0.35519371657E+02  0.00000000000E+00 0. -1.
         -1    1    4    4    0  501 -0.40876856659E+02  0.10252148593E+03 -0.19420095340E+03  0.22337319175E+03  0.00000000000E+00 0.  1.
          5    1    3    3  502    0 -0.27700797475E+01 -0.36958076491E+02 -0.89102698361E+02  0.96617563698E+02  0.47000000000E+01 0. -1.
         11    1    6    6    0    0 -0.23223383295E+02 -0.10337472792E+01 -0.35053886157E+02  0.42061491887E+02  0.00000000000E+00 0. -1.
        -12    1    6    6    0    0  0.64695030946E+02  0.16546974537E+02 -0.47351585286E+02  0.81862213655E+02  0.00000000000E+00 0.  1.
         -5    1    5    5    0  503  0.19401710116E+02 -0.11105856582E+03 -0.60819642849E+02  0.12818560900E+03  0.47000000000E+01 0.  1.
<mgrwt>
<rscale>  2 0.20650265E+03</rscale>
<asrwt>0</asrwt>
<pdfrwt beam="1">  1       21 0.13305315E-01 0.20747451E+03</pdfrwt>
<pdfrwt beam="2">  1       21 0.80174598E-01 0.20747451E+03</pdfrwt>
<totfact> 0.66258983E+04</totfact>
</mgrwt>
</event>
<event>
12    1  0.2768653E-001  0.1912873E+03  0.7546771E-02  0.1157741E+00
         21   -1    0    0  504  503  0.00000000000E+00  0.00000000000E+00  0.87216806013E+03  0.87216806013E+03  0.00000000000E+00 0. -1.
         21   -1    0    0  502  504 -0.00000000000E+00 -0.00000000000E+00 -0.13890928082E+03  0.13890928082E+03  0.00000000000E+00 0. -1.
          6    2    1    2  502    0  0.19410246123E+02 -0.79826939931E+02 -0.57202395193E+02  0.19780020785E+03  0.17059809558E+03 0.  0.
         24    2    3    3    0    0  0.20382151424E+02 -0.14384851071E+02 -0.91000553964E+02  0.12398952345E+03  0.80435968743E+02 0.  0.
         -6    2    1    2    0  503 -0.19410246123E+02  0.79826939931E+02  0.79046117451E+03  0.81327713310E+03  0.17274758706E+03 0.  0.
        -24    2    5    5    0    0  0.14642230136E+02  0.81243752861E+02  0.75464669925E+03  0.76361482208E+03  0.82468257699E+02 0.  0.
          2    1    4    4  501    0  0.28232390865E+02 -0.52012694334E+01 -0.10302145781E+03  0.10694644392E+03  0.00000000000E+00 0. -1.
         -1    1    4    4    0  501 -0.78502394411E+01 -0.91835816372E+01  0.12020903842E+02  0.17043079539E+02  0.00000000000E+00 0.  1.
          5    1    3    3  502    0 -0.97190530038E+00 -0.65442088860E+02  0.33798158771E+02  0.73810684394E+02  0.47000000000E+01 0. -1.
         13    1    6    6    0    0 -0.11909443121E+02 -0.46414935605E+01  0.29404025836E+03  0.29431794344E+03  0.00000000000E+00 0. -1.
        -14    1    6    6    0    0  0.26551673256E+02  0.85885246421E+02  0.46060644090E+03  0.46929687864E+03  0.00000000000E+00 0.  1.
         -5    1    5    5    0  503 -0.34052476259E+02 -0.14168129298E+01  0.35814475251E+02  0.49662311019E+02  0.47000000000E+01 0.  1.
<mgrwt>
<rscale>  2 0.19080071E+03</rscale>
<asrwt>0</asrwt>
<pdfrwt beam="1">  1       21 0.13417970E+00 0.19128729E+03</pdfrwt>
<pdfrwt beam="2">  1       21 0.21370659E-01 0.19128729E+03</pdfrwt>
<totfact> 0.81425665E+03</totfact>
</mgrwt>
</event>
<event>
12    1  0.2768653E-001  0.1797810E+03  0.7546771E-02  0.1168667E+00
         21   -1    0    0  504  503  0.00000000000E+00  0.00000000000E+00  0.60712107467E+03  0.60712107467E+03  0.00000000000E+00 0. -1.
         21   -1    0    0  502  504 -0.00000000000E+00 -0.00000000000E+00 -0.18459756776E+03  0.18459756776E+03  0.00000000000E+00 0.  1.
          6    2    1    2  502    0  0.12531921022E+02  0.47736805562E+02 -0.12322018004E+03  0.21795506476E+03  0.17287378585E+03 0.  0.
         24    2    3    3    0    0  0.67527726118E+02  0.50621221341E+01 -0.52064422130E+02  0.11830116836E+03  0.81846463013E+02 0.  0.
         -6    2    1    2    0  503 -0.12531921022E+02 -0.47736805562E+02  0.54574368695E+03  0.57376357767E+03  0.17009591283E+03 0.  0.
        -24    2    5    5    0    0 -0.48142361792E+02 -0.20560983275E+02  0.16972777250E+03  0.19505962109E+03  0.80624425509E+02 0.  0.
          2    1    4    4  501    0  0.67546781018E+02 -0.77374737277E+01 -0.35002133546E+01  0.68078540078E+02  0.00000000000E+00 0. -1.
         -1    1    4    4    0  501 -0.19054899899E-01  0.12799595862E+02 -0.48564208775E+02  0.50222628279E+02  0.00000000000E+00 0.  1.
          5    1    3    3  502    0 -0.54995805097E+02  0.42674683427E+02 -0.71155757914E+02  0.99653896402E+02  0.47000000000E+01 0. -1.
         11    1    6    6    0    0 -0.34130391321E+02  0.15312740049E+02  0.14391250925E+03  0.14869490219E+03  0.00000000000E+00 0. -1.
        -12    1    6    6    0    0 -0.14011970471E+02 -0.35873723324E+02  0.25815263255E+02  0.46364718898E+02  0.00000000000E+00 0.  1.
         -5    1    5    5    0  503  0.35610440770E+02 -0.27175822287E+02  0.37601591445E+03  0.37870395658E+03  0.47000000000E+01 0.  1.
<mgrwt>
<rscale>  2 0.17910985E+03</rscale>
<asrwt>0</asrwt>
<pdfrwt beam="1">  1       21 0.93403242E-01 0.17978097E+03</pdfrwt>
<pdfrwt beam="2">  1       21 0.28399626E-01 0.17978097E+03</pdfrwt>
<totfact> 0.11526184E+04</totfact>
</mgrwt>
</event>
<event>
12    1  0.2768653E-001  0.2522273E+03  0.7546771E-02  0.1112486E+00
         21   -1    0    0  504  503  0.00000000000E+00  0.00000000000E+00  0.12307007298E+04  0.12307007298E+04  0.00000000000E+00 0.  1.
         21   -1    0    0  502  504 -0.00000000000E+00 -0.00000000000E+00 -0.13906125561E+03  0.13906125561E+03  0.00000000000E+00 0. -1.
          6    2    1    2  502    0  0.13252033451E+03  0.12789638570E+03 -0.84419031782E+00  0.24853979924E+03  0.16688976786E+03 0.  0.
         24    2    3    3    0    0  0.12072861420E+03  0.92863381799E+02 -0.57108176030E+02  0.18105585953E+03  0.79503927799E+02 0.  0.
         -6    2    1    2    0  503 -0.13252033451E+03 -0.12789638570E+03  0.10924836645E+04  0.11212221862E+04  0.17233545489E+03 0.  0.
        -24    2    5    5    0    0 -0.99632459820E+02 -0.53236583539E+02  0.35536345116E+03  0.37958615867E+03  0.71004989661E+02 0.  0.
          4    1    4    4  501    0  0.10577713866E+03  0.44507324641E+02 -0.61591497782E+02  0.13024291769E+03  0.00000000000E+00 0. -1.
         -3    1    4    4    0  501  0.14951475542E+02  0.48356057158E+02  0.44833217516E+01  0.50812941842E+02  0.00000000000E+00 0.  1.
          5    1    3    3  502    0  0.11791720308E+02  0.35033003904E+02  0.56263985712E+02  0.67483939709E+02  0.47000000000E+01 0. -1.
         13    1    6    6    0    0 -0.55740732939E+02 -0.67060254836E+02  0.24249857675E+03  0.25770073110E+03  0.00000000000E+00 0. -1.
        -14    1    6    6    0    0 -0.43891726881E+02  0.13823671296E+02  0.11286487441E+03  0.12188542757E+03  0.00000000000E+00 0.  1.
         -5    1    5    5    0  503 -0.32887874688E+02 -0.74659802163E+02  0.73712021337E+03  0.74163602752E+03  0.47000000000E+01 0.  1.
<mgrwt>
<rscale>  2 0.25130000E+03</rscale>
<asrwt>0</asrwt>
<pdfrwt beam="1">  1       21 0.18933857E+00 0.25222734E+03</pdfrwt>
<pdfrwt beam="2">  1       21 0.21394040E-01 0.25222734E+03</pdfrwt>
<totfact> 0.30452800E+03</totfact>
</mgrwt>
</event>
