<event>
12    1  0.1093377E-001  0.2132414E+03  0.7546771E-02  0.1139025E+00
         -2   -1    0    0    0  501 -0.00000000000E+00  0.00000000000E+00  0.57032947547E+02  0.57032947547E+02  0.00000000000E+00 0.  1.
          2   -1    0    0  503    0  0.00000000000E+00 -0.00000000000E+00 -0.79961260383E+03  0.79961260383E+03  0.00000000000E+00 0. -1.
          6    2    1    2  503    0  0.11573479989E+03 -0.46319408522E+02 -0.34791990892E+03  0.40797918100E+03  0.17279675228E+03 0.  0.
         24    2    3    3    0    0  0.95883568828E+02 -0.61211238154E+01 -0.34019180591E+03  0.36224312253E+03  0.79110606670E+02 0.  0.
         -6    2    1    2    0  501 -0.11573479989E+03  0.46319408522E+02 -0.39465974736E+03  0.44866637037E+03  0.17321998789E+03 0.  0.
        -24    2    5    5    0    0 -0.12761105502E+03 -0.16451135089E+02 -0.32065458000E+03  0.35078868458E+03  0.60647508929E+02 0.  0.
          4    1    4    4  502    0  0.88939073813E+01  0.28171665229E+02 -0.10698926213E+03  0.11099300213E+03  0.00000000000E+00 0. -1.
         -3    1    4    4    0  502  0.86989661447E+02 -0.34292789044E+02 -0.23320254378E+03  0.25125012040E+03  0.00000000000E+00 0.  1.
          5    1    3    3  503    0  0.19851231065E+02 -0.40198284706E+02 -0.77281030108E+01  0.45736058469E+02  0.47000000000E+01 0. -1.
         13    1    6    6    0    0 -0.38963639612E+02  0.17163483461E+02 -0.14575312273E+03  0.15184440445E+03  0.00000000000E+00 0. -1.
        -14    1    6    6    0    0 -0.88647415412E+02 -0.33614618550E+02 -0.17490145727E+03  0.19894428013E+03  0.00000000000E+00 0.  1.
         -5    1    5    5    0  501  0.11876255131E+02  0.62770543611E+02 -0.74005167357E+02  0.97877685796E+02  0.47000000000E+01 0.  1.
<mgrwt>
<rscale>  2 0.21324144E+03</rscale>
<asrwt>0</asrwt>
<pdfrwt beam="2">  1        2 0.12301733E+00 0.21324144E+03</pdfrwt>
<pdfrwt beam="1">  1       -2 0.87742995E-02 0.21324144E+03</pdfrwt>
<totfact> 0.28806731E+03</totfact>
</mgrwt>
</event>
<event>
12    1  0.1093377E-001  0.2010754E+03  0.7546771E-02  0.1148835E+00
         -1   -1    0    0    0  501 -0.00000000000E+00  0.00000000000E+00  0.13111515033E+03  0.13111515033E+03  0.00000000000E+00 0.  1.
          1   -1    0    0  503    0  0.00000000000E+00 -0.00000000000E+00 -0.47271762330E+03  0.47271762330E+03  0.00000000000E+00 0. -1.
          6    2    1    2  503    0  0.52819699952E+02  0.88021342344E+02 -0.34857235734E+03  0.40218531226E+03  0.17237360497E+03 0.  0.
         24    2    3    3    0    0  0.13260643239E+02 -0.12161039001E+02 -0.10124727822E+03  0.13238313796E+03  0.83369948663E+02 0.  0.
         -6    2    1    2    0  501 -0.52819699952E+02 -0.88021342344E+02  0.69698843633E+01  0.20164746137E+03  0.17342272624E+03 0.  0.
        -24    2    5    5    0    0 -0.56023457705E+00 -0.33540952627E+02  0.61132713811E+02  0.10861592543E+03  0.83276054144E+02 0.  0.
          4    1    4    4  502    0  0.46588330700E+02 -0.44826355198E+01 -0.78217832126E+02  0.91151499391E+02  0.00000000000E+00 0. -1.
         -3    1    4    4    0  502 -0.33327687462E+02 -0.76784034816E+01 -0.23029446095E+02  0.41231638568E+02  0.00000000000E+00 0.  1.
          5    1    3    3  503    0  0.39559056713E+02  0.10018238135E+03 -0.24732507912E+03  0.26980217431E+03  0.47000000000E+01 0. -1.
         13    1    6    6    0    0 -0.13685546476E+02  0.13829595627E+02 -0.10214645705E+02  0.21974778370E+02  0.00000000000E+00 0. -1.
        -14    1    6    6    0    0  0.13125311899E+02 -0.47370548254E+02  0.71347359516E+02  0.86641147062E+02  0.00000000000E+00 0.  1.
         -5    1    5    5    0  501 -0.52259465375E+02 -0.54480389716E+02 -0.54162829448E+02  0.93031535936E+02  0.47000000000E+01 0.  1.
<mgrwt>
<rscale>  2 0.20107541E+03</rscale>
<asrwt>0</asrwt>
<pdfrwt beam="2">  1        1 0.72725787E-01 0.20107541E+03</pdfrwt>
<pdfrwt beam="1">  1       -1 0.20171562E-01 0.20107541E+03</pdfrwt>
<totfact> 0.96841237E+02</totfact>
</mgrwt>
</event>
<event>
12    1  0.1093377E-001  0.2440280E+03  0.7546771E-02  0.1117138E+00
         -2   -1    0    0    0  501 -0.00000000000E+00  0.00000000000E+00  0.25653868433E+02  0.25653868433E+02  0.00000000000E+00 0.  1.
          2   -1    0    0  503    0  0.00000000000E+00 -0.00000000000E+00 -0.32443239522E+04  0.32443239522E+04  0.00000000000E+00 0. -1.
          6    2    1    2  503    0  0.69733264660E+02 -0.15897950931E+03 -0.24786434274E+04  0.24905693987E+04  0.17066187885E+03 0.  0.
         24    2    3    3    0    0  0.14840328342E+02 -0.32960195932E+02 -0.14529273268E+04  0.14556734084E+04  0.81735212265E+02 0.  0.
         -6    2    1    2    0  501 -0.69733264660E+02  0.15897950931E+03 -0.74002665640E+03  0.77940842198E+03  0.17233926857E+03 0.  0.
        -24    2    5    5    0    0  0.20486613442E+02  0.12719729279E+03 -0.50295177591E+03  0.52372047809E+03  0.68729889107E+02 0.  0.
          4    1    4    4  502    0  0.25269250520E+02 -0.48054473055E+02 -0.13521556463E+04  0.13532452325E+04  0.00000000000E+00 0. -1.
         -3    1    4    4    0  502 -0.10428922178E+02  0.15094277123E+02 -0.10077168051E+03  0.10242817587E+03  0.00000000000E+00 0.  1.
          5    1    3    3  503    0  0.54892936318E+02 -0.12601931338E+03 -0.10257161005E+04  0.10348959903E+04  0.47000000000E+01 0. -1.
         13    1    6    6    0    0 -0.99943263694E+01  0.49547034796E-01 -0.90257458199E+02  0.90809128258E+02  0.00000000000E+00 0. -1.
        -14    1    6    6    0    0  0.30480939812E+02  0.12714774575E+03 -0.41269431771E+03  0.43291134983E+03  0.00000000000E+00 0.  1.
         -5    1    5    5    0  501 -0.90219878102E+02  0.31782216519E+02 -0.23707488049E+03  0.25568794389E+03  0.47000000000E+01 0.  1.
<mgrwt>
<rscale>  2 0.24402801E+03</rscale>
<asrwt>0</asrwt>
<pdfrwt beam="2">  1        2 0.49912651E+00 0.24402801E+03</pdfrwt>
<pdfrwt beam="1">  1       -2 0.39467510E-02 0.24402801E+03</pdfrwt>
<totfact> 0.41839465E+02</totfact>
</mgrwt>
</event>
<event>
12    1  0.1093377E-001  0.1775471E+03  0.7546771E-02  0.1170198E+00
         -1   -1    0    0    0  501 -0.00000000000E+00  0.00000000000E+00  0.30511427571E+03  0.30511427571E+03  0.00000000000E+00 0.  1.
          1   -1    0    0  503    0  0.00000000000E+00 -0.00000000000E+00 -0.10368209059E+03  0.10368209059E+03  0.00000000000E+00 0. -1.
          6    2    1    2  503    0 -0.22023540306E+02  0.19735413939E+02  0.89277928123E+02  0.19975783461E+03  0.17623314429E+03 0.  0.
         24    2    3    3    0    0 -0.41578914670E+02 -0.70106937571E+00 -0.13705240105E+02  0.92857481689E+02  0.81886388710E+02 0.  0.
         -6    2    1    2    0  501  0.22023540306E+02 -0.19735413939E+02  0.11215425700E+03  0.20903853168E+03  0.17390804315E+03 0.  0.
        -24    2    5    5    0    0  0.70803153864E+02 -0.95295969850E+01  0.26574768757E+02  0.10989445366E+03  0.79162319291E+02 0.  0.
          4    1    4    4  502    0 -0.46099403201E+02  0.33486289983E+02 -0.12601927986E+02  0.58354907088E+02  0.00000000000E+00 0. -1.
         -3    1    4    4    0  502  0.45204885313E+01 -0.34187359358E+02 -0.11033121193E+01  0.34502574601E+02  0.00000000000E+00 0.  1.
          5    1    3    3  503    0  0.19555374364E+02  0.20436483315E+02  0.10298316823E+03  0.10690035292E+03  0.47000000000E+01 0. -1.
         11    1    6    6    0    0  0.32436211788E+02  0.31859527366E+02  0.28079670948E+02  0.53437863353E+02  0.00000000000E+00 0. -1.
        -12    1    6    6    0    0  0.38366942076E+02 -0.41389124351E+02 -0.15049021910E+01  0.56456590310E+02  0.00000000000E+00 0.  1.
         -5    1    5    5    0  501 -0.48779613558E+02 -0.10205816954E+02  0.85579488242E+02  0.99144078019E+02  0.47000000000E+01 0.  1.
<mgrwt>
<rscale>  2 0.17754706E+03</rscale>
<asrwt>0</asrwt>
<pdfrwt beam="2">  1        1 0.15951091E-01 0.17754706E+03</pdfrwt>
<pdfrwt beam="1">  1       -1 0.46940657E-01 0.17754706E+03</pdfrwt>
<totfact> 0.15659410E+03</totfact>
</mgrwt>
</event>
<event>
12    1  0.1093377E-001  0.1872388E+03  0.7546771E-02  0.1160976E+00
          1   -1    0    0  503    0  0.00000000000E+00  0.00000000000E+00  0.14094385503E+04  0.14094385503E+04  0.00000000000E+00 0.  1.
         -1   -1    0    0    0  501 -0.00000000000E+00 -0.00000000000E+00 -0.25675725478E+02  0.25675725478E+02  0.00000000000E+00 0. -1.
          6    2    1    2  503    0 -0.68745500202E+02  0.18442574857E+02  0.81725749906E+03  0.83834406867E+03  0.17275672298E+03 0.  0.
         24    2    3    3    0    0 -0.11374320323E+03  0.12524381616E+02  0.61801535527E+03  0.63394411722E+03  0.82751362499E+02 0.  0.
         -6    2    1    2    0  501  0.68745500202E+02 -0.18442574857E+02  0.56650532572E+03  0.59677020707E+03  0.17360968754E+03 0.  0.
        -24    2    5    5    0    0  0.36563289373E+02  0.49611853000E+02  0.23124811976E+03  0.25313292155E+03  0.82476499656E+02 0.  0.
          4    1    4    4  502    0 -0.10467075738E+03  0.17693217348E+02  0.35045046988E+03  0.36617557159E+03  0.00000000000E+00 0. -1.
         -3    1    4    4    0  502 -0.90724458539E+01 -0.51688357329E+01  0.26756488539E+03  0.26776854563E+03  0.00000000000E+00 0.  1.
          5    1    3    3  503    0  0.44997703027E+02  0.59181932415E+01  0.19924214380E+03  0.20439995145E+03  0.47000000000E+01 0. -1.
         11    1    6    6    0    0  0.55417505203E+02  0.37834383598E+02  0.10270666339E+03  0.12268332882E+03  0.00000000000E+00 0. -1.
        -12    1    6    6    0    0 -0.18854215829E+02  0.11777469402E+02  0.12854145637E+03  0.13044959274E+03  0.00000000000E+00 0.  1.
         -5    1    5    5    0  501  0.32182210829E+02 -0.68054427857E+02  0.33525720596E+03  0.34363728551E+03  0.47000000000E+01 0.  1.
<mgrwt>
<rscale>  2 0.18723879E+03</rscale>
<asrwt>0</asrwt>
<pdfrwt beam="1">  1        1 0.21683664E+00 0.18723879E+03</pdfrwt>
<pdfrwt beam="2">  1       -1 0.39501127E-02 0.18723879E+03</pdfrwt>
<totfact> 0.20598061E+03</totfact>
</mgrwt>
</event>
<event>
12    1  0.1093377E-001  0.1719125E+03  0.7546771E-02  0.1175868E+00
          1   -1    0    0  503    0  0.00000000000E+00  0.00000000000E+00  0.69274985657E+03  0.69274985657E+03  0.00000000000E+00 0.  1.
         -1   -1    0    0    0  501 -0.00000000000E+00 -0.00000000000E+00 -0.59000737747E+02  0.59000737747E+02  0.00000000000E+00 0. -1.
          6    2    1    2  503    0  0.16030284807E+02  0.98069050689E+01  0.51135754828E+03  0.53871470470E+03  0.16844537829E+03 0.  0.
         24    2    3    3    0    0 -0.52605295484E+02  0.43406572538E+01  0.25602663615E+03  0.27422143932E+03  0.82834781012E+02 0.  0.
         -6    2    1    2    0  501 -0.16030284807E+02 -0.98069050689E+01  0.12239157054E+03  0.21303588961E+03  0.17335353560E+03 0.  0.
        -24    2    5    5    0    0 -0.35883181366E+01 -0.15518113025E+02 -0.67462652820E+01  0.83089396496E+02  0.81268984587E+02 0.  0.
          4    1    4    4  502    0 -0.42727105836E+02 -0.36505614449E+02  0.14703436423E+03  0.15740828989E+03  0.00000000000E+00 0. -1.
         -3    1    4    4    0  502 -0.98781896483E+01  0.40846271703E+02  0.10899227191E+03  0.11681314943E+03  0.00000000000E+00 0.  1.
          5    1    3    3  503    0  0.68635580290E+02  0.54662478151E+01  0.25533091213E+03  0.26449326539E+03  0.47000000000E+01 0. -1.
         13    1    6    6    0    0 -0.15300388440E+01 -0.48474378874E+02  0.31985306220E+01  0.48603878695E+02  0.00000000000E+00 0. -1.
        -14    1    6    6    0    0 -0.20582792926E+01  0.32956265849E+02 -0.99447959039E+01  0.34485517800E+02  0.00000000000E+00 0.  1.
         -5    1    5    5    0  501 -0.12441966670E+02  0.57112079557E+01  0.12913783583E+03  0.12994649311E+03  0.47000000000E+01 0.  1.
<mgrwt>
<rscale>  2 0.17191245E+03</rscale>
<asrwt>0</asrwt>
<pdfrwt beam="1">  1        1 0.10657690E+00 0.17191245E+03</pdfrwt>
<pdfrwt beam="2">  1       -1 0.90770370E-02 0.17191245E+03</pdfrwt>
<totfact> 0.20103199E+03</totfact>
</mgrwt>
</event>
<event>
12    1  0.1093377E-001  0.2341729E+03  0.7546771E-02  0.1123737E+00
         -2   -1    0    0    0  501 -0.00000000000E+00  0.00000000000E+00  0.87337378793E+02  0.87337378793E+02  0.00000000000E+00 0. -1.
          2   -1    0    0  503    0  0.00000000000E+00 -0.00000000000E+00 -0.15677272422E+04  0.15677272422E+04  0.00000000000E+00 0.  1.
          6    2    1    2  503    0  0.79772326910E+02 -0.13542645189E+03 -0.98940975689E+02  0.25384013940E+03  0.17303627275E+03 0.  0.
         24    2    3    3    0    0  0.10570837021E+03 -0.11881729354E+03 -0.12111213271E+03  0.21560151120E+03  0.80771617319E+02 0.  0.
         -6    2    1    2    0  501 -0.79772326910E+02  0.13542645189E+03 -0.13814488878E+04  0.14012244816E+04  0.17414094989E+03 0.  0.
        -24    2    5    5    0    0 -0.60664118376E+02  0.16878354630E+03 -0.11325586604E+04  0.11493390818E+04  0.78250782229E+02 0.  0.
          4    1    4    4  502    0  0.83767172483E+02 -0.12926947793E+03 -0.10325966465E+03  0.18544566712E+03  0.00000000000E+00 0. -1.
         -3    1    4    4    0  502  0.21941197730E+02  0.10452184388E+02 -0.17852468052E+02  0.30155844074E+02  0.00000000000E+00 0.  1.
          5    1    3    3  503    0 -0.25936043303E+02 -0.16609158349E+02  0.22171157017E+02  0.38238628201E+02  0.47000000000E+01 0. -1.
         11    1    6    6    0    0 -0.53441787107E+02  0.65011685450E+02 -0.35422816358E+03  0.36408808787E+03  0.00000000000E+00 0. -1.
        -12    1    6    6    0    0 -0.72223312690E+01  0.10377186085E+03 -0.77833049678E+03  0.78525099388E+03  0.00000000000E+00 0.  1.
         -5    1    5    5    0  501 -0.19108208534E+02 -0.33357094405E+02 -0.24889022739E+03  0.25188539988E+03  0.47000000000E+01 0.  1.
<mgrwt>
<rscale>  2 0.23417285E+03</rscale>
<asrwt>0</asrwt>
<pdfrwt beam="2">  1        2 0.24118882E+00 0.23417285E+03</pdfrwt>
<pdfrwt beam="1">  1       -2 0.13436519E-01 0.23417285E+03</pdfrwt>
<totfact> 0.52047196E+02</totfact>
</mgrwt>
</event>
<event>
12    1  0.1093377E-001  0.2287549E+03  0.7546771E-02  0.1127519E+00
         -3   -1    0    0    0  501 -0.00000000000E+00  0.00000000000E+00  0.47596013864E+02  0.47596013864E+02  0.00000000000E+00 0.  1.
          3   -1    0    0  503    0  0.00000000000E+00 -0.00000000000E+00 -0.13011181824E+04  0.13011181824E+04  0.00000000000E+00 0. -1.
          6    2    1    2  503    0 -0.95049039038E+01  0.15059763259E+03 -0.36282597385E+03  0.42927872514E+03  0.17282229722E+03 0.  0.
         24    2    3    3    0    0 -0.16935844394E+02  0.81962572244E+02 -0.91930058640E+02  0.14968495328E+03  0.83365241448E+02 0.  0.
         -6    2    1    2    0  501  0.95049039038E+01 -0.15059763259E+03 -0.89069619468E+03  0.91943547112E+03  0.17103182218E+03 0.  0.
        -24    2    5    5    0    0  0.31317390157E+02 -0.16090289669E+03 -0.59648983756E+03  0.62420428443E+03  0.83428659954E+02 0.  0.
          4    1    4    4  502    0  0.17507753278E+02  0.28521784912E+02  0.49244387993E+01  0.33826967598E+02  0.00000000000E+00 0. -1.
         -3    1    4    4    0  502 -0.34443597672E+02  0.53440787333E+02 -0.96854497439E+02  0.11585798568E+03  0.00000000000E+00 0.  1.
          5    1    3    3  503    0  0.74309404899E+01  0.68635060349E+02 -0.27089591521E+03  0.27959377186E+03  0.47000000000E+01 0. -1.
         13    1    6    6    0    0  0.44586624967E+01  0.83538920816E+01 -0.67145694806E+02  0.67810113664E+02  0.00000000000E+00 0. -1.
        -14    1    6    6    0    0  0.26858727660E+02 -0.16925678877E+03 -0.52934414276E+03  0.55639417077E+03  0.00000000000E+00 0.  1.
         -5    1    5    5    0  501 -0.21812486253E+02  0.10305264093E+02 -0.29420635711E+03  0.29523118668E+03  0.47000000000E+01 0.  1.
<mgrwt>
<rscale>  2 0.22875489E+03</rscale>
<asrwt>0</asrwt>
<pdfrwt beam="2">  1        3 0.20017206E+00 0.22875489E+03</pdfrwt>
<pdfrwt beam="1">  1       -3 0.73224625E-02 0.22875489E+03</pdfrwt>
<totfact> 0.48811504E+01</totfact>
</mgrwt>
</event>
<event>
12    1  0.1093377E-001  0.2610099E+03  0.7546771E-02  0.1106538E+00
         -2   -1    0    0    0  501 -0.00000000000E+00  0.00000000000E+00  0.29848837156E+03  0.29848837156E+03  0.00000000000E+00 0.  1.
          2   -1    0    0  503    0  0.00000000000E+00 -0.00000000000E+00 -0.24426140287E+03  0.24426140287E+03  0.00000000000E+00 0. -1.
          6    2    1    2  503    0 -0.19299660091E+03 -0.20486047393E+02 -0.42292085542E+02  0.26537568968E+03  0.17597803861E+03 0.  0.
         24    2    3    3    0    0 -0.10120959379E+03  0.36847839326E+02  0.27992464518E+02  0.13624770193E+03  0.78604790399E+02 0.  0.
         -6    2    1    2    0  501  0.19299660091E+03  0.20486047393E+02  0.96519054234E+02  0.27737408476E+03  0.17306960728E+03 0.  0.
        -24    2    5    5    0    0  0.44943317105E+02  0.20995447296E+02  0.87181359084E+02  0.12895132072E+03  0.81037912020E+02 0.  0.
          4    1    4    4  502    0 -0.73460799202E+02  0.53340094521E+02 -0.39038745918E+01  0.90867458089E+02  0.00000000000E+00 0. -1.
         -3    1    4    4    0  502 -0.27748794585E+02 -0.16492255194E+02  0.31896339110E+02  0.45380243839E+02  0.00000000000E+00 0.  1.
          5    1    3    3  503    0 -0.91787007120E+02 -0.57333886720E+02 -0.70284550060E+02  0.12912798775E+03  0.47000000000E+01 0. -1.
         11    1    6    6    0    0  0.49437458551E+02  0.46487602462E+02  0.72011073974E+02  0.98948240336E+02  0.00000000000E+00 0. -1.
        -12    1    6    6    0    0 -0.44941414463E+01 -0.25492155165E+02  0.15170285111E+02  0.30003080386E+02  0.00000000000E+00 0.  1.
         -5    1    5    5    0  501  0.14805328380E+03 -0.50939990314E+00  0.93376951498E+01  0.14842276403E+03  0.47000000000E+01 0.  1.
<mgrwt>
<rscale>  2 0.26100987E+03</rscale>
<asrwt>0</asrwt>
<pdfrwt beam="2">  1        2 0.37578677E-01 0.26100987E+03</pdfrwt>
<pdfrwt beam="1">  1       -2 0.45921288E-01 0.26100987E+03</pdfrwt>
<totfact> 0.62440643E+02</totfact>
</mgrwt>
</event>
<event>
12    1  0.1093377E-001  0.2022177E+03  0.7546771E-02  0.1147881E+00
          1   -1    0    0  503    0  0.00000000000E+00  0.00000000000E+00  0.20887106332E+03  0.20887106332E+03  0.00000000000E+00 0. -1.
         -1   -1    0    0    0  501 -0.00000000000E+00 -0.00000000000E+00 -0.20247786021E+03  0.20247786021E+03  0.00000000000E+00 0.  1.
          6    2    1    2  503    0 -0.83313839101E+02  0.63034097025E+02 -0.34208144288E+02  0.20565178369E+03  0.17380438955E+03 0.  0.
         24    2    3    3    0    0 -0.99920286364E+02 -0.53210822483E+00 -0.51813641939E+02  0.13747202065E+03  0.78927537682E+02 0.  0.
         -6    2    1    2    0  501  0.83313839101E+02 -0.63034097025E+02  0.40601347401E+02  0.20569713985E+03  0.17247710212E+03 0.  0.
        -24    2    5    5    0    0  0.35457020583E+02 -0.10437230241E+03  0.39132629788E+02  0.14226710410E+03  0.80980172725E+02 0.  0.
          4    1    4    4  502    0 -0.91645322905E+02  0.10184088385E+01 -0.70479888511E+01  0.91921578064E+02  0.00000000000E+00 0. -1.
         -3    1    4    4    0  502 -0.82749634580E+01 -0.15505170633E+01 -0.44765653088E+02  0.45550442586E+02  0.00000000000E+00 0.  1.
          5    1    3    3  503    0  0.16606447263E+02  0.63566205250E+02  0.17605497650E+02  0.68179763039E+02  0.47000000000E+01 0. -1.
         13    1    6    6    0    0 -0.40079600712E+01 -0.55237380907E+02 -0.16935925206E+02  0.57914225851E+02  0.00000000000E+00 0. -1.
        -14    1    6    6    0    0  0.39464980654E+02 -0.49134921508E+02  0.56068554994E+02  0.84352878248E+02  0.00000000000E+00 0.  1.
         -5    1    5    5    0  501  0.47856818518E+02  0.41338205389E+02  0.14687176129E+01  0.63430035747E+02  0.47000000000E+01 0.  1.
<mgrwt>
<rscale>  2 0.20221772E+03</rscale>
<asrwt>0</asrwt>
<pdfrwt beam="1">  1        1 0.32134010E-01 0.20221772E+03</pdfrwt>
<pdfrwt beam="2">  1       -1 0.31150440E-01 0.20221772E+03</pdfrwt>
<totfact> 0.13215028E+03</totfact>
</mgrwt>
</event>
<event>
12    1  0.1093377E-001  0.1911304E+03  0.7546771E-02  0.1157446E+00
         -1   -1    0    0    0  501 -0.00000000000E+00  0.00000000000E+00  0.49890844099E+02  0.49890844099E+02  0.00000000000E+00 0. -1.
          1   -1    0    0  503    0  0.00000000000E+00 -0.00000000000E+00 -0.84486403130E+03  0.84486403130E+03  0.00000000000E+00 0.  1.
          6    2    1    2  503    0 -0.22315180162E+02  0.63835812034E+02 -0.24158665318E+03  0.31056911389E+03  0.18307398871E+03 0.  0.
         24    2    3    3    0    0 -0.62412570167E+02  0.11316124562E+02 -0.21683198312E+03  0.23985135129E+03  0.80555435703E+02 0.  0.
         -6    2    1    2    0  501  0.22315180162E+02 -0.63835812034E+02 -0.55338653402E+03  0.58418576151E+03  0.17453758836E+03 0.  0.
        -24    2    5    5    0    0  0.48302313045E+02 -0.93568728206E+02 -0.50227165528E+03  0.51942313179E+03  0.80220656921E+02 0.  0.
          2    1    4    4  502    0 -0.60091138862E+02  0.40641662347E+02 -0.14231787988E+03  0.15974062922E+03  0.00000000000E+00 0. -1.
         -1    1    4    4    0  502 -0.23214313047E+01 -0.29325537786E+02 -0.74514103233E+02  0.80110722068E+02  0.00000000000E+00 0.  1.
          5    1    3    3  503    0  0.40097390004E+02  0.52519687472E+02 -0.24754670058E+02  0.70717762599E+02  0.47000000000E+01 0. -1.
         13    1    6    6    0    0  0.64315401570E+02 -0.39146164602E+02 -0.26743468465E+03  0.27783125029E+03  0.00000000000E+00 0. -1.
        -14    1    6    6    0    0 -0.16013088525E+02 -0.54422563604E+02 -0.23483697063E+03  0.24159188150E+03  0.00000000000E+00 0.  1.
         -5    1    5    5    0  501 -0.25987132883E+02  0.29732916172E+02 -0.51114878746E+02  0.64762629724E+02  0.47000000000E+01 0.  1.
<mgrwt>
<rscale>  2 0.19113041E+03</rscale>
<asrwt>0</asrwt>
<pdfrwt beam="2">  1        1 0.12997908E+00 0.19113041E+03</pdfrwt>
<pdfrwt beam="1">  1       -1 0.76755148E-02 0.19113041E+03</pdfrwt>
<totfact> 0.19316808E+03</totfact>
</mgrwt>
</event>
<event>
12    1  0.1093377E-001  0.2168665E+03  0.7546771E-02  0.1136241E+00
         -2   -1    0    0    0  501 -0.00000000000E+00  0.00000000000E+00  0.10560294715E+03  0.10560294715E+03  0.00000000000E+00 0.  1.
          2   -1    0    0  503    0  0.00000000000E+00 -0.00000000000E+00 -0.48563379458E+03  0.48563379458E+03  0.00000000000E+00 0. -1.
          6    2    1    2  503    0 -0.11766361763E+03 -0.75496079435E+02 -0.10116104627E+03  0.23486425300E+03  0.15932129528E+03 0.  0.
         24    2    3    3    0    0 -0.16238287445E+02  0.53239062526E+01 -0.33275537011E+02  0.88407774628E+02  0.80103978019E+02 0.  0.
         -6    2    1    2    0  501  0.11766361763E+03  0.75496079435E+02 -0.27886980116E+03  0.35637248873E+03  0.17230380088E+03 0.  0.
        -24    2    5    5    0    0  0.58398007807E+02  0.67292721502E+02 -0.26954921313E+03  0.29563805903E+03  0.82501187668E+02 0.  0.
          4    1    4    4  502    0  0.20454981131E+02  0.21091681866E+02 -0.38172943795E+02  0.48170934545E+02  0.00000000000E+00 0. -1.
         -3    1    4    4    0  502 -0.36693268577E+02 -0.15767775614E+02  0.48974067843E+01  0.40236840083E+02  0.00000000000E+00 0.  1.
          5    1    3    3  503    0 -0.10142533018E+03 -0.80819985688E+02 -0.67885509255E+02  0.14645647837E+03  0.47000000000E+01 0. -1.
         11    1    6    6    0    0  0.30270671956E+02  0.53965406003E+02 -0.68967346880E+02  0.92655672042E+02  0.00000000000E+00 0. -1.
        -12    1    6    6    0    0  0.28127335851E+02  0.13327315500E+02 -0.20058186625E+03  0.20298238699E+03  0.00000000000E+00 0.  1.
         -5    1    5    5    0  501  0.59265609821E+02  0.82033579326E+01 -0.93205880325E+01  0.60734429693E+02  0.47000000000E+01 0.  1.
<mgrwt>
<rscale>  2 0.21686651E+03</rscale>
<asrwt>0</asrwt>
<pdfrwt beam="2">  1        2 0.74712892E-01 0.21686651E+03</pdfrwt>
<pdfrwt beam="1">  1       -2 0.16246607E-01 0.21686651E+03</pdfrwt>
<totfact> 0.19151766E+03</totfact>
</mgrwt>
</event>
<event>
12    1  0.1093377E-001  0.2503601E+03  0.7546771E-02  0.1113077E+00
         -2   -1    0    0    0  501 -0.00000000000E+00  0.00000000000E+00  0.40575977882E+03  0.40575977882E+03  0.00000000000E+00 0. -1.
          2   -1    0    0  503    0  0.00000000000E+00 -0.00000000000E+00 -0.24677281290E+03  0.24677281290E+03  0.00000000000E+00 0.  1.
          6    2    1    2  503    0 -0.18003573414E+03  0.16401001219E+02  0.27906843846E+03  0.37505093611E+03  0.17349972024E+03 0.  0.
         24    2    3    3    0    0 -0.55563598212E+02 -0.31135984902E+02  0.60730053700E+02  0.11922517913E+03  0.80434699694E+02 0.  0.
         -6    2    1    2    0  501  0.18003573414E+03 -0.16401001219E+02 -0.12008147254E+03  0.27748165562E+03  0.17290069621E+03 0.  0.
        -24    2    5    5    0    0  0.65055449451E+02 -0.62063555663E+02 -0.88963931490E+02  0.14982615786E+03  0.80306911468E+02 0.  0.
          4    1    4    4  502    0 -0.19068259355E+02 -0.43774444942E+02  0.58910731285E+00  0.47750891010E+02  0.00000000000E+00 0. -1.
         -3    1    4    4    0  502 -0.36495338856E+02  0.12638460040E+02  0.60140946387E+02  0.71474288124E+02  0.00000000000E+00 0.  1.
          5    1    3    3  503    0 -0.12447213593E+03  0.47536986121E+02  0.21833838476E+03  0.25582575697E+03  0.47000000000E+01 0. -1.
         11    1    6    6    0    0  0.25341932326E+01 -0.13215727669E+02 -0.65815546860E+02  0.67177107720E+02  0.00000000000E+00 0. -1.
        -12    1    6    6    0    0  0.62521256218E+02 -0.48847827994E+02 -0.23148384630E+02  0.82649050145E+02  0.00000000000E+00 0.  1.
         -5    1    5    5    0  501  0.11498028469E+03  0.45662554443E+02 -0.31117541049E+02  0.12765549775E+03  0.47000000000E+01 0.  1.
<mgrwt>
<rscale>  2 0.25036009E+03</rscale>
<asrwt>0</asrwt>
<pdfrwt beam="2">  1        2 0.37965048E-01 0.25036009E+03</pdfrwt>
<pdfrwt beam="1">  1       -2 0.62424581E-01 0.25036009E+03</pdfrwt>
<totfact> 0.33117322E+02</totfact>
</mgrwt>
</event>
<event>
12    1  0.1093377E-001  0.2795393E+03  0.7546771E-02  0.1095941E+00
         -1   -1    0    0    0  501 -0.00000000000E+00  0.00000000000E+00  0.30130675967E+03  0.30130675967E+03  0.00000000000E+00 0. -1.
          1   -1    0    0  503    0  0.00000000000E+00 -0.00000000000E+00 -0.27125643617E+03  0.27125643617E+03  0.00000000000E+00 0.  1.
          6    2    1    2  503    0 -0.37137370826E+02  0.21668406799E+03  0.75014663401E+02  0.28937514256E+03  0.17256767882E+03 0.  0.
         24    2    3    3    0    0 -0.66350158662E+02  0.13975841413E+03 -0.46254559870E+01  0.17476457668E+03  0.81157282761E+02 0.  0.
         -6    2    1    2    0  501  0.37137370826E+02 -0.21668406799E+03 -0.44964339906E+02  0.28318805328E+03  0.17274985390E+03 0.  0.
        -24    2    5    5    0    0  0.80838344818E+01 -0.12365155882E+03 -0.93002851752E+02  0.17442710276E+03  0.80126321301E+02 0.  0.
          4    1    4    4  502    0 -0.43354142831E+02  0.26534854618E+02 -0.26273562940E+02  0.57218706030E+02  0.00000000000E+00 0. -1.
         -3    1    4    4    0  502 -0.22996015831E+02  0.11322355951E+03  0.21648106953E+02  0.11754587065E+03  0.00000000000E+00 0.  1.
          5    1    3    3  503    0  0.29212787836E+02  0.76925653863E+02  0.79640119388E+02  0.11461056588E+03  0.47000000000E+01 0. -1.
         11    1    6    6    0    0 -0.22993838117E+02 -0.39278646076E+01 -0.20486351172E+02  0.31045696901E+02  0.00000000000E+00 0. -1.
        -12    1    6    6    0    0  0.31077672599E+02 -0.11972369422E+03 -0.72516500579E+02  0.14338140586E+03  0.00000000000E+00 0.  1.
         -5    1    5    5    0  501  0.29053536344E+02 -0.93032509168E+02  0.48038511846E+02  0.10876095051E+03  0.47000000000E+01 0.  1.
<mgrwt>
<rscale>  2 0.27953930E+03</rscale>
<asrwt>0</asrwt>
<pdfrwt beam="2">  1        1 0.41731759E-01 0.27953930E+03</pdfrwt>
<pdfrwt beam="1">  1       -1 0.46354886E-01 0.27953930E+03</pdfrwt>
<totfact> 0.47268453E+02</totfact>
</mgrwt>
</event>
<event>
12    1  0.1093377E-001  0.1895394E+03  0.7546771E-02  0.1158877E+00
          2   -1    0    0  503    0  0.00000000000E+00  0.00000000000E+00  0.12142922797E+03  0.12142922797E+03  0.00000000000E+00 0.  1.
         -2   -1    0    0    0  501 -0.00000000000E+00 -0.00000000000E+00 -0.42960618130E+03  0.42960618130E+03  0.00000000000E+00 0. -1.
          6    2    1    2  503    0 -0.52324502625E+02 -0.57914976106E+02 -0.30778811754E+03  0.36143643042E+03  0.17265795640E+03 0.  0.
         24    2    3    3    0    0 -0.46642999868E+02 -0.84984998380E+02 -0.30881392512E+03  0.33336139060E+03  0.79785694272E+02 0.  0.
         -6    2    1    2    0  501  0.52324502625E+02  0.57914976106E+02 -0.38883579762E+00  0.18959897885E+03  0.17278779921E+03 0.  0.
        -24    2    5    5    0    0  0.66976663918E+02  0.28992316433E+02 -0.58265138387E+02  0.12309362212E+03  0.80192178748E+02 0.  0.
          4    1    4    4  502    0 -0.62220724284E+02 -0.32357781300E+02 -0.18837656468E+03  0.20100789701E+03  0.00000000000E+00 0. -1.
         -3    1    4    4    0  502  0.15577724417E+02 -0.52627217081E+02 -0.12043736044E+03  0.13235349359E+03  0.00000000000E+00 0.  1.
          5    1    3    3  503    0 -0.56815027574E+01  0.27070022275E+02  0.10258075856E+01  0.28075039817E+02  0.47000000000E+01 0. -1.
         11    1    6    6    0    0  0.42841098563E+02 -0.24676569062E+02 -0.23442083321E+02  0.54715848319E+02  0.00000000000E+00 0. -1.
        -12    1    6    6    0    0  0.24135565355E+02  0.53668885495E+02 -0.34823055066E+02  0.68377773797E+02  0.00000000000E+00 0.  1.
         -5    1    5    5    0  501 -0.14652161293E+02  0.28922659673E+02  0.57876302590E+02  0.66505356736E+02  0.47000000000E+01 0.  1.
<mgrwt>
<rscale>  2 0.18953941E+03</rscale>
<asrwt>0</asrwt>
<pdfrwt beam="1">  1        2 0.18681419E-01 0.18953941E+03</pdfrwt>
<pdfrwt beam="2">  1       -2 0.66093260E-01 0.18953941E+03</pdfrwt>
<totfact> 0.64564877E+02</totfact>
</mgrwt>
</event>
<event>
12    1  0.1093377E-001  0.1746438E+03  0.7546771E-02  0.1173090E+00
          3   -1    0    0  503    0  0.00000000000E+00  0.00000000000E+00  0.13629220986E+03  0.13629220986E+03  0.00000000000E+00 0. -1.
         -3   -1    0    0    0  501 -0.00000000000E+00 -0.00000000000E+00 -0.25347596198E+03  0.25347596198E+03  0.00000000000E+00 0.  1.
          6    2    1    2  503    0 -0.11120772798E+02  0.19871294353E+02  0.80198566106E+01  0.17511182004E+03  0.17343959032E+03 0.  0.
         24    2    3    3    0    0 -0.50620943888E+02  0.62238473293E+02  0.20387758900E+02  0.11569552282E+03  0.80831217798E+02 0.  0.
         -6    2    1    2    0  501  0.11120772798E+02 -0.19871294353E+02 -0.12520360872E+03  0.21465635180E+03  0.17286661275E+03 0.  0.
        -24    2    5    5    0    0  0.30400309384E+02  0.22638535122E+02 -0.14015627391E+03  0.16541756293E+03  0.79262266721E+02 0.  0.
          2    1    4    4  502    0 -0.79352181896E+01  0.82223797594E+01  0.42007878454E+02  0.43534320586E+02  0.00000000000E+00 0. -1.
         -1    1    4    4    0  502 -0.42685725698E+02  0.54016093533E+02 -0.21620119554E+02  0.72161202239E+02  0.00000000000E+00 0.  1.
          5    1    3    3  503    0  0.39500171090E+02 -0.42367178940E+02 -0.12367902289E+02  0.59416297213E+02  0.47000000000E+01 0. -1.
         13    1    6    6    0    0 -0.23012974937E+02 -0.94436847271E+01 -0.31187068452E+02  0.39892523552E+02  0.00000000000E+00 0. -1.
        -14    1    6    6    0    0  0.53413284321E+02  0.32082219850E+02 -0.10896920546E+03  0.12552503938E+03  0.00000000000E+00 0.  1.
         -5    1    5    5    0  501 -0.19279536586E+02 -0.42509829475E+02  0.14952665190E+02  0.49238788869E+02  0.47000000000E+01 0.  1.
<mgrwt>
<rscale>  2 0.17464380E+03</rscale>
<asrwt>0</asrwt>
<pdfrwt beam="1">  1        3 0.20968032E-01 0.17464380E+03</pdfrwt>
<pdfrwt beam="2">  1       -3 0.38996302E-01 0.17464380E+03</pdfrwt>
<totfact> 0.32348226E+02</totfact>
</mgrwt>
</event>
<event>
12    1  0.1093377E-001  0.2213599E+03  0.7546771E-02  0.1132873E+00
          2   -1    0    0  503    0  0.00000000000E+00  0.00000000000E+00  0.25587047423E+03  0.25587047423E+03  0.00000000000E+00 0. -1.
         -2   -1    0    0    0  501 -0.00000000000E+00 -0.00000000000E+00 -0.27971202863E+03  0.27971202863E+03  0.00000000000E+00 0.  1.
          6    2    1    2  503    0  0.13626053870E+03 -0.23908179207E+02  0.13846700843E+03  0.26095593801E+03  0.17258723509E+03 0.  0.
         24    2    3    3    0    0 -0.12123814648E+00 -0.25859937382E+02  0.64721999008E+02  0.10582949013E+03  0.79637885236E+02 0.  0.
         -6    2    1    2    0  501 -0.13626053870E+03  0.23908179207E+02 -0.16230856283E+03  0.27462656486E+03  0.17302353919E+03 0.  0.
        -24    2    5    5    0    0 -0.62978881495E+02  0.76205901058E+02 -0.89744453191E+02  0.15889889745E+03  0.86145887095E+02 0.  0.
          2    1    4    4  502    0  0.44669489577E+01 -0.20093411475E+02  0.83319893409E+02  0.85824841715E+02  0.00000000000E+00 0. -1.
         -1    1    4    4    0  502 -0.45881871042E+01 -0.57665259067E+01 -0.18597894401E+02  0.20004648412E+02  0.00000000000E+00 0.  1.
          5    1    3    3  503    0  0.13638177685E+03  0.19517581754E+01  0.73745009424E+02  0.15512644788E+03  0.47000000000E+01 0. -1.
         13    1    6    6    0    0 -0.67574076961E+02  0.58710443727E+02 -0.26852219630E+02  0.93457015675E+02  0.00000000000E+00 0. -1.
        -14    1    6    6    0    0  0.45951954663E+01  0.17495457331E+02 -0.62892233561E+02  0.65441881779E+02  0.00000000000E+00 0.  1.
         -5    1    5    5    0  501 -0.73281657209E+02 -0.52297721851E+02 -0.72564109643E+02  0.11572766740E+03  0.47000000000E+01 0.  1.
<mgrwt>
<rscale>  2 0.22135995E+03</rscale>
<asrwt>0</asrwt>
<pdfrwt beam="1">  1        2 0.39364688E-01 0.22135995E+03</pdfrwt>
<pdfrwt beam="2">  1       -2 0.43032620E-01 0.22135995E+03</pdfrwt>
<totfact> 0.67328923E+02</totfact>
</mgrwt>
</event>
<event>
12    1  0.1093377E-001  0.1934349E+03  0.7546771E-02  0.1155399E+00
         -1   -1    0    0    0  501 -0.00000000000E+00  0.00000000000E+00  0.13210458561E+03  0.13210458561E+03  0.00000000000E+00 0. -1.
          1   -1    0    0  503    0  0.00000000000E+00 -0.00000000000E+00 -0.32091967956E+03  0.32091967956E+03  0.00000000000E+00 0.  1.
          6    2    1    2  503    0  0.59470884233E+02 -0.63980332203E+02 -0.17154946994E+03  0.25774178572E+03  0.17138068295E+03 0.  0.
         24    2    3    3    0    0  0.88754952957E+02 -0.13977710690E+02 -0.53878150940E+02  0.12649222132E+03  0.70884475276E+02 0.  0.
         -6    2    1    2    0  501 -0.59470884233E+02  0.63980332203E+02 -0.17265624005E+02  0.19528247944E+03  0.17380125438E+03 0.  0.
        -24    2    5    5    0    0  0.24361094995E+00  0.81156354171E+02  0.27770845881E+02  0.11839808385E+03  0.81611722259E+02 0.  0.
          4    1    4    4  502    0  0.89833128479E+02  0.87388180280E+01 -0.34542122164E+02  0.96641171953E+02  0.00000000000E+00 0. -1.
         -3    1    4    4    0  502 -0.10781755222E+01 -0.22716528718E+02 -0.19336028776E+02  0.29851049366E+02  0.00000000000E+00 0.  1.
          5    1    3    3  503    0 -0.29284068724E+02 -0.50002621513E+02 -0.11767131900E+03  0.13124956440E+03  0.47000000000E+01 0. -1.
         13    1    6    6    0    0 -0.19413982510E+02  0.84415822016E+02  0.30859283577E+01  0.86674429201E+02  0.00000000000E+00 0. -1.
        -14    1    6    6    0    0  0.19657593460E+02 -0.32594678445E+01  0.24684917523E+02  0.31723654651E+02  0.00000000000E+00 0.  1.
         -5    1    5    5    0  501 -0.59714495183E+02 -0.17176021968E+02 -0.45036469886E+02  0.76884395591E+02  0.47000000000E+01 0.  1.
<mgrwt>
<rscale>  2 0.19343486E+03</rscale>
<asrwt>0</asrwt>
<pdfrwt beam="2">  1        1 0.49372258E-01 0.19343486E+03</pdfrwt>
<pdfrwt beam="1">  1       -1 0.20323783E-01 0.19343486E+03</pdfrwt>
<totfact> 0.15674237E+03</totfact>
</mgrwt>
</event>
<event>
12    1  0.1093377E-001  0.1821859E+03  0.7546771E-02  0.1165704E+00
          4   -1    0    0  503    0  0.00000000000E+00  0.00000000000E+00  0.19023451319E+03  0.19023451319E+03  0.00000000000E+00 0.  1.
         -4   -1    0    0    0  501 -0.00000000000E+00 -0.00000000000E+00 -0.19566460676E+03  0.19566460676E+03  0.00000000000E+00 0. -1.
          6    2    1    2  503    0 -0.56754134429E+02 -0.69303331659E+01 -0.66143389236E+02  0.19190890700E+03  0.17083623548E+03 0.  0.
         24    2    3    3    0    0 -0.60452477971E+02 -0.35572897154E+02  0.11760534651E+02  0.10869120712E+03  0.82192063028E+02 0.  0.
         -6    2    1    2    0  501  0.56754134429E+02  0.69303331659E+01  0.60713295667E+02  0.19399021296E+03  0.17514861450E+03 0.  0.
        -24    2    5    5    0    0 -0.42700435950E+02 -0.97080329645E+01  0.22777726825E+02  0.86151239575E+02  0.70609051166E+02 0.  0.
          4    1    4    4  502    0 -0.74435013949E+02 -0.66590997555E+01  0.15606552926E+02  0.76344478552E+02  0.00000000000E+00 0. -1.
         -3    1    4    4    0  502  0.13982535978E+02 -0.28913797399E+02 -0.38460182749E+01  0.32346728567E+02  0.00000000000E+00 0.  1.
          5    1    3    3  503    0  0.36983435424E+01  0.28642563988E+02 -0.77903923887E+02  0.83217699883E+02  0.47000000000E+01 0. -1.
         11    1    6    6    0    0 -0.39304628979E+02 -0.27022861578E+02 -0.10175715830E+02  0.48771242548E+02  0.00000000000E+00 0. -1.
        -12    1    6    6    0    0 -0.33958069711E+01  0.17314828613E+02  0.32953442655E+02  0.37379997027E+02  0.00000000000E+00 0.  1.
         -5    1    5    5    0  501  0.99454570379E+02  0.16638366130E+02  0.37935568842E+02  0.10783897338E+03  0.47000000000E+01 0.  1.
<mgrwt>
<rscale>  2 0.18218591E+03</rscale>
<asrwt>0</asrwt>
<pdfrwt beam="1">  1        4 0.29266848E-01 0.18218591E+03</pdfrwt>
<pdfrwt beam="2">  1       -4 0.30102247E-01 0.18218591E+03</pdfrwt>
<totfact> 0.20633353E+02</totfact>
</mgrwt>
</event>
<event>
12    1  0.1093377E-001  0.1846117E+03  0.7546771E-02  0.1163413E+00
          1   -1    0    0  503    0  0.00000000000E+00  0.00000000000E+00  0.43518725309E+03  0.43518725309E+03  0.00000000000E+00 0. -1.
         -1   -1    0    0    0  501 -0.00000000000E+00 -0.00000000000E+00 -0.10323493981E+03  0.10323493981E+03  0.00000000000E+00 0.  1.
          6    2    1    2  503    0 -0.59800139186E+02 -0.28460622239E+01  0.29688338752E+03  0.34857920864E+03  0.17257914763E+03 0.  0.
         24    2    3    3    0    0 -0.26349121198E+02 -0.65869593039E+02  0.14213376933E+03  0.17810789032E+03  0.80543980134E+02 0.  0.
         -6    2    1    2    0  501  0.59800139186E+02  0.28460622239E+01  0.35068925761E+02  0.18984298426E+03  0.17670985372E+03 0.  0.
        -24    2    5    5    0    0 -0.16024322810E+02 -0.22238793466E+02  0.61736040662E+02  0.10551135295E+03  0.81055314623E+02 0.  0.
          2    1    4    4  502    0 -0.10826904232E+02 -0.19206435475E+02  0.12360497143E+03  0.12555595558E+03  0.00000000000E+00 0. -1.
         -1    1    4    4    0  502 -0.15522216966E+02 -0.46663157564E+02  0.18528797895E+02  0.52551934739E+02  0.00000000000E+00 0.  1.
          5    1    3    3  503    0 -0.33451017988E+02  0.63023530815E+02  0.15474961819E+03  0.17047131832E+03  0.47000000000E+01 0. -1.
         13    1    6    6    0    0 -0.45757763279E+02 -0.24062954553E+02  0.22842995059E+02  0.56520802413E+02  0.00000000000E+00 0. -1.
        -14    1    6    6    0    0  0.29733440469E+02  0.18241610871E+01  0.38893045602E+02  0.48990550538E+02  0.00000000000E+00 0.  1.
         -5    1    5    5    0  501  0.75824461996E+02  0.25084855690E+02 -0.26667114901E+02  0.84331631308E+02  0.47000000000E+01 0.  1.
<mgrwt>
<rscale>  2 0.18461173E+03</rscale>
<asrwt>0</asrwt>
<pdfrwt beam="1">  1        1 0.66951884E-01 0.18461173E+03</pdfrwt>
<pdfrwt beam="2">  1       -1 0.15882299E-01 0.18461173E+03</pdfrwt>
<totfact> 0.15801640E+03</totfact>
</mgrwt>
</event>
<event>
12    1  0.1093377E-001  0.2095089E+03  0.7546771E-02  0.1141955E+00
         -1   -1    0    0    0  501 -0.00000000000E+00  0.00000000000E+00  0.30938937508E+02  0.30938937508E+02  0.00000000000E+00 0.  1.
          1   -1    0    0  503    0  0.00000000000E+00 -0.00000000000E+00 -0.19250214807E+04  0.19250214807E+04  0.00000000000E+00 0. -1.
          6    2    1    2  503    0  0.11717935050E+03 -0.21652221177E+01 -0.44710224758E+03  0.49396020782E+03  0.17424287289E+03 0.  0.
         24    2    3    3    0    0  0.96107731823E+02 -0.19028739284E+02 -0.15321630081E+03  0.19880019861E+03  0.80296295691E+02 0.  0.
         -6    2    1    2    0  501 -0.11717935050E+03  0.21652221177E+01 -0.14469802956E+04  0.14620002104E+04  0.17308076411E+03 0.  0.
        -24    2    5    5    0    0 -0.10641806091E+03  0.55321855087E+02 -0.81076072341E+03  0.82345587595E+03  0.79757869067E+02 0.  0.
          4    1    4    4  502    0  0.30265011285E+02 -0.44347858798E+02 -0.47369488511E+02  0.71600083309E+02  0.00000000000E+00 0. -1.
         -3    1    4    4    0  502  0.65842720538E+02  0.25319119514E+02 -0.10584681230E+03  0.12720011531E+03  0.00000000000E+00 0.  1.
          5    1    3    3  503    0  0.21071618673E+02  0.16863517166E+02 -0.29388594677E+03  0.29516000920E+03  0.47000000000E+01 0. -1.
         11    1    6    6    0    0 -0.80062031533E+02  0.46289517796E+02 -0.75952911042E+03  0.76513862661E+03  0.00000000000E+00 0. -1.
        -12    1    6    6    0    0 -0.26356029381E+02  0.90323372911E+01 -0.51231612990E+02  0.58317249346E+02  0.00000000000E+00 0.  1.
         -5    1    5    5    0  501 -0.10761289581E+02 -0.53156632969E+02 -0.63621957220E+03  0.63854433443E+03  0.47000000000E+01 0.  1.
<mgrwt>
<rscale>  2 0.20950892E+03</rscale>
<asrwt>0</asrwt>
<pdfrwt beam="2">  1        1 0.29615722E+00 0.20950892E+03</pdfrwt>
<pdfrwt beam="1">  1       -1 0.47598354E-02 0.20950892E+03</pdfrwt>
<totfact> 0.72074885E+02</totfact>
</mgrwt>
</event>
<event>
12    1  0.1093377E-001  0.1758417E+03  0.7546771E-02  0.1171889E+00
          1   -1    0    0  503    0  0.00000000000E+00  0.00000000000E+00  0.40355837070E+03  0.40355837070E+03  0.00000000000E+00 0. -1.
         -1   -1    0    0    0  501 -0.00000000000E+00 -0.00000000000E+00 -0.77157679477E+02  0.77157679477E+02  0.00000000000E+00 0.  1.
          6    2    1    2  503    0  0.47013485478E+01  0.23516593192E+02  0.14308087116E+03  0.22666620498E+03  0.17415596445E+03 0.  0.
         24    2    3    3    0    0 -0.25972061187E+01 -0.54031612166E+02  0.59418539625E+02  0.11226135905E+03  0.78395722404E+02 0.  0.
         -6    2    1    2    0  501 -0.47013485478E+01 -0.23516593192E+02  0.18331982006E+03  0.25404984520E+03  0.17424131136E+03 0.  0.
        -24    2    5    5    0    0 -0.18723081961E+02 -0.10683737875E+02  0.20692991410E+03  0.22337709305E+03  0.81318142495E+02 0.  0.
          2    1    4    4  502    0 -0.20618917495E+02 -0.20811137618E+02  0.67526453247E+02  0.73607507061E+02  0.00000000000E+00 0. -1.
         -1    1    4    4    0  502  0.18021711376E+02 -0.33220474548E+02 -0.81079136220E+01  0.38653851987E+02  0.00000000000E+00 0.  1.
          5    1    3    3  503    0  0.72985546665E+01  0.77548205358E+02  0.83662331539E+02  0.11440484593E+03  0.47000000000E+01 0. -1.
         11    1    6    6    0    0  0.16672565925E+02 -0.33368434534E+02  0.60899755538E+02  0.71415734277E+02  0.00000000000E+00 0. -1.
        -12    1    6    6    0    0 -0.35395647885E+02  0.22684696659E+02  0.14603015856E+03  0.15196135878E+03  0.00000000000E+00 0.  1.
         -5    1    5    5    0  501  0.14021733413E+02 -0.12832855317E+02 -0.23610094040E+02  0.30672752143E+02  0.47000000000E+01 0.  1.
<mgrwt>
<rscale>  2 0.17584168E+03</rscale>
<asrwt>0</asrwt>
<pdfrwt beam="1">  1        1 0.62085902E-01 0.17584168E+03</pdfrwt>
<pdfrwt beam="2">  1       -1 0.11870413E-01 0.17584168E+03</pdfrwt>
<totfact> 0.27439704E+03</totfact>
</mgrwt>
</event>
<event>
12    1  0.1093377E-001  0.2404775E+03  0.7546771E-02  0.1119475E+00
         -1   -1    0    0    0  501 -0.00000000000E+00  0.00000000000E+00  0.85467027906E+02  0.85467027906E+02  0.00000000000E+00 0. -1.
          1   -1    0    0  503    0  0.00000000000E+00 -0.00000000000E+00 -0.68165657082E+03  0.68165657082E+03  0.00000000000E+00 0.  1.
          6    2    1    2  503    0 -0.14729312771E+03 -0.85385614765E+02 -0.32897461663E+03  0.40656052235E+03  0.16757443501E+03 0.  0.
         24    2    3    3    0    0 -0.12040847031E+03 -0.87815216549E+02 -0.33809284222E+03  0.37768285267E+03  0.78280618663E+02 0.  0.
         -6    2    1    2    0  501  0.14729312771E+03  0.85385614765E+02 -0.26721492628E+03  0.36056307637E+03  0.17209284278E+03 0.  0.
        -24    2    5    5    0    0  0.93593051635E+02  0.12096497620E+03 -0.22219217102E+03  0.28183107765E+03  0.81652989465E+02 0.  0.
          4    1    4    4  502    0 -0.11311047156E+03 -0.10108603320E+03 -0.29027593501E+03  0.32752478277E+03  0.00000000000E+00 0. -1.
         -3    1    4    4    0  502 -0.72979987515E+01  0.13270816652E+02 -0.47816907211E+02  0.50158069895E+02  0.00000000000E+00 0.  1.
          5    1    3    3  503    0 -0.26884657400E+02  0.24296017833E+01  0.91182255921E+01  0.28877669683E+02  0.47000000000E+01 0. -1.
         13    1    6    6    0    0 -0.11997001083E+02  0.29140456234E+02 -0.26031361251E+02  0.40874515203E+02  0.00000000000E+00 0. -1.
        -14    1    6    6    0    0  0.10559005272E+03  0.91824519969E+02 -0.19616080977E+03  0.24095656245E+03  0.00000000000E+00 0.  1.
         -5    1    5    5    0  501  0.53700076073E+02 -0.35579361438E+02 -0.45022755264E+02  0.78731998718E+02  0.47000000000E+01 0.  1.
<mgrwt>
<rscale>  2 0.24047754E+03</rscale>
<asrwt>0</asrwt>
<pdfrwt beam="2">  1        1 0.10487023E+00 0.24047754E+03</pdfrwt>
<pdfrwt beam="1">  1       -1 0.13148775E-01 0.24047754E+03</pdfrwt>
<totfact> 0.11629226E+03</totfact>
</mgrwt>
</event>
<event>
12    1  0.1093377E-001  0.1971958E+03  0.7546771E-02  0.1152127E+00
          2   -1    0    0  503    0  0.00000000000E+00  0.00000000000E+00  0.16570047630E+04  0.16570047630E+04  0.00000000000E+00 0. -1.
         -2   -1    0    0    0  501 -0.00000000000E+00 -0.00000000000E+00 -0.24452747242E+02  0.24452747242E+02  0.00000000000E+00 0.  1.
          6    2    1    2  503    0  0.24803898814E+02  0.90773622718E+02  0.64898299216E+03  0.67838627461E+03  0.17370644631E+03 0.  0.
         24    2    3    3    0    0  0.64244330947E+02  0.15528030406E+02  0.25354777829E+03  0.27390074308E+03  0.79791524596E+02 0.  0.
         -6    2    1    2    0  501 -0.24803898814E+02 -0.90773622718E+02  0.98356902362E+03  0.10030712357E+04  0.17288376324E+03 0.  0.
        -24    2    5    5    0    0  0.50340319657E+02 -0.56862562177E+02  0.66391078467E+03  0.67291961393E+03  0.79219808456E+02 0.  0.
          4    1    4    4  502    0  0.45170341971E+02  0.45671793367E+02  0.19535419707E+03  0.20564419470E+03  0.00000000000E+00 0. -1.
         -3    1    4    4    0  502  0.19073988976E+02 -0.30143762961E+02  0.58193581219E+02  0.68256548375E+02  0.00000000000E+00 0.  1.
          5    1    3    3  503    0 -0.39440432133E+02  0.75245592312E+02  0.39543521387E+03  0.40448553153E+03  0.47000000000E+01 0. -1.
         13    1    6    6    0    0  0.17853705585E+02  0.19645666366E+02  0.15023106127E+03  0.15255844382E+03  0.00000000000E+00 0. -1.
        -14    1    6    6    0    0  0.32486614071E+02 -0.76508228543E+02  0.51367972340E+03  0.52036117011E+03  0.00000000000E+00 0.  1.
         -5    1    5    5    0  501 -0.75144218470E+02 -0.33911060541E+02  0.31965823896E+03  0.33015162173E+03  0.47000000000E+01 0.  1.
<mgrwt>
<rscale>  2 0.19719580E+03</rscale>
<asrwt>0</asrwt>
<pdfrwt beam="1">  1        2 0.25492372E+00 0.19719580E+03</pdfrwt>
<pdfrwt beam="2">  1       -2 0.37619624E-02 0.19719580E+03</pdfrwt>
<totfact> 0.33885834E+03</totfact>
</mgrwt>
</event>
<event>
12    1  0.1093377E-001  0.1759127E+03  0.7546771E-02  0.1171818E+00
         -1   -1    0    0    0  501 -0.00000000000E+00  0.00000000000E+00  0.20455184414E+02  0.20455184414E+02  0.00000000000E+00 0. -1.
          1   -1    0    0  503    0  0.00000000000E+00 -0.00000000000E+00 -0.22175003471E+04  0.22175003471E+04  0.00000000000E+00 0.  1.
          6    2    1    2  503    0  0.18625640832E+02  0.18956471901E+02 -0.17302781048E+04  0.17392205080E+04  0.17412464776E+03 0.  0.
         24    2    3    3    0    0  0.37982575302E+02  0.29467601818E+02 -0.49465576106E+03  0.50339291433E+03  0.80056784019E+02 0.  0.
         -6    2    1    2    0  501 -0.18625640832E+02 -0.18956471901E+02 -0.46676705785E+03  0.49873502354E+03  0.17366310802E+03 0.  0.
        -24    2    5    5    0    0  0.24522587757E+02 -0.52045652344E+02 -0.16315513498E+03  0.19025657502E+03  0.79169811351E+02 0.  0.
          4    1    4    4  502    0  0.46008109372E+01  0.94203078332E+01 -0.40414555272E+01  0.11235792083E+02  0.00000000000E+00 0. -1.
         -3    1    4    4    0  502  0.33381764365E+02  0.20047293985E+02 -0.49061430553E+03  0.49215712225E+03  0.00000000000E+00 0.  1.
          5    1    3    3  503    0 -0.19356934470E+02 -0.10511129918E+02 -0.12356223438E+04  0.12358275936E+04  0.47000000000E+01 0. -1.
         13    1    6    6    0    0  0.74609757663E+01 -0.71498419137E+02 -0.11599084470E+03  0.13646085942E+03  0.00000000000E+00 0. -1.
        -14    1    6    6    0    0  0.17061611991E+02  0.19452766792E+02 -0.47164290274E+02  0.53795715598E+02  0.00000000000E+00 0.  1.
         -5    1    5    5    0  501 -0.43148228589E+02  0.33089180444E+02 -0.30361192287E+03  0.30847844852E+03  0.47000000000E+01 0.  1.
<mgrwt>
<rscale>  2 0.17591274E+03</rscale>
<asrwt>0</asrwt>
<pdfrwt beam="2">  1        1 0.34115385E+00 0.17591274E+03</pdfrwt>
<pdfrwt beam="1">  1       -1 0.31469519E-02 0.17591274E+03</pdfrwt>
<totfact> 0.86585293E+02</totfact>
</mgrwt>
</event>
<event>
12    1  0.1093377E-001  0.3862271E+03  0.7546771E-02  0.1048656E+00
          2   -1    0    0  503    0  0.00000000000E+00  0.00000000000E+00  0.59992566317E+03  0.59992566317E+03  0.00000000000E+00 0.  1.
         -2   -1    0    0    0  501 -0.00000000000E+00 -0.00000000000E+00 -0.27821960964E+03  0.27821960964E+03  0.00000000000E+00 0. -1.
          6    2    1    2  503    0 -0.34215608102E+03  0.45341291822E+02  0.30398922786E+03  0.49149671046E+03  0.17330017083E+03 0.  0.
         24    2    3    3    0    0 -0.75488262653E+02  0.45038771651E+02  0.11147960556E+03  0.16256835723E+03  0.79207320172E+02 0.  0.
         -6    2    1    2    0  501  0.34215608102E+03 -0.45341291822E+02  0.17716825662E+02  0.38664856236E+03  0.17336841793E+03 0.  0.
        -24    2    5    5    0    0  0.33111485465E+03 -0.97529469434E+01  0.39828698287E+02  0.34306572305E+03  0.79847342986E+02 0.  0.
          4    1    4    4  502    0 -0.83197537422E+02  0.56573297708E+02  0.10924577687E+03  0.14851601937E+03  0.00000000000E+00 0. -1.
         -3    1    4    4    0  502  0.77092747689E+01 -0.11534526057E+02  0.22338286883E+01  0.14052337863E+02  0.00000000000E+00 0.  1.
          5    1    3    3  503    0 -0.26666781837E+03  0.30252017019E+00  0.19250962231E+03  0.32892835322E+03  0.47000000000E+01 0. -1.
         13    1    6    6    0    0  0.20078653489E+03 -0.13855906885E+02 -0.14547521141E+02  0.20178912042E+03  0.00000000000E+00 0. -1.
        -14    1    6    6    0    0  0.13032831976E+03  0.41029599411E+01  0.54376219428E+02  0.14127660263E+03  0.00000000000E+00 0.  1.
         -5    1    5    5    0  501  0.11041226377E+02 -0.35588344878E+02 -0.22111872624E+02  0.43582839307E+02  0.47000000000E+01 0.  1.
<mgrwt>
<rscale>  2 0.38622713E+03</rscale>
<asrwt>0</asrwt>
<pdfrwt beam="1">  1        2 0.92296256E-01 0.38622713E+03</pdfrwt>
<pdfrwt beam="2">  1       -2 0.42803017E-01 0.38622713E+03</pdfrwt>
<totfact> 0.26360152E+02</totfact>
</mgrwt>
</event>
<event>
12    1  0.1093377E-001  0.2025212E+03  0.7546771E-02  0.1147629E+00
          2   -1    0    0  503    0  0.00000000000E+00  0.00000000000E+00  0.80798182222E+03  0.80798182222E+03  0.00000000000E+00 0. -1.
         -2   -1    0    0    0  501 -0.00000000000E+00 -0.00000000000E+00 -0.50780697603E+02  0.50780697603E+02  0.00000000000E+00 0.  1.
          6    2    1    2  503    0  0.10812286058E+03  0.75854385689E+01  0.36815167496E+03  0.41943143628E+03  0.16923055903E+03 0.  0.
         24    2    3    3    0    0  0.12295148028E+03 -0.16645815683E+02  0.19789906874E+03  0.24676099420E+03  0.79578873877E+02 0.  0.
         -6    2    1    2    0  501 -0.10812286058E+03 -0.75854385689E+01  0.38904944965E+03  0.43933108353E+03  0.17292840954E+03 0.  0.
        -24    2    5    5    0    0 -0.13717117295E+03  0.20265677329E+02  0.34254169976E+03  0.37765004991E+03  0.77833898550E+02 0.  0.
          4    1    4    4  502    0  0.10754623372E+03  0.23442960908E+01  0.19423701008E+03  0.22203536700E+03  0.00000000000E+00 0. -1.
         -3    1    4    4    0  502  0.15405246563E+02 -0.18990111774E+02  0.36620586512E+01  0.24725627199E+02  0.00000000000E+00 0.  1.
          5    1    3    3  503    0 -0.14828619696E+02  0.24231254252E+02  0.17025260622E+03  0.17267044209E+03  0.47000000000E+01 0. -1.
         11    1    6    6    0    0 -0.83302549045E+02  0.27900553744E+02  0.12101864947E+03  0.14954353579E+03  0.00000000000E+00 0. -1.
        -12    1    6    6    0    0 -0.53868623902E+02 -0.76348764147E+01  0.22152305028E+03  0.22810651412E+03  0.00000000000E+00 0.  1.
         -5    1    5    5    0  501  0.29048312363E+02 -0.27851115898E+02  0.46507749895E+02  0.61681033618E+02  0.47000000000E+01 0.  1.
<mgrwt>
<rscale>  2 0.20252116E+03</rscale>
<asrwt>0</asrwt>
<pdfrwt beam="1">  1        2 0.12430489E+00 0.20252116E+03</pdfrwt>
<pdfrwt beam="2">  1       -2 0.78124156E-02 0.20252116E+03</pdfrwt>
<totfact> 0.34047686E+03</totfact>
</mgrwt>
</event>
<event>
12    1  0.1093377E-001  0.2433600E+03  0.7546771E-02  0.1117575E+00
         -1   -1    0    0    0  501 -0.00000000000E+00  0.00000000000E+00  0.12761227256E+03  0.12761227256E+03  0.00000000000E+00 0. -1.
          1   -1    0    0  503    0  0.00000000000E+00 -0.00000000000E+00 -0.46773119896E+03  0.46773119896E+03  0.00000000000E+00 0.  1.
          6    2    1    2  503    0  0.14667256821E+03 -0.86663018198E+02 -0.19651403654E+03  0.31302948064E+03  0.17420209013E+03 0.  0.
         24    2    3    3    0    0  0.15753995461E+02  0.34384033719E+01 -0.43975232868E+02  0.92693111684E+02  0.79988629549E+02 0.  0.
         -6    2    1    2    0  501 -0.14667256821E+03  0.86663018198E+02 -0.14360488986E+03  0.28231399088E+03  0.17336523315E+03 0.  0.
        -24    2    5    5    0    0 -0.14237259441E+03  0.45014667222E+02 -0.45782332602E+02  0.17580381473E+03  0.80713588648E+02 0.  0.
          2    1    4    4  502    0  0.58799701396E+01 -0.33870561423E+02 -0.41685032335E+02  0.54031758260E+02  0.00000000000E+00 0. -1.
         -1    1    4    4    0  502  0.98740253215E+01  0.37308964794E+02 -0.22902005329E+01  0.38661353424E+02  0.00000000000E+00 0.  1.
          5    1    3    3  503    0  0.13091857275E+03 -0.90101421570E+02 -0.15253880367E+03  0.22033636896E+03  0.47000000000E+01 0. -1.
         11    1    6    6    0    0  0.99025319830E+01  0.86885732668E+01 -0.42022467195E+01  0.13827882071E+02  0.00000000000E+00 0. -1.
        -12    1    6    6    0    0 -0.15227512639E+03  0.36326093955E+02 -0.41580085882E+02  0.16197593266E+03  0.00000000000E+00 0.  1.
         -5    1    5    5    0  501 -0.42999738014E+01  0.41648350977E+02 -0.97822557258E+02  0.10651017614E+03  0.47000000000E+01 0.  1.
<mgrwt>
<rscale>  2 0.24335998E+03</rscale>
<asrwt>0</asrwt>
<pdfrwt beam="2">  1        1 0.71958647E-01 0.24335998E+03</pdfrwt>
<pdfrwt beam="1">  1       -1 0.19632657E-01 0.24335998E+03</pdfrwt>
<totfact> 0.10271353E+03</totfact>
</mgrwt>
</event>
<event>
12    1  0.1093377E-001  0.2105617E+03  0.7546771E-02  0.1141122E+00
         -2   -1    0    0    0  501 -0.00000000000E+00  0.00000000000E+00  0.22351709051E+02  0.22351709051E+02  0.00000000000E+00 0.  1.
          2   -1    0    0  503    0  0.00000000000E+00 -0.00000000000E+00 -0.20146414421E+04  0.20146414421E+04  0.00000000000E+00 0. -1.
          6    2    1    2  503    0 -0.62607295511E+02  0.10446258914E+03 -0.11151955099E+04  0.11346146442E+04  0.16987424591E+03 0.  0.
         24    2    3    3    0    0  0.17432054418E+02  0.52448239627E+02 -0.37530657702E+03  0.38857877832E+03  0.84164991815E+02 0.  0.
         -6    2    1    2    0  501  0.62607295511E+02 -0.10446258914E+03 -0.87709422316E+03  0.90237850702E+03  0.17366803865E+03 0.  0.
        -24    2    5    5    0    0 -0.28834968723E+01 -0.91697128245E+02 -0.73842400969E+03  0.74841903514E+03  0.80276747468E+02 0.  0.
          2    1    4    4  502    0  0.48618920105E+02  0.47859934310E+02 -0.23068958996E+03  0.24056612318E+03  0.00000000000E+00 0. -1.
         -1    1    4    4    0  502 -0.31186865687E+02  0.45883053170E+01 -0.14461698706E+03  0.14801265514E+03  0.00000000000E+00 0.  1.
          5    1    3    3  503    0 -0.80039349928E+02  0.52014349517E+02 -0.73988893292E+03  0.74603586586E+03  0.47000000000E+01 0. -1.
         11    1    6    6    0    0  0.30139819820E+02 -0.39161431279E+02 -0.48489475501E+03  0.48740634985E+03  0.00000000000E+00 0. -1.
        -12    1    6    6    0    0 -0.33023316692E+02 -0.52535696966E+02 -0.25352925468E+03  0.26101268529E+03  0.00000000000E+00 0.  1.
         -5    1    5    5    0  501  0.65490792383E+02 -0.12765460899E+02 -0.13867021347E+03  0.15395947188E+03  0.47000000000E+01 0.  1.
<mgrwt>
<rscale>  2 0.21056173E+03</rscale>
<asrwt>0</asrwt>
<pdfrwt beam="2">  1        2 0.30994485E+00 0.21056173E+03</pdfrwt>
<pdfrwt beam="1">  1       -2 0.34387244E-02 0.21056173E+03</pdfrwt>
<totfact> 0.25247722E+03</totfact>
</mgrwt>
</event>
<event>
12    1  0.1093377E-001  0.1826888E+03  0.7546771E-02  0.1165226E+00
          2   -1    0    0  503    0  0.00000000000E+00  0.00000000000E+00  0.92500283143E+03  0.92500283143E+03  0.00000000000E+00 0. -1.
         -2   -1    0    0    0  501 -0.00000000000E+00 -0.00000000000E+00 -0.37702220077E+02  0.37702220077E+02  0.00000000000E+00 0.  1.
          6    2    1    2  503    0  0.46859430316E+02  0.36144035087E+02  0.54321627561E+03  0.57308005375E+03  0.17272703449E+03 0.  0.
         24    2    3    3    0    0  0.87190921737E+02 -0.21448715375E+01  0.43746238125E+03  0.45350310889E+03  0.81761099907E+02 0.  0.
         -6    2    1    2    0  501 -0.46859430316E+02 -0.36144035087E+02  0.34408433574E+03  0.38962499775E+03  0.17294915810E+03 0.  0.
        -24    2    5    5    0    0 -0.52212181346E+02 -0.73978841771E+02  0.15237252041E+03  0.19408565471E+03  0.79075125518E+02 0.  0.
          4    1    4    4  502    0  0.93208878754E+02 -0.24475836511E+02  0.34741854138E+03  0.36053655091E+03  0.00000000000E+00 0. -1.
         -3    1    4    4    0  502 -0.60179570173E+01  0.22330964974E+02  0.90043839876E+02  0.92966557982E+02  0.00000000000E+00 0.  1.
          5    1    3    3  503    0 -0.40331491421E+02  0.38288906625E+02  0.10575389436E+03  0.11957694486E+03  0.47000000000E+01 0. -1.
         13    1    6    6    0    0 -0.47937171552E+02 -0.71391663343E+02  0.16190393062E+03  0.18332382486E+03  0.00000000000E+00 0. -1.
        -14    1    6    6    0    0 -0.42750097941E+01 -0.25871784287E+01 -0.95314102117E+01  0.10761829844E+02  0.00000000000E+00 0.  1.
         -5    1    5    5    0  501  0.53527510304E+01  0.37834806684E+02  0.19171181533E+03  0.19553934304E+03  0.47000000000E+01 0.  1.
<mgrwt>
<rscale>  2 0.18268879E+03</rscale>
<asrwt>0</asrwt>
<pdfrwt beam="1">  1        2 0.14230811E+00 0.18268879E+03</pdfrwt>
<pdfrwt beam="2">  1       -2 0.58003423E-02 0.18268879E+03</pdfrwt>
<totfact> 0.45019599E+03</totfact>
</mgrwt>
</event>
<event>
12    1  0.1093377E-001  0.1895186E+03  0.7546771E-02  0.1158896E+00
          2   -1    0    0  503    0  0.00000000000E+00  0.00000000000E+00  0.13175267203E+03  0.13175267203E+03  0.00000000000E+00 0.  1.
         -2   -1    0    0    0  501 -0.00000000000E+00 -0.00000000000E+00 -0.49007646282E+03  0.49007646282E+03  0.00000000000E+00 0. -1.
          6    2    1    2  503    0 -0.56484416581E+02 -0.29278531942E+02  0.30783706791E+02  0.18645258799E+03  0.17253755885E+03 0.  0.
         24    2    3    3    0    0 -0.87791999057E+02 -0.61736581136E+02  0.39752540177E+01  0.13377932325E+03  0.79763802162E+02 0.  0.
         -6    2    1    2    0  501  0.56484416581E+02  0.29278531942E+02 -0.38910749758E+03  0.43537654686E+03  0.18466285804E+03 0.  0.
        -24    2    5    5    0    0  0.63696976543E+02  0.32478609961E+01 -0.39440467185E+03  0.40745224013E+03  0.79965176137E+02 0.  0.
          2    1    4    4  502    0 -0.50993902744E+02 -0.77815564051E+02  0.82193748936E+01  0.93398063413E+02  0.00000000000E+00 0. -1.
         -1    1    4    4    0  502 -0.36798096313E+02  0.16078982915E+02 -0.42441208759E+01  0.40381259835E+02  0.00000000000E+00 0.  1.
          5    1    3    3  503    0  0.31307582476E+02  0.32458049195E+02  0.26808452773E+02  0.52673264738E+02  0.47000000000E+01 0. -1.
         13    1    6    6    0    0  0.74628883015E+02  0.23382264053E+02 -0.32842398237E+03  0.33760703880E+03  0.00000000000E+00 0. -1.
        -14    1    6    6    0    0 -0.10931906472E+02 -0.20134403056E+02 -0.65980689478E+02  0.69845201335E+02  0.00000000000E+00 0.  1.
         -5    1    5    5    0  501 -0.72125599623E+01  0.26030670945E+02  0.52971742682E+01  0.27924306729E+02  0.47000000000E+01 0.  1.
<mgrwt>
<rscale>  2 0.18951856E+03</rscale>
<asrwt>0</asrwt>
<pdfrwt beam="1">  1        2 0.20269641E-01 0.18951856E+03</pdfrwt>
<pdfrwt beam="2">  1       -2 0.75396381E-01 0.18951856E+03</pdfrwt>
<totfact> 0.44360391E+02</totfact>
</mgrwt>
</event>
<event>
12    1  0.1093377E-001  0.2421627E+03  0.7546771E-02  0.1118360E+00
         -1   -1    0    0    0  501 -0.00000000000E+00  0.00000000000E+00  0.17994107076E+03  0.17994107076E+03  0.00000000000E+00 0. -1.
          1   -1    0    0  503    0  0.00000000000E+00 -0.00000000000E+00 -0.34782169295E+03  0.34782169295E+03  0.00000000000E+00 0.  1.
          6    2    1    2  503    0  0.51284764480E+02 -0.15900507577E+03 -0.18392339730E+02  0.24490245739E+03  0.17811848383E+03 0.  0.
         24    2    3    3    0    0  0.95075893872E+02 -0.15447021724E+03 -0.23411207481E+02  0.20034342925E+03  0.81785887507E+02 0.  0.
         -6    2    1    2    0  501 -0.51284764480E+02  0.15900507577E+03 -0.14948828246E+03  0.28286030632E+03  0.17248323138E+03 0.  0.
        -24    2    5    5    0    0 -0.50809457510E+02  0.16821759675E+03 -0.17163675924E+03  0.25841155414E+03  0.80240845968E+02 0.  0.
          2    1    4    4  502    0  0.49324114161E+02 -0.70520664605E+02  0.29620385484E+02  0.91013183717E+02  0.00000000000E+00 0. -1.
         -1    1    4    4    0  502  0.45751779711E+02 -0.83949552638E+02 -0.53031592965E+02  0.10933024553E+03  0.00000000000E+00 0.  1.
          5    1    3    3  503    0 -0.43791129392E+02 -0.45348585308E+01  0.50188677509E+01  0.44559028140E+02  0.47000000000E+01 0. -1.
         11    1    6    6    0    0 -0.11442100418E+02  0.48756130582E+02 -0.60132715213E+01  0.50440473488E+02  0.00000000000E+00 0. -1.
        -12    1    6    6    0    0 -0.39367357092E+02  0.11946146617E+03 -0.16562348772E+03  0.20797108065E+03  0.00000000000E+00 0.  1.
         -5    1    5    5    0  501 -0.47530697000E+00 -0.92125209780E+01  0.22148476777E+02  0.24448752177E+02  0.47000000000E+01 0.  1.
<mgrwt>
<rscale>  2 0.24216265E+03</rscale>
<asrwt>0</asrwt>
<pdfrwt beam="2">  1        1 0.53511030E-01 0.24216265E+03</pdfrwt>
<pdfrwt beam="1">  1       -1 0.27683242E-01 0.24216265E+03</pdfrwt>
<totfact> 0.85203637E+02</totfact>
</mgrwt>
</event>
<event>
12    1  0.1093377E-001  0.2403720E+03  0.7546771E-02  0.1119545E+00
          2   -1    0    0  503    0  0.00000000000E+00  0.00000000000E+00  0.58737362304E+03  0.58737362304E+03  0.00000000000E+00 0. -1.
         -2   -1    0    0    0  501 -0.00000000000E+00 -0.00000000000E+00 -0.98491568770E+02  0.98491568770E+02  0.00000000000E+00 0.  1.
          6    2    1    2  503    0  0.15754594428E+03  0.39750715943E+02  0.25601135085E+03  0.35079447651E+03  0.17639191877E+03 0.  0.
         24    2    3    3    0    0  0.72832494346E+02  0.63272433019E+02  0.68093646657E+02  0.14327389121E+03  0.81133779488E+02 0.  0.
         -6    2    1    2    0  501 -0.15754594428E+03 -0.39750715943E+02  0.23287070343E+03  0.33507071531E+03  0.17788416389E+03 0.  0.
        -24    2    5    5    0    0 -0.13917164824E+03  0.36946239219E+02  0.14636797864E+03  0.21791761428E+03  0.73011842693E+02 0.  0.
          2    1    4    4  502    0  0.79886939564E+02  0.75992605080E+02  0.66202057440E+02  0.12860603232E+03  0.00000000000E+00 0. -1.
         -1    1    4    4    0  502 -0.70544452183E+01 -0.12720172061E+02  0.18915892167E+01  0.14667858888E+02  0.00000000000E+00 0.  1.
          5    1    3    3  503    0  0.84713449939E+02 -0.23521717076E+02  0.18791770419E+03  0.20752058530E+03  0.47000000000E+01 0. -1.
         11    1    6    6    0    0 -0.95408863490E+02  0.50988175501E+02  0.70208357882E+02  0.12896456409E+03  0.00000000000E+00 0. -1.
        -12    1    6    6    0    0 -0.43762784749E+02 -0.14041936282E+02  0.76159620762E+02  0.88953050190E+02  0.00000000000E+00 0.  1.
         -5    1    5    5    0  501 -0.18374296047E+02 -0.76696955162E+02  0.86502724783E+02  0.11715310103E+03  0.47000000000E+01 0.  1.
<mgrwt>
<rscale>  2 0.24037197E+03</rscale>
<asrwt>0</asrwt>
<pdfrwt beam="1">  1        2 0.90365171E-01 0.24037197E+03</pdfrwt>
<pdfrwt beam="2">  1       -2 0.15152549E-01 0.24037197E+03</pdfrwt>
<totfact> 0.17368202E+03</totfact>
</mgrwt>
</event>
<event>
12    1  0.1093377E-001  0.1817369E+03  0.7546771E-02  0.1166133E+00
         -2   -1    0    0    0  501 -0.00000000000E+00  0.00000000000E+00  0.39297988506E+03  0.39297988506E+03  0.00000000000E+00 0. -1.
          2   -1    0    0  503    0  0.00000000000E+00 -0.00000000000E+00 -0.10208252744E+03  0.10208252744E+03  0.00000000000E+00 0.  1.
          6    2    1    2  503    0  0.27294504226E+02  0.47916359639E+02  0.41114686097E+02  0.18590411496E+03  0.17271061074E+03 0.  0.
         24    2    3    3    0    0 -0.41789964681E+02  0.18692316088E+02 -0.13589348956E+02  0.92945360571E+02  0.79739361785E+02 0.  0.
         -6    2    1    2    0  501 -0.27294504226E+02 -0.47916359639E+02  0.24978267152E+03  0.30915829755E+03  0.17362748190E+03 0.  0.
        -24    2    5    5    0    0 -0.47388740474E+02 -0.87177745886E+02  0.23459268567E+03  0.26227482017E+03  0.62519605150E+02 0.  0.
          4    1    4    4  502    0 -0.16571108863E+02 -0.24462238209E+02  0.17250470613E+02  0.34213761611E+02  0.00000000000E+00 0. -1.
         -3    1    4    4    0  502 -0.25218855818E+02  0.43154554297E+02 -0.30839819570E+02  0.58731598961E+02  0.00000000000E+00 0.  1.
          5    1    3    3  503    0  0.69084468907E+02  0.29224043551E+02  0.54704035053E+02  0.92958754385E+02  0.47000000000E+01 0. -1.
         11    1    6    6    0    0 -0.90651045004E+01 -0.43491400514E+02  0.16853892643E+03  0.17429586271E+03  0.00000000000E+00 0. -1.
        -12    1    6    6    0    0 -0.38323635973E+02 -0.43686345372E+02  0.66053759241E+02  0.87978957461E+02  0.00000000000E+00 0.  1.
         -5    1    5    5    0  501  0.20094236248E+02  0.39261386247E+02  0.15189985850E+02  0.46883477373E+02  0.47000000000E+01 0.  1.
<mgrwt>
<rscale>  2 0.18173694E+03</rscale>
<asrwt>0</asrwt>
<pdfrwt beam="2">  1        2 0.15705004E-01 0.18173694E+03</pdfrwt>
<pdfrwt beam="1">  1       -2 0.60458443E-01 0.18173694E+03</pdfrwt>
<totfact> 0.95063690E+02</totfact>
</mgrwt>
</event>
<event>
12    1  0.1093377E-001  0.1860657E+03  0.7546771E-02  0.1162058E+00
         -1   -1    0    0    0  501 -0.00000000000E+00  0.00000000000E+00  0.11490324593E+03  0.11490324593E+03  0.00000000000E+00 0. -1.
          1   -1    0    0  503    0  0.00000000000E+00 -0.00000000000E+00 -0.41398313186E+03  0.41398313186E+03  0.00000000000E+00 0.  1.
          6    2    1    2  503    0 -0.22872329345E+02 -0.72935057052E+02 -0.13500173774E+02  0.18974780665E+03  0.17314534195E+03 0.  0.
         24    2    3    3    0    0 -0.36923532037E+02 -0.11308244580E+03  0.45874398110E+01  0.14328813720E+03  0.79746215526E+02 0.  0.
         -6    2    1    2    0  501  0.22872329345E+02  0.72935057052E+02 -0.28557971215E+03  0.33913857114E+03  0.16618222662E+03 0.  0.
        -24    2    5    5    0    0 -0.21013408122E+01  0.57815910409E+02 -0.69089688788E+02  0.12063847271E+03  0.80206987675E+02 0.  0.
          2    1    4    4  502    0 -0.49857272370E+02 -0.11865326056E+03  0.79908028044E+00  0.12870502080E+03  0.00000000000E+00 0. -1.
         -1    1    4    4    0  502  0.12933740333E+02  0.55708147547E+01  0.37883595306E+01  0.14583116401E+02  0.00000000000E+00 0.  1.
          5    1    3    3  503    0  0.14051202692E+02  0.40147388749E+02 -0.18087613585E+02  0.46459669453E+02  0.47000000000E+01 0. -1.
         11    1    6    6    0    0 -0.33288259315E+02  0.12316396192E+02 -0.51869970285E+02  0.62851377397E+02  0.00000000000E+00 0. -1.
        -12    1    6    6    0    0  0.31186918502E+02  0.45499514217E+02 -0.17219718503E+02  0.57787095316E+02  0.00000000000E+00 0.  1.
         -5    1    5    5    0  501  0.24973670157E+02  0.15119146643E+02 -0.21649002337E+03  0.21850009843E+03  0.47000000000E+01 0.  1.
<mgrwt>
<rscale>  2 0.18606568E+03</rscale>
<asrwt>0</asrwt>
<pdfrwt beam="2">  1        1 0.63689712E-01 0.18606568E+03</pdfrwt>
<pdfrwt beam="1">  1       -1 0.17677423E-01 0.18606568E+03</pdfrwt>
<totfact> 0.14207747E+03</totfact>
</mgrwt>
</event>
<event>
12    1  0.1093377E-001  0.2673102E+03  0.7546771E-02  0.1102829E+00
         -2   -1    0    0    0  501 -0.00000000000E+00  0.00000000000E+00  0.56006318004E+02  0.56006318004E+02  0.00000000000E+00 0.  1.
          2   -1    0    0  503    0  0.00000000000E+00 -0.00000000000E+00 -0.25391995271E+04  0.25391995271E+04  0.00000000000E+00 0. -1.
          6    2    1    2  503    0 -0.18745114422E+03 -0.79177472092E+02 -0.21564719112E+04  0.21729545184E+04  0.17307001938E+03 0.  0.
         24    2    3    3    0    0 -0.59974798739E+02 -0.95207911564E+02 -0.10903494177E+04  0.10991079489E+04  0.80714978434E+02 0.  0.
         -6    2    1    2    0  501  0.18745114422E+03  0.79177472092E+02 -0.32672129789E+03  0.42225132671E+03  0.17361558933E+03 0.  0.
        -24    2    5    5    0    0  0.28168904447E+02  0.53054428866E+02 -0.83078467201E+02  0.12995496300E+03  0.79862388491E+02 0.  0.
          4    1    4    4  502    0 -0.77004845945E+02 -0.65041259239E+02 -0.69930124403E+03  0.70652837282E+03  0.00000000000E+00 0. -1.
         -3    1    4    4    0  502  0.17030047205E+02 -0.30166652326E+02 -0.39104817367E+03  0.39257957607E+03  0.00000000000E+00 0.  1.
          5    1    3    3  503    0 -0.12747634548E+03  0.16030439472E+02 -0.10661224935E+04  0.10738465695E+04  0.47000000000E+01 0. -1.
         13    1    6    6    0    0  0.33756892703E+01  0.47717952646E+01 -0.74827093548E+02  0.75055041382E+02  0.00000000000E+00 0. -1.
        -14    1    6    6    0    0  0.24793215177E+02  0.48282633601E+02 -0.82513736530E+01  0.54899921616E+02  0.00000000000E+00 0.  1.
         -5    1    5    5    0  501  0.15928223977E+03  0.26123043226E+02 -0.24364283068E+03  0.29229636371E+03  0.47000000000E+01 0.  1.
<mgrwt>
<rscale>  2 0.26731020E+03</rscale>
<asrwt>0</asrwt>
<pdfrwt beam="2">  1        2 0.39064604E+00 0.26731020E+03</pdfrwt>
<pdfrwt beam="1">  1       -2 0.86163576E-02 0.26731020E+03</pdfrwt>
<totfact> 0.32177273E+02</totfact>
</mgrwt>
</event>
<event>
12    1  0.1093377E-001  0.1827151E+03  0.7546771E-02  0.1165201E+00
          2   -1    0    0  503    0  0.00000000000E+00  0.00000000000E+00  0.14932549801E+04  0.14932549801E+04  0.00000000000E+00 0.  1.
         -2   -1    0    0    0  501 -0.00000000000E+00 -0.00000000000E+00 -0.29342648020E+02  0.29342648020E+02  0.00000000000E+00 0. -1.
          6    2    1    2  503    0 -0.56597866465E+02  0.42834505904E+01  0.36207596909E+03  0.40579824966E+03  0.17421694981E+03 0.  0.
         24    2    3    3    0    0 -0.62238639187E+02  0.39783595686E+02  0.12981212686E+03  0.17072238738E+03  0.82695601946E+02 0.  0.
         -6    2    1    2    0  501  0.56597866465E+02 -0.42834505904E+01  0.11018363630E+04  0.11167993784E+04  0.17313524908E+03 0.  0.
        -24    2    5    5    0    0  0.10323555328E+03 -0.53920798471E+01  0.90433477347E+03  0.91380856400E+03  0.80858241072E+02 0.  0.
          4    1    4    4  502    0 -0.70860716921E+02  0.31785116336E+02  0.55426933640E+02  0.95413205563E+02  0.00000000000E+00 0. -1.
         -3    1    4    4    0  502  0.86220777346E+01  0.79984793494E+01  0.74385193219E+02  0.75309181822E+02  0.00000000000E+00 0.  1.
          5    1    3    3  503    0  0.56407727219E+01 -0.35500145095E+02  0.23226384223E+03  0.23507586228E+03  0.47000000000E+01 0. -1.
         13    1    6    6    0    0  0.51966955982E+02 -0.38270085042E+02  0.59840382117E+03  0.60187398773E+03  0.00000000000E+00 0. -1.
        -14    1    6    6    0    0  0.51268597296E+02  0.32878005194E+02  0.30593095231E+03  0.31193457627E+03  0.00000000000E+00 0.  1.
         -5    1    5    5    0  501 -0.46637686813E+02  0.11086292567E+01  0.19750158951E+03  0.20299081444E+03  0.47000000000E+01 0.  1.
<mgrwt>
<rscale>  2 0.18271513E+03</rscale>
<asrwt>0</asrwt>
<pdfrwt beam="1">  1        2 0.22973148E+00 0.18271513E+03</pdfrwt>
<pdfrwt beam="2">  1       -2 0.45142547E-02 0.18271513E+03</pdfrwt>
<totfact> 0.31397079E+03</totfact>
</mgrwt>
</event>
<event>
12    1  0.1093377E-001  0.1870717E+03  0.7546771E-02  0.1161129E+00
          2   -1    0    0  503    0  0.00000000000E+00  0.00000000000E+00  0.10921898133E+03  0.10921898133E+03  0.00000000000E+00 0.  1.
         -2   -1    0    0    0  501 -0.00000000000E+00 -0.00000000000E+00 -0.63672114380E+03  0.63672114380E+03  0.00000000000E+00 0. -1.
          6    2    1    2  503    0 -0.44074619366E+02  0.55179718391E+02 -0.52638026157E+03  0.55851819641E+03  0.17285549616E+03 0.  0.
         24    2    3    3    0    0 -0.12717970323E+02 -0.28574089766E+02 -0.16335098845E+03  0.18460606373E+03  0.80110099007E+02 0.  0.
         -6    2    1    2    0  501  0.44074619366E+02 -0.55179718391E+02 -0.11219009016E+01  0.18742192873E+03  0.17360399567E+03 0.  0.
        -24    2    5    5    0    0  0.86311902314E+02 -0.34573825065E+01 -0.15412275686E+02  0.11897126831E+03  0.80342557013E+02 0.  0.
          4    1    4    4  502    0 -0.39152358475E+02 -0.12558123571E+02 -0.13987629834E+03  0.14579434996E+03  0.00000000000E+00 0. -1.
         -3    1    4    4    0  502  0.26434388152E+02 -0.16015966196E+02 -0.23474690104E+02  0.38811713768E+02  0.00000000000E+00 0.  1.
          5    1    3    3  503    0 -0.31356649042E+02  0.83753808157E+02 -0.36302927312E+03  0.37391213268E+03  0.47000000000E+01 0. -1.
         11    1    6    6    0    0  0.65395466497E+02  0.27391311057E+02  0.13029590450E+02  0.72087593850E+02  0.00000000000E+00 0. -1.
        -12    1    6    6    0    0  0.20916435817E+02 -0.30848693564E+02 -0.28441866136E+02  0.46883674463E+02  0.00000000000E+00 0.  1.
         -5    1    5    5    0  501 -0.42237282948E+02 -0.51722335884E+02  0.14290374784E+02  0.68450660418E+02  0.47000000000E+01 0.  1.
<mgrwt>
<rscale>  2 0.18707169E+03</rscale>
<asrwt>0</asrwt>
<pdfrwt beam="1">  1        2 0.16802920E-01 0.18707169E+03</pdfrwt>
<pdfrwt beam="2">  1       -2 0.97957099E-01 0.18707169E+03</pdfrwt>
<totfact> 0.30668188E+02</totfact>
</mgrwt>
</event>
<event>
12    1  0.1093377E-001  0.1747804E+03  0.7546771E-02  0.1172952E+00
         -2   -1    0    0    0  501 -0.00000000000E+00  0.00000000000E+00  0.67712417505E+03  0.67712417505E+03  0.00000000000E+00 0.  1.
          2   -1    0    0  503    0  0.00000000000E+00 -0.00000000000E+00 -0.70630523104E+02  0.70630523104E+02  0.00000000000E+00 0. -1.
          6    2    1    2  503    0  0.32046992938E+02 -0.79532843151E+01  0.52659520018E+03  0.55445989575E+03  0.17039074696E+03 0.  0.
         24    2    3    3    0    0 -0.24556149397E+02  0.28345244892E+02  0.17001941076E+03  0.19156888932E+03  0.79909836304E+02 0.  0.
         -6    2    1    2    0  501 -0.32046992938E+02  0.79532843151E+01  0.79898451756E+02  0.19329480240E+03  0.17288393087E+03 0.  0.
        -24    2    5    5    0    0 -0.49754116297E+02  0.64947498461E+02  0.62750698216E+02  0.13102106704E+03  0.80840709040E+02 0.  0.
          2    1    4    4  502    0  0.24566555521E+01  0.34833395381E+02  0.22692443719E+02  0.41645499063E+02  0.00000000000E+00 0. -1.
         -1    1    4    4    0  502 -0.27012804949E+02 -0.64881504884E+01  0.14732696704E+03  0.14992339025E+03  0.00000000000E+00 0.  1.
          5    1    3    3  503    0  0.56603142335E+02 -0.36298529207E+02  0.35657578943E+03  0.36289100643E+03  0.47000000000E+01 0. -1.
         11    1    6    6    0    0 -0.27526441893E+02  0.47110570602E+01 -0.13765499887E+02  0.31134997174E+02  0.00000000000E+00 0. -1.
        -12    1    6    6    0    0 -0.22227674405E+02  0.60236441401E+02  0.76516198103E+02  0.99886069871E+02  0.00000000000E+00 0.  1.
         -5    1    5    5    0  501  0.17707123360E+02 -0.56994214146E+02  0.17147753540E+02  0.62273735356E+02  0.47000000000E+01 0.  1.
<mgrwt>
<rscale>  2 0.17478043E+03</rscale>
<asrwt>0</asrwt>
<pdfrwt beam="2">  1        2 0.10866235E-01 0.17478043E+03</pdfrwt>
<pdfrwt beam="1">  1       -2 0.10417295E+00 0.17478043E+03</pdfrwt>
<totfact> 0.44715092E+02</totfact>
</mgrwt>
</event>
<event>
12    1  0.1093377E-001  0.1783910E+03  0.7546771E-02  0.1169369E+00
         -1   -1    0    0    0  501 -0.00000000000E+00  0.00000000000E+00  0.61001592879E+03  0.61001592879E+03  0.00000000000E+00 0.  1.
          1   -1    0    0  503    0  0.00000000000E+00 -0.00000000000E+00 -0.52330280064E+02  0.52330280064E+02  0.00000000000E+00 0. -1.
          6    2    1    2  503    0 -0.35987325565E+02  0.17394214885E+02  0.29725932223E+03  0.34667136915E+03  0.17383983209E+03 0.  0.
         24    2    3    3    0    0 -0.18310002308E+02  0.78507748271E+02  0.20336233892E+03  0.23315447528E+03  0.80660062766E+02 0.  0.
         -6    2    1    2    0  501  0.35987325565E+02 -0.17394214885E+02  0.26042632650E+03  0.31567483971E+03  0.17387089054E+03 0.  0.
        -24    2    5    5    0    0  0.21449838768E+02 -0.72375394396E+02  0.21614919446E+03  0.24344726156E+03  0.82751444712E+02 0.  0.
          2    1    4    4  502    0 -0.32265154475E+02  0.33012137144E+02  0.34264877645E+02  0.57488461730E+02  0.00000000000E+00 0. -1.
         -1    1    4    4    0  502  0.13955152167E+02  0.45495611127E+02  0.16909746128E+03  0.17566601355E+03  0.00000000000E+00 0.  1.
          5    1    3    3  503    0 -0.17677323257E+02 -0.61113533386E+02  0.93896983307E+02  0.11351689387E+03  0.47000000000E+01 0. -1.
         13    1    6    6    0    0  0.16737558112E+02 -0.20175141931E+02  0.60420502989E+01  0.26901460468E+02  0.00000000000E+00 0. -1.
        -14    1    6    6    0    0  0.47122806556E+01 -0.52200252464E+02  0.21010714416E+03  0.21654580110E+03  0.00000000000E+00 0.  1.
         -5    1    5    5    0  501  0.14537486797E+02  0.54981179510E+02  0.44277132045E+02  0.72227578146E+02  0.47000000000E+01 0.  1.
<mgrwt>
<rscale>  2 0.17839095E+03</rscale>
<asrwt>0</asrwt>
<pdfrwt beam="2">  1        1 0.80508127E-02 0.17839095E+03</pdfrwt>
<pdfrwt beam="1">  1       -1 0.93848600E-01 0.17839095E+03</pdfrwt>
<totfact> 0.99124670E+02</totfact>
</mgrwt>
</event>
<event>
12    1  0.1093377E-001  0.2709765E+03  0.7546771E-02  0.1100722E+00
         -2   -1    0    0    0  501 -0.00000000000E+00  0.00000000000E+00  0.56734380817E+02  0.56734380817E+02  0.00000000000E+00 0. -1.
          2   -1    0    0  503    0  0.00000000000E+00 -0.00000000000E+00 -0.16255171234E+04  0.16255171234E+04  0.00000000000E+00 0.  1.
          6    2    1    2  503    0 -0.84747769183E+02 -0.19028550910E+03 -0.11636820410E+04  0.11947739224E+04  0.17302622292E+03 0.  0.
         24    2    3    3    0    0 -0.12024104769E+03 -0.15431924957E+03 -0.79965320271E+03  0.82722470157E+03  0.81136440380E+02 0.  0.
         -6    2    1    2    0  501  0.84747769183E+02  0.19028550910E+03 -0.40510070162E+03  0.48747758182E+03  0.17360027354E+03 0.  0.
        -24    2    5    5    0    0  0.10465659235E+03  0.12875665651E+03 -0.37006005423E+03  0.41377481450E+03  0.82060188051E+02 0.  0.
          4    1    4    4  502    0 -0.63675305578E+02 -0.24971499429E+02 -0.31994889448E+03  0.32717795678E+03  0.00000000000E+00 0. -1.
         -3    1    4    4    0  502 -0.56565742109E+02 -0.12934775014E+03 -0.47970430822E+03  0.50004674479E+03  0.00000000000E+00 0.  1.
          5    1    3    3  503    0  0.35493278504E+02 -0.35966259534E+02 -0.36402883827E+03  0.36754922083E+03  0.47000000000E+01 0. -1.
         13    1    6    6    0    0  0.34858788643E+02  0.10614355125E+03 -0.22054344724E+03  0.24722661818E+03  0.00000000000E+00 0. -1.
        -14    1    6    6    0    0  0.69797803705E+02  0.22613105256E+02 -0.14951660699E+03  0.16654819632E+03  0.00000000000E+00 0.  1.
         -5    1    5    5    0  501 -0.19908823164E+02  0.61528852593E+02 -0.35040647390E+02  0.73702767321E+02  0.47000000000E+01 0.  1.
<mgrwt>
<rscale>  2 0.27097649E+03</rscale>
<asrwt>0</asrwt>
<pdfrwt beam="2">  1        2 0.25007958E+00 0.27097649E+03</pdfrwt>
<pdfrwt beam="1">  1       -2 0.87283655E-02 0.27097649E+03</pdfrwt>
<totfact> 0.96518560E+02</totfact>
</mgrwt>
</event>
<event>
12    1  0.1093377E-001  0.1898536E+03  0.7546771E-02  0.1158593E+00
          2   -1    0    0  503    0  0.00000000000E+00  0.00000000000E+00  0.75990488860E+03  0.75990488860E+03  0.00000000000E+00 0.  1.
         -2   -1    0    0    0  501 -0.00000000000E+00 -0.00000000000E+00 -0.48938450478E+02  0.48938450478E+02  0.00000000000E+00 0. -1.
          6    2    1    2  503    0 -0.19376292363E+02  0.75809844967E+02  0.42691774324E+03  0.46734129677E+03  0.17328172111E+03 0.  0.
         24    2    3    3    0    0 -0.26366339752E+02 -0.12011580145E+02  0.30726645491E+03  0.31868066220E+03  0.79405467182E+02 0.  0.
         -6    2    1    2    0  501  0.19376292363E+02 -0.75809844967E+02  0.28404869488E+03  0.34150204231E+03  0.17267718592E+03 0.  0.
        -24    2    5    5    0    0  0.22560144859E+02  0.20747138302E+02  0.18290377199E+03  0.20155286095E+03  0.78932642599E+02 0.  0.
          2    1    4    4  502    0 -0.37232545235E+02 -0.27620521646E+02  0.96501039661E+02  0.10705889172E+03  0.00000000000E+00 0. -1.
         -1    1    4    4    0  502  0.10866205483E+02  0.15608941502E+02  0.21076541525E+03  0.21162177048E+03  0.00000000000E+00 0.  1.
          5    1    3    3  503    0  0.69900473895E+01  0.87821425112E+02  0.11965128834E+03  0.14866063457E+03  0.47000000000E+01 0. -1.
         13    1    6    6    0    0 -0.20270982488E+02  0.30939990742E+02  0.54979216718E+02  0.66263942148E+02  0.00000000000E+00 0. -1.
        -14    1    6    6    0    0  0.42831127347E+02 -0.10192852439E+02  0.12792455527E+03  0.13528891881E+03  0.00000000000E+00 0.  1.
         -5    1    5    5    0  501 -0.31838524965E+01 -0.96556983269E+02  0.10114492289E+03  0.13994918135E+03  0.47000000000E+01 0.  1.
<mgrwt>
<rscale>  2 0.18985364E+03</rscale>
<asrwt>0</asrwt>
<pdfrwt beam="1">  1        2 0.11690844E+00 0.18985364E+03</pdfrwt>
<pdfrwt beam="2">  1       -2 0.75289929E-02 0.18985364E+03</pdfrwt>
<totfact> 0.38868726E+03</totfact>
</mgrwt>
</event>
<event>
12    1  0.1093377E-001  0.2011131E+03  0.7546771E-02  0.1148803E+00
         -2   -1    0    0    0  501 -0.00000000000E+00  0.00000000000E+00  0.10500800632E+03  0.10500800632E+03  0.00000000000E+00 0. -1.
          2   -1    0    0  503    0  0.00000000000E+00 -0.00000000000E+00 -0.46949785045E+03  0.46949785045E+03  0.00000000000E+00 0.  1.
          6    2    1    2  503    0  0.67851735868E+02  0.78442941684E+02 -0.60707401535E+02  0.21033129850E+03  0.17261724528E+03 0.  0.
         24    2    3    3    0    0 -0.24288820078E+02  0.71596553620E+02 -0.39885828801E+01  0.10181462020E+03  0.68075655137E+02 0.  0.
         -6    2    1    2    0  501 -0.67851735868E+02 -0.78442941684E+02 -0.30378244259E+03  0.36417455827E+03  0.17199471882E+03 0.  0.
        -24    2    5    5    0    0  0.68011463905E+01  0.81996106397E+01 -0.90016763700E+02  0.12169189873E+03  0.81193665168E+02 0.  0.
          4    1    4    4  502    0 -0.30968612683E+01  0.52463483289E+02  0.27495327905E+02  0.59312736281E+02  0.00000000000E+00 0. -1.
         -3    1    4    4    0  502 -0.21191958809E+02  0.19133070331E+02 -0.31483910785E+02  0.42501883921E+02  0.00000000000E+00 0.  1.
          5    1    3    3  503    0  0.92140555946E+02  0.68463880636E+01 -0.56718818655E+02  0.10851667830E+03  0.47000000000E+01 0. -1.
         13    1    6    6    0    0 -0.45490136332E+01 -0.34817109735E+02 -0.25811700317E+02  0.43579450760E+02  0.00000000000E+00 0. -1.
        -14    1    6    6    0    0  0.11350160024E+02  0.43016720374E+02 -0.64205063383E+02  0.78112447973E+02  0.00000000000E+00 0.  1.
         -5    1    5    5    0  501 -0.74652882258E+02 -0.86642552323E+02 -0.21376567889E+03  0.24248265954E+03  0.47000000000E+01 0.  1.
<mgrwt>
<rscale>  2 0.20111305E+03</rscale>
<asrwt>0</asrwt>
<pdfrwt beam="2">  1        2 0.72230440E-01 0.20111305E+03</pdfrwt>
<pdfrwt beam="1">  1       -2 0.16155078E-01 0.20111305E+03</pdfrwt>
<totfact> 0.20035969E+03</totfact>
</mgrwt>
</event>
<event>
12    1  0.1093377E-001  0.1879102E+03  0.7546771E-02  0.1160360E+00
          2   -1    0    0  503    0  0.00000000000E+00  0.00000000000E+00  0.39929139457E+03  0.39929139457E+03  0.00000000000E+00 0. -1.
         -2   -1    0    0    0  501 -0.00000000000E+00 -0.00000000000E+00 -0.96070959506E+02  0.96070959506E+02  0.00000000000E+00 0.  1.
          6    2    1    2  503    0  0.72499198253E+02 -0.15556627167E+02  0.80507405383E+02  0.20282955147E+03  0.17076370291E+03 0.  0.
         24    2    3    3    0    0 -0.28114937675E+01  0.32819080639E+02  0.52693259842E+01  0.85804904365E+02  0.79055165964E+02 0.  0.
         -6    2    1    2    0  501 -0.72499198253E+02  0.15556627167E+02  0.22271302969E+03  0.29253280261E+03  0.17457435269E+03 0.  0.
        -24    2    5    5    0    0 -0.10152080624E+03  0.52300777575E+02  0.15309634597E+03  0.20850329011E+03  0.83625865642E+02 0.  0.
          4    1    4    4  502    0 -0.39083048944E+02  0.19458816907E+02 -0.90438361937E+01  0.44586110430E+02  0.00000000000E+00 0. -1.
         -3    1    4    4    0  502  0.36271555177E+02  0.13360263731E+02  0.14313162178E+02  0.41218793935E+02  0.00000000000E+00 0.  1.
          5    1    3    3  503    0  0.75310692020E+02 -0.48375707805E+02  0.75238079399E+02  0.11702464710E+03  0.47000000000E+01 0. -1.
         13    1    6    6    0    0 -0.61360048929E+02 -0.79352716867E+01  0.10405592031E+03  0.12106055795E+03  0.00000000000E+00 0. -1.
        -14    1    6    6    0    0 -0.40160757309E+02  0.60236049261E+02  0.49040425667E+02  0.87442732161E+02  0.00000000000E+00 0.  1.
         -5    1    5    5    0  501  0.29021607984E+02 -0.36744150408E+02  0.69616683713E+02  0.84029512496E+02  0.47000000000E+01 0.  1.
<mgrwt>
<rscale>  2 0.18791018E+03</rscale>
<asrwt>0</asrwt>
<pdfrwt beam="1">  1        2 0.61429444E-01 0.18791018E+03</pdfrwt>
<pdfrwt beam="2">  1       -2 0.14780148E-01 0.18791018E+03</pdfrwt>
<totfact> 0.27641174E+03</totfact>
</mgrwt>
</event>
<event>
12    1  0.1093377E-001  0.2223346E+03  0.7546771E-02  0.1132154E+00
         -2   -1    0    0    0  501 -0.00000000000E+00  0.00000000000E+00  0.11990672847E+03  0.11990672847E+03  0.00000000000E+00 0.  1.
          2   -1    0    0  503    0  0.00000000000E+00 -0.00000000000E+00 -0.49528082329E+03  0.49528082329E+03  0.00000000000E+00 0. -1.
          6    2    1    2  503    0 -0.56679239273E+02  0.12956984442E+03 -0.62702507885E+02  0.23229531763E+03  0.17328770686E+03 0.  0.
         24    2    3    3    0    0 -0.18970259585E+02  0.13526962587E+03 -0.92717326794E+02  0.18353637986E+03  0.80195745615E+02 0.  0.
         -6    2    1    2    0  501  0.56679239273E+02 -0.12956984442E+03 -0.31267158693E+03  0.38289223414E+03  0.16982950551E+03 0.  0.
        -24    2    5    5    0    0 -0.26578600090E+02 -0.31707985616E+02 -0.15591006117E+03  0.18014836325E+03  0.80210144450E+02 0.  0.
          4    1    4    4  502    0 -0.28713572023E+02  0.94301829974E+02 -0.10043062124E+03  0.14072531413E+03  0.00000000000E+00 0. -1.
         -3    1    4    4    0  502  0.97433124381E+01  0.40967795892E+02  0.77132944506E+01  0.42811065729E+02  0.00000000000E+00 0.  1.
          5    1    3    3  503    0 -0.37708979689E+02 -0.56997814498E+01  0.30014818909E+02  0.48758937764E+02  0.47000000000E+01 0. -1.
         13    1    6    6    0    0  0.12288771458E+02 -0.46097535119E+02 -0.97280529305E+02  0.10834896414E+03  0.00000000000E+00 0. -1.
        -14    1    6    6    0    0 -0.38867371548E+02  0.14389549503E+02 -0.58629531863E+02  0.71799399109E+02  0.00000000000E+00 0.  1.
         -5    1    5    5    0  501  0.83257839364E+02 -0.97861858801E+02 -0.15676152576E+03  0.20274387089E+03  0.47000000000E+01 0.  1.
<mgrwt>
<rscale>  2 0.22233458E+03</rscale>
<asrwt>0</asrwt>
<pdfrwt beam="2">  1        2 0.76197051E-01 0.22233458E+03</pdfrwt>
<pdfrwt beam="1">  1       -2 0.18447189E-01 0.22233458E+03</pdfrwt>
<totfact> 0.15145274E+03</totfact>
</mgrwt>
</event>
<event>
12    1  0.1193010E-001  0.2204912E+03  0.7546771E-02  0.1133517E+00
         -1   -1    0    0    0  501 -0.00000000000E+00  0.00000000000E+00  0.13384032030E+03  0.13384032030E+03  0.00000000000E+00 0. -1.
          1   -1    0    0  503    0  0.00000000000E+00 -0.00000000000E+00 -0.42283724279E+03  0.42283724279E+03  0.00000000000E+00 0.  1.
          6    2    1    2  503    0  0.11148504336E+03 -0.78841109512E+02 -0.40643898761E+02  0.22531063660E+03  0.17455119884E+03 0.  0.
         24    2    3    3    0    0  0.88063462377E+02  0.17120362576E+02 -0.36273510774E+02  0.12632394622E+03  0.81201549151E+02 0.  0.
         -6    2    1    2    0  501 -0.11148504336E+03  0.78841109512E+02 -0.24835302373E+03  0.33136692649E+03  0.17169735039E+03 0.  0.
        -24    2    5    5    0    0 -0.88948446439E+02 -0.25662508366E+01 -0.92309560768E+02  0.15386563395E+03  0.85059782121E+02 0.  0.
          2    1    4    4  502    0  0.76735769177E+02  0.36312857945E+02 -0.13612990224E+01  0.84904976641E+02  0.00000000000E+00 0. -1.
         -1    1    4    4    0  502  0.11327693199E+02 -0.19192495369E+02 -0.34912211751E+02  0.41418969580E+02  0.00000000000E+00 0.  1.
          5    1    3    3  503    0  0.23421580984E+02 -0.95961472087E+02 -0.43703879870E+01  0.98986690378E+02  0.47000000000E+01 0. -1.
         11    1    6    6    0    0  0.22532137176E+01  0.21700081561E+02  0.50037060834E-01  0.21816805805E+02  0.00000000000E+00 0. -1.
        -12    1    6    6    0    0 -0.91201660156E+02 -0.24266332398E+02 -0.92359597829E+02  0.13204882815E+03  0.00000000000E+00 0.  1.
         -5    1    5    5    0  501 -0.22536596922E+02  0.81407360348E+02 -0.15604346296E+03  0.17750129254E+03  0.47000000000E+01 0.  1.
<mgrwt>
<rscale>  2 0.22049121E+03</rscale>
<asrwt>0</asrwt>
<pdfrwt beam="2">  1        1 0.65051882E-01 0.22049121E+03</pdfrwt>
<pdfrwt beam="1">  1       -1 0.20590819E-01 0.22049121E+03</pdfrwt>
<totfact> 0.10831578E+03</totfact>
</mgrwt>
</event>
<event>
12    1  0.1093377E-001  0.1968117E+03  0.7546771E-02  0.1152457E+00
         -2   -1    0    0    0  501 -0.00000000000E+00  0.00000000000E+00  0.38224622932E+02  0.38224622932E+02  0.00000000000E+00 0.  1.
          2   -1    0    0  503    0  0.00000000000E+00 -0.00000000000E+00 -0.13975395326E+04  0.13975395326E+04  0.00000000000E+00 0. -1.
          6    2    1    2  503    0  0.66280507645E+02  0.60246990563E+02 -0.10520050469E+04  0.10699648587E+04  0.17345712620E+03 0.  0.
         24    2    3    3    0    0  0.25904832681E+02 -0.14976386349E+02 -0.27395021925E+03  0.28722597736E+03  0.80961021111E+02 0.  0.
         -6    2    1    2    0  501 -0.66280507645E+02 -0.60246990563E+02 -0.30730986276E+03  0.36579929681E+03  0.17705075043E+03 0.  0.
        -24    2    5    5    0    0 -0.63264676530E+02 -0.59548487022E+01 -0.29143447926E+03  0.30895873289E+03  0.80520577539E+02 0.  0.
          4    1    4    4  502    0 -0.51423352449E+01 -0.27535453935E+02 -0.23133772318E+03  0.23302743830E+03  0.00000000000E+00 0. -1.
         -3    1    4    4    0  502  0.31047167926E+02  0.12559067587E+02 -0.42612496070E+02  0.54198539060E+02  0.00000000000E+00 0.  1.
          5    1    3    3  503    0  0.40375674964E+02  0.75223376911E+02 -0.77805482767E+03  0.78273888138E+03  0.47000000000E+01 0. -1.
         11    1    6    6    0    0  0.13194471148E+02 -0.20809005653E+02 -0.74051205994E+02  0.78042872155E+02  0.00000000000E+00 0. -1.
        -12    1    6    6    0    0 -0.76459147677E+02  0.14854156951E+02 -0.21738327327E+03  0.23091586073E+03  0.00000000000E+00 0.  1.
         -5    1    5    5    0  501 -0.30158311156E+01 -0.54292141860E+02 -0.15875383502E+02  0.56840563917E+02  0.47000000000E+01 0.  1.
<mgrwt>
<rscale>  2 0.19681173E+03</rscale>
<asrwt>0</asrwt>
<pdfrwt beam="2">  1        2 0.21500607E+00 0.19681173E+03</pdfrwt>
<pdfrwt beam="1">  1       -2 0.58807116E-02 0.19681173E+03</pdfrwt>
<totfact> 0.23655153E+03</totfact>
</mgrwt>
</event>
<event>
12    1  0.1093377E-001  0.6713925E+03  0.7546771E-02  0.9767446E-01
          2   -1    0    0  503    0  0.00000000000E+00  0.00000000000E+00  0.14103809690E+04  0.14103809690E+04  0.00000000000E+00 0. -1.
         -2   -1    0    0    0  501 -0.00000000000E+00 -0.00000000000E+00 -0.34298429004E+03  0.34298429004E+03  0.00000000000E+00 0.  1.
          6    2    1    2  503    0  0.50890465954E+03 -0.40364675216E+03  0.76178087050E+03  0.10147160385E+04  0.16560160363E+03 0.  0.
         24    2    3    3    0    0  0.30872503369E+03 -0.19448006855E+03  0.49650410925E+03  0.62201203522E+03  0.85141047526E+02 0.  0.
         -6    2    1    2    0  501 -0.50890465954E+03  0.40364675216E+03  0.30561580851E+03  0.73864922057E+03  0.17403159372E+03 0.  0.
        -24    2    5    5    0    0 -0.38042514238E+03  0.23220392846E+03  0.25145566155E+03  0.51761745894E+03  0.77819860801E+02 0.  0.
          4    1    4    4  502    0  0.10706796488E+03 -0.11091666697E+03  0.23939344346E+03  0.28473720672E+03  0.00000000000E+00 0. -1.
         -3    1    4    4    0  502  0.20165706881E+03 -0.83563401576E+02  0.25711066578E+03  0.33727482850E+03  0.00000000000E+00 0.  1.
          5    1    3    3  503    0  0.20017962585E+03 -0.20916668361E+03  0.26527676126E+03  0.39270400329E+03  0.47000000000E+01 0. -1.
         13    1    6    6    0    0 -0.33099001816E+03  0.22373297956E+03  0.24037614179E+03  0.46625264375E+03  0.00000000000E+00 0. -1.
        -14    1    6    6    0    0 -0.49435124218E+02  0.84709488999E+01  0.11079519757E+02  0.51364815192E+02  0.00000000000E+00 0.  1.
         -5    1    5    5    0  501 -0.12847951716E+03  0.17144282370E+03  0.54160146959E+02  0.22103176163E+03  0.47000000000E+01 0.  1.
<mgrwt>
<rscale>  2 0.67139245E+03</rscale>
<asrwt>0</asrwt>
<pdfrwt beam="1">  1        2 0.21698168E+00 0.67139245E+03</pdfrwt>
<pdfrwt beam="2">  1       -2 0.52766815E-01 0.67139245E+03</pdfrwt>
<totfact> 0.49769731E+01</totfact>
</mgrwt>
</event>
<event>
12    1  0.1093377E-001  0.3735390E+03  0.7546771E-02  0.1053348E+00
         -1   -1    0    0    0  501 -0.00000000000E+00  0.00000000000E+00  0.65638944550E+03  0.65638944550E+03  0.00000000000E+00 0. -1.
          1   -1    0    0  503    0  0.00000000000E+00 -0.00000000000E+00 -0.22222549017E+03  0.22222549017E+03  0.00000000000E+00 0.  1.
          6    2    1    2  503    0 -0.11110556501E+03 -0.31176962358E+03  0.30852571994E+03  0.48432902852E+03  0.17274762875E+03 0.  0.
         24    2    3    3    0    0 -0.27983770410E+02 -0.74342767307E+02  0.51884360508E+02  0.12493005497E+03  0.81274801215E+02 0.  0.
         -6    2    1    2    0  501  0.11110556501E+03  0.31176962358E+03  0.12563823539E+03  0.39428590715E+03  0.17358475055E+03 0.  0.
        -24    2    5    5    0    0 -0.58452172543E-01  0.67145775222E+02  0.39326575524E+02  0.11202705693E+03  0.80591087560E+02 0.  0.
          2    1    4    4  502    0 -0.55688619327E+02 -0.41537696415E+02  0.40860250746E+02  0.80598775655E+02  0.00000000000E+00 0. -1.
         -1    1    4    4    0  502  0.27704848917E+02 -0.32805070891E+02  0.11024109762E+02  0.44331279316E+02  0.00000000000E+00 0.  1.
          5    1    3    3  503    0 -0.83121794603E+02 -0.23742685627E+03  0.25664135943E+03  0.35939897355E+03  0.47000000000E+01 0. -1.
         13    1    6    6    0    0  0.29413765411E+02  0.23016426970E+02  0.45203110754E+02  0.58636564769E+02  0.00000000000E+00 0. -1.
        -14    1    6    6    0    0 -0.29472217583E+02  0.44129348252E+02 -0.58765352300E+01  0.53390492156E+02  0.00000000000E+00 0.  1.
         -5    1    5    5    0  501  0.11116401719E+03  0.24462384836E+03  0.86311659867E+02  0.28225885022E+03  0.47000000000E+01 0.  1.
<mgrwt>
<rscale>  2 0.37353899E+03</rscale>
<asrwt>0</asrwt>
<pdfrwt beam="2">  1        1 0.34188537E-01 0.37353899E+03</pdfrwt>
<pdfrwt beam="1">  1       -1 0.10098299E+00 0.37353899E+03</pdfrwt>
<totfact> 0.12598906E+02</totfact>
</mgrwt>
</event>
<event>
12    1  0.1093377E-001  0.2084540E+03  0.7546771E-02  0.1142796E+00
         -2   -1    0    0    0  501 -0.00000000000E+00  0.00000000000E+00  0.15150612040E+03  0.15150612040E+03  0.00000000000E+00 0. -1.
          2   -1    0    0  503    0  0.00000000000E+00 -0.00000000000E+00 -0.50502518757E+03  0.50502518757E+03  0.00000000000E+00 0.  1.
          6    2    1    2  503    0 -0.59062229462E+02  0.96410151759E+02  0.36955910425E+02  0.21580681097E+03  0.18006547708E+03 0.  0.
         24    2    3    3    0    0 -0.75583325755E+02  0.12437476039E+03  0.58439111912E+02  0.17658202411E+03  0.81142844924E+02 0.  0.
         -6    2    1    2    0  501  0.59062229462E+02 -0.96410151759E+02 -0.39047497760E+03  0.44072449700E+03  0.17024720207E+03 0.  0.
        -24    2    5    5    0    0 -0.75273579116E+01 -0.10250874092E+03 -0.21307448301E+03  0.25108169746E+03  0.84122413220E+02 0.  0.
          2    1    4    4  502    0  0.10814895064E+02  0.54324018820E+02  0.18386364422E+02  0.58361968547E+02  0.00000000000E+00 0. -1.
         -1    1    4    4    0  502 -0.86398220818E+02  0.70050741569E+02  0.40052747489E+02  0.11822005556E+03  0.00000000000E+00 0.  1.
          5    1    3    3  503    0  0.16521096292E+02 -0.27964608630E+02 -0.21483201487E+02  0.39224786866E+02  0.47000000000E+01 0. -1.
         11    1    6    6    0    0 -0.10998966234E+02 -0.35801131897E+02 -0.12196152366E+02  0.39388379452E+02  0.00000000000E+00 0. -1.
        -12    1    6    6    0    0  0.34716083228E+01 -0.66707609026E+02 -0.20087833064E+03  0.21169331801E+03  0.00000000000E+00 0.  1.
         -5    1    5    5    0  501  0.66589587374E+02  0.60985891639E+01 -0.17740049459E+03  0.18964279954E+03  0.47000000000E+01 0.  1.
<mgrwt>
<rscale>  2 0.20845405E+03</rscale>
<asrwt>0</asrwt>
<pdfrwt beam="2">  1        2 0.77696183E-01 0.20845405E+03</pdfrwt>
<pdfrwt beam="1">  1       -2 0.23308634E-01 0.20845405E+03</pdfrwt>
<totfact> 0.99078736E+02</totfact>
</mgrwt>
</event>
<event>
12    1  0.1093377E-001  0.2067457E+03  0.7546771E-02  0.1144169E+00
          2   -1    0    0  503    0  0.00000000000E+00  0.00000000000E+00  0.10146759104E+04  0.10146759104E+04  0.00000000000E+00 0.  1.
         -2   -1    0    0    0  501 -0.00000000000E+00 -0.00000000000E+00 -0.42836806155E+02  0.42836806155E+02  0.00000000000E+00 0. -1.
          6    2    1    2  503    0  0.11222451246E+03  0.16828669266E+02  0.41739341067E+03  0.46571525152E+03  0.17261486297E+03 0.  0.
         24    2    3    3    0    0  0.60212310702E+02 -0.55477729903E+02  0.26620441926E+03  0.29017697758E+03  0.81452959490E+02 0.  0.
         -6    2    1    2    0  501 -0.11222451246E+03 -0.16828669266E+02  0.55444569355E+03  0.59179746501E+03  0.17302215809E+03 0.  0.
        -24    2    5    5    0    0 -0.86545855779E+02 -0.55441556162E+02  0.51336615365E+03  0.52966883198E+03  0.80251557990E+02 0.  0.
          2    1    4    4  502    0 -0.17240016034E+02 -0.28356041966E+02  0.68408556598E+02  0.76032978927E+02  0.00000000000E+00 0. -1.
         -1    1    4    4    0  502  0.77452326736E+02 -0.27121687937E+02  0.19779586266E+03  0.21414399866E+03  0.00000000000E+00 0.  1.
          5    1    3    3  503    0  0.52012201763E+02  0.72306399169E+02  0.15118899141E+03  0.17553827394E+03  0.47000000000E+01 0. -1.
         11    1    6    6    0    0 -0.91645640180E+02 -0.39319192629E+02  0.31100165314E+03  0.32659906695E+03  0.00000000000E+00 0. -1.
        -12    1    6    6    0    0  0.50997844010E+01 -0.16122363533E+02  0.20236450050E+03  0.20306976503E+03  0.00000000000E+00 0.  1.
         -5    1    5    5    0  501 -0.25678656686E+02  0.38612886896E+02  0.41079539902E+02  0.62128633030E+02  0.47000000000E+01 0.  1.
<mgrwt>
<rscale>  2 0.20674566E+03</rscale>
<asrwt>0</asrwt>
<pdfrwt beam="1">  1        2 0.15610397E+00 0.20674566E+03</pdfrwt>
<pdfrwt beam="2">  1       -2 0.65902786E-02 0.20674566E+03</pdfrwt>
<totfact> 0.32700541E+03</totfact>
</mgrwt>
</event>
<event>
12    1  0.1093377E-001  0.1888636E+03  0.7546771E-02  0.1159490E+00
          2   -1    0    0  503    0  0.00000000000E+00  0.00000000000E+00  0.72982617341E+03  0.72982617341E+03  0.00000000000E+00 0. -1.
         -2   -1    0    0    0  501 -0.00000000000E+00 -0.00000000000E+00 -0.54747097913E+02  0.54747097913E+02  0.00000000000E+00 0.  1.
          6    2    1    2  503    0  0.73980711105E+02  0.94335687724E+01  0.20914755757E+03  0.28184163266E+03  0.17357957031E+03 0.  0.
         24    2    3    3    0    0 -0.20548919818E+02  0.33028908554E+02  0.11322702508E+03  0.14503728428E+03  0.81867500990E+02 0.  0.
         -6    2    1    2    0  501 -0.73980711105E+02 -0.94335687724E+01  0.46593151792E+03  0.50273163866E+03  0.17344965632E+03 0.  0.
        -24    2    5    5    0    0 -0.44537038541E+02 -0.69238444857E+02  0.35614710100E+03  0.37420825069E+03  0.80084625736E+02 0.  0.
          4    1    4    4  502    0  0.10257169593E+02  0.22962328418E+02  0.10957388042E+03  0.11242292170E+03  0.00000000000E+00 0. -1.
         -3    1    4    4    0  502 -0.30806089411E+02  0.10066580137E+02  0.36531446562E+01  0.32614362577E+02  0.00000000000E+00 0.  1.
          5    1    3    3  503    0  0.94529630922E+02 -0.23595339782E+02  0.95920532496E+02  0.13680434838E+03  0.47000000000E+01 0. -1.
         13    1    6    6    0    0 -0.48030620814E+02 -0.72241863879E+01  0.10823535209E+03  0.11863397846E+03  0.00000000000E+00 0. -1.
        -14    1    6    6    0    0  0.34935822729E+01 -0.62014258469E+02  0.24791174892E+03  0.25557427222E+03  0.00000000000E+00 0.  1.
         -5    1    5    5    0  501 -0.29443672563E+02  0.59804876085E+02  0.10978441692E+03  0.12852338797E+03  0.47000000000E+01 0.  1.
<mgrwt>
<rscale>  2 0.18886359E+03</rscale>
<asrwt>0</asrwt>
<pdfrwt beam="1">  1        2 0.11228094E+00 0.18886359E+03</pdfrwt>
<pdfrwt beam="2">  1       -2 0.84226310E-02 0.18886359E+03</pdfrwt>
<totfact> 0.34297832E+03</totfact>
</mgrwt>
</event>
<event>
12    1  0.1093377E-001  0.2296701E+03  0.7546771E-02  0.1126872E+00
          1   -1    0    0  503    0  0.00000000000E+00  0.00000000000E+00  0.25976013905E+03  0.25976013905E+03  0.00000000000E+00 0.  1.
         -1   -1    0    0    0  501 -0.00000000000E+00 -0.00000000000E+00 -0.20369851495E+03  0.20369851495E+03  0.00000000000E+00 0. -1.
          6    2    1    2  503    0 -0.14934408742E+03 -0.20281377625E+02  0.15123097503E+02  0.23024453030E+03  0.17340370506E+03 0.  0.
         24    2    3    3    0    0 -0.16537176341E+03  0.19655121410E+02  0.20634181083E+02  0.18660656065E+03  0.81621658385E+02 0.  0.
         -6    2    1    2    0  501  0.14934408742E+03  0.20281377625E+02  0.40938526596E+02  0.23321412371E+03  0.17319894287E+03 0.  0.
        -24    2    5    5    0    0  0.10780587700E+03  0.14503998397E+02 -0.40450842761E+02  0.14153467956E+03  0.81014330534E+02 0.  0.
          2    1    4    4  502    0 -0.99335587282E+02  0.47627606875E+02 -0.54395188859E+01  0.11029748956E+03  0.00000000000E+00 0. -1.
         -1    1    4    4    0  502 -0.66036176129E+02 -0.27972485465E+02  0.26073699969E+02  0.76309071092E+02  0.00000000000E+00 0.  1.
          5    1    3    3  503    0  0.16027675991E+02 -0.39936499035E+02 -0.55110835803E+01  0.43637969649E+02  0.47000000000E+01 0. -1.
         11    1    6    6    0    0  0.79870975519E+02 -0.16286997055E+02  0.27730067605E+01  0.81561808280E+02  0.00000000000E+00 0. -1.
        -12    1    6    6    0    0  0.27934901481E+02  0.30790995452E+02 -0.43223849522E+02  0.59972871276E+02  0.00000000000E+00 0.  1.
         -5    1    5    5    0  501  0.41538210420E+02  0.57773792278E+01  0.81389369358E+02  0.91679444152E+02  0.47000000000E+01 0.  1.
<mgrwt>
<rscale>  2 0.22967006E+03</rscale>
<asrwt>0</asrwt>
<pdfrwt beam="1">  1        1 0.39963098E-01 0.22967006E+03</pdfrwt>
<pdfrwt beam="2">  1       -1 0.31338233E-01 0.22967006E+03</pdfrwt>
<totfact> 0.99677087E+02</totfact>
</mgrwt>
</event>
<event>
12    1  0.1093377E-001  0.1769196E+03  0.7546771E-02  0.1170818E+00
          1   -1    0    0  503    0  0.00000000000E+00  0.00000000000E+00  0.19334807029E+03  0.19334807029E+03  0.00000000000E+00 0. -1.
         -1   -1    0    0    0  501 -0.00000000000E+00 -0.00000000000E+00 -0.28139346226E+03  0.28139346226E+03  0.00000000000E+00 0.  1.
          6    2    1    2  503    0 -0.75750122606E+01 -0.34322060844E+02  0.11051873828E+03  0.20946450230E+03  0.17442935974E+03 0.  0.
         24    2    3    3    0    0  0.97117248196E+01 -0.40084972186E+01 -0.12447177797E+02  0.81556527820E+02  0.79913386526E+02 0.  0.
         -6    2    1    2    0  501  0.75750122606E+01  0.34322060844E+02 -0.19856413025E+03  0.26527703025E+03  0.17236242132E+03 0.  0.
        -24    2    5    5    0    0  0.27888014665E+02 -0.41382938992E+02 -0.58824435962E+02  0.10498624066E+03  0.71214517203E+02 0.  0.
          4    1    4    4  502    0  0.29107102610E+02  0.52511921154E+01 -0.38008341082E+02  0.48160486218E+02  0.00000000000E+00 0. -1.
         -3    1    4    4    0  502 -0.19395377791E+02 -0.92596893340E+01  0.25561163285E+02  0.33396041602E+02  0.00000000000E+00 0.  1.
          5    1    3    3  503    0 -0.17286737080E+02 -0.30313563625E+02  0.12296591607E+03  0.12790797448E+03  0.47000000000E+01 0. -1.
         11    1    6    6    0    0  0.37561516167E+02 -0.17900696882E+02 -0.66509163037E+02  0.78452349955E+02  0.00000000000E+00 0. -1.
        -12    1    6    6    0    0 -0.96735015016E+01 -0.23482242111E+02  0.76847270747E+01  0.26533890707E+02  0.00000000000E+00 0.  1.
         -5    1    5    5    0  501 -0.20313002404E+02  0.75704999836E+02 -0.13973969428E+03  0.16029078958E+03  0.47000000000E+01 0.  1.
<mgrwt>
<rscale>  2 0.17691957E+03</rscale>
<asrwt>0</asrwt>
<pdfrwt beam="1">  1        1 0.29745857E-01 0.17691957E+03</pdfrwt>
<pdfrwt beam="2">  1       -1 0.43291302E-01 0.17691957E+03</pdfrwt>
<totfact> 0.81840326E+02</totfact>
</mgrwt>
</event>
<event>
12    1  0.1093377E-001  0.1856789E+03  0.7546771E-02  0.1162417E+00
         -2   -1    0    0    0  501 -0.00000000000E+00  0.00000000000E+00  0.32004647811E+02  0.32004647811E+02  0.00000000000E+00 0. -1.
          2   -1    0    0  503    0  0.00000000000E+00 -0.00000000000E+00 -0.13552617930E+04  0.13552617930E+04  0.00000000000E+00 0.  1.
          6    2    1    2  503    0  0.93706060893E+01 -0.68728746117E+02 -0.35044166183E+03  0.39708397619E+03  0.17336342464E+03 0.  0.
         24    2    3    3    0    0  0.52212731212E+02 -0.30915366842E+02 -0.31393840485E+03  0.32911429834E+03  0.77954923673E+02 0.  0.
         -6    2    1    2    0  501 -0.93706060893E+01  0.68728746117E+02 -0.97281548340E+03  0.99018246466E+03  0.17111370424E+03 0.  0.
        -24    2    5    5    0    0  0.43253086099E+02 -0.62139881852E+01 -0.40700440492E+03  0.41698971093E+03  0.79488302832E+02 0.  0.
          4    1    4    4  502    0  0.44544550746E-01 -0.43612070923E+02 -0.11292689090E+03  0.12105576155E+03  0.00000000000E+00 0. -1.
         -3    1    4    4    0  502  0.52168186661E+02  0.12696704080E+02 -0.20101151395E+03  0.20805853680E+03  0.00000000000E+00 0.  1.
          5    1    3    3  503    0 -0.42842125122E+02 -0.37813379274E+02 -0.36503256981E+02  0.67969677853E+02  0.47000000000E+01 0. -1.
         13    1    6    6    0    0 -0.12144032870E+02  0.24182769638E+02 -0.10366399040E+03  0.10713779346E+03  0.00000000000E+00 0. -1.
        -14    1    6    6    0    0  0.55397118969E+02 -0.30396757823E+02 -0.30334041452E+03  0.30985191747E+03  0.00000000000E+00 0.  1.
         -5    1    5    5    0  501 -0.52623692188E+02  0.74942734302E+02 -0.56581107848E+03  0.57319275373E+03  0.47000000000E+01 0.  1.
<mgrwt>
<rscale>  2 0.18567892E+03</rscale>
<asrwt>0</asrwt>
<pdfrwt beam="2">  1        2 0.20850177E+00 0.18567892E+03</pdfrwt>
<pdfrwt beam="1">  1       -2 0.49237931E-02 0.18567892E+03</pdfrwt>
<totfact> 0.32638331E+03</totfact>
</mgrwt>
</event>
<event>
12    1  0.1093377E-001  0.2558092E+03  0.7546771E-02  0.1109688E+00
          1   -1    0    0  503    0  0.00000000000E+00  0.00000000000E+00  0.43358890170E+03  0.43358890170E+03  0.00000000000E+00 0. -1.
         -1   -1    0    0    0  501 -0.00000000000E+00 -0.00000000000E+00 -0.16287704097E+03  0.16287704097E+03  0.00000000000E+00 0.  1.
          6    2    1    2  503    0 -0.16610459305E+02 -0.18759496225E+03  0.54878083435E+02  0.26225846701E+03  0.17406930304E+03 0.  0.
         24    2    3    3    0    0  0.32468004130E+02 -0.15222566368E+03  0.84168373567E+02  0.19488121603E+03  0.81655062773E+02 0.  0.
         -6    2    1    2    0  501  0.16610459305E+02  0.18759496225E+03  0.21583377730E+03  0.33420747566E+03  0.17217038115E+03 0.  0.
        -24    2    5    5    0    0 -0.38450943614E+02  0.12289651604E+03  0.19106663561E+03  0.24558948460E+03  0.85004158620E+02 0.  0.
          4    1    4    4  502    0  0.43567338130E+02 -0.15502623870E+03  0.67377199233E+02  0.17455925817E+03  0.00000000000E+00 0. -1.
         -3    1    4    4    0  502 -0.11099334000E+02  0.28005750164E+01  0.16791174335E+02  0.20321957859E+02  0.00000000000E+00 0.  1.
          5    1    3    3  503    0 -0.49078463434E+02 -0.35369298566E+02 -0.29290290133E+02  0.67377250984E+02  0.47000000000E+01 0. -1.
         11    1    6    6    0    0 -0.19872458015E+02  0.97645972204E+02  0.18961822904E+03  0.21420719703E+03  0.00000000000E+00 0. -1.
        -12    1    6    6    0    0 -0.18578485599E+02  0.25250543839E+02  0.14484065645E+01  0.31382287566E+02  0.00000000000E+00 0.  1.
         -5    1    5    5    0  501  0.55061402919E+02  0.64698446206E+02  0.24767141691E+02  0.88617991065E+02  0.47000000000E+01 0.  1.
<mgrwt>
<rscale>  2 0.25580917E+03</rscale>
<asrwt>0</asrwt>
<pdfrwt beam="1">  1        1 0.66705984E-01 0.25580917E+03</pdfrwt>
<pdfrwt beam="2">  1       -1 0.25058007E-01 0.25580917E+03</pdfrwt>
<totfact> 0.75897622E+02</totfact>
</mgrwt>
</event>
<event>
12    1  0.1093377E-001  0.2126755E+03  0.7546771E-02  0.1139465E+00
         -2   -1    0    0    0  501 -0.00000000000E+00  0.00000000000E+00  0.11813650067E+04  0.11813650067E+04  0.00000000000E+00 0. -1.
          2   -1    0    0  503    0  0.00000000000E+00 -0.00000000000E+00 -0.38768955155E+02  0.38768955155E+02  0.00000000000E+00 0.  1.
          6    2    1    2  503    0  0.10658187265E+03  0.42219511324E+02  0.64545141072E+03  0.68036127742E+03  0.18204878879E+03 0.  0.
         24    2    3    3    0    0  0.10189667417E+03 -0.34112776234E+02  0.47267154735E+03  0.49135455692E+03  0.80400840931E+02 0.  0.
         -6    2    1    2    0  501 -0.10658187265E+03 -0.42219511324E+02  0.49714464087E+03  0.53977268448E+03  0.17623726691E+03 0.  0.
        -24    2    5    5    0    0 -0.59566771956E+02 -0.94039707011E+02  0.37071848390E+03  0.39519946587E+03  0.79741812736E+02 0.  0.
          2    1    4    4  502    0  0.80005191605E+02 -0.46085385887E+02  0.44331111977E+03  0.45282385360E+03  0.00000000000E+00 0. -1.
         -1    1    4    4    0  502  0.21891482565E+02  0.11972609653E+02  0.29360427582E+02  0.38530703323E+02  0.00000000000E+00 0.  1.
          5    1    3    3  503    0  0.46851984795E+01  0.76332287558E+02  0.17277986337E+03  0.18900672050E+03  0.47000000000E+01 0. -1.
         11    1    6    6    0    0 -0.61569324889E+02 -0.35629201490E+02  0.26521766038E+03  0.27459174996E+03  0.00000000000E+00 0. -1.
        -12    1    6    6    0    0  0.20025529330E+01 -0.58410505520E+02  0.10550082352E+03  0.12060771591E+03  0.00000000000E+00 0.  1.
         -5    1    5    5    0  501 -0.47015100694E+02  0.51820195686E+02  0.12642615697E+03  0.14457321861E+03  0.47000000000E+01 0.  1.
<mgrwt>
<rscale>  2 0.21267551E+03</rscale>
<asrwt>0</asrwt>
<pdfrwt beam="2">  1        2 0.59644555E-02 0.21267551E+03</pdfrwt>
<pdfrwt beam="1">  1       -2 0.18174844E+00 0.21267551E+03</pdfrwt>
<totfact> 0.23526935E+02</totfact>
</mgrwt>
</event>
<event>
12    1  0.1093377E-001  0.1811764E+03  0.7546771E-02  0.1166669E+00
          2   -1    0    0  503    0  0.00000000000E+00  0.00000000000E+00  0.18825387006E+04  0.18825387006E+04  0.00000000000E+00 0.  1.
         -2   -1    0    0    0  501 -0.00000000000E+00 -0.00000000000E+00 -0.17647767955E+02  0.17647767955E+02  0.00000000000E+00 0. -1.
          6    2    1    2  503    0 -0.46234860913E+02 -0.21764970679E+02  0.10247580787E+04  0.10402779822E+04  0.17157442714E+03 0.  0.
         24    2    3    3    0    0 -0.93856616038E+02 -0.19024013023E+01  0.84064162609E+03  0.84901033896E+03  0.72989921511E+02 0.  0.
         -6    2    1    2    0  501  0.46234860913E+02  0.21764970679E+02  0.84013285390E+03  0.85990848632E+03  0.17609093201E+03 0.  0.
        -24    2    5    5    0    0  0.18286924143E+01 -0.45617392017E+02  0.32107254722E+03  0.33459145579E+03  0.82338151153E+02 0.  0.
          4    1    4    4  502    0 -0.74674205524E+02 -0.56907598414E+01  0.34736794702E+03  0.35534928217E+03  0.00000000000E+00 0. -1.
         -3    1    4    4    0  502 -0.19182410514E+02  0.37883585391E+01  0.49327367907E+03  0.49366105680E+03  0.00000000000E+00 0.  1.
          5    1    3    3  503    0  0.47621755125E+02 -0.19862569377E+02  0.18411645262E+03  0.19126764324E+03  0.47000000000E+01 0. -1.
         11    1    6    6    0    0 -0.47914392603E+01 -0.44067289917E+01 -0.34693546015E+01  0.73765555608E+01  0.00000000000E+00 0. -1.
        -12    1    6    6    0    0  0.66201316745E+01 -0.41210663026E+02  0.32454190182E+03  0.32721490023E+03  0.00000000000E+00 0.  1.
         -5    1    5    5    0  501  0.44406168499E+02  0.67382362697E+02  0.51906030667E+03  0.52531703053E+03  0.47000000000E+01 0.  1.
<mgrwt>
<rscale>  2 0.18117640E+03</rscale>
<asrwt>0</asrwt>
<pdfrwt beam="1">  1        2 0.28962118E+00 0.18117640E+03</pdfrwt>
<pdfrwt beam="2">  1       -2 0.27150427E-02 0.18117640E+03</pdfrwt>
<totfact> 0.41991762E+03</totfact>
</mgrwt>
</event>
<event>
12    1  0.1093377E-001  0.2743859E+03  0.7546771E-02  0.1098795E+00
         -2   -1    0    0    0  501 -0.00000000000E+00  0.00000000000E+00  0.22692627619E+03  0.22692627619E+03  0.00000000000E+00 0.  1.
          2   -1    0    0  503    0  0.00000000000E+00 -0.00000000000E+00 -0.34313382920E+03  0.34313382920E+03  0.00000000000E+00 0. -1.
          6    2    1    2  503    0  0.73523912858E+02  0.19922663226E+03 -0.63380336073E+01  0.27494547046E+03  0.17452170150E+03 0.  0.
         24    2    3    3    0    0 -0.23037585092E+02  0.12472915896E+03  0.18224356843E+02  0.15044889445E+03  0.78833046603E+02 0.  0.
         -6    2    1    2    0  501 -0.73523912858E+02 -0.19922663226E+03 -0.10986951941E+03  0.29511463493E+03  0.17298647256E+03 0.  0.
        -24    2    5    5    0    0 -0.91394367422E+01 -0.19127119587E+03 -0.71376900849E+02  0.21953407250E+03  0.80201916069E+02 0.  0.
          2    1    4    4  502    0 -0.31666296494E+02  0.17860106626E+02  0.23181530100E+02  0.43117526368E+02  0.00000000000E+00 0. -1.
         -1    1    4    4    0  502  0.86287114024E+01  0.10686905234E+03 -0.49571732573E+01  0.10733136808E+03  0.00000000000E+00 0.  1.
          5    1    3    3  503    0  0.96561497950E+02  0.74497473303E+02 -0.24562390450E+02  0.12449657601E+03  0.47000000000E+01 0. -1.
         11    1    6    6    0    0 -0.29894556293E+02 -0.26431285526E+02 -0.34823316912E+01  0.40055261633E+02  0.00000000000E+00 0. -1.
        -12    1    6    6    0    0  0.20755119551E+02 -0.16483991035E+03 -0.67894569158E+02  0.17947881087E+03  0.00000000000E+00 0.  1.
         -5    1    5    5    0  501 -0.64384476115E+02 -0.79554363933E+01 -0.38492618557E+02  0.75580562423E+02  0.47000000000E+01 0.  1.
<mgrwt>
<rscale>  2 0.27438589E+03</rscale>
<asrwt>0</asrwt>
<pdfrwt beam="2">  1        2 0.52789820E-01 0.27438589E+03</pdfrwt>
<pdfrwt beam="1">  1       -2 0.34911735E-01 0.27438589E+03</pdfrwt>
<totfact> 0.73105963E+02</totfact>
</mgrwt>
</event>
<event>
12    1  0.1093377E-001  0.1901838E+03  0.7546771E-02  0.1158296E+00
          1   -1    0    0  503    0  0.00000000000E+00  0.00000000000E+00  0.17158417051E+03  0.17158417051E+03  0.00000000000E+00 0.  1.
         -1   -1    0    0    0  501 -0.00000000000E+00 -0.00000000000E+00 -0.21153460848E+03  0.21153460848E+03  0.00000000000E+00 0. -1.
          6    2    1    2  503    0 -0.79008640004E+02 -0.10798821801E+02 -0.86783305068E+01  0.19033333302E+03  0.17260499555E+03 0.  0.
         24    2    3    3    0    0 -0.23095348592E+02 -0.69748272211E+02 -0.21892055107E+02  0.10788318822E+03  0.75903251708E+02 0.  0.
         -6    2    1    2    0  501  0.79008640004E+02  0.10798821801E+02 -0.31272107464E+02  0.19278544597E+03  0.17271162012E+03 0.  0.
        -24    2    5    5    0    0 -0.34958572547E+01 -0.10366735725E+02 -0.62990268080E+02  0.10177388294E+03  0.79186230794E+02 0.  0.
          4    1    4    4  502    0 -0.29650658302E+02 -0.34287215392E+02 -0.45939750867E+02  0.64538634839E+02  0.00000000000E+00 0. -1.
         -3    1    4    4    0  502  0.65553097101E+01 -0.35461056819E+02  0.24047695760E+02  0.43344553377E+02  0.00000000000E+00 0.  1.
          5    1    3    3  503    0 -0.55913291412E+02  0.58949450410E+02  0.13213724600E+02  0.82450144802E+02  0.47000000000E+01 0. -1.
         11    1    6    6    0    0 -0.17168151991E+02  0.29314935111E+02 -0.44307510373E+02  0.55832484619E+02  0.00000000000E+00 0. -1.
        -12    1    6    6    0    0  0.13672294736E+02 -0.39681670836E+02 -0.18682757708E+02  0.45941398316E+02  0.00000000000E+00 0.  1.
         -5    1    5    5    0  501  0.82504497259E+02  0.21165557526E+02  0.31718160617E+02  0.91011563036E+02  0.47000000000E+01 0.  1.
<mgrwt>
<rscale>  2 0.19018378E+03</rscale>
<asrwt>0</asrwt>
<pdfrwt beam="1">  1        1 0.26397565E-01 0.19018378E+03</pdfrwt>
<pdfrwt beam="2">  1       -1 0.32543786E-01 0.19018378E+03</pdfrwt>
<totfact> 0.15686397E+03</totfact>
</mgrwt>
</event>
<event>
12    1  0.1093377E-001  0.2374115E+03  0.7546771E-02  0.1121529E+00
         -2   -1    0    0    0  501 -0.00000000000E+00  0.00000000000E+00  0.32232118017E+02  0.32232118017E+02  0.00000000000E+00 0.  1.
          2   -1    0    0  503    0  0.00000000000E+00 -0.00000000000E+00 -0.17493784395E+04  0.17493784395E+04  0.00000000000E+00 0. -1.
          6    2    1    2  503    0  0.14250970837E+03 -0.78382708727E+02 -0.84173446351E+03  0.87462897821E+03  0.17322262108E+03 0.  0.
         24    2    3    3    0    0  0.27967130383E+02 -0.39740887430E+02 -0.19553095942E+03  0.21719894298E+03  0.81126606135E+02 0.  0.
         -6    2    1    2    0  501 -0.14250970837E+03  0.78382708727E+02 -0.87541185802E+03  0.90698157936E+03  0.17267541263E+03 0.  0.
        -24    2    5    5    0    0 -0.83509988143E+02  0.11578351888E+03 -0.54109997558E+03  0.56541707252E+03  0.80793198769E+02 0.  0.
          2    1    4    4  502    0 -0.70113519279E+01 -0.54386555358E+02 -0.13572381738E+03  0.14638309692E+03  0.00000000000E+00 0. -1.
         -1    1    4    4    0  502  0.34978482311E+02  0.14645667928E+02 -0.59807142043E+02  0.70815846060E+02  0.00000000000E+00 0.  1.
          5    1    3    3  503    0  0.11454257798E+03 -0.38641821297E+02 -0.64620350409E+03  0.65743003523E+03  0.47000000000E+01 0. -1.
         13    1    6    6    0    0 -0.89975993813E+02  0.11852617155E+03 -0.53710187784E+03  0.55733523125E+03  0.00000000000E+00 0. -1.
        -14    1    6    6    0    0  0.64660056701E+01 -0.27426526652E+01 -0.39980977347E+01  0.80818412793E+01  0.00000000000E+00 0.  1.
         -5    1    5    5    0  501 -0.58999720223E+02 -0.37400810155E+02 -0.33431188244E+03  0.34156450684E+03  0.47000000000E+01 0.  1.
<mgrwt>
<rscale>  2 0.23741151E+03</rscale>
<asrwt>0</asrwt>
<pdfrwt beam="2">  1        2 0.26913517E+00 0.23741151E+03</pdfrwt>
<pdfrwt beam="1">  1       -2 0.49587870E-02 0.23741151E+03</pdfrwt>
<totfact> 0.19980471E+03</totfact>
</mgrwt>
</event>
<event>
12    1  0.1093377E-001  0.1789186E+03  0.7546771E-02  0.1168854E+00
         -1   -1    0    0    0  501 -0.00000000000E+00  0.00000000000E+00  0.11520879037E+03  0.11520879037E+03  0.00000000000E+00 0. -1.
          1   -1    0    0  503    0  0.00000000000E+00 -0.00000000000E+00 -0.27876820756E+03  0.27876820756E+03  0.00000000000E+00 0.  1.
          6    2    1    2  503    0 -0.35013523606E+02 -0.32425585784E+02 -0.70742501106E+02  0.19280325089E+03  0.17289079398E+03 0.  0.
         24    2    3    3    0    0 -0.12412924828E+02  0.21617497512E+02  0.17417886944E+02  0.86851441385E+02  0.81353507506E+02 0.  0.
         -6    2    1    2    0  501  0.35013523606E+02  0.32425585784E+02 -0.92816916081E+02  0.20117374704E+03  0.17198410141E+03 0.  0.
        -24    2    5    5    0    0  0.39465498864E+02 -0.42159308640E+02 -0.72488024825E+02  0.12359745956E+03  0.81773378063E+02 0.  0.
          4    1    4    4  502    0 -0.33481741042E+01 -0.28538397070E+02  0.21251512872E+02  0.35739014767E+02  0.00000000000E+00 0. -1.
         -3    1    4    4    0  502 -0.90647507234E+01  0.50155894582E+02 -0.38336259283E+01  0.51112426618E+02  0.00000000000E+00 0.  1.
          5    1    3    3  503    0 -0.22600598779E+02 -0.54043083296E+02 -0.88160388050E+02  0.10595180951E+03  0.47000000000E+01 0. -1.
         13    1    6    6    0    0 -0.15090929947E+02  0.14829252161E+02 -0.17078986618E+02  0.27190709263E+02  0.00000000000E+00 0. -1.
        -14    1    6    6    0    0  0.54556428811E+02 -0.56988560801E+02 -0.55409038207E+02  0.96406750292E+02  0.00000000000E+00 0.  1.
         -5    1    5    5    0  501 -0.44519752579E+01  0.74584894424E+02 -0.20328891257E+02  0.77576287483E+02  0.47000000000E+01 0.  1.
<mgrwt>
<rscale>  2 0.17891859E+03</rscale>
<asrwt>0</asrwt>
<pdfrwt beam="2">  1        1 0.42887416E-01 0.17891859E+03</pdfrwt>
<pdfrwt beam="1">  1       -1 0.17724429E-01 0.17891859E+03</pdfrwt>
<totfact> 0.23248779E+03</totfact>
</mgrwt>
</event>
<event>
12    1  0.1093377E-001  0.1750038E+03  0.7546771E-02  0.1172728E+00
          2   -1    0    0  503    0  0.00000000000E+00  0.00000000000E+00  0.16130844197E+04  0.16130844197E+04  0.00000000000E+00 0.  1.
         -2   -1    0    0    0  501 -0.00000000000E+00 -0.00000000000E+00 -0.23499502167E+02  0.23499502167E+02  0.00000000000E+00 0. -1.
          6    2    1    2  503    0  0.12813190959E+02 -0.18212416910E+02  0.11497277183E+04  0.11628215799E+04  0.17258137351E+03 0.  0.
         24    2    3    3    0    0 -0.27765761409E+02 -0.50721196289E+02  0.98785268147E+03  0.99273604360E+03  0.79550956765E+02 0.  0.
         -6    2    1    2    0  501 -0.12813190959E+02  0.18212416910E+02  0.43985719917E+03  0.47376234190E+03  0.17458674332E+03 0.  0.
        -24    2    5    5    0    0 -0.91485553625E+01  0.72674113872E+02  0.20159810761E+03  0.22928536813E+03  0.81023207508E+02 0.  0.
          4    1    4    4  502    0 -0.48732686873E+02 -0.11260579171E+02  0.38603951646E+03  0.38926621184E+03  0.00000000000E+00 0. -1.
         -3    1    4    4    0  502  0.20966925464E+02 -0.39460617118E+02  0.60181316501E+03  0.60346983176E+03  0.00000000000E+00 0.  1.
          5    1    3    3  503    0  0.40578952368E+02  0.32508779379E+02  0.16187503686E+03  0.17008553634E+03  0.47000000000E+01 0. -1.
         11    1    6    6    0    0 -0.45068118058E+01 -0.12095931321E+02  0.29281997486E+01  0.13236210218E+02  0.00000000000E+00 0. -1.
        -12    1    6    6    0    0 -0.46417435568E+01  0.84770045193E+02  0.19866990786E+03  0.21604915792E+03  0.00000000000E+00 0.  1.
         -5    1    5    5    0  501 -0.36646355961E+01 -0.54461696962E+02  0.23825909156E+03  0.24447697376E+03  0.47000000000E+01 0.  1.
<mgrwt>
<rscale>  2 0.17500378E+03</rscale>
<asrwt>0</asrwt>
<pdfrwt beam="1">  1        2 0.24816675E+00 0.17500378E+03</pdfrwt>
<pdfrwt beam="2">  1       -2 0.36153093E-02 0.17500378E+03</pdfrwt>
<totfact> 0.37866367E+03</totfact>
</mgrwt>
</event>
<event>
12    1  0.1093377E-001  0.2552692E+03  0.7546771E-02  0.1110019E+00
         -2   -1    0    0    0  501 -0.00000000000E+00  0.00000000000E+00  0.13466108936E+03  0.13466108936E+03  0.00000000000E+00 0. -1.
          2   -1    0    0  503    0  0.00000000000E+00 -0.00000000000E+00 -0.54267019603E+03  0.54267019603E+03  0.00000000000E+00 0.  1.
          6    2    1    2  503    0  0.13188917327E+03 -0.13259349451E+03 -0.92672853789E+02  0.27172818702E+03  0.17398896798E+03 0.  0.
         24    2    3    3    0    0  0.39522834487E+02 -0.81622637758E+02 -0.11149034212E+03  0.16446329693E+03  0.79961054332E+02 0.  0.
         -6    2    1    2    0  501 -0.13188917327E+03  0.13259349451E+03 -0.31533625288E+03  0.40560309837E+03  0.17349677870E+03 0.  0.
        -24    2    5    5    0    0 -0.11524458385E+03  0.11046774002E+03 -0.13562143481E+03  0.22370725675E+03  0.78532333777E+02 0.  0.
          2    1    4    4  502    0  0.16170232958E+02  0.65376369023E+01 -0.53778712988E+02  0.56536422780E+02  0.00000000000E+00 0. -1.
         -1    1    4    4    0  502  0.23352601529E+02 -0.88160274660E+02 -0.57711629136E+02  0.10792687415E+03  0.00000000000E+00 0.  1.
          5    1    3    3  503    0  0.92366338782E+02 -0.50970856755E+02  0.18817488335E+02  0.10726489009E+03  0.47000000000E+01 0. -1.
         13    1    6    6    0    0 -0.49773122081E+02  0.66150112813E+01 -0.17043829287E+02  0.53024656271E+02  0.00000000000E+00 0. -1.
        -14    1    6    6    0    0 -0.65471461770E+02  0.10385272874E+03 -0.11857760553E+03  0.17068260048E+03  0.00000000000E+00 0.  1.
         -5    1    5    5    0  501 -0.16644589419E+02  0.22125754491E+02 -0.17971481806E+03  0.18189584163E+03  0.47000000000E+01 0.  1.
<mgrwt>
<rscale>  2 0.25526923E+03</rscale>
<asrwt>0</asrwt>
<pdfrwt beam="2">  1        2 0.83487723E-01 0.25526923E+03</pdfrwt>
<pdfrwt beam="1">  1       -2 0.20717091E-01 0.25526923E+03</pdfrwt>
<totfact> 0.11222579E+03</totfact>
</mgrwt>
</event>
<event>
12    1  0.1093377E-001  0.1779742E+03  0.7546771E-02  0.1169778E+00
         -2   -1    0    0    0  501 -0.00000000000E+00  0.00000000000E+00  0.90432794348E+01  0.90432794348E+01  0.00000000000E+00 0. -1.
          2   -1    0    0  503    0  0.00000000000E+00 -0.00000000000E+00 -0.35783622244E+04  0.35783622244E+04  0.00000000000E+00 0.  1.
          6    2    1    2  503    0  0.23891920223E+02  0.33516360054E+02 -0.15305716244E+04  0.15409651389E+04  0.17386745404E+03 0.  0.
         24    2    3    3    0    0  0.60595452152E+02 -0.27898481288E+02 -0.10127551680E+04  0.10182081165E+04  0.81391670255E+02 0.  0.
         -6    2    1    2    0  501 -0.23891920223E+02 -0.33516360054E+02 -0.20387473206E+04  0.20464403650E+04  0.17243363932E+03 0.  0.
        -24    2    5    5    0    0  0.36400378854E+01  0.43329983127E+02 -0.10520517253E+04  0.10563627635E+04  0.84845259755E+02 0.  0.
          2    1    4    4  502    0  0.35803352086E+02  0.26693975570E+02 -0.37863752780E+03  0.38126214841E+03  0.00000000000E+00 0. -1.
         -1    1    4    4    0  502  0.24792100066E+02 -0.54592456857E+02 -0.63411764025E+03  0.63694596807E+03  0.00000000000E+00 0.  1.
          5    1    3    3  503    0 -0.36703531928E+02  0.61414841342E+02 -0.51781645635E+03  0.52275702240E+03  0.47000000000E+01 0. -1.
         13    1    6    6    0    0 -0.48095088091E+01 -0.24726991903E+02 -0.20560075498E+03  0.20713818082E+03  0.00000000000E+00 0. -1.
        -14    1    6    6    0    0  0.84495466944E+01  0.68056975031E+02 -0.84645097033E+03  0.84922458270E+03  0.00000000000E+00 0.  1.
         -5    1    5    5    0  501 -0.27531958109E+02 -0.76846343182E+02 -0.98669559527E+03  0.99007760145E+03  0.47000000000E+01 0.  1.
<mgrwt>
<rscale>  2 0.17797422E+03</rscale>
<asrwt>0</asrwt>
<pdfrwt beam="2">  1        2 0.55051681E+00 0.17797422E+03</pdfrwt>
<pdfrwt beam="1">  1       -2 0.13912749E-02 0.17797422E+03</pdfrwt>
<totfact> 0.12114230E+03</totfact>
</mgrwt>
</event>
<event>
12    1  0.1093377E-001  0.2325602E+03  0.7546771E-02  0.1124851E+00
          2   -1    0    0  503    0  0.00000000000E+00  0.00000000000E+00  0.52585714163E+02  0.52585714163E+02  0.00000000000E+00 0. -1.
         -2   -1    0    0    0  501 -0.00000000000E+00 -0.00000000000E+00 -0.14580748399E+04  0.14580748399E+04  0.00000000000E+00 0.  1.
          6    2    1    2  503    0  0.88328302831E+02  0.12844885668E+03 -0.29345973305E+03  0.37464062230E+03  0.17302018117E+03 0.  0.
         24    2    3    3    0    0  0.31934265426E+02  0.14695092656E+03 -0.19667296217E+03  0.26100795507E+03  0.82646998932E+02 0.  0.
         -6    2    1    2    0  501 -0.88328302831E+02 -0.12844885668E+03 -0.11120293927E+04  0.11360199318E+04  0.17213633348E+03 0.  0.
        -24    2    5    5    0    0 -0.72622846261E+02 -0.15056024682E+03 -0.10688801869E+04  0.10848386960E+04  0.80172791728E+02 0.  0.
          2    1    4    4  502    0  0.47704811627E+02  0.13253059450E+03 -0.13254127760E+03  0.19340966315E+03  0.00000000000E+00 0. -1.
         -1    1    4    4    0  502 -0.15770546201E+02  0.14420332062E+02 -0.64131684571E+02  0.67598291917E+02  0.00000000000E+00 0.  1.
          5    1    3    3  503    0  0.56394037405E+02 -0.18502069887E+02 -0.96786770877E+02  0.11363266723E+03  0.47000000000E+01 0. -1.
         13    1    6    6    0    0 -0.53446266212E+02 -0.44401662926E+02 -0.27405931237E+03  0.28273046836E+03  0.00000000000E+00 0. -1.
        -14    1    6    6    0    0 -0.19176580048E+02 -0.10615858389E+03 -0.79482087458E+03  0.80210822762E+03  0.00000000000E+00 0.  1.
         -5    1    5    5    0  501 -0.15705456570E+02  0.22111390143E+02 -0.43149205745E+02  0.51181235786E+02  0.47000000000E+01 0.  1.
<mgrwt>
<rscale>  2 0.23256017E+03</rscale>
<asrwt>0</asrwt>
<pdfrwt beam="1">  1        2 0.80901095E-02 0.23256017E+03</pdfrwt>
<pdfrwt beam="2">  1       -2 0.22431922E+00 0.23256017E+03</pdfrwt>
<totfact> 0.85714049E+01</totfact>
</mgrwt>
</event>
<event>
12    1  0.1093377E-001  0.2248600E+03  0.7546771E-02  0.1130311E+00
          2   -1    0    0  503    0  0.00000000000E+00  0.00000000000E+00  0.54091065492E+03  0.54091065492E+03  0.00000000000E+00 0.  1.
         -2   -1    0    0    0  501 -0.00000000000E+00 -0.00000000000E+00 -0.29578154058E+03  0.29578154058E+03  0.00000000000E+00 0. -1.
          6    2    1    2  503    0  0.79627427513E+02 -0.12172758130E+03  0.46856053466E+03  0.51975537035E+03  0.17157662752E+03 0.  0.
         24    2    3    3    0    0  0.71146933118E+02 -0.13362813720E+02  0.23663517313E+03  0.26357905419E+03  0.90759361873E+02 0.  0.
         -6    2    1    2    0  501 -0.79627427513E+02  0.12172758130E+03 -0.22343142031E+03  0.31693682515E+03  0.17137450303E+03 0.  0.
        -24    2    5    5    0    0 -0.45799830061E+02  0.13206116247E+03 -0.22931789055E+03  0.28077289586E+03  0.81908174540E+02 0.  0.
          4    1    4    4  502    0  0.63621090390E+02  0.21820118247E+02  0.88616059753E+02  0.11125001910E+03  0.00000000000E+00 0. -1.
         -3    1    4    4    0  502  0.75258427277E+01 -0.35182931967E+02  0.14801911337E+03  0.15232903510E+03  0.00000000000E+00 0.  1.
          5    1    3    3  503    0  0.84804943958E+01 -0.10836476758E+03  0.23192536153E+03  0.25617631616E+03  0.47000000000E+01 0. -1.
         11    1    6    6    0    0  0.17465346855E+01  0.66559005064E+02 -0.47607731367E+02  0.81851375214E+02  0.00000000000E+00 0. -1.
        -12    1    6    6    0    0 -0.47546364746E+02  0.65502157407E+02 -0.18171015919E+03  0.19892152065E+03  0.00000000000E+00 0.  1.
         -5    1    5    5    0  501 -0.33827597453E+02 -0.10333581167E+02  0.58864702423E+01  0.36163929282E+02  0.47000000000E+01 0.  1.
<mgrwt>
<rscale>  2 0.22485995E+03</rscale>
<asrwt>0</asrwt>
<pdfrwt beam="1">  1        2 0.83217024E-01 0.22485995E+03</pdfrwt>
<pdfrwt beam="2">  1       -2 0.45504853E-01 0.22485995E+03</pdfrwt>
<totfact> 0.26693724E+02</totfact>
</mgrwt>
</event>
<event>
12    1  0.1093377E-001  0.2184036E+03  0.7546771E-02  0.1135079E+00
         -1   -1    0    0    0  501 -0.00000000000E+00  0.00000000000E+00  0.13868690379E+04  0.13868690379E+04  0.00000000000E+00 0.  1.
          1   -1    0    0  503    0  0.00000000000E+00 -0.00000000000E+00 -0.59934951451E+02  0.59934951451E+02  0.00000000000E+00 0. -1.
          6    2    1    2  503    0 -0.26018082920E+02  0.13029568048E+03  0.11357322213E+04  0.11565447121E+04  0.17336114805E+03 0.  0.
         24    2    3    3    0    0  0.15215743991E+02  0.17439705230E+02  0.68885238060E+03  0.69377005675E+03  0.79143080575E+02 0.  0.
         -6    2    1    2    0  501  0.26018082920E+02 -0.13029568048E+03  0.19120186513E+03  0.29025927721E+03  0.17331586709E+03 0.  0.
        -24    2    5    5    0    0  0.63792518420E+02 -0.24135292102E+02  0.83833534509E+02  0.13454484481E+03  0.80138979436E+02 0.  0.
          2    1    4    4  502    0  0.29394900809E+02  0.41186198968E+01  0.93465513656E+02  0.98065414221E+02  0.00000000000E+00 0. -1.
         -1    1    4    4    0  502 -0.14179156818E+02  0.13321085333E+02  0.59538686695E+03  0.59570464253E+03  0.00000000000E+00 0.  1.
          5    1    3    3  503    0 -0.41233826911E+02  0.11285597525E+03  0.44687984069E+03  0.46277465536E+03  0.47000000000E+01 0. -1.
         13    1    6    6    0    0 -0.85290597058E+00 -0.32687852103E+02  0.64132919444E+01  0.33321966288E+02  0.00000000000E+00 0. -1.
        -14    1    6    6    0    0  0.64645424390E+02  0.85525600014E+01  0.77420242564E+02  0.10122287852E+03  0.00000000000E+00 0.  1.
         -5    1    5    5    0  501 -0.37774435499E+02 -0.10616038837E+03  0.10736833062E+03  0.15571443240E+03  0.47000000000E+01 0.  1.
<mgrwt>
<rscale>  2 0.21840362E+03</rscale>
<asrwt>0</asrwt>
<pdfrwt beam="2">  1        1 0.92207628E-02 0.21840362E+03</pdfrwt>
<pdfrwt beam="1">  1       -1 0.21336444E+00 0.21840362E+03</pdfrwt>
<totfact> 0.98472930E+01</totfact>
</mgrwt>
</event>
<event>
12    1  0.1093377E-001  0.2978755E+03  0.7546771E-02  0.1086307E+00
         -2   -1    0    0    0  501 -0.00000000000E+00  0.00000000000E+00  0.89400939642E+03  0.89400939642E+03  0.00000000000E+00 0. -1.
          2   -1    0    0  503    0  0.00000000000E+00 -0.00000000000E+00 -0.11735625850E+03  0.11735625850E+03  0.00000000000E+00 0.  1.
          6    2    1    2  503    0  0.24622639395E+02 -0.24121544313E+03  0.18963336079E+03  0.35306815976E+03  0.17293105429E+03 0.  0.
         24    2    3    3    0    0  0.61123893822E+02 -0.16112457984E+03  0.18397549564E+03  0.26474494993E+03  0.80905159869E+02 0.  0.
         -6    2    1    2    0  501 -0.24622639395E+02  0.24121544313E+03  0.58701977713E+03  0.65829749515E+03  0.17312483647E+03 0.  0.
        -24    2    5    5    0    0 -0.42035974513E+02  0.25713337858E+03  0.51571928124E+03  0.58304820530E+03  0.78065582202E+02 0.  0.
          4    1    4    4  502    0  0.43641140069E+02 -0.45066294403E+02  0.10810794230E+03  0.12499138845E+03  0.00000000000E+00 0. -1.
         -3    1    4    4    0  502  0.17482753753E+02 -0.11605828544E+03  0.75867553340E+02  0.13975356148E+03  0.00000000000E+00 0.  1.
          5    1    3    3  503    0 -0.36501254427E+02 -0.80090863288E+02  0.56578651508E+01  0.88323209832E+02  0.47000000000E+01 0. -1.
         11    1    6    6    0    0  0.52906838727E+01  0.16423604730E+03  0.26919830013E+03  0.31538737350E+03  0.00000000000E+00 0. -1.
        -12    1    6    6    0    0 -0.47326658386E+02  0.92897331283E+02  0.24652098111E+03  0.26766083180E+03  0.00000000000E+00 0.  1.
         -5    1    5    5    0  501  0.17413335119E+02 -0.15917935452E+02  0.71300495895E+02  0.75249289856E+02  0.47000000000E+01 0.  1.
<mgrwt>
<rscale>  2 0.29787554E+03</rscale>
<asrwt>0</asrwt>
<pdfrwt beam="2">  1        2 0.18054810E-01 0.29787554E+03</pdfrwt>
<pdfrwt beam="1">  1       -2 0.13753990E+00 0.29787554E+03</pdfrwt>
<totfact> 0.12415419E+02</totfact>
</mgrwt>
</event>
<event>
12    1  0.1093377E-001  0.2123377E+03  0.7546771E-02  0.1139728E+00
         -2   -1    0    0    0  501 -0.00000000000E+00  0.00000000000E+00  0.15251356896E+03  0.15251356896E+03  0.00000000000E+00 0. -1.
          2   -1    0    0  503    0  0.00000000000E+00 -0.00000000000E+00 -0.30082964176E+03  0.30082964176E+03  0.00000000000E+00 0.  1.
          6    2    1    2  503    0 -0.72068539970E+02 -0.10002200602E+03 -0.10397746330E+03  0.23646331338E+03  0.17293151696E+03 0.  0.
         24    2    3    3    0    0 -0.10191171758E+03 -0.69048242100E+02 -0.28724580247E+02  0.14965849952E+03  0.80118081918E+02 0.  0.
         -6    2    1    2    0  501  0.72068539970E+02  0.10002200602E+03 -0.44338609499E+02  0.21687989733E+03  0.17283721079E+03 0.  0.
        -24    2    5    5    0    0  0.32219024352E+02  0.85306518719E+02  0.35242386552E+02  0.12654853847E+03  0.80356948128E+02 0.  0.
          2    1    4    4  502    0 -0.86571506243E+02 -0.75858449440E+02  0.14682270533E+01  0.11511422907E+03  0.00000000000E+00 0. -1.
         -1    1    4    4    0  502 -0.15340211342E+02  0.68102073401E+01 -0.30192807300E+02  0.34544270447E+02  0.00000000000E+00 0.  1.
          5    1    3    3  503    0  0.29843177615E+02 -0.30973763923E+02 -0.75252883053E+02  0.86804813862E+02  0.47000000000E+01 0. -1.
         13    1    6    6    0    0  0.14779499725E+02  0.87706128994E+02  0.20376983797E+01  0.88966009745E+02  0.00000000000E+00 0. -1.
        -14    1    6    6    0    0  0.17439524627E+02 -0.23996102742E+01  0.33204688173E+02  0.37582528724E+02  0.00000000000E+00 0.  1.
         -5    1    5    5    0  501  0.39849515618E+02  0.14715487304E+02 -0.79580996051E+02  0.90331358863E+02  0.47000000000E+01 0.  1.
<mgrwt>
<rscale>  2 0.21233765E+03</rscale>
<asrwt>0</asrwt>
<pdfrwt beam="2">  1        2 0.46281484E-01 0.21233765E+03</pdfrwt>
<pdfrwt beam="1">  1       -2 0.23463626E-01 0.21233765E+03</pdfrwt>
<totfact> 0.17210777E+03</totfact>
</mgrwt>
</event>
<event>
12    1  0.1093377E-001  0.2023879E+03  0.7546771E-02  0.1147740E+00
         -1   -1    0    0    0  501 -0.00000000000E+00  0.00000000000E+00  0.32532040904E+03  0.32532040904E+03  0.00000000000E+00 0. -1.
          1   -1    0    0  503    0  0.00000000000E+00 -0.00000000000E+00 -0.22207191588E+03  0.22207191588E+03  0.00000000000E+00 0.  1.
          6    2    1    2  503    0 -0.40359322434E+02  0.98100726933E+02  0.23193057636E+03  0.30878099466E+03  0.17407263680E+03 0.  0.
         24    2    3    3    0    0 -0.27952632780E+02  0.48667334293E+02  0.33195888910E+02  0.10356122892E+03  0.80455590162E+02 0.  0.
         -6    2    1    2    0  501  0.40359322434E+02 -0.98100726933E+02 -0.12868208320E+03  0.23861133026E+03  0.17065655821E+03 0.  0.
        -24    2    5    5    0    0  0.17780272854E+02 -0.75722865742E+02 -0.51368401257E+01  0.11095515439E+03  0.78959284827E+02 0.  0.
          4    1    4    4  502    0 -0.15778926928E+01  0.53815036167E+02 -0.79454186097E+01  0.54421296750E+02  0.00000000000E+00 0. -1.
         -3    1    4    4    0  502 -0.26374740087E+02 -0.51477018744E+01  0.41141307520E+02  0.49139932170E+02  0.00000000000E+00 0.  1.
          5    1    3    3  503    0 -0.12406689654E+02  0.49433392640E+02  0.19873468745E+03  0.20521976574E+03  0.47000000000E+01 0. -1.
         11    1    6    6    0    0  0.29197980262E+02 -0.79332125065E+02 -0.24654830771E+02  0.88056622687E+02  0.00000000000E+00 0. -1.
        -12    1    6    6    0    0 -0.11417707409E+02  0.36092593227E+01  0.19517990646E+02  0.22898531703E+02  0.00000000000E+00 0.  1.
         -5    1    5    5    0  501  0.22579049580E+02 -0.22377861191E+02 -0.12354524307E+03  0.12765617587E+03  0.47000000000E+01 0.  1.
<mgrwt>
<rscale>  2 0.20238791E+03</rscale>
<asrwt>0</asrwt>
<pdfrwt beam="2">  1        1 0.34164910E-01 0.20238791E+03</pdfrwt>
<pdfrwt beam="1">  1       -1 0.50049294E-01 0.20238791E+03</pdfrwt>
<totfact> 0.52899394E+02</totfact>
</mgrwt>
</event>
<event>
12    1  0.1093377E-001  0.2419886E+03  0.7546771E-02  0.1118475E+00
         -1   -1    0    0    0  501 -0.00000000000E+00  0.00000000000E+00  0.10375102744E+04  0.10375102744E+04  0.00000000000E+00 0.  1.
          1   -1    0    0  503    0  0.00000000000E+00 -0.00000000000E+00 -0.12791268124E+03  0.12791268124E+03  0.00000000000E+00 0. -1.
          6    2    1    2  503    0  0.15502240184E+03 -0.62175593878E+02  0.88922522215E+03  0.92120498060E+03  0.17320326504E+03 0.  0.
         24    2    3    3    0    0  0.15552828169E+02 -0.54763797108E+02  0.41024110054E+03  0.42225150034E+03  0.82204653305E+02 0.  0.
         -6    2    1    2    0  501 -0.15502240184E+03  0.62175593878E+02  0.20372371012E+02  0.24421797505E+03  0.17700179743E+03 0.  0.
        -24    2    5    5    0    0 -0.18025115993E+03  0.66760031248E+02  0.41224735432E+02  0.21083506921E+03  0.76187696960E+02 0.  0.
          2    1    4    4  502    0  0.18328677863E+02 -0.56477526106E+02  0.14102155047E+03  0.15301218606E+03  0.00000000000E+00 0. -1.
         -1    1    4    4    0  502 -0.27758496941E+01  0.17137289978E+01  0.26921955008E+03  0.26923931428E+03  0.00000000000E+00 0.  1.
          5    1    3    3  503    0  0.13946957367E+03 -0.74117967700E+01  0.47898412161E+03  0.49895348026E+03  0.47000000000E+01 0. -1.
         11    1    6    6    0    0 -0.96222867941E+02  0.13686370419E+02 -0.12276618783E+02  0.97963628040E+02  0.00000000000E+00 0. -1.
        -12    1    6    6    0    0 -0.84028291987E+02  0.53073660829E+02  0.53501354215E+02  0.11287144117E+03  0.00000000000E+00 0.  1.
         -5    1    5    5    0  501  0.25228758093E+02 -0.45844373698E+01 -0.20852364419E+02  0.33382905847E+02  0.47000000000E+01 0.  1.
<mgrwt>
<rscale>  2 0.24198859E+03</rscale>
<asrwt>0</asrwt>
<pdfrwt beam="2">  1        1 0.19678875E-01 0.24198859E+03</pdfrwt>
<pdfrwt beam="1">  1       -1 0.15961696E+00 0.24198859E+03</pdfrwt>
<totfact> 0.84368626E+01</totfact>
</mgrwt>
</event>
<event>
12    1  0.1093377E-001  0.1877711E+03  0.7546771E-02  0.1160487E+00
          2   -1    0    0  503    0  0.00000000000E+00  0.00000000000E+00  0.76778784415E+03  0.76778784415E+03  0.00000000000E+00 0. -1.
         -2   -1    0    0    0  501 -0.00000000000E+00 -0.00000000000E+00 -0.60334876939E+02  0.60334876939E+02  0.00000000000E+00 0.  1.
          6    2    1    2  503    0  0.41487578511E+02 -0.58997377079E+02  0.55555326577E+03  0.58630524799E+03  0.17295231435E+03 0.  0.
         24    2    3    3    0    0 -0.39085112418E+02 -0.11982663822E+02  0.33061203713E+03  0.34274213887E+03  0.80601640253E+02 0.  0.
         -6    2    1    2    0  501 -0.41487578511E+02  0.58997377079E+02  0.15189970144E+03  0.24181747310E+03  0.17378222385E+03 0.  0.
        -24    2    5    5    0    0  0.32288919549E+02  0.27154209841E+01  0.36919720926E+02  0.93989477891E+02  0.80131194451E+02 0.  0.
          2    1    4    4  502    0 -0.47193461811E+02 -0.69472722271E+00  0.89087888212E+02  0.10081843735E+03  0.00000000000E+00 0. -1.
         -1    1    4    4    0  502  0.81083493933E+01 -0.11287936599E+02  0.24152414892E+03  0.24192370152E+03  0.00000000000E+00 0.  1.
          5    1    3    3  503    0  0.80572690929E+02 -0.47014713257E+02  0.22494122863E+03  0.24356310912E+03  0.47000000000E+01 0. -1.
         11    1    6    6    0    0  0.40901995523E+02  0.15929742470E+02 -0.95450581744E+01  0.44920352497E+02  0.00000000000E+00 0. -1.
        -12    1    6    6    0    0 -0.86130759732E+01 -0.13214321486E+02  0.46464779100E+02  0.49069125394E+02  0.00000000000E+00 0.  1.
         -5    1    5    5    0  501 -0.73776498061E+02  0.56281956095E+02  0.11497998052E+03  0.14782799521E+03  0.47000000000E+01 0.  1.
<mgrwt>
<rscale>  2 0.18777113E+03</rscale>
<asrwt>0</asrwt>
<pdfrwt beam="1">  1        2 0.11812120E+00 0.18777113E+03</pdfrwt>
<pdfrwt beam="2">  1       -2 0.92822893E-02 0.18777113E+03</pdfrwt>
<totfact> 0.27664666E+03</totfact>
</mgrwt>
</event>
<event>
12    1  0.1093377E-001  0.2432864E+03  0.7546771E-02  0.1117623E+00
         -1   -1    0    0    0  501 -0.00000000000E+00  0.00000000000E+00  0.41742031684E+03  0.41742031684E+03  0.00000000000E+00 0.  1.
          1   -1    0    0  503    0  0.00000000000E+00 -0.00000000000E+00 -0.14255645501E+03  0.14255645501E+03  0.00000000000E+00 0. -1.
          6    2    1    2  503    0  0.11062891995E+03 -0.13038629697E+03  0.11724452761E+03  0.27048659636E+03  0.17371636420E+03 0.  0.
         24    2    3    3    0    0  0.11610932369E+03 -0.90405555323E+02  0.14703300209E+03  0.22010864742E+03  0.71934508317E+02 0.  0.
         -6    2    1    2    0  501 -0.11062891995E+03  0.13038629697E+03  0.15761933423E+03  0.28949017548E+03  0.17239884806E+03 0.  0.
        -24    2    5    5    0    0 -0.10361806666E+03  0.38921519075E+02  0.45376269086E+02  0.14445378925E+03  0.80971001273E+02 0.  0.
          2    1    4    4  502    0  0.95095405939E+02 -0.47506059977E+02  0.13311763311E+03  0.17035335691E+03  0.00000000000E+00 0. -1.
         -1    1    4    4    0  502  0.21013917747E+02 -0.42899495347E+02  0.13915368974E+02  0.49755290510E+02  0.00000000000E+00 0.  1.
          5    1    3    3  503    0 -0.54804037381E+01 -0.39980741646E+02 -0.29788474480E+02  0.50377948941E+02  0.47000000000E+01 0. -1.
         11    1    6    6    0    0 -0.73334845863E+02  0.62927750572E+02  0.42908244137E+02  0.10573087924E+03  0.00000000000E+00 0. -1.
        -12    1    6    6    0    0 -0.30283220800E+02 -0.24006231497E+02  0.24680249491E+01  0.38722910013E+02  0.00000000000E+00 0.  1.
         -5    1    5    5    0  501 -0.70108532850E+01  0.91464777895E+02  0.11224306514E+03  0.14503638623E+03  0.47000000000E+01 0.  1.
<mgrwt>
<rscale>  2 0.24328640E+03</rscale>
<asrwt>0</asrwt>
<pdfrwt beam="2">  1        1 0.21931763E-01 0.24328640E+03</pdfrwt>
<pdfrwt beam="1">  1       -1 0.64218510E-01 0.24328640E+03</pdfrwt>
<totfact> 0.57800230E+02</totfact>
</mgrwt>
</event>
<event>
12    1  0.1093377E-001  0.1733215E+03  0.7546771E-02  0.1174428E+00
         -2   -1    0    0    0  501 -0.00000000000E+00  0.00000000000E+00  0.47206964227E+02  0.47206964227E+02  0.00000000000E+00 0. -1.
          2   -1    0    0  503    0  0.00000000000E+00 -0.00000000000E+00 -0.10172552468E+04  0.10172552468E+04  0.00000000000E+00 0.  1.
          6    2    1    2  503    0 -0.16734874139E+02  0.13554813335E+02 -0.81052731821E+03  0.82883040979E+03  0.17187648374E+03 0.  0.
         24    2    3    3    0    0  0.62666161015E+01 -0.46233557436E+02 -0.63700242364E+03  0.64379879934E+03  0.80796002372E+02 0.  0.
         -6    2    1    2    0  501  0.16734874139E+02 -0.13554813335E+02 -0.15952096436E+03  0.23563180123E+03  0.17208026820E+03 0.  0.
        -24    2    5    5    0    0 -0.17305993881E+02 -0.66803699062E+02 -0.12213942238E+03  0.16205399066E+03  0.81124754288E+02 0.  0.
          4    1    4    4  502    0  0.22452587729E+02  0.10524852568E+02 -0.34507152374E+03  0.34596133847E+03  0.00000000000E+00 0. -1.
         -3    1    4    4    0  502 -0.16185971627E+02 -0.56758410004E+02 -0.29193089989E+03  0.29783746087E+03  0.00000000000E+00 0.  1.
          5    1    3    3  503    0 -0.23001490240E+02  0.59788370771E+02 -0.17352489457E+03  0.18503161045E+03  0.47000000000E+01 0. -1.
         11    1    6    6    0    0  0.31376904683E+02 -0.31123725347E+02 -0.36706115404E+02  0.57450285770E+02  0.00000000000E+00 0. -1.
        -12    1    6    6    0    0 -0.48682898563E+02 -0.35679973715E+02 -0.85433306975E+02  0.10460370489E+03  0.00000000000E+00 0.  1.
         -5    1    5    5    0  501  0.34040868019E+02  0.53248885727E+02 -0.37381541986E+02  0.73577810568E+02  0.47000000000E+01 0.  1.
<mgrwt>
<rscale>  2 0.17332150E+03</rscale>
<asrwt>0</asrwt>
<pdfrwt beam="2">  1        2 0.15650079E+00 0.17332150E+03</pdfrwt>
<pdfrwt beam="1">  1       -2 0.72626106E-02 0.17332150E+03</pdfrwt>
<totfact> 0.27957702E+03</totfact>
</mgrwt>
</event>
<event>
12    1  0.1093377E-001  0.2345355E+03  0.7546771E-02  0.1123488E+00
         -1   -1    0    0    0  501 -0.00000000000E+00  0.00000000000E+00  0.50623446766E+03  0.50623446766E+03  0.00000000000E+00 0.  1.
          1   -1    0    0  503    0  0.00000000000E+00 -0.00000000000E+00 -0.19966828100E+03  0.19966828100E+03  0.00000000000E+00 0. -1.
          6    2    1    2  503    0  0.41259426305E+01  0.15870409568E+03 -0.85198137978E+02  0.24901946280E+03  0.17189519119E+03 0.  0.
         24    2    3    3    0    0 -0.24114066024E+02  0.57663126303E+02  0.16177389246E+02  0.10305418234E+03  0.80323920846E+02 0.  0.
         -6    2    1    2    0  501 -0.41259426305E+01 -0.15870409568E+03  0.39176432464E+03  0.45688328586E+03  0.17337542342E+03 0.  0.
        -24    2    5    5    0    0 -0.11743676582E+02 -0.11022112228E+03  0.38247319561E+03  0.40671313877E+03  0.82723770186E+02 0.  0.
          2    1    4    4  502    0 -0.51030643785E+02  0.43659711159E+02 -0.28866310656E+01  0.67220752915E+02  0.00000000000E+00 0. -1.
         -1    1    4    4    0  502  0.26916577761E+02  0.14003415145E+02  0.19064020311E+02  0.35833429427E+02  0.00000000000E+00 0.  1.
          5    1    3    3  503    0  0.28240008655E+02  0.10104096937E+03 -0.10137552722E+03  0.14596528046E+03  0.47000000000E+01 0. -1.
         11    1    6    6    0    0  0.79857700897E+01 -0.15626597467E+02  0.19512865136E+03  0.19591619038E+03  0.00000000000E+00 0. -1.
        -12    1    6    6    0    0 -0.19729446672E+02 -0.94594524811E+02  0.18734454425E+03  0.21079694839E+03  0.00000000000E+00 0.  1.
         -5    1    5    5    0  501  0.76177339516E+01 -0.48482973398E+02  0.92911290348E+01  0.50170147088E+02  0.47000000000E+01 0.  1.
<mgrwt>
<rscale>  2 0.23453553E+03</rscale>
<asrwt>0</asrwt>
<pdfrwt beam="2">  1        1 0.30718197E-01 0.23453553E+03</pdfrwt>
<pdfrwt beam="1">  1       -1 0.77882225E-01 0.23453553E+03</pdfrwt>
<totfact> 0.25575293E+02</totfact>
</mgrwt>
</event>
<event>
12    1  0.1093377E-001  0.2004185E+03  0.7546771E-02  0.1149386E+00
         -4   -1    0    0    0  501 -0.00000000000E+00  0.00000000000E+00  0.10104182542E+03  0.10104182542E+03  0.00000000000E+00 0.  1.
          4   -1    0    0  503    0  0.00000000000E+00 -0.00000000000E+00 -0.40311434225E+03  0.40311434225E+03  0.00000000000E+00 0. -1.
          6    2    1    2  503    0 -0.28021329457E+02  0.10211257657E+03 -0.12375048912E+03  0.23802842980E+03  0.17358334205E+03 0.  0.
         24    2    3    3    0    0 -0.66768345127E+02  0.22773732469E+02 -0.33442001695E+02  0.11164134063E+03  0.79804552874E+02 0.  0.
         -6    2    1    2    0  501  0.28021329457E+02 -0.10211257657E+03 -0.17832202771E+03  0.26612773787E+03  0.16677246205E+03 0.  0.
        -24    2    5    5    0    0 -0.74884845211E+01 -0.90354759598E+02 -0.19088352731E+03  0.22639016848E+03  0.81215315081E+02 0.  0.
          4    1    4    4  502    0 -0.65810250260E+02 -0.14797798409E+02 -0.30239128415E+02  0.73921368794E+02  0.00000000000E+00 0. -1.
         -3    1    4    4    0  502 -0.95809486690E+00  0.37571530878E+02 -0.32028732796E+01  0.37719971839E+02  0.00000000000E+00 0.  1.
          5    1    3    3  503    0  0.38747015670E+02  0.79338844106E+02 -0.90308487421E+02  0.12638708917E+03  0.47000000000E+01 0. -1.
         11    1    6    6    0    0  0.14693546166E+02 -0.97223206092E+02 -0.14950720232E+03  0.17894316317E+03  0.00000000000E+00 0. -1.
        -12    1    6    6    0    0 -0.22182030687E+02  0.68684464941E+01 -0.41376324994E+02  0.47447005307E+02  0.00000000000E+00 0.  1.
         -5    1    5    5    0  501  0.35509813978E+02 -0.11757816977E+02  0.12561499603E+02  0.39737569391E+02  0.47000000000E+01 0.  1.
<mgrwt>
<rscale>  2 0.20041849E+03</rscale>
<asrwt>0</asrwt>
<pdfrwt beam="2">  1        4 0.62017590E-01 0.20041849E+03</pdfrwt>
<pdfrwt beam="1">  1       -4 0.15544896E-01 0.20041849E+03</pdfrwt>
<totfact> 0.15568864E+02</totfact>
</mgrwt>
</event>
<event>
12    1  0.1093377E-001  0.2083452E+03  0.7546771E-02  0.1142883E+00
         -1   -1    0    0    0  501 -0.00000000000E+00  0.00000000000E+00  0.33639534092E+02  0.33639534092E+02  0.00000000000E+00 0.  1.
          1   -1    0    0  503    0  0.00000000000E+00 -0.00000000000E+00 -0.12913134479E+04  0.12913134479E+04  0.00000000000E+00 0. -1.
          6    2    1    2  503    0 -0.11107055991E+03 -0.35019307126E+02 -0.61089683848E+03  0.64543505339E+03  0.17270911884E+03 0.  0.
         24    2    3    3    0    0 -0.73339028100E+02 -0.19388666567E+02 -0.58776993233E+03  0.59826589816E+03  0.81817223824E+02 0.  0.
         -6    2    1    2    0  501  0.11107055991E+03  0.35019307126E+02 -0.64677707531E+03  0.67951792859E+03  0.17280338239E+03 0.  0.
        -24    2    5    5    0    0  0.13249046847E+03 -0.12820180596E+02 -0.49751791863E+03  0.52125291375E+03  0.80389299451E+02 0.  0.
          4    1    4    4  502    0 -0.56781594697E+01 -0.32542957128E+02 -0.32248662220E+03  0.32417419245E+03  0.00000000000E+00 0. -1.
         -3    1    4    4    0  502 -0.67660868630E+02  0.13154290560E+02 -0.26528331014E+03  0.27409170571E+03  0.00000000000E+00 0.  1.
          5    1    3    3  503    0 -0.37731531812E+02 -0.15630640558E+02 -0.23126906145E+02  0.47169155229E+02  0.47000000000E+01 0. -1.
         13    1    6    6    0    0  0.24051804386E+02  0.14002599552E+02 -0.22521036894E+03  0.22692349452E+03  0.00000000000E+00 0. -1.
        -14    1    6    6    0    0  0.10843866408E+03 -0.26822780147E+02 -0.27230754970E+03  0.29432941923E+03  0.00000000000E+00 0.  1.
         -5    1    5    5    0  501 -0.21419908556E+02  0.47839487721E+02 -0.14925915668E+03  0.15826501484E+03  0.47000000000E+01 0.  1.
<mgrwt>
<rscale>  2 0.20834525E+03</rscale>
<asrwt>0</asrwt>
<pdfrwt beam="2">  1        1 0.19866361E+00 0.20834525E+03</pdfrwt>
<pdfrwt beam="1">  1       -1 0.51753128E-02 0.20834525E+03</pdfrwt>
<totfact> 0.16543241E+03</totfact>
</mgrwt>
</event>
<event>
12    1  0.1093377E-001  0.1789837E+03  0.7546771E-02  0.1168790E+00
         -1   -1    0    0    0  501 -0.00000000000E+00  0.00000000000E+00  0.11200873050E+03  0.11200873050E+03  0.00000000000E+00 0. -1.
          1   -1    0    0  503    0  0.00000000000E+00 -0.00000000000E+00 -0.30816334320E+03  0.30816334320E+03  0.00000000000E+00 0.  1.
          6    2    1    2  503    0 -0.48831821365E+02  0.14909335775E+01 -0.15462125970E+03  0.23683929765E+03  0.17262198383E+03 0.  0.
         24    2    3    3    0    0  0.78534505091E+01  0.60376223908E+02 -0.93460707317E+02  0.13464633981E+03  0.75417291874E+02 0.  0.
         -6    2    1    2    0  501  0.48831821365E+02 -0.14909335775E+01 -0.41533352998E+02  0.18333277605E+03  0.17175307189E+03 0.  0.
        -24    2    5    5    0    0  0.99378084817E+02 -0.51584945426E+01 -0.29269488221E+02  0.13097947499E+03  0.79976909923E+02 0.  0.
          4    1    4    4  502    0  0.46498694185E+01  0.64357752021E+02 -0.30311077173E+02  0.71290272339E+02  0.00000000000E+00 0. -1.
         -3    1    4    4    0  502  0.32035810906E+01 -0.39815281127E+01 -0.63149630145E+02  0.63356067471E+02  0.00000000000E+00 0.  1.
          5    1    3    3  503    0 -0.56685271874E+02 -0.58885290331E+02 -0.61160552381E+02  0.10219295784E+03  0.47000000000E+01 0. -1.
         13    1    6    6    0    0  0.13994643820E+02  0.30869623302E+02 -0.33925346579E+00  0.33895409591E+02  0.00000000000E+00 0. -1.
        -14    1    6    6    0    0  0.85383440997E+02 -0.36028117845E+02 -0.28930234755E+02  0.97084065402E+02  0.00000000000E+00 0.  1.
         -5    1    5    5    0  501 -0.50546263452E+02  0.36675609651E+01 -0.12263864778E+02  0.52353301058E+02  0.47000000000E+01 0.  1.
<mgrwt>
<rscale>  2 0.17898367E+03</rscale>
<asrwt>0</asrwt>
<pdfrwt beam="2">  1        1 0.47409744E-01 0.17898367E+03</pdfrwt>
<pdfrwt beam="1">  1       -1 0.17232113E-01 0.17898367E+03</pdfrwt>
<totfact> 0.21459157E+03</totfact>
</mgrwt>
</event>
<event>
12    1  0.1093377E-001  0.1879881E+03  0.7546771E-02  0.1160289E+00
         -2   -1    0    0    0  501 -0.00000000000E+00  0.00000000000E+00  0.14917451162E+03  0.14917451162E+03  0.00000000000E+00 0.  1.
          2   -1    0    0  503    0  0.00000000000E+00 -0.00000000000E+00 -0.44759564714E+03  0.44759564714E+03  0.00000000000E+00 0. -1.
          6    2    1    2  503    0  0.26418417407E+02 -0.67274874429E+02 -0.35465350825E+03  0.40222444553E+03  0.17544672171E+03 0.  0.
         24    2    3    3    0    0 -0.30295645565E+02 -0.94744068173E+01 -0.93588820513E+02  0.12884880620E+03  0.82677427451E+02 0.  0.
         -6    2    1    2    0  501 -0.26418417407E+02  0.67274874429E+02  0.56232372733E+02  0.19454571323E+03  0.17164531245E+03 0.  0.
        -24    2    5    5    0    0 -0.24983635071E+02  0.94937520693E+02 -0.48116205777E+01  0.12734645938E+03  0.80973169432E+02 0.  0.
          4    1    4    4  502    0 -0.49142034438E+00  0.15677295568E+02  0.97005332887E+01  0.18442327304E+02  0.00000000000E+00 0. -1.
         -3    1    4    4    0  502 -0.29804225220E+02 -0.25151702386E+02 -0.10328935380E+03  0.11040647890E+03  0.00000000000E+00 0.  1.
          5    1    3    3  503    0  0.56714062971E+02 -0.57800467612E+02 -0.26106468774E+03  0.27337563933E+03  0.47000000000E+01 0. -1.
         11    1    6    6    0    0 -0.33562172689E+02  0.29624297864E+01  0.63972386535E+01  0.34294607277E+02  0.00000000000E+00 0. -1.
        -12    1    6    6    0    0  0.85785376181E+01  0.91975090906E+02 -0.11208859231E+02  0.93051852105E+02  0.00000000000E+00 0.  1.
         -5    1    5    5    0  501 -0.14347823353E+01 -0.27662646264E+02  0.61043993311E+02  0.67199253850E+02  0.47000000000E+01 0.  1.
<mgrwt>
<rscale>  2 0.18798808E+03</rscale>
<asrwt>0</asrwt>
<pdfrwt beam="2">  1        2 0.68860866E-01 0.18798808E+03</pdfrwt>
<pdfrwt beam="1">  1       -2 0.22949926E-01 0.18798808E+03</pdfrwt>
<totfact> 0.11618963E+03</totfact>
</mgrwt>
</event>
<event>
12    1  0.1093377E-001  0.1977015E+03  0.7546771E-02  0.1151693E+00
          1   -1    0    0  503    0  0.00000000000E+00  0.00000000000E+00  0.87384215837E+02  0.87384215837E+02  0.00000000000E+00 0. -1.
         -1   -1    0    0    0  501 -0.00000000000E+00 -0.00000000000E+00 -0.50631732056E+03  0.50631732056E+03  0.00000000000E+00 0.  1.
          6    2    1    2  503    0  0.36774394525E+02 -0.86892686160E+02 -0.31012181434E+03  0.36737984358E+03  0.17288642151E+03 0.  0.
         24    2    3    3    0    0 -0.22276086621E+02 -0.48028716930E+02 -0.75454425162E+02  0.12225081436E+03  0.80305103507E+02 0.  0.
         -6    2    1    2    0  501 -0.36774394525E+02  0.86892686160E+02 -0.10881129039E+03  0.22632169281E+03  0.17458212028E+03 0.  0.
        -24    2    5    5    0    0 -0.61429855306E+02  0.11894548426E+03 -0.76336959855E+02  0.17424534736E+03  0.81316998768E+02 0.  0.
          2    1    4    4  502    0 -0.25493386985E+01 -0.65753795344E+02 -0.36862075070E+02  0.75424620042E+02  0.00000000000E+00 0. -1.
         -1    1    4    4    0  502 -0.19726747923E+02  0.17725078414E+02 -0.38592350092E+02  0.46826194315E+02  0.00000000000E+00 0.  1.
          5    1    3    3  503    0  0.59050481146E+02 -0.38863969231E+02 -0.23466738917E+03  0.24512902923E+03  0.47000000000E+01 0. -1.
         11    1    6    6    0    0 -0.20000881097E+02  0.17251018194E+01  0.10442379059E+02  0.22628621287E+02  0.00000000000E+00 0. -1.
        -12    1    6    6    0    0 -0.41428974209E+02  0.11722038244E+03 -0.86779338914E+02  0.15161672607E+03  0.00000000000E+00 0.  1.
         -5    1    5    5    0  501  0.24655460781E+02 -0.32052798098E+02 -0.32474330532E+02  0.52076345453E+02  0.47000000000E+01 0.  1.
<mgrwt>
<rscale>  2 0.19770154E+03</rscale>
<asrwt>0</asrwt>
<pdfrwt beam="1">  1        1 0.13443725E-01 0.19770154E+03</pdfrwt>
<pdfrwt beam="2">  1       -1 0.77894974E-01 0.19770154E+03</pdfrwt>
<totfact> 0.74141015E+02</totfact>
</mgrwt>
</event>
<event>
12    1  0.1520113E-001  0.2124462E+03  0.7546771E-02  0.1139643E+00
          2   -1    0    0  503    0  0.00000000000E+00  0.00000000000E+00  0.68404635705E+03  0.68404635705E+03  0.00000000000E+00 0.  1.
         -2   -1    0    0    0  501 -0.00000000000E+00 -0.00000000000E+00 -0.82430030175E+02  0.82430030175E+02  0.00000000000E+00 0. -1.
          6    2    1    2  503    0 -0.11849033307E+03 -0.31389178809E+02  0.47149147806E+03  0.51695662916E+03  0.17295867415E+03 0.  0.
         24    2    3    3    0    0 -0.97875781720E+02 -0.26611571172E+00  0.16541505248E+03  0.20857622595E+03  0.81007178571E+02 0.  0.
         -6    2    1    2    0  501  0.11849033307E+03  0.31389178809E+02  0.13012484881E+03  0.24951975807E+03  0.17407582776E+03 0.  0.
        -24    2    5    5    0    0  0.10084160261E+03  0.61055863408E+02  0.35452775675E+02  0.14864121083E+03  0.83309441114E+02 0.  0.
          2    1    4    4  502    0 -0.38060420666E+02  0.25213799720E+02  0.21105439827E+02  0.50296828010E+02  0.00000000000E+00 0. -1.
         -1    1    4    4    0  502 -0.59815361054E+02 -0.25479915431E+02  0.14430961265E+03  0.15827939794E+03  0.00000000000E+00 0.  1.
          5    1    3    3  503    0 -0.20614551351E+02 -0.31123063098E+02  0.30607642558E+03  0.30838040321E+03  0.47000000000E+01 0. -1.
         13    1    6    6    0    0  0.17692838552E+02 -0.29902471859E+01 -0.22476310598E+02  0.28760435538E+02  0.00000000000E+00 0. -1.
        -14    1    6    6    0    0  0.83148764062E+02  0.64046110594E+02  0.57929086273E+02  0.11988077529E+03  0.00000000000E+00 0.  1.
         -5    1    5    5    0  501  0.17648730457E+02 -0.29666684598E+02  0.94672073133E+02  0.10087854724E+03  0.47000000000E+01 0.  1.
<mgrwt>
<rscale>  2 0.21244616E+03</rscale>
<asrwt>0</asrwt>
<pdfrwt beam="1">  1        2 0.10523790E+00 0.21244616E+03</pdfrwt>
<pdfrwt beam="2">  1       -2 0.12681544E-01 0.21244616E+03</pdfrwt>
<totfact> 0.19397176E+03</totfact>
</mgrwt>
</event>
<event>
12    1  0.1093377E-001  0.2422098E+03  0.7546771E-02  0.1118329E+00
          1   -1    0    0  503    0  0.00000000000E+00  0.00000000000E+00  0.23799502547E+03  0.23799502547E+03  0.00000000000E+00 0. -1.
         -1   -1    0    0    0  501 -0.00000000000E+00 -0.00000000000E+00 -0.25556403812E+03  0.25556403812E+03  0.00000000000E+00 0.  1.
          6    2    1    2  503    0  0.16750807409E+03  0.25496253025E+02 -0.55278388939E+02  0.24900663016E+03  0.17389533570E+03 0.  0.
         24    2    3    3    0    0  0.10039291221E+03  0.80418312241E+02 -0.56341556004E+02  0.16214986378E+03  0.81070127816E+02 0.  0.
         -6    2    1    2    0  501 -0.16750807409E+03 -0.25496253025E+02  0.37709376291E+02  0.24455243343E+03  0.17226398880E+03 0.  0.
        -24    2    5    5    0    0 -0.12268017931E+03  0.16906650957E+02 -0.31102849258E+02  0.15200645134E+03  0.82476134584E+02 0.  0.
          2    1    4    4  502    0  0.36926859681E+02  0.77680967392E+02 -0.17757437593E+02  0.87825123118E+02  0.00000000000E+00 0. -1.
         -1    1    4    4    0  502  0.63466052528E+02  0.27373448492E+01 -0.38584118411E+02  0.74324740658E+02  0.00000000000E+00 0.  1.
          5    1    3    3  503    0  0.67115161878E+02 -0.54922059216E+02  0.10631670654E+01  0.86856766384E+02  0.47000000000E+01 0. -1.
         11    1    6    6    0    0 -0.15979845615E+02  0.25445348425E+01  0.25630170188E+02  0.30310654023E+02  0.00000000000E+00 0. -1.
        -12    1    6    6    0    0 -0.10670033369E+03  0.14362116115E+02 -0.56733019446E+02  0.12169579732E+03  0.00000000000E+00 0.  1.
         -5    1    5    5    0  501 -0.44827894777E+02 -0.42402903983E+02  0.68812225549E+02  0.92545982092E+02  0.47000000000E+01 0.  1.
<mgrwt>
<rscale>  2 0.24220976E+03</rscale>
<asrwt>0</asrwt>
<pdfrwt beam="1">  1        1 0.36614619E-01 0.24220976E+03</pdfrwt>
<pdfrwt beam="2">  1       -1 0.39317544E-01 0.24220976E+03</pdfrwt>
<totfact> 0.75004848E+02</totfact>
</mgrwt>
</event>
<event>
12    1  0.1093377E-001  0.1855546E+03  0.7546771E-02  0.1162533E+00
          2   -1    0    0  503    0  0.00000000000E+00  0.00000000000E+00  0.78653379182E+03  0.78653379182E+03  0.00000000000E+00 0. -1.
         -2   -1    0    0    0  501 -0.00000000000E+00 -0.00000000000E+00 -0.55247757714E+02  0.55247757714E+02  0.00000000000E+00 0.  1.
          6    2    1    2  503    0 -0.20374746260E+02  0.59794793255E+02  0.55721826968E+03  0.58725599092E+03  0.17431824694E+03 0.  0.
         24    2    3    3    0    0  0.66004444614E+01  0.72926279882E+02  0.54298279494E+03  0.55371742213E+03  0.80067844989E+02 0.  0.
         -6    2    1    2    0  501  0.20374746260E+02 -0.59794793255E+02  0.17406776443E+03  0.25452555862E+03  0.17462281006E+03 0.  0.
        -24    2    5    5    0    0 -0.16725722894E+02  0.32039915044E+01  0.15992690142E+03  0.17991091060E+03  0.80630680176E+02 0.  0.
          2    1    4    4  502    0  0.23373191509E+02  0.82005943358E+02  0.49092681130E+03  0.49827744769E+03  0.00000000000E+00 0. -1.
         -1    1    4    4    0  502 -0.16772747048E+02 -0.90796634762E+01  0.52055983643E+02  0.55439974435E+02  0.00000000000E+00 0.  1.
          5    1    3    3  503    0 -0.26975190721E+02 -0.13131486627E+02  0.14235474740E+02  0.33538568791E+02  0.47000000000E+01 0. -1.
         11    1    6    6    0    0  0.32166683830E+02  0.59820675651E+01  0.75962648131E+02  0.82709156639E+02  0.00000000000E+00 0. -1.
        -12    1    6    6    0    0 -0.48892406723E+02 -0.27780760607E+01  0.83964253293E+02  0.97201753960E+02  0.00000000000E+00 0.  1.
         -5    1    5    5    0  501  0.37100469154E+02 -0.62998784760E+02  0.14140863004E+02  0.74614648020E+02  0.47000000000E+01 0.  1.
<mgrwt>
<rscale>  2 0.18555456E+03</rscale>
<asrwt>0</asrwt>
<pdfrwt beam="1">  1        2 0.12100519E+00 0.18555456E+03</pdfrwt>
<pdfrwt beam="2">  1       -2 0.84996556E-02 0.18555456E+03</pdfrwt>
<totfact> 0.30812496E+03</totfact>
</mgrwt>
</event>
<event>
12    1  0.1093377E-001  0.2404310E+03  0.7546771E-02  0.1119506E+00
         -1   -1    0    0    0  501 -0.00000000000E+00  0.00000000000E+00  0.57187121995E+02  0.57187121995E+02  0.00000000000E+00 0. -1.
          1   -1    0    0  503    0  0.00000000000E+00 -0.00000000000E+00 -0.10120721190E+04  0.10120721190E+04  0.00000000000E+00 0.  1.
          6    2    1    2  503    0 -0.16977605209E+03  0.18248887420E+01 -0.50043854518E+03  0.55637395444E+03  0.17402873787E+03 0.  0.
         24    2    3    3    0    0 -0.25201245453E+02  0.33775143203E+02 -0.24622166867E+03  0.26214444577E+03  0.79490485310E+02 0.  0.
         -6    2    1    2    0  501  0.16977605209E+03 -0.18248887420E+01 -0.45444645180E+03  0.51288528652E+03  0.16644068463E+03 0.  0.
        -24    2    5    5    0    0  0.12655771223E+03 -0.30951644383E+02 -0.42772496848E+03  0.45412883612E+03  0.79432312781E+02 0.  0.
          2    1    4    4  502    0  0.27693991151E+02  0.21678534868E+02 -0.83139654943E+02  0.90272466699E+02  0.00000000000E+00 0. -1.
         -1    1    4    4    0  502 -0.52895236604E+02  0.12096608336E+02 -0.16308201373E+03  0.17187197907E+03  0.00000000000E+00 0.  1.
          5    1    3    3  503    0 -0.14457480663E+03 -0.31950254461E+02 -0.25421687651E+03  0.29422950867E+03  0.47000000000E+01 0. -1.
         11    1    6    6    0    0  0.92836221534E+02  0.49323737816E+01 -0.19210085147E+03  0.21341422042E+03  0.00000000000E+00 0. -1.
        -12    1    6    6    0    0  0.33721490698E+02 -0.35884018165E+02 -0.23562411701E+03  0.24071461570E+03  0.00000000000E+00 0.  1.
         -5    1    5    5    0  501  0.43218339853E+02  0.29126755641E+02 -0.26721483318E+02  0.58756450408E+02  0.47000000000E+01 0.  1.
<mgrwt>
<rscale>  2 0.24043099E+03</rscale>
<asrwt>0</asrwt>
<pdfrwt beam="2">  1        1 0.15570340E+00 0.24043099E+03</pdfrwt>
<pdfrwt beam="1">  1       -1 0.87980191E-02 0.24043099E+03</pdfrwt>
<totfact> 0.11663588E+03</totfact>
</mgrwt>
</event>
<event>
12    1  0.1093377E-001  0.1890084E+03  0.7546771E-02  0.1159359E+00
          2   -1    0    0  503    0  0.00000000000E+00  0.00000000000E+00  0.22012006443E+04  0.22012006443E+04  0.00000000000E+00 0.  1.
         -2   -1    0    0    0  501 -0.00000000000E+00 -0.00000000000E+00 -0.39839549747E+02  0.39839549747E+02  0.00000000000E+00 0. -1.
          6    2    1    2  503    0  0.26164836377E+02 -0.71571094336E+02  0.19450053063E+04  0.19542392961E+04  0.17377734166E+03 0.  0.
         24    2    3    3    0    0 -0.15645466238E+02 -0.99479470635E+02  0.16386091499E+04  0.16437112401E+04  0.81275759068E+02 0.  0.
         -6    2    1    2    0  501 -0.26164836377E+02  0.71571094336E+02  0.21635578817E+03  0.28680089792E+03  0.17215663729E+03 0.  0.
        -24    2    5    5    0    0 -0.40591128120E+02 -0.17963438540E+02  0.14396311221E+03  0.17066589026E+03  0.80194411367E+02 0.  0.
          4    1    4    4  502    0 -0.63291590414E+00 -0.89901277903E+02  0.82092719664E+03  0.82583539676E+03  0.00000000000E+00 0. -1.
         -3    1    4    4    0  502 -0.15012550334E+02 -0.95781927320E+01  0.81768195328E+03  0.81787584337E+03  0.00000000000E+00 0.  1.
          5    1    3    3  503    0  0.41810302615E+02  0.27908376300E+02  0.30639615641E+03  0.31052805596E+03  0.47000000000E+01 0. -1.
         11    1    6    6    0    0 -0.80736449980E+01  0.25354654750E+01 -0.93479249329E+01  0.12609362763E+02  0.00000000000E+00 0. -1.
        -12    1    6    6    0    0 -0.32517483122E+02 -0.20498904015E+02  0.15331103714E+03  0.15805652750E+03  0.00000000000E+00 0.  1.
         -5    1    5    5    0  501  0.14426291743E+02  0.89534532876E+02  0.72392675957E+02  0.11613500765E+03  0.47000000000E+01 0.  1.
<mgrwt>
<rscale>  2 0.18900835E+03</rscale>
<asrwt>0</asrwt>
<pdfrwt beam="1">  1        2 0.33864616E+00 0.18900835E+03</pdfrwt>
<pdfrwt beam="2">  1       -2 0.61291632E-02 0.18900835E+03</pdfrwt>
<totfact> 0.84474135E+02</totfact>
</mgrwt>
</event>
<event>
12    1  0.1093377E-001  0.2387220E+03  0.7546771E-02  0.1120647E+00
         -2   -1    0    0    0  501 -0.00000000000E+00  0.00000000000E+00  0.34719874969E+02  0.34719874969E+02  0.00000000000E+00 0.  1.
          2   -1    0    0  503    0  0.00000000000E+00 -0.00000000000E+00 -0.20927833096E+04  0.20927833096E+04  0.00000000000E+00 0. -1.
          6    2    1    2  503    0 -0.18154187232E+02  0.16376495235E+03 -0.15236254842E+04  0.15422388603E+04  0.17296690979E+03 0.  0.
         24    2    3    3    0    0 -0.12038870636E+01  0.18517392672E+03 -0.11596064950E+04  0.11771668518E+04  0.82120285429E+02 0.  0.
         -6    2    1    2    0  501  0.18154187232E+02 -0.16376495235E+03 -0.53443795046E+03  0.58526432433E+03  0.17251629578E+03 0.  0.
        -24    2    5    5    0    0 -0.95382658775E+01 -0.65933098540E+02 -0.42694155618E+03  0.43722544983E+03  0.66699697050E+02 0.  0.
          2    1    4    4  502    0 -0.19284195078E+02  0.12672317749E+03 -0.95633285620E+03  0.96488505831E+03  0.00000000000E+00 0. -1.
         -1    1    4    4    0  502  0.18080308014E+02  0.58450749227E+02 -0.20327363876E+03  0.21228179347E+03  0.00000000000E+00 0.  1.
          5    1    3    3  503    0 -0.16950300169E+02 -0.21408974365E+02 -0.36401898925E+03  0.36507200850E+03  0.47000000000E+01 0. -1.
         13    1    6    6    0    0  0.27979217381E+02 -0.19508669243E+02 -0.17688306097E+03  0.18014172765E+03  0.00000000000E+00 0. -1.
        -14    1    6    6    0    0 -0.37517483259E+02 -0.46424429297E+02 -0.25005849521E+03  0.25708372219E+03  0.00000000000E+00 0.  1.
         -5    1    5    5    0  501  0.27692453110E+02 -0.97831853812E+02 -0.10749639427E+03  0.14803887449E+03  0.47000000000E+01 0.  1.
<mgrwt>
<rscale>  2 0.23872200E+03</rscale>
<asrwt>0</asrwt>
<pdfrwt beam="2">  1        2 0.32196663E+00 0.23872200E+03</pdfrwt>
<pdfrwt beam="1">  1       -2 0.53415198E-02 0.23872200E+03</pdfrwt>
<totfact> 0.11791277E+03</totfact>
</mgrwt>
</event>
<event>
12    1  0.1093377E-001  0.2024714E+03  0.7546771E-02  0.1147670E+00
         -2   -1    0    0    0  501 -0.00000000000E+00  0.00000000000E+00  0.25043937167E+03  0.25043937167E+03  0.00000000000E+00 0.  1.
          2   -1    0    0  503    0  0.00000000000E+00 -0.00000000000E+00 -0.16754567877E+03  0.16754567877E+03  0.00000000000E+00 0. -1.
          6    2    1    2  503    0 -0.19836829576E+02  0.10369353588E+03  0.73304238680E+02  0.21613229171E+03  0.17376365248E+03 0.  0.
         24    2    3    3    0    0  0.72946843453E+01  0.10871803288E+03 -0.28490855648E+01  0.13499793764E+03  0.79646109658E+02 0.  0.
         -6    2    1    2    0  501  0.19836829576E+02 -0.10369353588E+03  0.95894542180E+01  0.20185275874E+03  0.17177522926E+03 0.  0.
        -24    2    5    5    0    0  0.20483686952E+02 -0.75900013720E+02 -0.57530668611E+02  0.12905097863E+03  0.84640319824E+02 0.  0.
          2    1    4    4  502    0 -0.75122624685E+01  0.83313694728E+02 -0.35663271365E+02  0.90936652353E+02  0.00000000000E+00 0. -1.
         -1    1    4    4    0  502  0.14806946814E+02  0.25404338156E+02  0.32814185801E+02  0.44061285284E+02  0.00000000000E+00 0.  1.
          5    1    3    3  503    0 -0.27131513921E+02 -0.50244970087E+01  0.76153324245E+02  0.81134354077E+02  0.47000000000E+01 0. -1.
         11    1    6    6    0    0  0.11622967027E+02  0.11245101360E+02 -0.35075220087E+02  0.38624043435E+02  0.00000000000E+00 0. -1.
        -12    1    6    6    0    0  0.88607199255E+01 -0.87145115079E+02 -0.22455448524E+02  0.90426935192E+02  0.00000000000E+00 0.  1.
         -5    1    5    5    0  501 -0.64685737661E+00 -0.27793522156E+02  0.67120122829E+02  0.72801780108E+02  0.47000000000E+01 0.  1.
<mgrwt>
<rscale>  2 0.20247142E+03</rscale>
<asrwt>0</asrwt>
<pdfrwt beam="2">  1        2 0.25776258E-01 0.20247142E+03</pdfrwt>
<pdfrwt beam="1">  1       -2 0.38529134E-01 0.20247142E+03</pdfrwt>
<totfact> 0.13200215E+03</totfact>
</mgrwt>
</event>
<event>
12    1  0.1093377E-001  0.3173002E+03  0.7546771E-02  0.1076899E+00
         -4   -1    0    0    0  501 -0.00000000000E+00  0.00000000000E+00  0.30591223137E+03  0.30591223137E+03  0.00000000000E+00 0. -1.
          4   -1    0    0  503    0  0.00000000000E+00 -0.00000000000E+00 -0.37849291265E+03  0.37849291265E+03  0.00000000000E+00 0.  1.
          6    2    1    2  503    0 -0.21736131441E+03  0.14479559257E+03  0.87672466782E+02  0.32480954967E+03  0.17205544890E+03 0.  0.
         24    2    3    3    0    0 -0.15992160949E+03  0.16747257006E+03  0.45303382100E+02  0.24977093065E+03  0.81921538447E+02 0.  0.
         -6    2    1    2    0  501  0.21736131441E+03 -0.14479559257E+03 -0.16025314807E+03  0.35959559435E+03  0.18819196416E+03 0.  0.
        -24    2    5    5    0    0  0.22263312866E+03 -0.12407734085E+03 -0.83414141593E+02  0.27969965643E+03  0.79456165889E+02 0.  0.
          2    1    4    4  502    0 -0.12121874665E+03  0.78792790396E+02  0.41790898393E+01  0.14463662451E+03  0.00000000000E+00 0. -1.
         -1    1    4    4    0  502 -0.38702862846E+02  0.88679779660E+02  0.41124292261E+02  0.10513430614E+03  0.00000000000E+00 0.  1.
          5    1    3    3  503    0 -0.57439704917E+02 -0.22676977483E+02  0.42369084682E+02  0.75038619028E+02  0.47000000000E+01 0. -1.
         11    1    6    6    0    0  0.52536964701E+01  0.85113330500E+01  0.35810654021E+01  0.10623942126E+02  0.00000000000E+00 0. -1.
        -12    1    6    6    0    0  0.21737943219E+03 -0.13258867390E+03 -0.86995206996E+02  0.26907571430E+03  0.00000000000E+00 0.  1.
         -5    1    5    5    0  501 -0.52718142488E+01 -0.20718251722E+02 -0.76839006476E+02  0.79895937920E+02  0.47000000000E+01 0.  1.
<mgrwt>
<rscale>  2 0.31730018E+03</rscale>
<asrwt>0</asrwt>
<pdfrwt beam="2">  1        4 0.58229679E-01 0.31730018E+03</pdfrwt>
<pdfrwt beam="1">  1       -4 0.47063420E-01 0.31730018E+03</pdfrwt>
<totfact> 0.22992253E+01</totfact>
</mgrwt>
</event>
<event>
12    1  0.1093377E-001  0.1779382E+03  0.7546771E-02  0.1169813E+00
         -2   -1    0    0    0  501 -0.00000000000E+00  0.00000000000E+00  0.10548997712E+04  0.10548997712E+04  0.00000000000E+00 0. -1.
          2   -1    0    0  503    0  0.00000000000E+00 -0.00000000000E+00 -0.41509163289E+02  0.41509163289E+02  0.00000000000E+00 0.  1.
          6    2    1    2  503    0  0.37948736964E+02 -0.20192031319E+02  0.22178854016E+03  0.28542744564E+03  0.17444439060E+03 0.  0.
         24    2    3    3    0    0 -0.35462424757E+02 -0.42768406853E+02  0.15375946866E+03  0.18271943248E+03  0.81594709453E+02 0.  0.
         -6    2    1    2    0  501 -0.37948736964E+02  0.20192031319E+02  0.79160206772E+03  0.81098148881E+03  0.17090733401E+03 0.  0.
        -24    2    5    5    0    0  0.20342052623E+02 -0.28556989648E+02  0.58035286746E+03  0.58643172194E+03  0.76572925763E+02 0.  0.
          4    1    4    4  502    0  0.19559728049E+02 -0.35642456280E+02  0.45137573339E+02  0.60748400621E+02  0.00000000000E+00 0. -1.
         -3    1    4    4    0  502 -0.55022152807E+02 -0.71259505728E+01  0.10862189532E+03  0.12197103186E+03  0.00000000000E+00 0.  1.
          5    1    3    3  503    0  0.73411161721E+02  0.22576375534E+02  0.68029071503E+02  0.10270801316E+03  0.47000000000E+01 0. -1.
         13    1    6    6    0    0  0.21990263183E+01 -0.46123616001E+02  0.20085536768E+03  0.20609488687E+03  0.00000000000E+00 0. -1.
        -14    1    6    6    0    0  0.18143026305E+02  0.17566626353E+02  0.37949749979E+03  0.38033683507E+03  0.00000000000E+00 0.  1.
         -5    1    5    5    0  501 -0.58290789587E+02  0.48749020967E+02  0.21124920025E+03  0.22454976687E+03  0.47000000000E+01 0.  1.
<mgrwt>
<rscale>  2 0.17793824E+03</rscale>
<asrwt>0</asrwt>
<pdfrwt beam="2">  1        2 0.63860259E-02 0.17793824E+03</pdfrwt>
<pdfrwt beam="1">  1       -2 0.16229225E+00 0.17793824E+03</pdfrwt>
<totfact> 0.29185133E+02</totfact>
</mgrwt>
</event>
<event>
12    1  0.1093377E-001  0.1807295E+03  0.7546771E-02  0.1167099E+00
          4   -1    0    0  503    0  0.00000000000E+00  0.00000000000E+00  0.35971664201E+03  0.35971664201E+03  0.00000000000E+00 0. -1.
         -4   -1    0    0    0  501 -0.00000000000E+00 -0.00000000000E+00 -0.94775811838E+02  0.94775811838E+02  0.00000000000E+00 0.  1.
          6    2    1    2  503    0 -0.14443301812E+02  0.67639972328E+02  0.17440007842E+03  0.24711661221E+03  0.16083363410E+03 0.  0.
         24    2    3    3    0    0 -0.54730186155E+02  0.69913438177E+02  0.79114759442E+02  0.14353290834E+03  0.80369574464E+02 0.  0.
         -6    2    1    2    0  501  0.14443301812E+02 -0.67639972328E+02  0.90540751758E+02  0.20737584164E+03  0.17327243619E+03 0.  0.
        -24    2    5    5    0    0  0.27431024528E+02 -0.80090977285E+02  0.12295439257E+03  0.17000683608E+03  0.81348115615E+02 0.  0.
          2    1    4    4  502    0 -0.59739603917E+02  0.21512216805E+02  0.69120194072E+02  0.93857322445E+02  0.00000000000E+00 0. -1.
         -1    1    4    4    0  502  0.50094177618E+01  0.48401221373E+02  0.99945653700E+01  0.49675585891E+02  0.00000000000E+00 0.  1.
          5    1    3    3  503    0  0.40286884344E+02 -0.22734658489E+01  0.95285318974E+02  0.10358370388E+03  0.47000000000E+01 0. -1.
         13    1    6    6    0    0 -0.28567641578E+02 -0.36163829602E+02  0.52547782575E+02  0.69894221294E+02  0.00000000000E+00 0. -1.
        -14    1    6    6    0    0  0.55998666106E+02 -0.43927147683E+02  0.70406609991E+02  0.10011261479E+03  0.00000000000E+00 0.  1.
         -5    1    5    5    0  501 -0.12987722716E+02  0.12451004957E+02 -0.32413640808E+02  0.37369005555E+02  0.47000000000E+01 0.  1.
<mgrwt>
<rscale>  2 0.18072947E+03</rscale>
<asrwt>0</asrwt>
<pdfrwt beam="1">  1        4 0.55341021E-01 0.18072947E+03</pdfrwt>
<pdfrwt beam="2">  1       -4 0.14580894E-01 0.18072947E+03</pdfrwt>
<totfact> 0.21805844E+02</totfact>
</mgrwt>
</event>
<event>
12    1  0.1093377E-001  0.2009257E+03  0.7546771E-02  0.1148960E+00
         -1   -1    0    0    0  501 -0.00000000000E+00  0.00000000000E+00  0.89077282229E+01  0.89077282229E+01  0.00000000000E+00 0.  1.
          1   -1    0    0  503    0  0.00000000000E+00 -0.00000000000E+00 -0.48103168374E+04  0.48103168374E+04  0.00000000000E+00 0. -1.
          6    2    1    2  503    0 -0.82074039460E+02  0.60780695863E+02 -0.29833993093E+04  0.29901770661E+04  0.17336956663E+03 0.  0.
         24    2    3    3    0    0  0.23875790656E+02  0.31854461823E+02 -0.14694674661E+04  0.14722594763E+04  0.81416038982E+02 0.  0.
         -6    2    1    2    0  501  0.82074039460E+02 -0.60780695863E+02 -0.18180097998E+04  0.18290474995E+04  0.17269824062E+03 0.  0.
        -24    2    5    5    0    0 -0.83422470072E+01  0.21626747590E+01 -0.74791795866E+03  0.75328934302E+03  0.89382834874E+02 0.  0.
          2    1    4    4  502    0  0.32918454202E+02 -0.10755210055E+02 -0.10426780276E+04  0.10432529743E+04  0.00000000000E+00 0. -1.
         -1    1    4    4    0  502 -0.90426635461E+01  0.42609671878E+02 -0.42678943848E+03  0.42900650193E+03  0.00000000000E+00 0.  1.
          5    1    3    3  503    0 -0.10594983012E+03  0.28926234040E+02 -0.15139318432E+04  0.15179175898E+04  0.47000000000E+01 0. -1.
         11    1    6    6    0    0 -0.12781605048E+02  0.17858094113E+02 -0.72403457873E+03  0.72436755322E+03  0.00000000000E+00 0. -1.
        -12    1    6    6    0    0  0.44393580411E+01 -0.15695419354E+02 -0.23883379930E+02  0.28921789803E+02  0.00000000000E+00 0.  1.
         -5    1    5    5    0  501  0.90416286468E+02 -0.62943370622E+02 -0.10700918412E+04  0.10757581565E+04  0.47000000000E+01 0.  1.
<mgrwt>
<rscale>  2 0.20092565E+03</rscale>
<asrwt>0</asrwt>
<pdfrwt beam="2">  1        1 0.74004740E+00 0.20092565E+03</pdfrwt>
<pdfrwt beam="1">  1       -1 0.13704222E-02 0.20092565E+03</pdfrwt>
<totfact> 0.25869880E+01</totfact>
</mgrwt>
</event>
<event>
12    1  0.1093377E-001  0.1826490E+03  0.7546771E-02  0.1165264E+00
          2   -1    0    0  503    0  0.00000000000E+00  0.00000000000E+00  0.84917946369E+03  0.84917946369E+03  0.00000000000E+00 0.  1.
         -2   -1    0    0    0  501 -0.00000000000E+00 -0.00000000000E+00 -0.39691475603E+02  0.39691475603E+02  0.00000000000E+00 0. -1.
          6    2    1    2  503    0  0.13353047173E+01 -0.59961143632E+02  0.35379121926E+03  0.39679205689E+03  0.16934753556E+03 0.  0.
         24    2    3    3    0    0 -0.35908747681E+02  0.22263754353E+02  0.19238897054E+03  0.21180332972E+03  0.77858985210E+02 0.  0.
         -6    2    1    2    0  501 -0.13353047173E+01  0.59961143632E+02  0.45569676883E+03  0.49207888241E+03  0.17574117219E+03 0.  0.
        -24    2    5    5    0    0 -0.20479191222E+02  0.31290146283E+02  0.95036810982E+02  0.12974449310E+03  0.80019794552E+02 0.  0.
          2    1    4    4  502    0 -0.19027046037E+02  0.36073359162E+02  0.37555480822E+02  0.55441228900E+02  0.00000000000E+00 0. -1.
         -1    1    4    4    0  502 -0.16881701644E+02 -0.13809604809E+02  0.15483348971E+03  0.15636210082E+03  0.00000000000E+00 0.  1.
          5    1    3    3  503    0  0.37244052398E+02 -0.82224897985E+02  0.16140224872E+03  0.18498872717E+03  0.47000000000E+01 0. -1.
         13    1    6    6    0    0  0.19437504760E+02  0.15158977120E+02 -0.81974579405E+00  0.24663397207E+02  0.00000000000E+00 0. -1.
        -14    1    6    6    0    0 -0.39916695983E+02  0.16131169163E+02  0.95856556776E+02  0.10508109589E+03  0.00000000000E+00 0.  1.
         -5    1    5    5    0  501  0.19143886505E+02  0.28670997349E+02  0.36065995785E+03  0.36233438931E+03  0.47000000000E+01 0.  1.
<mgrwt>
<rscale>  2 0.18264901E+03</rscale>
<asrwt>0</asrwt>
<pdfrwt beam="1">  1        2 0.13064298E+00 0.18264901E+03</pdfrwt>
<pdfrwt beam="2">  1       -2 0.61063815E-02 0.18264901E+03</pdfrwt>
<totfact> 0.46573357E+03</totfact>
</mgrwt>
</event>
<event>
12    1  0.1093377E-001  0.1822331E+03  0.7546771E-02  0.1165659E+00
         -1   -1    0    0    0  501 -0.00000000000E+00  0.00000000000E+00  0.26800949558E+02  0.26800949558E+02  0.00000000000E+00 0.  1.
          1   -1    0    0  503    0  0.00000000000E+00 -0.00000000000E+00 -0.18206289582E+04  0.18206289582E+04  0.00000000000E+00 0. -1.
          6    2    1    2  503    0  0.45913932757E+02 -0.35283079004E+02 -0.14197025773E+04  0.14313785312E+04  0.17302053842E+03 0.  0.
         24    2    3    3    0    0  0.24181231891E+01 -0.19004381278E+02 -0.31426031965E+03  0.32495114703E+03  0.80415705077E+02 0.  0.
         -6    2    1    2    0  501 -0.45913932757E+02  0.35283079004E+02 -0.37412543129E+03  0.41605137650E+03  0.17255701859E+03 0.  0.
        -24    2    5    5    0    0  0.24340508245E+02  0.43866104655E+02 -0.29224290412E+03  0.30771766492E+03  0.82265125140E+02 0.  0.
          4    1    4    4  502    0 -0.29017550647E+01 -0.47949415563E+02 -0.24552997962E+03  0.25018500660E+03  0.00000000000E+00 0. -1.
         -3    1    4    4    0  502  0.53198782539E+01  0.28945034285E+02 -0.68730340031E+02  0.74766140432E+02  0.00000000000E+00 0.  1.
          5    1    3    3  503    0  0.43495809568E+02 -0.16278697726E+02 -0.11054422577E+04  0.11064273842E+04  0.47000000000E+01 0. -1.
         13    1    6    6    0    0 -0.92186512442E+01  0.50932743362E+02 -0.23784143733E+03  0.24340845751E+03  0.00000000000E+00 0. -1.
        -14    1    6    6    0    0  0.33559159489E+02 -0.70666387074E+01 -0.54401466793E+02  0.64309207408E+02  0.00000000000E+00 0.  1.
         -5    1    5    5    0  501 -0.70254441002E+02 -0.85830256508E+01 -0.81882527167E+02  0.10833371158E+03  0.47000000000E+01 0.  1.
<mgrwt>
<rscale>  2 0.18223310E+03</rscale>
<asrwt>0</asrwt>
<pdfrwt beam="2">  1        1 0.28009680E+00 0.18223310E+03</pdfrwt>
<pdfrwt beam="1">  1       -1 0.41232224E-02 0.18223310E+03</pdfrwt>
<totfact> 0.10449360E+03</totfact>
</mgrwt>
</event>
<event>
12    1  0.1093377E-001  0.1970565E+03  0.7546771E-02  0.1152246E+00
         -2   -1    0    0    0  501 -0.00000000000E+00  0.00000000000E+00  0.73341973507E+03  0.73341973507E+03  0.00000000000E+00 0. -1.
          2   -1    0    0  503    0  0.00000000000E+00 -0.00000000000E+00 -0.56937882428E+02  0.56937882428E+02  0.00000000000E+00 0.  1.
          6    2    1    2  503    0  0.67859026021E+02 -0.62172303681E+02  0.23094834437E+03  0.30250004983E+03  0.17233368684E+03 0.  0.
         24    2    3    3    0    0  0.48126765467E+01  0.20731517920E+02  0.80305566891E+02  0.11929736910E+03  0.85614954942E+02 0.  0.
         -6    2    1    2    0  501 -0.67859026021E+02  0.62172303681E+02  0.44553350827E+03  0.48785756767E+03  0.17616655921E+03 0.  0.
        -24    2    5    5    0    0 -0.81359647081E+02  0.59212834650E+02  0.45342643001E+03  0.47126198272E+03  0.79792085862E+02 0.  0.
          2    1    4    4  502    0 -0.28839320763E+01 -0.32199613220E+02  0.17357644722E+02  0.36693595981E+02  0.00000000000E+00 0. -1.
         -1    1    4    4    0  502  0.76966086230E+01  0.52931131141E+02  0.62947922169E+02  0.82603773119E+02  0.00000000000E+00 0.  1.
          5    1    3    3  503    0  0.63046349475E+02 -0.82903821602E+02  0.15064277748E+03  0.18320268073E+03  0.47000000000E+01 0. -1.
         11    1    6    6    0    0 -0.55186152953E+02  0.12797338422E+02  0.11004591115E+03  0.12377150686E+03  0.00000000000E+00 0. -1.
        -12    1    6    6    0    0 -0.26173494128E+02  0.46415496228E+02  0.34338051886E+03  0.34749047587E+03  0.00000000000E+00 0.  1.
         -5    1    5    5    0  501  0.13500621060E+02  0.29594690310E+01 -0.78929217458E+01  0.16595584944E+02  0.47000000000E+01 0.  1.
<mgrwt>
<rscale>  2 0.19705653E+03</rscale>
<asrwt>0</asrwt>
<pdfrwt beam="2">  1        2 0.87596747E-02 0.19705653E+03</pdfrwt>
<pdfrwt beam="1">  1       -2 0.11283380E+00 0.19705653E+03</pdfrwt>
<totfact> 0.48509279E+02</totfact>
</mgrwt>
</event>
<event>
12    1  0.1093377E-001  0.2169788E+03  0.7546771E-02  0.1136156E+00
         -4   -1    0    0    0  501 -0.00000000000E+00  0.00000000000E+00  0.13302349463E+04  0.13302349463E+04  0.00000000000E+00 0.  1.
          4   -1    0    0  503    0  0.00000000000E+00 -0.00000000000E+00 -0.35531023988E+02  0.35531023988E+02  0.00000000000E+00 0. -1.
          6    2    1    2  503    0  0.11646157770E+03  0.53229733224E+02  0.69474129935E+03  0.72834356180E+03  0.17726298940E+03 0.  0.
         24    2    3    3    0    0 -0.66465669612E+01 -0.62498251496E+01  0.21272544062E+03  0.22728986087E+03  0.79531947045E+02 0.  0.
         -6    2    1    2    0  501 -0.11646157770E+03 -0.53229733224E+02  0.59996262301E+03  0.63742240854E+03  0.17307649846E+03 0.  0.
        -24    2    5    5    0    0 -0.14784442579E+01 -0.13763113309E+02  0.12759850334E+03  0.14964306640E+03  0.76941927337E+02 0.  0.
          2    1    4    4  502    0  0.75382478026E+01  0.35120809804E+02  0.84768404710E+02  0.92065079690E+02  0.00000000000E+00 0. -1.
         -1    1    4    4    0  502 -0.14184814764E+02 -0.41370634954E+02  0.12795703591E+03  0.13522478118E+03  0.00000000000E+00 0.  1.
          5    1    3    3  503    0  0.12310814466E+03  0.59479558374E+02  0.48201585872E+03  0.50105370092E+03  0.47000000000E+01 0. -1.
         13    1    6    6    0    0 -0.22933208702E+02 -0.37316127438E+02  0.54615791220E+02  0.70009357081E+02  0.00000000000E+00 0. -1.
        -14    1    6    6    0    0  0.21454764444E+02  0.23553014129E+02  0.72982712120E+02  0.79633709321E+02  0.00000000000E+00 0.  1.
         -5    1    5    5    0  501 -0.11498313344E+03 -0.39466619915E+02  0.47236411967E+03  0.48777934214E+03  0.47000000000E+01 0.  1.
<mgrwt>
<rscale>  2 0.21697883E+03</rscale>
<asrwt>0</asrwt>
<pdfrwt beam="2">  1        4 0.54663124E-02 0.21697883E+03</pdfrwt>
<pdfrwt beam="1">  1       -4 0.20465149E+00 0.21697883E+03</pdfrwt>
<totfact> 0.50292353E+01</totfact>
</mgrwt>
</event>
<event>
12    1  0.1093377E-001  0.2249708E+03  0.7546771E-02  0.1130230E+00
         -2   -1    0    0    0  501 -0.00000000000E+00  0.00000000000E+00  0.11234273573E+03  0.11234273573E+03  0.00000000000E+00 0.  1.
          2   -1    0    0  503    0  0.00000000000E+00 -0.00000000000E+00 -0.46196782141E+03  0.46196782141E+03  0.00000000000E+00 0. -1.
          6    2    1    2  503    0  0.14069155675E+03 -0.22057267577E+02 -0.21943333416E+03  0.31371389524E+03  0.17316114672E+03 0.  0.
         24    2    3    3    0    0  0.13453625465E+02 -0.12353958005E+02 -0.32376478378E+02  0.87227686679E+02  0.78910155586E+02 0.  0.
         -6    2    1    2    0  501 -0.14069155675E+03  0.22057267577E+02 -0.13019175152E+03  0.26059666189E+03  0.17515733165E+03 0.  0.
        -24    2    5    5    0    0 -0.57552809685E+02 -0.26614046736E+02  0.28013963057E+01  0.96309670718E+02  0.72436672110E+02 0.  0.
          4    1    4    4  502    0 -0.21633191254E+01  0.30769959788E+02  0.41123303234E+00  0.30848654551E+02  0.00000000000E+00 0. -1.
         -3    1    4    4    0  502  0.15616944590E+02 -0.43123917793E+02 -0.32787711411E+02  0.56379032128E+02  0.00000000000E+00 0.  1.
          5    1    3    3  503    0  0.12723793128E+03 -0.97033095721E+01 -0.18705685578E+03  0.22648620857E+03  0.47000000000E+01 0. -1.
         11    1    6    6    0    0 -0.13163400155E+02  0.21753983786E+02  0.15021511694E+02  0.29532299738E+02  0.00000000000E+00 0. -1.
        -12    1    6    6    0    0 -0.44389409530E+02 -0.48368030522E+02 -0.12220115388E+02  0.66777370981E+02  0.00000000000E+00 0.  1.
         -5    1    5    5    0  501 -0.83138747065E+02  0.48671314313E+02 -0.13299314782E+03  0.16428699117E+03  0.47000000000E+01 0.  1.
<mgrwt>
<rscale>  2 0.22497084E+03</rscale>
<asrwt>0</asrwt>
<pdfrwt beam="2">  1        2 0.71071974E-01 0.22497084E+03</pdfrwt>
<pdfrwt beam="1">  1       -2 0.17283498E-01 0.22497084E+03</pdfrwt>
<totfact> 0.18266480E+03</totfact>
</mgrwt>
</event>
<event>
12    1  0.1093377E-001  0.1931065E+03  0.7546771E-02  0.1155689E+00
         -2   -1    0    0    0  501 -0.00000000000E+00  0.00000000000E+00  0.60254137425E+02  0.60254137425E+02  0.00000000000E+00 0. -1.
          2   -1    0    0  503    0  0.00000000000E+00 -0.00000000000E+00 -0.61914071611E+03  0.61914071611E+03  0.00000000000E+00 0.  1.
          6    2    1    2  503    0  0.74059982582E+02  0.39590875452E+02 -0.27297731074E+03  0.33456463726E+03  0.17425431383E+03 0.  0.
         24    2    3    3    0    0  0.43230771823E+02 -0.46752580537E+02 -0.13833097896E+03  0.17160035501E+03  0.79098158511E+02 0.  0.
         -6    2    1    2    0  501 -0.74059982582E+02 -0.39590875452E+02 -0.28590926794E+03  0.34483021627E+03  0.17352651129E+03 0.  0.
        -24    2    5    5    0    0  0.25266706176E+02 -0.18076821359E+02 -0.91443403992E+02  0.12535878791E+03  0.79923411228E+02 0.  0.
          4    1    4    4  502    0  0.36369058496E+02 -0.68462564727E+02 -0.11731506488E+03  0.14061527524E+03  0.00000000000E+00 0. -1.
         -3    1    4    4    0  502  0.68617133270E+01  0.21709984189E+02 -0.21015914084E+02  0.30985079765E+02  0.00000000000E+00 0.  1.
          5    1    3    3  503    0  0.30829210759E+02  0.86343455990E+02 -0.13464633179E+03  0.16296428226E+03  0.47000000000E+01 0. -1.
         11    1    6    6    0    0 -0.20451059975E+02 -0.23632557607E+02 -0.11893594164E+02  0.33439515775E+02  0.00000000000E+00 0. -1.
        -12    1    6    6    0    0  0.45717766151E+02  0.55557362476E+01 -0.79549809827E+02  0.91919272140E+02  0.00000000000E+00 0.  1.
         -5    1    5    5    0  501 -0.99326688758E+02 -0.21514054093E+02 -0.19446586395E+03  0.21947142836E+03  0.47000000000E+01 0.  1.
<mgrwt>
<rscale>  2 0.19310648E+03</rscale>
<asrwt>0</asrwt>
<pdfrwt beam="2">  1        2 0.95252413E-01 0.19310648E+03</pdfrwt>
<pdfrwt beam="1">  1       -2 0.92698678E-02 0.19310648E+03</pdfrwt>
<totfact> 0.35914477E+03</totfact>
</mgrwt>
</event>
<event>
12    1  0.1093377E-001  0.1943279E+03  0.7546771E-02  0.1154615E+00
          3   -1    0    0  503    0  0.00000000000E+00  0.00000000000E+00  0.84443231871E+02  0.84443231871E+02  0.00000000000E+00 0.  1.
         -3   -1    0    0    0  501 -0.00000000000E+00 -0.00000000000E+00 -0.45192988375E+03  0.45192988375E+03  0.00000000000E+00 0. -1.
          6    2    1    2  503    0  0.83679468001E+02 -0.28740677788E+02 -0.21058784655E+03  0.28613841784E+03  0.17233593104E+03 0.  0.
         24    2    3    3    0    0  0.15874306414E+02 -0.38336880676E+02 -0.45675129187E+02  0.10751053257E+03  0.88037419112E+02 0.  0.
         -6    2    1    2    0  501 -0.83679468001E+02  0.28740677788E+02 -0.15689880533E+03  0.25023469778E+03  0.17370057263E+03 0.  0.
        -24    2    5    5    0    0 -0.11720325663E+03  0.40582413740E+02 -0.69282011003E+02  0.15556229545E+03  0.63372667980E+02 0.  0.
          2    1    4    4  502    0 -0.19726839486E+02 -0.73959849974E+01  0.18383001951E+02  0.27960392538E+02  0.00000000000E+00 0. -1.
         -1    1    4    4    0  502  0.35601145900E+02 -0.30940895678E+02 -0.64058131138E+02  0.79550140035E+02  0.00000000000E+00 0.  1.
          5    1    3    3  503    0  0.67805161587E+02  0.95962028872E+01 -0.16491271736E+03  0.17862788527E+03  0.47000000000E+01 0. -1.
         13    1    6    6    0    0 -0.98339288725E+02  0.53629257699E+02 -0.70906490349E+02  0.13256863642E+03  0.00000000000E+00 0. -1.
        -14    1    6    6    0    0 -0.18863967907E+02 -0.13046843959E+02  0.16244793465E+01  0.22993659031E+02  0.00000000000E+00 0.  1.
         -5    1    5    5    0  501  0.33523788631E+02 -0.11841735952E+02 -0.87616794326E+02  0.94672402327E+02  0.47000000000E+01 0.  1.
<mgrwt>
<rscale>  2 0.19432787E+03</rscale>
<asrwt>0</asrwt>
<pdfrwt beam="1">  1        3 0.12991267E-01 0.19432787E+03</pdfrwt>
<pdfrwt beam="2">  1       -3 0.69527673E-01 0.19432787E+03</pdfrwt>
<totfact> 0.23339871E+02</totfact>
</mgrwt>
</event>
<event>
12    1  0.1093377E-001  0.1920576E+03  0.7546771E-02  0.1156619E+00
         -2   -1    0    0    0  501 -0.00000000000E+00  0.00000000000E+00  0.29741570317E+02  0.29741570317E+02  0.00000000000E+00 0. -1.
          2   -1    0    0  503    0  0.00000000000E+00 -0.00000000000E+00 -0.18944136819E+04  0.18944136819E+04  0.00000000000E+00 0.  1.
          6    2    1    2  503    0  0.29788972814E+02 -0.71565540822E+02 -0.14895508533E+04  0.15015628892E+04  0.17297501590E+03 0.  0.
         24    2    3    3    0    0 -0.29015996138E+02 -0.86811348195E+02 -0.83475466001E+03  0.84393791723E+03  0.83891164733E+02 0.  0.
         -6    2    1    2    0  501 -0.29788972814E+02  0.71565540822E+02 -0.37512125834E+03  0.42259236307E+03  0.17849184108E+03 0.  0.
        -24    2    5    5    0    0 -0.41544835981E+02 -0.91348578155E+01 -0.10185801802E+03  0.13738078692E+03  0.81786342115E+02 0.  0.
          2    1    4    4  502    0 -0.56864820626E+02 -0.41542977292E+02 -0.43452614630E+03  0.44019586391E+03  0.00000000000E+00 0. -1.
         -1    1    4    4    0  502  0.27848824487E+02 -0.45268370903E+02 -0.40022851371E+03  0.40374205332E+03  0.00000000000E+00 0.  1.
          5    1    3    3  503    0  0.58804968952E+02  0.15245807373E+02 -0.65479619325E+03  0.65762497193E+03  0.47000000000E+01 0. -1.
         11    1    6    6    0    0 -0.39310620696E+02  0.32126614912E+02 -0.59267128346E+02  0.78038687762E+02  0.00000000000E+00 0. -1.
        -12    1    6    6    0    0 -0.22342152843E+01 -0.41261472727E+02 -0.42590889673E+02  0.59342099160E+02  0.00000000000E+00 0.  1.
         -5    1    5    5    0  501  0.11755863167E+02  0.80700398637E+02 -0.27326324032E+03  0.28521157615E+03  0.47000000000E+01 0.  1.
<mgrwt>
<rscale>  2 0.19205759E+03</rscale>
<asrwt>0</asrwt>
<pdfrwt beam="2">  1        2 0.29144823E+00 0.19205759E+03</pdfrwt>
<pdfrwt beam="1">  1       -2 0.45756267E-02 0.19205759E+03</pdfrwt>
<totfact> 0.19013824E+03</totfact>
</mgrwt>
</event>
<event>
12    1  0.1093377E-001  0.2266458E+03  0.7546771E-02  0.1129023E+00
          2   -1    0    0  503    0  0.00000000000E+00  0.00000000000E+00  0.59990090545E+03  0.59990090545E+03  0.00000000000E+00 0. -1.
         -2   -1    0    0    0  501 -0.00000000000E+00 -0.00000000000E+00 -0.10979743717E+03  0.10979743717E+03  0.00000000000E+00 0.  1.
          6    2    1    2  503    0  0.99020792289E+02 -0.10912508909E+03  0.41188333609E+03  0.47032149785E+03  0.17274555396E+03 0.  0.
         24    2    3    3    0    0  0.17008578198E+02 -0.62791179942E+02  0.98179498828E+02  0.14274704538E+03  0.80656561811E+02 0.  0.
         -6    2    1    2    0  501 -0.99020792289E+02  0.10912508909E+03  0.78220132188E+02  0.23937684477E+03  0.17166677710E+03 0.  0.
        -24    2    5    5    0    0 -0.64974888359E+02  0.12465736483E+03  0.10474125120E+03  0.19327006742E+03  0.81371951771E+02 0.  0.
          2    1    4    4  502    0  0.23673726095E+02 -0.71207164355E+02  0.42904191469E+02  0.86438852424E+02  0.00000000000E+00 0. -1.
         -1    1    4    4    0  502 -0.66651478969E+01  0.84159844135E+01  0.55275307358E+02  0.56308192953E+02  0.00000000000E+00 0.  1.
          5    1    3    3  503    0  0.82012214091E+02 -0.46333909147E+02  0.31370383727E+03  0.32757445247E+03  0.47000000000E+01 0. -1.
         11    1    6    6    0    0  0.15714700841E+02  0.30468218189E+02  0.42193338671E+02  0.54364896490E+02  0.00000000000E+00 0. -1.
        -12    1    6    6    0    0 -0.80689589200E+02  0.94189146641E+02  0.62547912530E+02  0.13890517093E+03  0.00000000000E+00 0.  1.
         -5    1    5    5    0  501 -0.34045903929E+02 -0.15532275740E+02 -0.26521119013E+02  0.46106777351E+02  0.47000000000E+01 0.  1.
<mgrwt>
<rscale>  2 0.22664580E+03</rscale>
<asrwt>0</asrwt>
<pdfrwt beam="1">  1        2 0.92292445E-01 0.22664580E+03</pdfrwt>
<pdfrwt beam="2">  1       -2 0.16891914E-01 0.22664580E+03</pdfrwt>
<totfact> 0.14131738E+03</totfact>
</mgrwt>
</event>
<event>
12    1  0.1093377E-001  0.1794627E+03  0.7546771E-02  0.1168324E+00
          2   -1    0    0  503    0  0.00000000000E+00  0.00000000000E+00  0.13338859168E+04  0.13338859168E+04  0.00000000000E+00 0. -1.
         -2   -1    0    0    0  501 -0.00000000000E+00 -0.00000000000E+00 -0.50949190884E+02  0.50949190884E+02  0.00000000000E+00 0.  1.
          6    2    1    2  503    0  0.46974139605E+02 -0.44457005699E-01  0.11430169960E+04  0.11569579805E+04  0.17279277706E+03 0.  0.
         24    2    3    3    0    0  0.97221319205E+02 -0.20569936692E+01  0.65250582609E+03  0.66385340018E+03  0.74035584104E+02 0.  0.
         -6    2    1    2    0  501 -0.46974139605E+02  0.44457005699E-01  0.13991972996E+03  0.22787712720E+03  0.17361993693E+03 0.  0.
        -24    2    5    5    0    0  0.16353750963E+02  0.30194923569E+02  0.21672619641E+02  0.90312809670E+02  0.80669216982E+02 0.  0.
          4    1    4    4  502    0  0.70243678748E+02 -0.29012786815E+02  0.53350489238E+03  0.53889088543E+03  0.00000000000E+00 0. -1.
         -3    1    4    4    0  502  0.26977640457E+02  0.26955793146E+02  0.11900093371E+03  0.12496251475E+03  0.00000000000E+00 0.  1.
          5    1    3    3  503    0 -0.50247179600E+02  0.20125366635E+01  0.49051116990E+03  0.49310458034E+03  0.47000000000E+01 0. -1.
         11    1    6    6    0    0  0.48772846522E+01  0.37551948349E+02  0.47716839627E+02  0.60916611153E+02  0.00000000000E+00 0. -1.
        -12    1    6    6    0    0  0.11476466311E+02 -0.73570247800E+01 -0.26044219986E+02  0.29396198517E+02  0.00000000000E+00 0.  1.
         -5    1    5    5    0  501 -0.63327890568E+02 -0.30150466563E+02  0.11824711032E+03  0.13756431753E+03  0.47000000000E+01 0.  1.
<mgrwt>
<rscale>  2 0.17946272E+03</rscale>
<asrwt>0</asrwt>
<pdfrwt beam="1">  1        2 0.20521319E+00 0.17946272E+03</pdfrwt>
<pdfrwt beam="2">  1       -2 0.78383381E-02 0.17946272E+03</pdfrwt>
<totfact> 0.16446714E+03</totfact>
</mgrwt>
</event>
<event>
12    1  0.1095010E-001  0.2034056E+03  0.7546771E-02  0.1146897E+00
         -2   -1    0    0    0  501 -0.00000000000E+00  0.00000000000E+00  0.99144150292E+02  0.99144150292E+02  0.00000000000E+00 0. -1.
          2   -1    0    0  503    0  0.00000000000E+00 -0.00000000000E+00 -0.66646811009E+03  0.66646811009E+03  0.00000000000E+00 0.  1.
          6    2    1    2  503    0 -0.10372689988E+03  0.25730139455E+02 -0.48973574908E+02  0.20851580933E+03  0.17221823907E+03 0.  0.
         24    2    3    3    0    0 -0.11366882073E+03  0.63383184341E+02 -0.64203682264E+02  0.16643683893E+03  0.81492819769E+02 0.  0.
         -6    2    1    2    0  501  0.10372689988E+03 -0.25730139455E+02 -0.51835038489E+03  0.55709645105E+03  0.17391959183E+03 0.  0.
        -24    2    5    5    0    0  0.83463468565E+01 -0.47819800302E+02 -0.16239423635E+03  0.18789153140E+03  0.81086033109E+02 0.  0.
          4    1    4    4  502    0 -0.46626000321E+02  0.69525765474E+02 -0.20547256725E+02  0.86197480993E+02  0.00000000000E+00 0. -1.
         -3    1    4    4    0  502 -0.67042820413E+02 -0.61425811330E+01 -0.43656425539E+02  0.80239357941E+02  0.00000000000E+00 0.  1.
          5    1    3    3  503    0  0.99419208573E+01 -0.37653044886E+02  0.15230107356E+02  0.42078970396E+02  0.47000000000E+01 0. -1.
         13    1    6    6    0    0  0.25310620824E+02  0.25483962684E+01 -0.11511981529E+02  0.27922169843E+02  0.00000000000E+00 0. -1.
        -14    1    6    6    0    0 -0.16964273968E+02 -0.50368196570E+02 -0.15088225482E+03  0.15996936155E+03  0.00000000000E+00 0.  1.
         -5    1    5    5    0  501  0.95380553020E+02  0.22089660847E+02 -0.35595614855E+03  0.36920491966E+03  0.47000000000E+01 0.  1.
<mgrwt>
<rscale>  2 0.20340559E+03</rscale>
<asrwt>0</asrwt>
<pdfrwt beam="2">  1        2 0.10253356E+00 0.20340559E+03</pdfrwt>
<pdfrwt beam="1">  1       -2 0.15252946E-01 0.20340559E+03</pdfrwt>
<totfact> 0.14782475E+03</totfact>
</mgrwt>
</event>
<event>
12    1  0.1093377E-001  0.3490508E+03  0.7546771E-02  0.1063005E+00
          2   -1    0    0  503    0  0.00000000000E+00  0.00000000000E+00  0.34367837270E+03  0.34367837270E+03  0.00000000000E+00 0. -1.
         -2   -1    0    0    0  501 -0.00000000000E+00 -0.00000000000E+00 -0.60629245809E+03  0.60629245809E+03  0.00000000000E+00 0.  1.
          6    2    1    2  503    0  0.86407387512E+02  0.28961834919E+03 -0.43725166899E+03  0.55906800648E+03  0.17327143164E+03 0.  0.
         24    2    3    3    0    0 -0.14170024805E+02  0.17888763636E+03 -0.27849176003E+03  0.34088481435E+03  0.80269671754E+02 0.  0.
         -6    2    1    2    0  501 -0.86407387512E+02 -0.28961834919E+03  0.17463758360E+03  0.39090282431E+03  0.17595939201E+03 0.  0.
        -24    2    5    5    0    0 -0.12475709282E+03 -0.21628710586E+03  0.98889433200E+02  0.27861728011E+03  0.74189112465E+02 0.  0.
          4    1    4    4  502    0 -0.15286764629E+02  0.72644314276E+01 -0.43904684030E+01  0.17485232329E+02  0.00000000000E+00 0. -1.
         -3    1    4    4    0  502  0.11167398239E+01  0.17162320493E+03 -0.27410129163E+03  0.32339958202E+03  0.00000000000E+00 0.  1.
          5    1    3    3  503    0  0.10057741232E+03  0.11073071284E+03 -0.15875990896E+03  0.21818319213E+03  0.47000000000E+01 0. -1.
         13    1    6    6    0    0 -0.54266610428E+02 -0.11177937877E+03  0.87648669081E+02  0.15205848782E+03  0.00000000000E+00 0. -1.
        -14    1    6    6    0    0 -0.70490482387E+02 -0.10450772709E+03  0.11240764119E+02  0.12655879229E+03  0.00000000000E+00 0.  1.
         -5    1    5    5    0  501  0.38349705303E+02 -0.73331243338E+02  0.75748150404E+02  0.11228554420E+03  0.47000000000E+01 0.  1.
<mgrwt>
<rscale>  2 0.34905081E+03</rscale>
<asrwt>0</asrwt>
<pdfrwt beam="1">  1        2 0.52873596E-01 0.34905081E+03</pdfrwt>
<pdfrwt beam="2">  1       -2 0.93275762E-01 0.34905081E+03</pdfrwt>
<totfact> 0.95131007E+01</totfact>
</mgrwt>
</event>
<event>
12    1  0.1093377E-001  0.4148249E+03  0.7546771E-02  0.1038764E+00
          2   -1    0    0  503    0  0.00000000000E+00  0.00000000000E+00  0.18914656175E+04  0.18914656175E+04  0.00000000000E+00 0. -1.
         -2   -1    0    0    0  501 -0.00000000000E+00 -0.00000000000E+00 -0.37343387455E+03  0.37343387455E+03  0.00000000000E+00 0.  1.
          6    2    1    2  503    0  0.33597617954E+03  0.17276943497E+03  0.17443238152E+04  0.17931886365E+04  0.17358180476E+03 0.  0.
         24    2    3    3    0    0  0.32692088670E+03  0.19508735083E+03  0.15865112337E+04  0.16334795617E+04  0.79380370454E+02 0.  0.
         -6    2    1    2    0  501 -0.33597617954E+03 -0.17276943497E+03 -0.22629207230E+03  0.47171085549E+03  0.16903774231E+03 0.  0.
        -24    2    5    5    0    0 -0.32121086188E+03 -0.19468147484E+03 -0.19616353075E+03  0.43136273147E+03  0.80724103395E+02 0.  0.
          2    1    4    4  502    0  0.28016436309E+03  0.19256710614E+03  0.14437379033E+04  0.14832239528E+04  0.00000000000E+00 0. -1.
         -1    1    4    4    0  502  0.46756523611E+02  0.25202446840E+01  0.14277333036E+03  0.15025560886E+03  0.00000000000E+00 0.  1.
          5    1    3    3  503    0  0.90552928454E+01 -0.22317915859E+02  0.15781258154E+03  0.15970907485E+03  0.47000000000E+01 0. -1.
         11    1    6    6    0    0 -0.57683609892E+02 -0.62213159204E+02 -0.17832437002E+02  0.86694128047E+02  0.00000000000E+00 0. -1.
        -12    1    6    6    0    0 -0.26352725198E+03 -0.13246831563E+03 -0.17833109375E+03  0.34466860342E+03  0.00000000000E+00 0.  1.
         -5    1    5    5    0  501 -0.14765317666E+02  0.21912039867E+02 -0.30128541541E+02  0.40348124025E+02  0.47000000000E+01 0.  1.
<mgrwt>
<rscale>  2 0.41482492E+03</rscale>
<asrwt>0</asrwt>
<pdfrwt beam="1">  1        2 0.29099470E+00 0.41482492E+03</pdfrwt>
<pdfrwt beam="2">  1       -2 0.57451366E-01 0.41482492E+03</pdfrwt>
<totfact> 0.23850686E+01</totfact>
</mgrwt>
</event>
<event>
12    1  0.1093377E-001  0.2045632E+03  0.7546771E-02  0.1145945E+00
          1   -1    0    0  503    0  0.00000000000E+00  0.00000000000E+00  0.47265881119E+03  0.47265881119E+03  0.00000000000E+00 0. -1.
         -1   -1    0    0    0  501 -0.00000000000E+00 -0.00000000000E+00 -0.12184390061E+03  0.12184390061E+03  0.00000000000E+00 0.  1.
          6    2    1    2  503    0 -0.47041440784E+02  0.10036336706E+03  0.19655354621E+02  0.20497563853E+03  0.17129791834E+03 0.  0.
         24    2    3    3    0    0 -0.34370466421E+02  0.24987084866E+02 -0.47606919309E+02  0.10305193666E+03  0.80917238655E+02 0.  0.
         -6    2    1    2    0  501  0.47041440784E+02 -0.10036336706E+03  0.33115955596E+03  0.38952707327E+03  0.17256589091E+03 0.  0.
        -24    2    5    5    0    0 -0.32752916236E+02 -0.82363746527E+02  0.23110899359E+03  0.26020835543E+03  0.80252607773E+02 0.  0.
          2    1    4    4  502    0  0.11303991318E+02 -0.16173654973E+02 -0.35162103611E+02  0.40320476997E+02  0.00000000000E+00 0. -1.
         -1    1    4    4    0  502 -0.45674457739E+02  0.41160739839E+02 -0.12444815698E+02  0.62731459665E+02  0.00000000000E+00 0.  1.
          5    1    3    3  503    0 -0.12670974363E+02  0.75376282195E+02  0.67262273930E+02  0.10192370187E+03  0.47000000000E+01 0. -1.
         11    1    6    6    0    0 -0.53026671733E+02 -0.68587133684E+02  0.13061565233E+03  0.15676884721E+03  0.00000000000E+00 0. -1.
        -12    1    6    6    0    0  0.20273755497E+02 -0.13776612843E+02  0.10049334126E+03  0.10343950823E+03  0.00000000000E+00 0.  1.
         -5    1    5    5    0  501  0.79794357020E+02 -0.17999620534E+02  0.10005056237E+03  0.12931871784E+03  0.47000000000E+01 0.  1.
<mgrwt>
<rscale>  2 0.20456323E+03</rscale>
<asrwt>0</asrwt>
<pdfrwt beam="1">  1        1 0.72716739E-01 0.20456323E+03</pdfrwt>
<pdfrwt beam="2">  1       -1 0.18745216E-01 0.20456323E+03</pdfrwt>
<totfact> 0.10906642E+03</totfact>
</mgrwt>
</event>
<event>
12    1  0.1093377E-001  0.1815637E+03  0.7546771E-02  0.1166298E+00
         -2   -1    0    0    0  501 -0.00000000000E+00  0.00000000000E+00  0.25651716099E+02  0.25651716099E+02  0.00000000000E+00 0. -1.
          2   -1    0    0  503    0  0.00000000000E+00 -0.00000000000E+00 -0.14325456819E+04  0.14325456819E+04  0.00000000000E+00 0.  1.
          6    2    1    2  503    0 -0.59740307201E+02  0.17364151591E+02 -0.45370522391E+03  0.48695246945E+03  0.16554111040E+03 0.  0.
         24    2    3    3    0    0 -0.83158027763E+02  0.18961815593E+02 -0.44694005719E+03  0.46207678559E+03  0.80527840112E+02 0.  0.
         -6    2    1    2    0  501  0.59740307201E+02 -0.17364151591E+02 -0.95318874187E+03  0.97124492853E+03  0.17571999175E+03 0.  0.
        -24    2    5    5    0    0 -0.18504257605E+02 -0.53032964228E+02 -0.56424186970E+03  0.57287796769E+03  0.81641750959E+02 0.  0.
          2    1    4    4  502    0 -0.99211114759E+02  0.19186176907E+02 -0.37589318579E+03  0.38923854099E+03  0.00000000000E+00 0. -1.
         -1    1    4    4    0  502  0.16053086996E+02 -0.22436131359E+00 -0.71046871402E+02  0.72838244598E+02  0.00000000000E+00 0.  1.
          5    1    3    3  503    0  0.23417720562E+02 -0.15976640022E+01 -0.67651667253E+01  0.24875683858E+02  0.47000000000E+01 0. -1.
         11    1    6    6    0    0 -0.15825688702E+02  0.14876185874E+02 -0.55201097201E+02  0.59320438815E+02  0.00000000000E+00 0. -1.
        -12    1    6    6    0    0 -0.26785689031E+01 -0.67909150102E+02 -0.50904077250E+03  0.51355752888E+03  0.00000000000E+00 0.  1.
         -5    1    5    5    0  501  0.78244564807E+02  0.35668812637E+02 -0.38894687217E+03  0.39836696084E+03  0.47000000000E+01 0.  1.
<mgrwt>
<rscale>  2 0.18156372E+03</rscale>
<asrwt>0</asrwt>
<pdfrwt beam="2">  1        2 0.22039164E+00 0.18156372E+03</pdfrwt>
<pdfrwt beam="1">  1       -2 0.39464179E-02 0.18156372E+03</pdfrwt>
<totfact> 0.41365898E+03</totfact>
</mgrwt>
</event>
<event>
12    1  0.1093377E-001  0.1923173E+03  0.7546771E-02  0.1156388E+00
          1   -1    0    0  503    0  0.00000000000E+00  0.00000000000E+00  0.24430198967E+03  0.24430198967E+03  0.00000000000E+00 0. -1.
         -1   -1    0    0    0  501 -0.00000000000E+00 -0.00000000000E+00 -0.15159593689E+03  0.15159593689E+03  0.00000000000E+00 0.  1.
          6    2    1    2  503    0  0.88003344374E+02 -0.31873548948E+02  0.51080944537E+02  0.19493539963E+03  0.16318711773E+03 0.  0.
         24    2    3    3    0    0 -0.91861055239E+01 -0.28672194792E+02  0.48404400879E+02  0.97542937266E+02  0.79152759251E+02 0.  0.
         -6    2    1    2    0  501 -0.88003344374E+02  0.31873548948E+02  0.41625108245E+02  0.20096252693E+03  0.17289527423E+03 0.  0.
        -24    2    5    5    0    0 -0.60432603491E+02  0.27202838498E+02  0.94932709148E+02  0.14058246728E+03  0.79744070967E+02 0.  0.
          2    1    4    4  502    0 -0.25487596586E+01  0.27751584129E+02  0.15467564883E+02  0.31873063250E+02  0.00000000000E+00 0. -1.
         -1    1    4    4    0  502 -0.66373458652E+01 -0.56423778921E+02  0.32936835996E+02  0.65669874016E+02  0.00000000000E+00 0.  1.
          5    1    3    3  503    0  0.97189449898E+02 -0.32013541568E+01  0.26765436577E+01  0.97392462367E+02  0.47000000000E+01 0. -1.
         11    1    6    6    0    0 -0.55693974213E+02  0.52681577872E+02  0.79392738267E+02  0.11036473305E+03  0.00000000000E+00 0. -1.
        -12    1    6    6    0    0 -0.47386292783E+01 -0.25478739374E+02  0.15539970881E+02  0.30217734239E+02  0.00000000000E+00 0.  1.
         -5    1    5    5    0  501 -0.27570740883E+02  0.46707104506E+01 -0.53307600903E+02  0.60380059647E+02  0.47000000000E+01 0.  1.
<mgrwt>
<rscale>  2 0.19231733E+03</rscale>
<asrwt>0</asrwt>
<pdfrwt beam="1">  1        1 0.37584922E-01 0.19231733E+03</pdfrwt>
<pdfrwt beam="2">  1       -1 0.23322452E-01 0.19231733E+03</pdfrwt>
<totfact> 0.17605907E+03</totfact>
</mgrwt>
</event>
<event>
12    1  0.1093377E-001  0.2028429E+03  0.7546771E-02  0.1147362E+00
         -2   -1    0    0    0  501 -0.00000000000E+00  0.00000000000E+00  0.28361729146E+02  0.28361729146E+02  0.00000000000E+00 0. -1.
          2   -1    0    0  503    0  0.00000000000E+00 -0.00000000000E+00 -0.14618790124E+04  0.14618790124E+04  0.00000000000E+00 0.  1.
          6    2    1    2  503    0 -0.90873442179E+02 -0.40007680349E+02 -0.66556259203E+03  0.69684596079E+03  0.18100312753E+03 0.  0.
         24    2    3    3    0    0 -0.44511173727E+02  0.49065214173E+02 -0.29105019210E+03  0.30907661159E+03  0.80184148579E+02 0.  0.
         -6    2    1    2    0  501  0.90873442179E+02  0.40007680349E+02 -0.76795469121E+03  0.79339478074E+03  0.17280704088E+03 0.  0.
        -24    2    5    5    0    0  0.48307090834E+02  0.35377621029E+02 -0.19137353196E+03  0.21520687451E+03  0.78134621045E+02 0.  0.
          4    1    4    4  502    0 -0.57167694102E+01  0.59906368050E+01 -0.20590321969E+03  0.20606966070E+03  0.00000000000E+00 0. -1.
         -3    1    4    4    0  502 -0.38794404316E+02  0.43074577368E+02 -0.85146972410E+02  0.10300695089E+03  0.00000000000E+00 0.  1.
          5    1    3    3  503    0 -0.46362268453E+02 -0.89072894522E+02 -0.37451239993E+03  0.38776934919E+03  0.47000000000E+01 0. -1.
         11    1    6    6    0    0  0.16420413163E+02 -0.22103088117E+02 -0.28787794273E+02  0.39836083792E+02  0.00000000000E+00 0. -1.
        -12    1    6    6    0    0  0.31886677671E+02  0.57480709146E+02 -0.16258573769E+03  0.17537079072E+03  0.00000000000E+00 0.  1.
         -5    1    5    5    0  501  0.42566351345E+02  0.46300593199E+01 -0.57658115925E+03  0.57818790623E+03  0.47000000000E+01 0.  1.
<mgrwt>
<rscale>  2 0.20284295E+03</rscale>
<asrwt>0</asrwt>
<pdfrwt beam="2">  1        2 0.22490446E+00 0.20284295E+03</pdfrwt>
<pdfrwt beam="1">  1       -2 0.43633430E-02 0.20284295E+03</pdfrwt>
<totfact> 0.34371070E+03</totfact>
</mgrwt>
</event>
<event>
12    1  0.1093377E-001  0.1934451E+03  0.7546771E-02  0.1155390E+00
          1   -1    0    0  503    0  0.00000000000E+00  0.00000000000E+00  0.17472596541E+02  0.17472596541E+02  0.00000000000E+00 0. -1.
         -1   -1    0    0    0  501 -0.00000000000E+00 -0.00000000000E+00 -0.22076530145E+04  0.22076530145E+04  0.00000000000E+00 0.  1.
          6    2    1    2  503    0  0.20809566389E+02  0.84010967774E+02 -0.12812909479E+04  0.12956493526E+04  0.17178437310E+03 0.  0.
         24    2    3    3    0    0 -0.48333440355E+02  0.29620528871E+02 -0.73002202984E+03  0.73738544969E+03  0.87130018763E+02 0.  0.
         -6    2    1    2    0  501 -0.20809566389E+02 -0.84010967774E+02 -0.90888947004E+03  0.92947625847E+03  0.17422733869E+03 0.  0.
        -24    2    5    5    0    0  0.16850786727E+02 -0.10298811885E+03 -0.47118937261E+03  0.48972416951E+03  0.83185549807E+02 0.  0.
          2    1    4    4  502    0 -0.52579598170E+02 -0.71827881123E+01 -0.23220870254E+03  0.23819548300E+03  0.00000000000E+00 0. -1.
         -1    1    4    4    0  502  0.42461578145E+01  0.36803316984E+02 -0.49781332730E+03  0.49918996668E+03  0.00000000000E+00 0.  1.
          5    1    3    3  503    0  0.69143006744E+02  0.54390438902E+02 -0.55126891810E+03  0.55826390291E+03  0.47000000000E+01 0. -1.
         11    1    6    6    0    0 -0.32509277885E+02 -0.54293021997E+02 -0.19762710404E+03  0.20751158435E+03  0.00000000000E+00 0. -1.
        -12    1    6    6    0    0  0.49360064612E+02 -0.48695096854E+02 -0.27356226857E+03  0.28221258516E+03  0.00000000000E+00 0.  1.
         -5    1    5    5    0  501 -0.37660353116E+02  0.18977151077E+02 -0.43770009742E+03  0.43975208896E+03  0.47000000000E+01 0.  1.
<mgrwt>
<rscale>  2 0.19344511E+03</rscale>
<asrwt>0</asrwt>
<pdfrwt beam="1">  1        1 0.26880923E-02 0.19344511E+03</pdfrwt>
<pdfrwt beam="2">  1       -1 0.33963886E+00 0.19344511E+03</pdfrwt>
<totfact> 0.87488009E+01</totfact>
</mgrwt>
</event>
<event>
12    1  0.1093377E-001  0.2050292E+03  0.7546771E-02  0.1145564E+00
          1   -1    0    0  503    0  0.00000000000E+00  0.00000000000E+00  0.84269394653E+02  0.84269394653E+02  0.00000000000E+00 0.  1.
         -1   -1    0    0    0  501 -0.00000000000E+00 -0.00000000000E+00 -0.50730582596E+03  0.50730582596E+03  0.00000000000E+00 0. -1.
          6    2    1    2  503    0  0.10183785270E+03 -0.47118947709E+02 -0.25075830102E+03  0.32457318172E+03  0.17284930224E+03 0.  0.
         24    2    3    3    0    0 -0.27817860802E+02 -0.58435135227E+01 -0.11517453460E+03  0.13242919085E+03  0.58858619919E+02 0.  0.
         -6    2    1    2    0  501 -0.10183785270E+03  0.47118947709E+02 -0.17227813028E+03  0.26700203889E+03  0.17035020141E+03 0.  0.
        -24    2    5    5    0    0 -0.72708583846E+02 -0.31953611499E+02 -0.69286577602E+02  0.13384673916E+03  0.82503019910E+02 0.  0.
          2    1    4    4  502    0  0.81253858971E+01 -0.14338535292E+02 -0.66146069929E+01  0.17758618076E+02  0.00000000000E+00 0. -1.
         -1    1    4    4    0  502 -0.35943246699E+02  0.84950217689E+01 -0.10855992761E+03  0.11467057278E+03  0.00000000000E+00 0.  1.
          5    1    3    3  503    0  0.12965571350E+03 -0.41275434186E+02 -0.13558376642E+03  0.19214399087E+03  0.47000000000E+01 0. -1.
         11    1    6    6    0    0 -0.17057199699E+02  0.15418409890E+02 -0.54680511232E+02  0.59318072572E+02  0.00000000000E+00 0. -1.
        -12    1    6    6    0    0 -0.55651384147E+02 -0.47372021389E+02 -0.14606066370E+02  0.74528666584E+02  0.00000000000E+00 0.  1.
         -5    1    5    5    0  501 -0.29129268854E+02  0.79072559208E+02 -0.10299155268E+03  0.13315529973E+03  0.47000000000E+01 0.  1.
<mgrwt>
<rscale>  2 0.20502925E+03</rscale>
<asrwt>0</asrwt>
<pdfrwt beam="1">  1        1 0.12964522E-01 0.20502925E+03</pdfrwt>
<pdfrwt beam="2">  1       -1 0.78047050E-01 0.20502925E+03</pdfrwt>
<totfact> 0.77496529E+02</totfact>
</mgrwt>
</event>
<event>
12    1  0.1093377E-001  0.3822774E+03  0.7546771E-02  0.1050095E+00
          2   -1    0    0  503    0  0.00000000000E+00  0.00000000000E+00  0.22434559444E+04  0.22434559444E+04  0.00000000000E+00 0. -1.
         -2   -1    0    0    0  501 -0.00000000000E+00 -0.00000000000E+00 -0.65559970582E+02  0.65559970582E+02  0.00000000000E+00 0.  1.
          6    2    1    2  503    0  0.27095108251E+03  0.20722415163E+03  0.99635908602E+03  0.10671704981E+04  0.17252566671E+03 0.  0.
         24    2    3    3    0    0  0.11243942173E+03  0.15010802346E+03  0.42784389984E+03  0.47419511449E+03  0.81458957195E+02 0.  0.
         -6    2    1    2    0  501 -0.27095108251E+03 -0.20722415163E+03  0.11815368878E+04  0.12418454168E+04  0.17261020819E+03 0.  0.
        -24    2    5    5    0    0 -0.19593120535E+03 -0.18474749975E+03  0.10641295355E+04  0.11006372081E+04  0.80684072601E+02 0.  0.
          2    1    4    4  502    0  0.64147434837E+02  0.12961919885E+03  0.36325838149E+03  0.39098936281E+03  0.00000000000E+00 0. -1.
         -1    1    4    4    0  502  0.48291986893E+02  0.20488824612E+02  0.64585518351E+02  0.83205751680E+02  0.00000000000E+00 0.  1.
          5    1    3    3  503    0  0.15851166078E+03  0.57116128166E+02  0.56851518619E+03  0.59297538366E+03  0.47000000000E+01 0. -1.
         13    1    6    6    0    0 -0.68778132834E+02 -0.42328211982E+02  0.46069011345E+03  0.46771518012E+03  0.00000000000E+00 0. -1.
        -14    1    6    6    0    0 -0.12715307252E+03 -0.14241928777E+03  0.60343942207E+03  0.63292202796E+03  0.00000000000E+00 0.  1.
         -5    1    5    5    0  501 -0.75019877157E+02 -0.22476651875E+02  0.11740735224E+03  0.14120820871E+03  0.47000000000E+01 0.  1.
<mgrwt>
<rscale>  2 0.38227743E+03</rscale>
<asrwt>0</asrwt>
<pdfrwt beam="1">  1        2 0.34514701E+00 0.38227743E+03</pdfrwt>
<pdfrwt beam="2">  1       -2 0.10086151E-01 0.38227743E+03</pdfrwt>
<totfact> 0.35466352E+02</totfact>
</mgrwt>
</event>
<event>
12    1  0.1093377E-001  0.2545840E+03  0.7546771E-02  0.1110442E+00
         -2   -1    0    0    0  501 -0.00000000000E+00  0.00000000000E+00  0.16691344897E+03  0.16691344897E+03  0.00000000000E+00 0. -1.
          2   -1    0    0  503    0  0.00000000000E+00 -0.00000000000E+00 -0.40746915540E+03  0.40746915540E+03  0.00000000000E+00 0.  1.
          6    2    1    2  503    0  0.12084674469E+03  0.14463606795E+03 -0.18203865545E+03  0.31204950867E+03  0.16944998061E+03 0.  0.
         24    2    3    3    0    0  0.10426618596E+03  0.15919408580E+03 -0.10494847057E+03  0.23172617821E+03  0.80427891337E+02 0.  0.
         -6    2    1    2    0  501 -0.12084674469E+03 -0.14463606795E+03 -0.58517050985E+02  0.26233309570E+03  0.17283194145E+03 0.  0.
        -24    2    5    5    0    0 -0.10078561364E+03 -0.12383120621E+03  0.18939667260E+02  0.17952654733E+03  0.79869660402E+02 0.  0.
          2    1    4    4  502    0  0.44434268364E+02  0.50012669061E+02  0.29655051905E+01  0.66966151843E+02  0.00000000000E+00 0. -1.
         -1    1    4    4    0  502  0.59831917592E+02  0.10918141674E+03 -0.10791397576E+03  0.16476002636E+03  0.00000000000E+00 0.  1.
          5    1    3    3  503    0  0.16580558735E+02 -0.14558017847E+02 -0.77090184880E+02  0.80323330461E+02  0.47000000000E+01 0. -1.
         11    1    6    6    0    0 -0.57660919184E+02 -0.12006816574E+03  0.24937772256E+01  0.13321923641E+03  0.00000000000E+00 0. -1.
        -12    1    6    6    0    0 -0.43124694454E+02 -0.37630404671E+01  0.16445890034E+02  0.46307310917E+02  0.00000000000E+00 0.  1.
         -5    1    5    5    0  501 -0.20061131052E+02 -0.20804861746E+02 -0.77456718244E+02  0.82806548368E+02  0.47000000000E+01 0.  1.
<mgrwt>
<rscale>  2 0.25458404E+03</rscale>
<asrwt>0</asrwt>
<pdfrwt beam="2">  1        2 0.62687562E-01 0.25458404E+03</pdfrwt>
<pdfrwt beam="1">  1       -2 0.25678992E-01 0.25458404E+03</pdfrwt>
<totfact> 0.10606703E+03</totfact>
</mgrwt>
</event>
<event>
12    1  0.1093377E-001  0.2336784E+03  0.7546771E-02  0.1124077E+00
         -2   -1    0    0    0  501 -0.00000000000E+00  0.00000000000E+00  0.83025817960E+02  0.83025817960E+02  0.00000000000E+00 0. -1.
          2   -1    0    0  503    0  0.00000000000E+00 -0.00000000000E+00 -0.14631166999E+04  0.14631166999E+04  0.00000000000E+00 0.  1.
          6    2    1    2  503    0 -0.13016874179E+03 -0.95337353401E+02 -0.12675103203E+04  0.12894166018E+04  0.17314632156E+03 0.  0.
         24    2    3    3    0    0 -0.11607818226E+03 -0.12414116735E+03 -0.84125567401E+03  0.86193172834E+03  0.79561431824E+02 0.  0.
         -6    2    1    2    0  501  0.13016874179E+03  0.95337353401E+02 -0.11258056160E+03  0.25672591601E+03  0.16492634964E+03 0.  0.
        -24    2    5    5    0    0  0.16051758474E+02  0.71114822757E+02 -0.32563155655E+02  0.11518337072E+03  0.83017304328E+02 0.  0.
          2    1    4    4  502    0 -0.10588374242E+01 -0.48682357124E+02 -0.17662895243E+03  0.18321812102E+03  0.00000000000E+00 0. -1.
         -1    1    4    4    0  502 -0.11501934483E+03 -0.75458810229E+02 -0.66462672158E+03  0.67871360732E+03  0.00000000000E+00 0.  1.
          5    1    3    3  503    0 -0.14090559536E+02  0.28803813952E+02 -0.42625464629E+03  0.42748487348E+03  0.47000000000E+01 0. -1.
         13    1    6    6    0    0  0.41485161913E+02  0.66639900723E+02 -0.69392191632E+01  0.78803856441E+02  0.00000000000E+00 0. -1.
        -14    1    6    6    0    0 -0.25433403439E+02  0.44749220341E+01 -0.25623936492E+02  0.36379514277E+02  0.00000000000E+00 0.  1.
         -5    1    5    5    0  501  0.11411698332E+03  0.24222530644E+02 -0.80017405948E+02  0.14154254529E+03  0.47000000000E+01 0.  1.
<mgrwt>
<rscale>  2 0.23367844E+03</rscale>
<asrwt>0</asrwt>
<pdfrwt beam="2">  1        2 0.22509487E+00 0.23367844E+03</pdfrwt>
<pdfrwt beam="1">  1       -2 0.12773203E-01 0.23367844E+03</pdfrwt>
<totfact> 0.64264782E+02</totfact>
</mgrwt>
</event>
<event>
12    1  0.1093377E-001  0.2268606E+03  0.7546771E-02  0.1128869E+00
         -2   -1    0    0    0  501 -0.00000000000E+00  0.00000000000E+00  0.11087359310E+04  0.11087359310E+04  0.00000000000E+00 0.  1.
          2   -1    0    0  503    0  0.00000000000E+00 -0.00000000000E+00 -0.47488489674E+02  0.47488489674E+02  0.00000000000E+00 0. -1.
          6    2    1    2  503    0 -0.99955622893E+02  0.10795070353E+03  0.44302655792E+03  0.49756987223E+03  0.17221720527E+03 0.  0.
         24    2    3    3    0    0  0.19378735303E+02  0.51740572400E+02  0.16852303029E+03  0.19298073163E+03  0.76085010554E+02 0.  0.
         -6    2    1    2    0  501  0.99955622893E+02 -0.10795070353E+03  0.61822088336E+03  0.65865454840E+03  0.17315967359E+03 0.  0.
        -24    2    5    5    0    0  0.44808493519E+02 -0.13660153750E+03  0.45152764327E+03  0.48069162401E+03  0.80743071612E+02 0.  0.
          2    1    4    4  502    0 -0.99213592065E+00 -0.13432006591E+02  0.80292594829E+02  0.81414396265E+02  0.00000000000E+00 0. -1.
         -1    1    4    4    0  502  0.20370871224E+02  0.65172578992E+02  0.88230435458E+02  0.11156633537E+03  0.00000000000E+00 0.  1.
          5    1    3    3  503    0 -0.11933435820E+03  0.56210131129E+02  0.27450352763E+03  0.30458914060E+03  0.47000000000E+01 0. -1.
         13    1    6    6    0    0  0.33940554841E+02 -0.19758603686E+02  0.58038357298E+02  0.70077204570E+02  0.00000000000E+00 0. -1.
        -14    1    6    6    0    0  0.10867938678E+02 -0.11684293381E+03  0.39348928598E+03  0.41061441944E+03  0.00000000000E+00 0.  1.
         -5    1    5    5    0  501  0.55147129373E+02  0.28650833969E+02  0.16669324009E+03  0.17796292439E+03  0.47000000000E+01 0.  1.
<mgrwt>
<rscale>  2 0.22686062E+03</rscale>
<asrwt>0</asrwt>
<pdfrwt beam="2">  1        2 0.73059223E-02 0.22686062E+03</pdfrwt>
<pdfrwt beam="1">  1       -2 0.17057474E+00 0.22686062E+03</pdfrwt>
<totfact> 0.21535844E+02</totfact>
</mgrwt>
</event>
<event>
12    1  0.1093377E-001  0.1955723E+03  0.7546771E-02  0.1153529E+00
         -2   -1    0    0    0  501 -0.00000000000E+00  0.00000000000E+00  0.10564564665E+02  0.10564564665E+02  0.00000000000E+00 0.  1.
          2   -1    0    0  503    0  0.00000000000E+00 -0.00000000000E+00 -0.38564256715E+04  0.38564256715E+04  0.00000000000E+00 0. -1.
          6    2    1    2  503    0  0.84472821684E+02  0.45895264406E+02 -0.14314038265E+04  0.14445065254E+04  0.16864208981E+03 0.  0.
         24    2    3    3    0    0  0.90157714575E+02  0.29973607056E+02 -0.14147768605E+04  0.14203329204E+04  0.82007372541E+02 0.  0.
         -6    2    1    2    0  501 -0.84472821684E+02 -0.45895264406E+02 -0.24144572803E+04  0.24224837108E+04  0.17199226012E+03 0.  0.
        -24    2    5    5    0    0  0.16002020072E+02 -0.21266430395E+02 -0.14883266714E+04  0.14905814798E+04  0.77514782035E+02 0.  0.
          2    1    4    4  502    0  0.86794371196E+02  0.15196512768E+02 -0.13741379623E+04  0.13769601796E+04  0.00000000000E+00 0. -1.
         -1    1    4    4    0  502  0.33633433789E+01  0.14777094288E+02 -0.40638898164E+02  0.43372740728E+02  0.00000000000E+00 0.  1.
          5    1    3    3  503    0 -0.56848928906E+01  0.15921657350E+02 -0.16626966034E+02  0.24173605015E+02  0.47000000000E+01 0. -1.
         11    1    6    6    0    0  0.87318649537E+01 -0.31761763639E+02 -0.14459052288E+04  0.14462803967E+04  0.00000000000E+00 0. -1.
        -12    1    6    6    0    0  0.72701551187E+01  0.10495333244E+02 -0.42421442533E+02  0.44301083078E+02  0.00000000000E+00 0.  1.
         -5    1    5    5    0  501 -0.10047484176E+03 -0.24628834011E+02 -0.92613060900E+03  0.93190223104E+03  0.47000000000E+01 0.  1.
<mgrwt>
<rscale>  2 0.19557230E+03</rscale>
<asrwt>0</asrwt>
<pdfrwt beam="2">  1        2 0.59329667E+00 0.19557230E+03</pdfrwt>
<pdfrwt beam="1">  1       -2 0.16253165E-02 0.19557230E+03</pdfrwt>
<totfact> 0.61572514E+02</totfact>
</mgrwt>
</event>
<event>
12    1  0.1093377E-001  0.1780030E+03  0.7546771E-02  0.1169750E+00
         -1   -1    0    0    0  501 -0.00000000000E+00  0.00000000000E+00  0.48037308126E+03  0.48037308126E+03  0.00000000000E+00 0. -1.
          1   -1    0    0  503    0  0.00000000000E+00 -0.00000000000E+00 -0.66059327581E+02  0.66059327581E+02  0.00000000000E+00 0.  1.
          6    2    1    2  503    0  0.37487538985E+02  0.57120897549E+01  0.21849520290E+03  0.28223601266E+03  0.17458255813E+03 0.  0.
         24    2    3    3    0    0  0.65933964612E+02  0.19860701954E+02  0.54042171597E+02  0.11467625656E+03  0.74083414721E+02 0.  0.
         -6    2    1    2    0  501 -0.37487538985E+02 -0.57120897549E+01  0.19581855077E+03  0.26419639618E+03  0.17325382356E+03 0.  0.
        -24    2    5    5    0    0  0.12417245781E+02  0.55444541825E+02  0.13271096305E+03  0.16302684168E+03  0.75744743602E+02 0.  0.
          4    1    4    4  502    0  0.15690898588E+02 -0.26993728329E+02  0.88796831961E+01  0.32460967965E+02  0.00000000000E+00 0. -1.
         -3    1    4    4    0  502  0.50243066024E+02  0.46854430283E+02  0.45162488400E+02  0.82215288597E+02  0.00000000000E+00 0.  1.
          5    1    3    3  503    0 -0.28446425628E+02 -0.14148612199E+02  0.16445303131E+03  0.16755975610E+03  0.47000000000E+01 0. -1.
         13    1    6    6    0    0 -0.22293969356E+02 -0.64398752308E+01  0.40492710058E+02  0.46670682773E+02  0.00000000000E+00 0. -1.
        -14    1    6    6    0    0  0.34711215137E+02  0.61884417056E+02  0.92218252995E+02  0.11635615891E+03  0.00000000000E+00 0.  1.
         -5    1    5    5    0  501 -0.49904784765E+02 -0.61156631580E+02  0.63107587719E+02  0.10116955449E+03  0.47000000000E+01 0.  1.
<mgrwt>
<rscale>  2 0.17800303E+03</rscale>
<asrwt>0</asrwt>
<pdfrwt beam="2">  1        1 0.10162974E-01 0.17800303E+03</pdfrwt>
<pdfrwt beam="1">  1       -1 0.73903549E-01 0.17800303E+03</pdfrwt>
<totfact> 0.11932890E+03</totfact>
</mgrwt>
</event>
<event>
12    1  0.1093377E-001  0.1866992E+03  0.7546771E-02  0.1161473E+00
          2   -1    0    0  503    0  0.00000000000E+00  0.00000000000E+00  0.13118243492E+04  0.13118243492E+04  0.00000000000E+00 0. -1.
         -2   -1    0    0    0  501 -0.00000000000E+00 -0.00000000000E+00 -0.27044756240E+02  0.27044756240E+02  0.00000000000E+00 0.  1.
          6    2    1    2  503    0  0.59464826640E+02  0.16352246403E+02  0.74166696492E+03  0.76565224323E+03  0.17986108287E+03 0.  0.
         24    2    3    3    0    0 -0.10359916156E+02 -0.38552320072E+02  0.23524556314E+03  0.25147840851E+03  0.79418547728E+02 0.  0.
         -6    2    1    2    0  501 -0.59464826640E+02 -0.16352246403E+02  0.54311262807E+03  0.57321686224E+03  0.17263482506E+03 0.  0.
        -24    2    5    5    0    0  0.34041340367E+02 -0.10150674010E+01  0.31242262590E+03  0.32378029830E+03  0.77884152313E+02 0.  0.
          2    1    4    4  502    0 -0.29080049284E+02  0.13276322116E+02  0.11203022216E+03  0.11650184836E+03  0.00000000000E+00 0. -1.
         -1    1    4    4    0  502  0.18720133128E+02 -0.51828642188E+02  0.12321534098E+03  0.13497656015E+03  0.00000000000E+00 0.  1.
          5    1    3    3  503    0  0.69824742796E+02  0.54904566475E+02  0.50642140178E+03  0.51417383472E+03  0.47000000000E+01 0. -1.
         13    1    6    6    0    0 -0.95513414511E+01  0.27546338581E+02  0.16155698181E+03  0.16416664480E+03  0.00000000000E+00 0. -1.
        -14    1    6    6    0    0  0.43592681818E+02 -0.28561405982E+02  0.15086564409E+03  0.15961365351E+03  0.00000000000E+00 0.  1.
         -5    1    5    5    0  501 -0.93506167007E+02 -0.15337179002E+02  0.23069000217E+03  0.24943656394E+03  0.47000000000E+01 0.  1.
<mgrwt>
<rscale>  2 0.18669922E+03</rscale>
<asrwt>0</asrwt>
<pdfrwt beam="1">  1        2 0.20181908E+00 0.18669922E+03</pdfrwt>
<pdfrwt beam="2">  1       -2 0.41607328E-02 0.18669922E+03</pdfrwt>
<totfact> 0.44410119E+03</totfact>
</mgrwt>
</event>
<event>
12    1  0.1093377E-001  0.1986140E+03  0.7546771E-02  0.1150914E+00
          3   -1    0    0  503    0  0.00000000000E+00  0.00000000000E+00  0.23520958512E+03  0.23520958512E+03  0.00000000000E+00 0. -1.
         -3   -1    0    0    0  501 -0.00000000000E+00 -0.00000000000E+00 -0.21834482491E+03  0.21834482491E+03  0.00000000000E+00 0.  1.
          6    2    1    2  503    0  0.92086334974E+02  0.27260768556E+02 -0.10081369109E+03  0.22109801110E+03  0.17174949086E+03 0.  0.
         24    2    3    3    0    0  0.71816761003E+02  0.89235057118E+01 -0.13832712713E+03  0.17444547933E+03  0.77843143830E+02 0.  0.
         -6    2    1    2    0  501 -0.92086334974E+02 -0.27260768556E+02  0.11767845130E+03  0.23245639893E+03  0.17596794286E+03 0.  0.
        -24    2    5    5    0    0 -0.52999872585E+02 -0.85146866883E+02  0.66744051151E+02  0.14588299054E+03  0.82268482009E+02 0.  0.
          2    1    4    4  502    0 -0.41424399922E+00  0.26967600969E+02 -0.63020619376E+02  0.68549409674E+02  0.00000000000E+00 0. -1.
         -1    1    4    4    0  502  0.72231005002E+02 -0.18044095257E+02 -0.75306507758E+02  0.10589606965E+03  0.00000000000E+00 0.  1.
          5    1    3    3  503    0  0.20269573972E+02  0.18337262844E+02  0.37513436041E+02  0.46652531777E+02  0.47000000000E+01 0. -1.
         13    1    6    6    0    0  0.17383371093E+02 -0.43468391783E+02  0.15296831188E+02  0.49251149419E+02  0.00000000000E+00 0. -1.
        -14    1    6    6    0    0 -0.70383243678E+02 -0.41678475100E+02  0.51447219963E+02  0.96631841125E+02  0.00000000000E+00 0.  1.
         -5    1    5    5    0  501 -0.39086462389E+02  0.57886098327E+02  0.50934400150E+02  0.86573408391E+02  0.47000000000E+01 0.  1.
<mgrwt>
<rscale>  2 0.19861402E+03</rscale>
<asrwt>0</asrwt>
<pdfrwt beam="1">  1        3 0.36186090E-01 0.19861402E+03</pdfrwt>
<pdfrwt beam="2">  1       -3 0.33591512E-01 0.19861402E+03</pdfrwt>
<totfact> 0.15963858E+02</totfact>
</mgrwt>
</event>
<event>
12    1  0.1093377E-001  0.1961975E+03  0.7546771E-02  0.1152987E+00
         -1   -1    0    0    0  501 -0.00000000000E+00  0.00000000000E+00  0.75099475612E+02  0.75099475612E+02  0.00000000000E+00 0. -1.
          1   -1    0    0  503    0  0.00000000000E+00 -0.00000000000E+00 -0.11300722942E+04  0.11300722942E+04  0.00000000000E+00 0.  1.
          6    2    1    2  503    0  0.12861451586E+02 -0.85714130964E+02 -0.84069444806E+02  0.21496546680E+03  0.17784867496E+03 0.  0.
         24    2    3    3    0    0  0.34455705270E+02 -0.96038160461E+02 -0.11648903320E+03  0.17439433065E+03  0.80207006035E+02 0.  0.
         -6    2    1    2    0  501 -0.12861451586E+02  0.85714130964E+02 -0.97090337380E+03  0.99020630303E+03  0.17419194045E+03 0.  0.
        -24    2    5    5    0    0 -0.69793900394E+02  0.26771736101E+02 -0.62478973698E+03  0.63449258495E+03  0.81429174924E+02 0.  0.
          2    1    4    4  502    0  0.46399631793E+02 -0.17139762196E+02 -0.37091271612E+02  0.61826043933E+02  0.00000000000E+00 0. -1.
         -1    1    4    4    0  502 -0.11943926522E+02 -0.78898398265E+02 -0.79397761585E+02  0.11256828672E+03  0.00000000000E+00 0.  1.
          5    1    3    3  503    0 -0.21594253684E+02  0.10324029498E+02  0.32419588391E+02  0.40571136152E+02  0.47000000000E+01 0. -1.
         13    1    6    6    0    0 -0.14390373439E+02 -0.78132689316E+00 -0.12479615663E+02  0.19063948345E+02  0.00000000000E+00 0. -1.
        -14    1    6    6    0    0 -0.55403526955E+02  0.27553062995E+02 -0.61231012132E+03  0.61542863660E+03  0.00000000000E+00 0.  1.
         -5    1    5    5    0  501  0.56932448808E+02  0.58942394862E+02 -0.34611363682E+03  0.35571371808E+03  0.47000000000E+01 0.  1.
<mgrwt>
<rscale>  2 0.19619745E+03</rscale>
<asrwt>0</asrwt>
<pdfrwt beam="2">  1        1 0.17385727E+00 0.19619745E+03</pdfrwt>
<pdfrwt beam="1">  1       -1 0.11553766E-01 0.19619745E+03</pdfrwt>
<totfact> 0.63036041E+02</totfact>
</mgrwt>
</event>
<event>
12    1  0.1093377E-001  0.1748068E+03  0.7546771E-02  0.1172926E+00
          2   -1    0    0  503    0  0.00000000000E+00  0.00000000000E+00  0.37429102039E+03  0.37429102039E+03  0.00000000000E+00 0. -1.
         -2   -1    0    0    0  501 -0.00000000000E+00 -0.00000000000E+00 -0.13229777790E+03  0.13229777790E+03  0.00000000000E+00 0.  1.
          6    2    1    2  503    0  0.18740929960E+02 -0.16011337971E+02 -0.35837802016E+02  0.17821650340E+03  0.17282704832E+03 0.  0.
         24    2    3    3    0    0  0.12054830867E+02  0.54534538737E+02 -0.42690121107E+02  0.10686898124E+03  0.80493464634E+02 0.  0.
         -6    2    1    2    0  501 -0.18740929960E+02  0.16011337971E+02  0.27783104451E+03  0.32837229489E+03  0.17329365066E+03 0.  0.
        -24    2    5    5    0    0 -0.48935430414E+01  0.75896758193E+02  0.21475934186E+03  0.24017851192E+03  0.76025508903E+02 0.  0.
          2    1    4    4  502    0 -0.16123204158E+01  0.70359574494E+02 -0.14643027600E+02  0.71885238801E+02  0.00000000000E+00 0. -1.
         -1    1    4    4    0  502  0.13667151283E+02 -0.15825035758E+02 -0.28047093507E+02  0.34983742440E+02  0.00000000000E+00 0.  1.
          5    1    3    3  503    0  0.66860990932E+01 -0.70545876708E+02  0.68523190905E+01  0.71347522161E+02  0.47000000000E+01 0. -1.
         13    1    6    6    0    0  0.21699150091E+02  0.64236760049E+02  0.19094317560E+03  0.20262406265E+03  0.00000000000E+00 0. -1.
        -14    1    6    6    0    0 -0.26592693132E+02  0.11659998144E+02  0.23816166263E+02  0.37554449273E+02  0.00000000000E+00 0.  1.
         -5    1    5    5    0  501 -0.13847386919E+02 -0.59885420222E+02  0.63071702654E+02  0.88193782974E+02  0.47000000000E+01 0.  1.
<mgrwt>
<rscale>  2 0.17480680E+03</rscale>
<asrwt>0</asrwt>
<pdfrwt beam="1">  1        2 0.57583233E-01 0.17480680E+03</pdfrwt>
<pdfrwt beam="2">  1       -2 0.20353504E-01 0.17480680E+03</pdfrwt>
<totfact> 0.17311665E+03</totfact>
</mgrwt>
</event>
<event>
12    1  0.1093377E-001  0.2081941E+03  0.7546771E-02  0.1143004E+00
          4   -1    0    0  503    0  0.00000000000E+00  0.00000000000E+00  0.38909830334E+02  0.38909830334E+02  0.00000000000E+00 0.  1.
         -4   -1    0    0    0  501 -0.00000000000E+00 -0.00000000000E+00 -0.12163961240E+04  0.12163961240E+04  0.00000000000E+00 0. -1.
          6    2    1    2  503    0  0.11870232406E+03  0.32778733869E+01 -0.76113597025E+03  0.78815421091E+03  0.16660764919E+03 0.  0.
         24    2    3    3    0    0  0.11381397792E+03 -0.39841307303E+02 -0.68685071855E+03  0.70199419528E+03  0.80566676144E+02 0.  0.
         -6    2    1    2    0  501 -0.11870232406E+03 -0.32778733869E+01 -0.41635032337E+03  0.46715174338E+03  0.17544849211E+03 0.  0.
        -24    2    5    5    0    0  0.82473992944E+01 -0.73687291683E+01 -0.16923846254E+03  0.18926808225E+03  0.84014474896E+02 0.  0.
          4    1    4    4  502    0  0.99062317248E+02 -0.24357236178E+02 -0.65915638867E+03  0.66700356999E+03  0.00000000000E+00 0. -1.
         -3    1    4    4    0  502  0.14751660673E+02 -0.15484071125E+02 -0.27694329879E+02  0.34990625297E+02  0.00000000000E+00 0.  1.
          5    1    3    3  503    0  0.48883461379E+01  0.43119180690E+02 -0.74285251707E+02  0.86160015625E+02  0.47000000000E+01 0. -1.
         13    1    6    6    0    0  0.27423182095E+02 -0.22088093273E+02 -0.15927603558E+03  0.16312194914E+03  0.00000000000E+00 0. -1.
        -14    1    6    6    0    0 -0.19175782801E+02  0.14719364104E+02 -0.99624269519E+01  0.26146133107E+02  0.00000000000E+00 0.  1.
         -5    1    5    5    0  501 -0.12694972335E+03  0.40908557815E+01 -0.24711186083E+03  0.27788366113E+03  0.47000000000E+01 0.  1.
<mgrwt>
<rscale>  2 0.20819405E+03</rscale>
<asrwt>0</asrwt>
<pdfrwt beam="1">  1        4 0.59861276E-02 0.20819405E+03</pdfrwt>
<pdfrwt beam="2">  1       -4 0.18713787E+00 0.20819405E+03</pdfrwt>
<totfact> 0.55834303E+01</totfact>
</mgrwt>
</event>
<event>
12    1  0.1093377E-001  0.2570750E+03  0.7546771E-02  0.1108913E+00
         -2   -1    0    0    0  501 -0.00000000000E+00  0.00000000000E+00  0.27585202447E+02  0.27585202447E+02  0.00000000000E+00 0.  1.
          2   -1    0    0  503    0  0.00000000000E+00 -0.00000000000E+00 -0.24193514993E+04  0.24193514993E+04  0.00000000000E+00 0. -1.
          6    2    1    2  503    0  0.16896691347E+03 -0.87338009479E+02 -0.10736912243E+04  0.11039681559E+04  0.17249666183E+03 0.  0.
         24    2    3    3    0    0  0.27426149109E+02 -0.70522036577E+02 -0.37404064226E+03  0.38993062756E+03  0.80087083539E+02 0.  0.
         -6    2    1    2    0  501 -0.16896691347E+03  0.87338009479E+02 -0.13180750725E+04  0.13429685458E+04  0.17339225043E+03 0.  0.
        -24    2    5    5    0    0 -0.87794310766E+02 -0.19822632274E+02 -0.78245963131E+03  0.79072006421E+03  0.69959756782E+02 0.  0.
          2    1    4    4  502    0  0.25492059141E+02 -0.60151308146E+02 -0.37370847011E+03  0.37937586321E+03  0.00000000000E+00 0. -1.
         -1    1    4    4    0  502  0.19340899680E+01 -0.10370728431E+02 -0.33217214686E+00  0.10554764352E+02  0.00000000000E+00 0.  1.
          5    1    3    3  503    0  0.14154076436E+03 -0.16815972902E+02 -0.69965058203E+03  0.71403752832E+03  0.47000000000E+01 0. -1.
         13    1    6    6    0    0 -0.54435817092E+02 -0.10635871937E+02 -0.68607057489E+03  0.68830895221E+03  0.00000000000E+00 0. -1.
        -14    1    6    6    0    0 -0.33358493674E+02 -0.91867603369E+01 -0.96389056417E+02  0.10241111201E+03  0.00000000000E+00 0.  1.
         -5    1    5    5    0  501 -0.81172602708E+02  0.10716064175E+03 -0.53561544123E+03  0.55224848162E+03  0.47000000000E+01 0.  1.
<mgrwt>
<rscale>  2 0.25707499E+03</rscale>
<asrwt>0</asrwt>
<pdfrwt beam="2">  1        2 0.37220784E+00 0.25707499E+03</pdfrwt>
<pdfrwt beam="1">  1       -2 0.42438783E-02 0.25707499E+03</pdfrwt>
<totfact> 0.11173509E+03</totfact>
</mgrwt>
</event>
<event>
12    1  0.1093377E-001  0.2217826E+03  0.7546771E-02  0.1132561E+00
          2   -1    0    0  503    0  0.00000000000E+00  0.00000000000E+00  0.22101447944E+04  0.22101447944E+04  0.00000000000E+00 0. -1.
         -2   -1    0    0    0  501 -0.00000000000E+00 -0.00000000000E+00 -0.28364342934E+02  0.28364342934E+02  0.00000000000E+00 0.  1.
          6    2    1    2  503    0 -0.93320249529E+02  0.10184959491E+03  0.57271503290E+03  0.61427542227E+03  0.17392462892E+03 0.  0.
         24    2    3    3    0    0 -0.17265127902E+02 -0.10997447929E+02  0.16734375455E+03  0.18664614368E+03  0.80086342529E+02 0.  0.
         -6    2    1    2    0  501  0.93320249529E+02 -0.10184959491E+03  0.16090654186E+04  0.16242337151E+04  0.17309428343E+03 0.  0.
        -24    2    5    5    0    0  0.97835238504E+02 -0.13649666139E+03  0.13839271863E+04  0.13963519080E+04  0.79631160073E+02 0.  0.
          2    1    4    4  502    0 -0.47153770079E+01 -0.44937087007E+02  0.10897359567E+03  0.11796957711E+03  0.00000000000E+00 0. -1.
         -1    1    4    4    0  502 -0.12549750894E+02  0.33939639079E+02  0.58370158878E+02  0.68676566569E+02  0.00000000000E+00 0.  1.
          5    1    3    3  503    0 -0.76055121627E+02  0.11284704284E+03  0.40537127835E+03  0.42762927860E+03  0.47000000000E+01 0. -1.
         11    1    6    6    0    0  0.82181539921E+02 -0.46458210153E+02  0.72197339671E+03  0.72811932837E+03  0.00000000000E+00 0. -1.
        -12    1    6    6    0    0  0.15653698583E+02 -0.90038451237E+02  0.66195378959E+03  0.66823257967E+03  0.00000000000E+00 0.  1.
         -5    1    5    5    0  501 -0.45149889751E+01  0.34647066476E+02  0.22513823230E+03  0.22788180705E+03  0.47000000000E+01 0.  1.
<mgrwt>
<rscale>  2 0.22178256E+03</rscale>
<asrwt>0</asrwt>
<pdfrwt beam="1">  1        2 0.34002214E+00 0.22178256E+03</pdfrwt>
<pdfrwt beam="2">  1       -2 0.43637468E-02 0.22178256E+03</pdfrwt>
<totfact> 0.13928893E+03</totfact>
</mgrwt>
</event>
<event>
12    1  0.1093377E-001  0.1814489E+03  0.7546771E-02  0.1166408E+00
          1   -1    0    0  503    0  0.00000000000E+00  0.00000000000E+00  0.75097830441E+03  0.75097830441E+03  0.00000000000E+00 0.  1.
         -1   -1    0    0    0  501 -0.00000000000E+00 -0.00000000000E+00 -0.47181580639E+02  0.47181580639E+02  0.00000000000E+00 0. -1.
          6    2    1    2  503    0 -0.49189452417E+02  0.42690144637E+01  0.24789529654E+03  0.30791601438E+03  0.17584756795E+03 0.  0.
         24    2    3    3    0    0 -0.54973579351E+02  0.18125863615E+02  0.26661405106E+03  0.28346299487E+03  0.76925781607E+02 0.  0.
         -6    2    1    2    0  501  0.49189452417E+02 -0.42690144637E+01  0.45590142723E+03  0.49024387066E+03  0.17336411007E+03 0.  0.
        -24    2    5    5    0    0  0.23909975655E+02 -0.43946507281E+02  0.13716467319E+03  0.16801947097E+03  0.83146933898E+02 0.  0.
          2    1    4    4  502    0 -0.28601749624E+02 -0.29938534292E+02  0.11891185492E+03  0.12591427703E+03  0.00000000000E+00 0. -1.
         -1    1    4    4    0  502 -0.26371829727E+02  0.48064397907E+02  0.14770219614E+03  0.15754871784E+03  0.00000000000E+00 0.  1.
          5    1    3    3  503    0  0.57841269344E+01 -0.13856849151E+02 -0.18718754520E+02  0.24453019518E+02  0.47000000000E+01 0. -1.
         11    1    6    6    0    0  0.28868744542E+02  0.17450281469E+02  0.64269683930E+02  0.72584495639E+02  0.00000000000E+00 0. -1.
        -12    1    6    6    0    0 -0.49587688867E+01 -0.61396788750E+02  0.72894989258E+02  0.95434975332E+02  0.00000000000E+00 0.  1.
         -5    1    5    5    0  501  0.25279476762E+02  0.39677492817E+02  0.31873675404E+03  0.32222439969E+03  0.47000000000E+01 0.  1.
<mgrwt>
<rscale>  2 0.18144892E+03</rscale>
<asrwt>0</asrwt>
<pdfrwt beam="1">  1        1 0.11553512E+00 0.18144892E+03</pdfrwt>
<pdfrwt beam="2">  1       -1 0.72587053E-02 0.18144892E+03</pdfrwt>
<totfact> 0.25127940E+03</totfact>
</mgrwt>
</event>
<event>
12    1  0.1093377E-001  0.1754787E+03  0.7546771E-02  0.1172252E+00
         -1   -1    0    0    0  501 -0.00000000000E+00  0.00000000000E+00  0.10247827971E+03  0.10247827971E+03  0.00000000000E+00 0.  1.
          1   -1    0    0  503    0  0.00000000000E+00 -0.00000000000E+00 -0.42053856713E+03  0.42053856713E+03  0.00000000000E+00 0. -1.
          6    2    1    2  503    0 -0.16635225040E+02  0.49859721399E+01 -0.29801589734E+03  0.34527174099E+03  0.17348633787E+03 0.  0.
         24    2    3    3    0    0  0.22308081837E+02  0.62522831347E+02 -0.16231476410E+03  0.19274646806E+03  0.79989770287E+02 0.  0.
         -6    2    1    2    0  501  0.16635225040E+02 -0.49859721399E+01 -0.20044390074E+02  0.17774510586E+03  0.17575538243E+03 0.  0.
        -24    2    5    5    0    0 -0.46950826524E+02 -0.37418370361E+02 -0.47078264886E+01  0.10458537246E+03  0.85506853240E+02 0.  0.
          2    1    4    4  502    0 -0.23327892267E+02  0.47946758976E+02 -0.10714524976E+03  0.11967951705E+03  0.00000000000E+00 0. -1.
         -1    1    4    4    0  502  0.45635974105E+02  0.14576072371E+02 -0.55169514331E+02  0.73066951009E+02  0.00000000000E+00 0.  1.
          5    1    3    3  503    0 -0.38943306877E+02 -0.57536859208E+02 -0.13570113324E+03  0.15252527293E+03  0.47000000000E+01 0. -1.
         11    1    6    6    0    0 -0.56290498416E+02 -0.31355062779E+02 -0.34280532834E+02  0.72985718501E+02  0.00000000000E+00 0. -1.
        -12    1    6    6    0    0  0.93396718913E+01 -0.60633075823E+01  0.29572706345E+02  0.31599653961E+02  0.00000000000E+00 0.  1.
         -5    1    5    5    0  501  0.63586051564E+02  0.32432398221E+02 -0.15336563586E+02  0.73159733396E+02  0.47000000000E+01 0.  1.
<mgrwt>
<rscale>  2 0.17547870E+03</rscale>
<asrwt>0</asrwt>
<pdfrwt beam="2">  1        1 0.64698242E-01 0.17547870E+03</pdfrwt>
<pdfrwt beam="1">  1       -1 0.15765889E-01 0.17547870E+03</pdfrwt>
<totfact> 0.16687342E+03</totfact>
</mgrwt>
</event>
<event>
12    1  0.1093377E-001  0.2217762E+03  0.7546771E-02  0.1132566E+00
         -1   -1    0    0    0  501 -0.00000000000E+00  0.00000000000E+00  0.57834954018E+03  0.57834954018E+03  0.00000000000E+00 0. -1.
          1   -1    0    0  503    0  0.00000000000E+00 -0.00000000000E+00 -0.94153345685E+02  0.94153345685E+02  0.00000000000E+00 0.  1.
          6    2    1    2  503    0 -0.13880752769E+03 -0.24046892450E+02  0.13667137230E+03  0.25978337165E+03  0.17018388113E+03 0.  0.
         24    2    3    3    0    0 -0.10775897991E+03 -0.45258861897E+02  0.27347964476E+02  0.14407832653E+03  0.79688711137E+02 0.  0.
         -6    2    1    2    0  501  0.13880752769E+03  0.24046892450E+02  0.34752482219E+03  0.41271951422E+03  0.17238942136E+03 0.  0.
        -24    2    5    5    0    0  0.49951380278E+02  0.10218674480E+02  0.29154863451E+03  0.30669094197E+03  0.80368936183E+02 0.  0.
          4    1    4    4  502    0 -0.32597267902E+02 -0.50501497644E+02  0.32912229641E+02  0.68528811451E+02  0.00000000000E+00 0. -1.
         -3    1    4    4    0  502 -0.75161712007E+02  0.52426357470E+01 -0.55642651653E+01  0.75549515076E+02  0.00000000000E+00 0.  1.
          5    1    3    3  503    0 -0.31048547781E+02  0.21211969447E+02  0.10932340783E+03  0.11570504512E+03  0.47000000000E+01 0. -1.
         13    1    6    6    0    0  0.43103770195E+02  0.13822023248E+01  0.55063150597E+02  0.69941375751E+02  0.00000000000E+00 0. -1.
        -14    1    6    6    0    0  0.68476100821E+01  0.88364721549E+01  0.23648548391E+03  0.23674956622E+03  0.00000000000E+00 0.  1.
         -5    1    5    5    0  501  0.88856147412E+02  0.13828217970E+02  0.55976187680E+02  0.10602857225E+03  0.47000000000E+01 0.  1.
<mgrwt>
<rscale>  2 0.22177616E+03</rscale>
<asrwt>0</asrwt>
<pdfrwt beam="2">  1        1 0.14485130E-01 0.22177616E+03</pdfrwt>
<pdfrwt beam="1">  1       -1 0.88976850E-01 0.22177616E+03</pdfrwt>
<totfact> 0.50912137E+02</totfact>
</mgrwt>
</event>
<event>
12    1  0.1093377E-001  0.1753520E+03  0.7546771E-02  0.1172379E+00
          2   -1    0    0  503    0  0.00000000000E+00  0.00000000000E+00  0.82064685625E+03  0.82064685625E+03  0.00000000000E+00 0.  1.
         -2   -1    0    0    0  501 -0.00000000000E+00 -0.00000000000E+00 -0.42838108855E+02  0.42838108855E+02  0.00000000000E+00 0. -1.
          6    2    1    2  503    0  0.26570079614E+02 -0.16298406819E+01  0.23606484578E+03  0.29407151685E+03  0.17332864766E+03 0.  0.
         24    2    3    3    0    0 -0.37290538334E+02 -0.38465195509E+02  0.96974635643E+02  0.13658120462E+03  0.79876091439E+02 0.  0.
         -6    2    1    2    0  501 -0.26570079614E+02  0.16298406819E+01  0.54174390161E+03  0.56941344825E+03  0.17331068808E+03 0.  0.
        -24    2    5    5    0    0  0.15892262839E+02 -0.41923486518E+02  0.44697631120E+03  0.45670617683E+03  0.82356338231E+02 0.  0.
          4    1    4    4  502    0 -0.48123096333E+02 -0.40388301595E+02  0.31670362734E+02  0.70356656985E+02  0.00000000000E+00 0. -1.
         -3    1    4    4    0  502  0.10832557999E+02  0.19231060854E+01  0.65304272909E+02  0.66224547639E+02  0.00000000000E+00 0.  1.
          5    1    3    3  503    0  0.63860617948E+02  0.36835354827E+02  0.13909021014E+03  0.15749031223E+03  0.47000000000E+01 0. -1.
         13    1    6    6    0    0 -0.12728024958E+02 -0.56152915027E+01  0.96217713540E+01  0.16914863345E+02  0.00000000000E+00 0. -1.
        -14    1    6    6    0    0  0.28620287797E+02 -0.36308195015E+02  0.43735453984E+03  0.43979131349E+03  0.00000000000E+00 0.  1.
         -5    1    5    5    0  501 -0.42462342453E+02  0.43553327200E+02  0.94767590413E+02  0.11270727141E+03  0.47000000000E+01 0.  1.
<mgrwt>
<rscale>  2 0.17535203E+03</rscale>
<asrwt>0</asrwt>
<pdfrwt beam="1">  1        2 0.12625335E+00 0.17535203E+03</pdfrwt>
<pdfrwt beam="2">  1       -2 0.65904789E-02 0.17535203E+03</pdfrwt>
<totfact> 0.43229470E+03</totfact>
</mgrwt>
</event>
<event>
12    1  0.1093377E-001  0.2168786E+03  0.7546771E-02  0.1136232E+00
         -2   -1    0    0    0  501 -0.00000000000E+00  0.00000000000E+00  0.70118057339E+02  0.70118057339E+02  0.00000000000E+00 0.  1.
          2   -1    0    0  503    0  0.00000000000E+00 -0.00000000000E+00 -0.73459903020E+03  0.73459903020E+03  0.00000000000E+00 0. -1.
          6    2    1    2  503    0  0.65862073458E+02 -0.11493208004E+03 -0.21493720169E+03  0.30597748389E+03  0.17284971575E+03 0.  0.
         24    2    3    3    0    0  0.69757232242E+02 -0.11075172834E+03 -0.83718811079E+02  0.17455068435E+03  0.79542977681E+02 0.  0.
         -6    2    1    2    0  501 -0.65862073458E+02  0.11493208004E+03 -0.44954377117E+03  0.49873960365E+03  0.17060010055E+03 0.  0.
        -24    2    5    5    0    0 -0.62873705229E+02  0.11789347279E+03 -0.22454441087E+03  0.27365183781E+03  0.81321351140E+02 0.  0.
          4    1    4    4  502    0  0.83228712144E+02 -0.69458117524E+02 -0.69831414178E+02  0.12894911795E+03  0.00000000000E+00 0. -1.
         -3    1    4    4    0  502 -0.13471479902E+02 -0.41293610820E+02 -0.13887396901E+02  0.45601566398E+02  0.00000000000E+00 0.  1.
          5    1    3    3  503    0 -0.38951587846E+01 -0.41803516989E+01 -0.13121839061E+03  0.13142679954E+03  0.47000000000E+01 0. -1.
         13    1    6    6    0    0 -0.37678330198E+02  0.42016139097E+02 -0.16377853450E+03  0.17322938802E+03  0.00000000000E+00 0. -1.
        -14    1    6    6    0    0 -0.25195375031E+02  0.75877333694E+02 -0.60765876362E+02  0.10042244979E+03  0.00000000000E+00 0.  1.
         -5    1    5    5    0  501 -0.29883682287E+01 -0.29613927484E+01 -0.22499936031E+03  0.22508776584E+03  0.47000000000E+01 0.  1.
<mgrwt>
<rscale>  2 0.21687858E+03</rscale>
<asrwt>0</asrwt>
<pdfrwt beam="2">  1        2 0.11301523E+00 0.21687858E+03</pdfrwt>
<pdfrwt beam="1">  1       -2 0.10787394E-01 0.21687858E+03</pdfrwt>
<totfact> 0.23089157E+03</totfact>
</mgrwt>
</event>
<event>
12    1  0.1093377E-001  0.1956729E+03  0.7546771E-02  0.1153442E+00
          1   -1    0    0  503    0  0.00000000000E+00  0.00000000000E+00  0.22856979352E+03  0.22856979352E+03  0.00000000000E+00 0.  1.
         -1   -1    0    0    0  501 -0.00000000000E+00 -0.00000000000E+00 -0.18683037719E+03  0.18683037719E+03  0.00000000000E+00 0. -1.
          6    2    1    2  503    0  0.52038718322E+02  0.70044136348E+02  0.87298751340E+02  0.21155385070E+03  0.17181312673E+03 0.  0.
         24    2    3    3    0    0 -0.34824162030E+01  0.10631733618E+01  0.90686937547E+02  0.12281524895E+03  0.82741810311E+02 0.  0.
         -6    2    1    2    0  501 -0.52038718322E+02 -0.70044136348E+02 -0.45559335007E+02  0.20384632002E+03  0.17850338915E+03 0.  0.
        -24    2    5    5    0    0 -0.89248721602E+02 -0.94545568483E+02 -0.28544492014E+02  0.15592451493E+03  0.81200169361E+02 0.  0.
          2    1    4    4  502    0  0.26400873222E+02  0.15957313464E+01  0.89036235958E+02  0.92881665462E+02  0.00000000000E+00 0. -1.
         -1    1    4    4    0  502 -0.29883289425E+02 -0.53255798459E+00  0.16507015884E+01  0.29933583490E+02  0.00000000000E+00 0.  1.
          5    1    3    3  503    0  0.55521134525E+02  0.68980962986E+02 -0.33881862070E+01  0.88738601742E+02  0.47000000000E+01 0. -1.
         13    1    6    6    0    0 -0.53197902558E+02 -0.79614085562E+02  0.15591265178E+02  0.97012921852E+02  0.00000000000E+00 0. -1.
        -14    1    6    6    0    0 -0.36050819044E+02 -0.14931482922E+02 -0.44135757193E+02  0.58911593078E+02  0.00000000000E+00 0.  1.
         -5    1    5    5    0  501  0.37210003280E+02  0.24501432135E+02 -0.17014842992E+02  0.47921805087E+02  0.47000000000E+01 0.  1.
<mgrwt>
<rscale>  2 0.19567290E+03</rscale>
<asrwt>0</asrwt>
<pdfrwt beam="1">  1        1 0.35164584E-01 0.19567290E+03</pdfrwt>
<pdfrwt beam="2">  1       -1 0.28743135E-01 0.19567290E+03</pdfrwt>
<totfact> 0.13518914E+03</totfact>
</mgrwt>
</event>
<event>
12    1  0.1093377E-001  0.3230379E+03  0.7546771E-02  0.1074260E+00
         -1   -1    0    0    0  501 -0.00000000000E+00  0.00000000000E+00  0.22505829557E+03  0.22505829557E+03  0.00000000000E+00 0.  1.
          1   -1    0    0  503    0  0.00000000000E+00 -0.00000000000E+00 -0.60826530805E+03  0.60826530805E+03  0.00000000000E+00 0. -1.
          6    2    1    2  503    0 -0.18930493625E+02 -0.27283357466E+03  0.11666462650E+02  0.32297529896E+03  0.17140715952E+03 0.  0.
         24    2    3    3    0    0  0.34402074633E+02 -0.16927502193E+03 -0.41333263100E+02  0.19491360441E+03  0.80282867151E+02 0.  0.
         -6    2    1    2    0  501  0.18930493625E+02  0.27283357466E+03 -0.39487347513E+03  0.51034830466E+03  0.17243493746E+03 0.  0.
        -24    2    5    5    0    0  0.42928150359E+02  0.60291091313E+02 -0.12700002356E+03  0.16752404821E+03  0.80358316051E+02 0.  0.
          2    1    4    4  502    0 -0.17178661573E+02 -0.10973285729E+03 -0.31989028498E+02  0.11558418718E+03  0.00000000000E+00 0. -1.
         -1    1    4    4    0  502  0.51580736206E+02 -0.59542164639E+02 -0.93442346019E+01  0.79329417228E+02  0.00000000000E+00 0.  1.
          5    1    3    3  503    0 -0.53332568258E+02 -0.10355855273E+03  0.52999725750E+02  0.12806169455E+03  0.47000000000E+01 0. -1.
         11    1    6    6    0    0  0.38389964203E+02  0.30448046998E+02 -0.12827113414E+03  0.13731116769E+03  0.00000000000E+00 0. -1.
        -12    1    6    6    0    0  0.45381861566E+01  0.29843044315E+02  0.12711105755E+01  0.30212880526E+02  0.00000000000E+00 0.  1.
         -5    1    5    5    0  501 -0.23997656735E+02  0.21254248335E+03 -0.26787345157E+03  0.34282425645E+03  0.47000000000E+01 0.  1.
<mgrwt>
<rscale>  2 0.32303790E+03</rscale>
<asrwt>0</asrwt>
<pdfrwt beam="2">  1        1 0.93579278E-01 0.32303790E+03</pdfrwt>
<pdfrwt beam="1">  1       -1 0.34624353E-01 0.32303790E+03</pdfrwt>
<totfact> 0.27591882E+02</totfact>
</mgrwt>
</event>
<event>
12    1  0.1093377E-001  0.2387439E+03  0.7546771E-02  0.1120632E+00
          4   -1    0    0  503    0  0.00000000000E+00  0.00000000000E+00  0.84487190796E+03  0.84487190796E+03  0.00000000000E+00 0. -1.
         -4   -1    0    0    0  501 -0.00000000000E+00 -0.00000000000E+00 -0.68008851437E+02  0.68008851437E+02  0.00000000000E+00 0.  1.
          6    2    1    2  503    0  0.97421142081E+02 -0.12903194022E+03  0.42470064237E+03  0.48592411854E+03  0.17207990246E+03 0.  0.
         24    2    3    3    0    0  0.15556053176E+02 -0.19844496063E+02  0.63402132515E+02  0.99682621593E+02  0.72670487998E+02 0.  0.
         -6    2    1    2    0  501 -0.97421142081E+02  0.12903194022E+03  0.35216241416E+03  0.42695664086E+03  0.17925815659E+03 0.  0.
        -24    2    5    5    0    0 -0.11434263250E+03  0.11098726255E+03  0.35885155536E+03  0.40090319885E+03  0.80972378044E+02 0.  0.
          4    1    4    4  502    0  0.17543324823E+01 -0.43787642879E+02  0.19865549781E+02  0.48115230639E+02  0.00000000000E+00 0. -1.
         -3    1    4    4    0  502  0.13801720694E+02  0.23943146817E+02  0.43536582734E+02  0.51567390954E+02  0.00000000000E+00 0.  1.
          5    1    3    3  503    0  0.81865088905E+02 -0.10918744416E+03  0.36129850985E+03  0.38624149695E+03  0.47000000000E+01 0. -1.
         13    1    6    6    0    0  0.12749648120E+02  0.76757599868E+01  0.26800067324E+02  0.30654761900E+02  0.00000000000E+00 0. -1.
        -14    1    6    6    0    0 -0.12709228062E+03  0.10331150256E+03  0.33205148804E+03  0.37024843695E+03  0.00000000000E+00 0.  1.
         -5    1    5    5    0  501  0.16921490422E+02  0.18044677675E+02 -0.66891412042E+01  0.26053442010E+02  0.47000000000E+01 0.  1.
<mgrwt>
<rscale>  2 0.23874393E+03</rscale>
<asrwt>0</asrwt>
<pdfrwt beam="1">  1        4 0.12998029E+00 0.23874393E+03</pdfrwt>
<pdfrwt beam="2">  1       -4 0.10462901E-01 0.23874393E+03</pdfrwt>
<totfact> 0.58067972E+01</totfact>
</mgrwt>
</event>
<event>
12    1  0.1093377E-001  0.1904517E+03  0.7546771E-02  0.1158055E+00
         -2   -1    0    0    0  501 -0.00000000000E+00  0.00000000000E+00  0.69721477099E+02  0.69721477099E+02  0.00000000000E+00 0.  1.
          2   -1    0    0  503    0  0.00000000000E+00 -0.00000000000E+00 -0.96519232133E+03  0.96519232133E+03  0.00000000000E+00 0. -1.
          6    2    1    2  503    0 -0.79273004749E+02 -0.13740339679E+02 -0.94513508367E+02  0.21127487247E+03  0.17097152469E+03 0.  0.
         24    2    3    3    0    0 -0.22773949404E+02 -0.12477912175E+02  0.17617120894E+02  0.85620167037E+02  0.79662406386E+02 0.  0.
         -6    2    1    2    0  501  0.79273004749E+02  0.13740339679E+02 -0.80095733586E+03  0.82363892596E+03  0.17428545628E+03 0.  0.
        -24    2    5    5    0    0  0.70235443709E+02  0.53050424416E+02 -0.74357509123E+03  0.75334118581E+03  0.82895481499E+02 0.  0.
          2    1    4    4  502    0  0.29978720828E+02 -0.63936657359E+01  0.76035565437E+01  0.31581905201E+02  0.00000000000E+00 0. -1.
         -1    1    4    4    0  502 -0.52752670231E+02 -0.60842464390E+01  0.10013564350E+02  0.54038261836E+02  0.00000000000E+00 0.  1.
          5    1    3    3  503    0 -0.56499055346E+02 -0.12624275046E+01 -0.11213062926E+03  0.12565470543E+03  0.47000000000E+01 0. -1.
         13    1    6    6    0    0  0.53575348649E+02  0.74780739291E+02 -0.61851656097E+03  0.62532008855E+03  0.00000000000E+00 0. -1.
        -14    1    6    6    0    0  0.16660095060E+02 -0.21730314875E+02 -0.12505853026E+03  0.12802109726E+03  0.00000000000E+00 0.  1.
         -5    1    5    5    0  501  0.90375610403E+01 -0.39310084737E+02 -0.57382244630E+02  0.70297740151E+02  0.47000000000E+01 0.  1.
<mgrwt>
<rscale>  2 0.19045166E+03</rscale>
<asrwt>0</asrwt>
<pdfrwt beam="2">  1        2 0.14849111E+00 0.19045166E+03</pdfrwt>
<pdfrwt beam="1">  1       -2 0.10726382E-01 0.19045166E+03</pdfrwt>
<totfact> 0.16339597E+03</totfact>
</mgrwt>
</event>
<event>
12    1  0.1093377E-001  0.1845359E+03  0.7546771E-02  0.1163484E+00
         -2   -1    0    0    0  501 -0.00000000000E+00  0.00000000000E+00  0.69920547661E+02  0.69920547661E+02  0.00000000000E+00 0. -1.
          2   -1    0    0  503    0  0.00000000000E+00 -0.00000000000E+00 -0.51348762245E+03  0.51348762245E+03  0.00000000000E+00 0.  1.
          6    2    1    2  503    0  0.33264075004E+02 -0.46383347651E+00 -0.27432451168E+03  0.32517029210E+03  0.17139156143E+03 0.  0.
         24    2    3    3    0    0  0.82057243158E+02  0.26199826275E+02 -0.18114355228E+03  0.21655857448E+03  0.81638272875E+02 0.  0.
         -6    2    1    2    0  501 -0.33264075004E+02  0.46383347651E+00 -0.16924256311E+03  0.25823787801E+03  0.19219012108E+03 0.  0.
        -24    2    5    5    0    0 -0.88471684635E+02  0.31511910737E+02 -0.80015548312E+02  0.14871430323E+03  0.83025396793E+02 0.  0.
          4    1    4    4  502    0  0.25261870535E+02 -0.11221175280E+02 -0.54699607914E+01  0.28177958561E+02  0.00000000000E+00 0. -1.
         -3    1    4    4    0  502  0.56795372623E+02  0.37421001556E+02 -0.17567359149E+03  0.18838061592E+03  0.00000000000E+00 0.  1.
          5    1    3    3  503    0 -0.48793168153E+02 -0.26663659752E+02 -0.93180959399E+02  0.10861171762E+03  0.47000000000E+01 0. -1.
         11    1    6    6    0    0 -0.40542634386E+02 -0.25948854703E+02 -0.45775764445E+02  0.66426416988E+02  0.00000000000E+00 0. -1.
        -12    1    6    6    0    0 -0.47929050249E+02  0.57460765440E+02 -0.34239783867E+02  0.82287886240E+02  0.00000000000E+00 0.  1.
         -5    1    5    5    0  501  0.55207609631E+02 -0.31048077260E+02 -0.89227014797E+02  0.10952357478E+03  0.47000000000E+01 0.  1.
<mgrwt>
<rscale>  2 0.18453593E+03</rscale>
<asrwt>0</asrwt>
<pdfrwt beam="2">  1        2 0.78998096E-01 0.18453593E+03</pdfrwt>
<pdfrwt beam="1">  1       -2 0.10757007E-01 0.18453593E+03</pdfrwt>
<totfact> 0.35047288E+03</totfact>
</mgrwt>
</event>
<event>
12    1  0.1093377E-001  0.2071041E+03  0.7546771E-02  0.1143880E+00
          1   -1    0    0  503    0  0.00000000000E+00  0.00000000000E+00  0.27519826908E+03  0.27519826908E+03  0.00000000000E+00 0.  1.
         -1   -1    0    0    0  501 -0.00000000000E+00 -0.00000000000E+00 -0.15610795464E+03  0.15610795464E+03  0.00000000000E+00 0. -1.
          6    2    1    2  503    0 -0.17478181037E+02 -0.11521346065E+03  0.68471185450E+02  0.21987253116E+03  0.17342433046E+03 0.  0.
         24    2    3    3    0    0  0.54422623046E+02 -0.52108042829E+02  0.40275121757E+02  0.12002701352E+03  0.84304973251E+02 0.  0.
         -6    2    1    2    0  501  0.17478181037E+02  0.11521346065E+03  0.50619128989E+02  0.21143369255E+03  0.16900379226E+03 0.  0.
        -24    2    5    5    0    0 -0.33197637829E+02  0.37923538798E+02 -0.16915883012E+02  0.96870005096E+02  0.80977607008E+02 0.  0.
          2    1    4    4  502    0  0.52927304328E+02 -0.69605306590E+02  0.14197438360E+02  0.88587614851E+02  0.00000000000E+00 0. -1.
         -1    1    4    4    0  502  0.14953187184E+01  0.17497263761E+02  0.26077683397E+02  0.31439398668E+02  0.00000000000E+00 0.  1.
          5    1    3    3  503    0 -0.71900804083E+02 -0.63105417819E+02  0.28196063693E+02  0.99845517645E+02  0.47000000000E+01 0. -1.
         11    1    6    6    0    0 -0.90744378135E+01  0.11782130194E+02 -0.47615029980E+02  0.49883415015E+02  0.00000000000E+00 0. -1.
        -12    1    6    6    0    0 -0.24123200015E+02  0.26141408605E+02  0.30699146969E+02  0.46986590081E+02  0.00000000000E+00 0.  1.
         -5    1    5    5    0  501  0.50675818866E+02  0.77289921850E+02  0.67535012001E+02  0.11456368745E+03  0.47000000000E+01 0.  1.
<mgrwt>
<rscale>  2 0.20710406E+03</rscale>
<asrwt>0</asrwt>
<pdfrwt beam="1">  1        1 0.42338195E-01 0.20710406E+03</pdfrwt>
<pdfrwt beam="2">  1       -1 0.24016608E-01 0.20710406E+03</pdfrwt>
<totfact> 0.14478005E+03</totfact>
</mgrwt>
</event>
<event>
12    1  0.1093377E-001  0.2249753E+03  0.7546771E-02  0.1130227E+00
          2   -1    0    0  503    0  0.00000000000E+00  0.00000000000E+00  0.13231332559E+04  0.13231332559E+04  0.00000000000E+00 0.  1.
         -2   -1    0    0    0  501 -0.00000000000E+00 -0.00000000000E+00 -0.38831730708E+02  0.38831730708E+02  0.00000000000E+00 0. -1.
          6    2    1    2  503    0 -0.92947688353E+02 -0.10773469963E+03  0.55813415740E+03  0.60165205327E+03  0.17385458657E+03 0.  0.
         24    2    3    3    0    0 -0.10459528336E+03 -0.91594049298E+02  0.55885177926E+03  0.58118764407E+03  0.78320643968E+02 0.  0.
         -6    2    1    2    0  501  0.92947688353E+02  0.10773469963E+03  0.72616736783E+03  0.76031293337E+03  0.17467304395E+03 0.  0.
        -24    2    5    5    0    0 -0.71570182259E+01  0.84672380457E+02  0.30893394782E+03  0.33059367663E+03  0.81433162717E+02 0.  0.
          2    1    4    4  502    0 -0.69241575368E+02 -0.32517044162E+02  0.17181096278E+03  0.18807115901E+03  0.00000000000E+00 0. -1.
         -1    1    4    4    0  502 -0.35353707992E+02 -0.59077005136E+02  0.38704081648E+03  0.39311648506E+03  0.00000000000E+00 0.  1.
          5    1    3    3  503    0  0.11647595006E+02 -0.16140650330E+02 -0.71762186375E+00  0.20464409194E+02  0.47000000000E+01 0. -1.
         13    1    6    6    0    0 -0.61249104334E+01 -0.68348998192E+01  0.86328320217E+00  0.92182233235E+01  0.00000000000E+00 0. -1.
        -14    1    6    6    0    0 -0.10321077925E+01  0.91507280276E+02  0.30807066462E+03  0.32137545330E+03  0.00000000000E+00 0.  1.
         -5    1    5    5    0  501  0.10010470658E+03  0.23062319172E+02  0.41723342001E+03  0.42971925674E+03  0.47000000000E+01 0.  1.
<mgrwt>
<rscale>  2 0.22497529E+03</rscale>
<asrwt>0</asrwt>
<pdfrwt beam="1">  1        2 0.20355893E+00 0.22497529E+03</pdfrwt>
<pdfrwt beam="2">  1       -2 0.59741134E-02 0.22497529E+03</pdfrwt>
<totfact> 0.25354815E+03</totfact>
</mgrwt>
</event>
<event>
12    1  0.1093377E-001  0.1866929E+03  0.7546771E-02  0.1161478E+00
          1   -1    0    0  503    0  0.00000000000E+00  0.00000000000E+00  0.40904917594E+03  0.40904917594E+03  0.00000000000E+00 0. -1.
         -1   -1    0    0    0  501 -0.00000000000E+00 -0.00000000000E+00 -0.97371672822E+02  0.97371672822E+02  0.00000000000E+00 0.  1.
          6    2    1    2  503    0 -0.36630778255E+01 -0.50695038803E+02  0.24946958910E+03  0.31540226237E+03  0.18617224853E+03 0.  0.
         24    2    3    3    0    0 -0.23202415794E+02 -0.54404349235E+02  0.45203241480E+02  0.11011618032E+03  0.81142188869E+02 0.  0.
         -6    2    1    2    0  501  0.36630778255E+01  0.50695038803E+02  0.62207914026E+02  0.19101858640E+03  0.17330571452E+03 0.  0.
        -24    2    5    5    0    0 -0.96262384664E+01  0.10030881542E+03  0.42468593117E+02  0.13579301671E+03  0.80508627276E+02 0.  0.
          4    1    4    4  502    0 -0.48256145227E+02 -0.57605520095E+02  0.33304846856E+02  0.82196498233E+02  0.00000000000E+00 0. -1.
         -3    1    4    4    0  502  0.25053729434E+02  0.32011708606E+01  0.11898394624E+02  0.27919682091E+02  0.00000000000E+00 0.  1.
          5    1    3    3  503    0  0.19539337968E+02  0.37093104313E+01  0.20426634762E+03  0.20528608204E+03  0.47000000000E+01 0. -1.
         13    1    6    6    0    0  0.71300657069E+01  0.11223854618E+02  0.43140613490E+02  0.45143385803E+02  0.00000000000E+00 0. -1.
        -14    1    6    6    0    0 -0.16756304173E+02  0.89084960807E+02 -0.67202037259E+00  0.90649630903E+02  0.00000000000E+00 0.  1.
         -5    1    5    5    0  501  0.13289316292E+02 -0.49613776621E+02  0.19739320909E+02  0.55225569694E+02  0.47000000000E+01 0.  1.
<mgrwt>
<rscale>  2 0.18669294E+03</rscale>
<asrwt>0</asrwt>
<pdfrwt beam="1">  1        1 0.62930642E-01 0.18669294E+03</pdfrwt>
<pdfrwt beam="2">  1       -1 0.14980257E-01 0.18669294E+03</pdfrwt>
<totfact> 0.18771378E+03</totfact>
</mgrwt>
</event>
<event>
12    1  0.1093377E-001  0.2745121E+03  0.7546771E-02  0.1098725E+00
          2   -1    0    0  503    0  0.00000000000E+00  0.00000000000E+00  0.55260375912E+03  0.55260375912E+03  0.00000000000E+00 0.  1.
         -2   -1    0    0    0  501 -0.00000000000E+00 -0.00000000000E+00 -0.19121185790E+03  0.19121185790E+03  0.00000000000E+00 0. -1.
          6    2    1    2  503    0  0.12574425048E+03  0.17383327367E+03 -0.19014608044E+02  0.27403330133E+03  0.16941980805E+03 0.  0.
         24    2    3    3    0    0  0.97923339676E+02  0.19536247656E+03  0.23079490267E+01  0.23262978584E+03  0.79723352477E+02 0.  0.
         -6    2    1    2    0  501 -0.12574425048E+03 -0.17383327367E+03  0.38040650926E+03  0.46978231569E+03  0.17308000544E+03 0.  0.
        -24    2    5    5    0    0  0.63148030367E+01 -0.46919859359E+02  0.14559470998E+03  0.17194800029E+03  0.78274806229E+02 0.  0.
          4    1    4    4  502    0  0.24351838920E+02  0.12385469814E+03 -0.19548198950E+02  0.12773069479E+03  0.00000000000E+00 0. -1.
         -3    1    4    4    0  502  0.73571500756E+02  0.71507778424E+02  0.21856147977E+02  0.10489909105E+03  0.00000000000E+00 0.  1.
          5    1    3    3  503    0  0.27820910800E+02 -0.21529202895E+02 -0.21322557071E+02  0.41403515491E+02  0.47000000000E+01 0. -1.
         11    1    6    6    0    0 -0.34013370282E+02 -0.26541037840E+02  0.48865661302E+02  0.65185802918E+02  0.00000000000E+00 0. -1.
        -12    1    6    6    0    0  0.40328173319E+02 -0.20378821520E+02  0.96729048674E+02  0.10676219737E+03  0.00000000000E+00 0.  1.
         -5    1    5    5    0  501 -0.13205905351E+03 -0.12691341431E+03  0.23481179929E+03  0.29783431540E+03  0.47000000000E+01 0.  1.
<mgrwt>
<rscale>  2 0.27451211E+03</rscale>
<asrwt>0</asrwt>
<pdfrwt beam="1">  1        2 0.85015962E-01 0.27451211E+03</pdfrwt>
<pdfrwt beam="2">  1       -2 0.29417209E-01 0.27451211E+03</pdfrwt>
<totfact> 0.59125269E+02</totfact>
</mgrwt>
</event>
<event>
12    1  0.1093377E-001  0.2480299E+03  0.7546771E-02  0.1114556E+00
         -1   -1    0    0    0  501 -0.00000000000E+00  0.00000000000E+00  0.26552057789E+02  0.26552057789E+02  0.00000000000E+00 0. -1.
          1   -1    0    0  503    0  0.00000000000E+00 -0.00000000000E+00 -0.27714790368E+04  0.27714790368E+04  0.00000000000E+00 0.  1.
          6    2    1    2  503    0 -0.18014733516E+03  0.32933117122E+02 -0.79256731404E+03  0.82960612934E+03  0.16292860392E+03 0.  0.
         24    2    3    3    0    0 -0.53788977319E+02 -0.35870886274E+02 -0.33362279237E+03  0.34861487219E+03  0.77770090386E+02 0.  0.
         -6    2    1    2    0  501  0.18014733516E+03 -0.32933117122E+02 -0.19523596650E+04  0.19684249653E+04  0.17161273226E+03 0.  0.
        -24    2    5    5    0    0  0.19227422028E+03 -0.52437615704E+02 -0.14867493577E+04  0.15022248633E+04  0.80850528974E+02 0.  0.
          4    1    4    4  502    0 -0.52060459952E+02 -0.58370633370E+02 -0.27044936807E+03  0.28153202841E+03  0.00000000000E+00 0. -1.
         -3    1    4    4    0  502 -0.17285173676E+01  0.22499747096E+02 -0.63173424298E+02  0.67082843777E+02  0.00000000000E+00 0.  1.
          5    1    3    3  503    0 -0.12635835784E+03  0.68804003396E+02 -0.45894452168E+03  0.48099125715E+03  0.47000000000E+01 0. -1.
         13    1    6    6    0    0  0.64765765987E+02 -0.41683750547E+02 -0.79645998633E+03  0.80017538660E+03  0.00000000000E+00 0. -1.
        -14    1    6    6    0    0  0.12750845429E+03 -0.10753865157E+02 -0.69028937135E+03  0.70204947670E+03  0.00000000000E+00 0.  1.
         -5    1    5    5    0  501 -0.12126885119E+02  0.19504498582E+02 -0.46561030731E+03  0.46620010197E+03  0.47000000000E+01 0.  1.
<mgrwt>
<rscale>  2 0.24802991E+03</rscale>
<asrwt>0</asrwt>
<pdfrwt beam="2">  1        1 0.42638138E+00 0.24802991E+03</pdfrwt>
<pdfrwt beam="1">  1       -1 0.40849321E-02 0.24802991E+03</pdfrwt>
<totfact> 0.24936964E+02</totfact>
</mgrwt>
</event>
<event>
12    1  0.1093377E-001  0.1874422E+03  0.7546771E-02  0.1160789E+00
         -2   -1    0    0    0  501 -0.00000000000E+00  0.00000000000E+00  0.33245269994E+02  0.33245269994E+02  0.00000000000E+00 0. -1.
          2   -1    0    0  503    0  0.00000000000E+00 -0.00000000000E+00 -0.10709674428E+04  0.10709674428E+04  0.00000000000E+00 0.  1.
          6    2    1    2  503    0 -0.57903497540E+02  0.42612028815E+02 -0.58199168177E+03  0.61139782804E+03  0.17298666555E+03 0.  0.
         24    2    3    3    0    0  0.29972498350E+02  0.53892127946E+01 -0.34837386054E+03  0.35899516347E+03  0.81152858343E+02 0.  0.
         -6    2    1    2    0  501  0.57903497540E+02 -0.42612028815E+02 -0.45573049104E+03  0.49281488475E+03  0.17322710569E+03 0.  0.
        -24    2    5    5    0    0  0.92227563362E+02 -0.55042604556E+02 -0.42428107770E+03  0.44440190811E+03  0.77090928662E+02 0.  0.
          2    1    4    4  502    0  0.47906002640E+02 -0.15200608064E+01 -0.11178769768E+03  0.12162970454E+03  0.00000000000E+00 0. -1.
         -1    1    4    4    0  502 -0.17933504290E+02  0.69092736010E+01 -0.23658616286E+03  0.23736545893E+03  0.00000000000E+00 0.  1.
          5    1    3    3  503    0 -0.87875995890E+02  0.37222816021E+02 -0.23361782123E+03  0.25240266457E+03  0.47000000000E+01 0. -1.
         13    1    6    6    0    0  0.55022370911E+02 -0.50107575072E+01 -0.30338871573E+03  0.30837847173E+03  0.00000000000E+00 0. -1.
        -14    1    6    6    0    0  0.37205192451E+02 -0.50031847049E+02 -0.12089236197E+03  0.13602343639E+03  0.00000000000E+00 0.  1.
         -5    1    5    5    0  501 -0.34324065822E+02  0.12430575741E+02 -0.31449413342E+02  0.48412976642E+02  0.47000000000E+01 0.  1.
<mgrwt>
<rscale>  2 0.18744221E+03</rscale>
<asrwt>0</asrwt>
<pdfrwt beam="2">  1        2 0.16476425E+00 0.18744221E+03</pdfrwt>
<pdfrwt beam="1">  1       -2 0.51146561E-02 0.18744221E+03</pdfrwt>
<totfact> 0.44483026E+03</totfact>
</mgrwt>
</event>
<event>
12    1  0.1093377E-001  0.2568657E+03  0.7546771E-02  0.1109041E+00
         -1   -1    0    0    0  501 -0.00000000000E+00  0.00000000000E+00  0.38497499272E+02  0.38497499272E+02  0.00000000000E+00 0. -1.
          1   -1    0    0  503    0  0.00000000000E+00 -0.00000000000E+00 -0.19160461420E+04  0.19160461420E+04  0.00000000000E+00 0.  1.
          6    2    1    2  503    0  0.39806547002E+01  0.18990490350E+03 -0.62052506942E+03  0.67149463202E+03  0.17255132879E+03 0.  0.
         24    2    3    3    0    0 -0.51469604100E+01  0.43265509873E+02 -0.11648264659E+03  0.14645436772E+03  0.77345195857E+02 0.  0.
         -6    2    1    2    0  501 -0.39806547002E+01 -0.18990490350E+03 -0.12570235733E+04  0.12830490093E+04  0.17328236583E+03 0.  0.
        -24    2    5    5    0    0  0.24186424497E+02 -0.15684748003E+03 -0.63255445572E+03  0.65705384440E+03  0.80053106544E+02 0.  0.
          2    1    4    4  502    0 -0.17957420445E+02  0.62276115232E+02 -0.75569836995E+02  0.99556937181E+02  0.00000000000E+00 0. -1.
         -1    1    4    4    0  502  0.12810460035E+02 -0.19010605359E+02 -0.40912809595E+02  0.46897430541E+02  0.00000000000E+00 0.  1.
          5    1    3    3  503    0  0.91276151102E+01  0.14663939363E+03 -0.50404242283E+03  0.52504026429E+03  0.47000000000E+01 0. -1.
         11    1    6    6    0    0  0.53249606769E+02 -0.10634563344E+03 -0.39964038391E+03  0.41696204962E+03  0.00000000000E+00 0. -1.
        -12    1    6    6    0    0 -0.29063182272E+02 -0.50501846593E+02 -0.23291407180E+03  0.24009179477E+03  0.00000000000E+00 0.  1.
         -5    1    5    5    0  501 -0.28167079197E+02 -0.33057423471E+02 -0.62446911763E+03  0.62599516489E+03  0.47000000000E+01 0.  1.
<mgrwt>
<rscale>  2 0.25686566E+03</rscale>
<asrwt>0</asrwt>
<pdfrwt beam="2">  1        1 0.29477636E+00 0.25686566E+03</pdfrwt>
<pdfrwt beam="1">  1       -1 0.59226915E-02 0.25686566E+03</pdfrwt>
<totfact> 0.52234398E+02</totfact>
</mgrwt>
</event>
<event>
12    1  0.1093377E-001  0.1868665E+03  0.7546771E-02  0.1161318E+00
         -1   -1    0    0    0  501 -0.00000000000E+00  0.00000000000E+00  0.19531552707E+03  0.19531552707E+03  0.00000000000E+00 0.  1.
          1   -1    0    0  503    0  0.00000000000E+00 -0.00000000000E+00 -0.18911546618E+03  0.18911546618E+03  0.00000000000E+00 0. -1.
          6    2    1    2  503    0  0.31419493063E+02 -0.45632778534E+02 -0.41744416381E+02  0.18815274599E+03  0.17489804031E+03 0.  0.
         24    2    3    3    0    0  0.58297379353E+02 -0.88036976851E+02 -0.37241710834E+02  0.13752764191E+03  0.79861214181E+02 0.  0.
         -6    2    1    2    0  501 -0.31419493063E+02  0.45632778534E+02  0.47944477272E+02  0.19627824725E+03  0.18209047867E+03 0.  0.
        -24    2    5    5    0    0 -0.90172492454E+02  0.28649180037E+02  0.13876554199E+02  0.12611364835E+03  0.82220676431E+02 0.  0.
          4    1    4    4  502    0  0.12530280986E+02 -0.34966869655E+02 -0.53934900932E+02  0.65487887839E+02  0.00000000000E+00 0. -1.
         -3    1    4    4    0  502  0.45767098367E+02 -0.53070107196E+02  0.16693190097E+02  0.72039754069E+02  0.00000000000E+00 0.  1.
          5    1    3    3  503    0 -0.26877886290E+02  0.42404198317E+02 -0.45027055470E+01  0.50625104085E+02  0.47000000000E+01 0. -1.
         11    1    6    6    0    0 -0.14681675112E+02  0.23308653194E+02 -0.28284684778E+02  0.39482506137E+02  0.00000000000E+00 0. -1.
        -12    1    6    6    0    0 -0.75490817342E+02  0.53405268429E+01  0.42161238977E+02  0.86631142218E+02  0.00000000000E+00 0.  1.
         -5    1    5    5    0  501  0.58752999391E+02  0.16983598497E+02  0.34067923073E+02  0.70164598894E+02  0.47000000000E+01 0.  1.
<mgrwt>
<rscale>  2 0.18686647E+03</rscale>
<asrwt>0</asrwt>
<pdfrwt beam="2">  1        1 0.29094687E-01 0.18686647E+03</pdfrwt>
<pdfrwt beam="1">  1       -1 0.30048543E-01 0.18686647E+03</pdfrwt>
<totfact> 0.15887939E+03</totfact>
</mgrwt>
</event>
<event>
12    1  0.1093377E-001  0.2030644E+03  0.7546771E-02  0.1147179E+00
         -1   -1    0    0    0  501 -0.00000000000E+00  0.00000000000E+00  0.14778803495E+03  0.14778803495E+03  0.00000000000E+00 0. -1.
          1   -1    0    0  503    0  0.00000000000E+00 -0.00000000000E+00 -0.37382086544E+03  0.37382086544E+03  0.00000000000E+00 0.  1.
          6    2    1    2  503    0  0.77774143501E+02 -0.72943994146E+02 -0.24444386697E+03  0.31791977743E+03  0.17306223477E+03 0.  0.
         24    2    3    3    0    0  0.38819026780E+01 -0.21437402396E+02 -0.43269921287E+02  0.97452005025E+02  0.84557529560E+02 0.  0.
         -6    2    1    2    0  501 -0.77774143501E+02  0.72943994146E+02  0.18411036481E+02  0.20368912296E+03  0.17257070687E+03 0.  0.
        -24    2    5    5    0    0 -0.70629663287E+02  0.62385300948E+02 -0.50956264700E+02  0.13300360767E+03  0.78822228021E+02 0.  0.
          2    1    4    4  502    0  0.20077388452E+02 -0.31282184521E+02  0.11970338686E+02  0.39050807978E+02  0.00000000000E+00 0. -1.
         -1    1    4    4    0  502 -0.16195485774E+02  0.98447821256E+01 -0.55240259973E+02  0.58401197047E+02  0.00000000000E+00 0.  1.
          5    1    3    3  503    0  0.73892240823E+02 -0.51506591750E+02 -0.20117394568E+03  0.22046777240E+03  0.47000000000E+01 0. -1.
         13    1    6    6    0    0 -0.47434370020E+01  0.53529124844E+02 -0.92605900059E+01  0.54530963024E+02  0.00000000000E+00 0. -1.
        -14    1    6    6    0    0 -0.65886226285E+02  0.88561761048E+01 -0.41695674694E+02  0.78472644644E+02  0.00000000000E+00 0.  1.
         -5    1    5    5    0  501 -0.71444802144E+01  0.10558693197E+02  0.69367301181E+02  0.70685515296E+02  0.47000000000E+01 0.  1.
<mgrwt>
<rscale>  2 0.20306440E+03</rscale>
<asrwt>0</asrwt>
<pdfrwt beam="2">  1        1 0.57510902E-01 0.20306440E+03</pdfrwt>
<pdfrwt beam="1">  1       -1 0.22736621E-01 0.20306440E+03</pdfrwt>
<totfact> 0.10773660E+03</totfact>
</mgrwt>
</event>
<event>
12    1  0.1093377E-001  0.1918923E+03  0.7546771E-02  0.1156766E+00
          1   -1    0    0  503    0  0.00000000000E+00  0.00000000000E+00  0.24053595721E+04  0.24053595721E+04  0.00000000000E+00 0. -1.
         -1   -1    0    0    0  501 -0.00000000000E+00 -0.00000000000E+00 -0.19463466128E+02  0.19463466128E+02  0.00000000000E+00 0.  1.
          6    2    1    2  503    0  0.81113058487E+02 -0.16505279869E+02  0.17558247033E+04  0.17663399826E+04  0.17373771271E+03 0.  0.
         24    2    3    3    0    0  0.34797852383E+02 -0.75805031706E+02  0.11122543438E+04  0.11183689519E+04  0.81744076609E+02 0.  0.
         -6    2    1    2    0  501 -0.81113058487E+02  0.16505279869E+02  0.63007140270E+03  0.65848305568E+03  0.17250567989E+03 0.  0.
        -24    2    5    5    0    0 -0.11060725481E+03 -0.14602213918E+02  0.55496565020E+03  0.57187735237E+03  0.81299715772E+02 0.  0.
          2    1    4    4  502    0  0.39638744189E+02 -0.11139324886E+02  0.68344107942E+03  0.68468023459E+03  0.00000000000E+00 0. -1.
         -1    1    4    4    0  502 -0.48408918053E+01 -0.64665706819E+02  0.42881326434E+03  0.43368871734E+03  0.00000000000E+00 0.  1.
          5    1    3    3  503    0  0.46315206103E+02  0.59299751836E+02  0.64357035955E+03  0.64797103066E+03  0.47000000000E+01 0. -1.
         11    1    6    6    0    0 -0.49543709595E+02 -0.13567389661E+01  0.42269681217E+03  0.42559254566E+03  0.00000000000E+00 0. -1.
        -12    1    6    6    0    0 -0.61063545219E+02 -0.13245474952E+02  0.13226883803E+03  0.14628480671E+03  0.00000000000E+00 0.  1.
         -5    1    5    5    0  501  0.29494196327E+02  0.31107493788E+02  0.75105752503E+02  0.86605703310E+02  0.47000000000E+01 0.  1.
<mgrwt>
<rscale>  2 0.19189225E+03</rscale>
<asrwt>0</asrwt>
<pdfrwt beam="1">  1        1 0.37005508E+00 0.19189225E+03</pdfrwt>
<pdfrwt beam="2">  1       -1 0.29943813E-02 0.19189225E+03</pdfrwt>
<totfact> 0.70127151E+02</totfact>
</mgrwt>
</event>
<event>
12    1  0.1093377E-001  0.2954649E+03  0.7546771E-02  0.1087530E+00
          1   -1    0    0  503    0  0.00000000000E+00  0.00000000000E+00  0.52551172095E+02  0.52551172095E+02  0.00000000000E+00 0. -1.
         -1   -1    0    0    0  501 -0.00000000000E+00 -0.00000000000E+00 -0.18965419462E+04  0.18965419462E+04  0.00000000000E+00 0.  1.
          6    2    1    2  503    0  0.18175733046E+03  0.15616478182E+03 -0.12651358333E+04  0.12991684509E+04  0.17276232491E+03 0.  0.
         24    2    3    3    0    0  0.88050367330E+02  0.15940931093E+03 -0.75667359472E+03  0.78211191633E+03  0.77329975486E+02 0.  0.
         -6    2    1    2    0  501 -0.18175733046E+03 -0.15616478182E+03 -0.57885494087E+03  0.64992466744E+03  0.17293312152E+03 0.  0.
        -24    2    5    5    0    0 -0.75392908551E+02 -0.86308893737E+01 -0.19516808806E+03  0.22528678561E+03  0.83096150693E+02 0.  0.
          4    1    4    4  502    0  0.89895857591E+02  0.11167038471E+03 -0.46645916193E+03  0.48799148536E+03  0.00000000000E+00 0. -1.
         -3    1    4    4    0  502 -0.18454902603E+01  0.47738926218E+02 -0.29021443280E+03  0.29412043097E+03  0.00000000000E+00 0.  1.
          5    1    3    3  503    0  0.93706963128E+02 -0.32445291087E+01 -0.50846223855E+03  0.51705653457E+03  0.47000000000E+01 0. -1.
         11    1    6    6    0    0  0.78267395107E+01 -0.19550159279E+02 -0.13092607465E+02  0.24796833456E+02  0.00000000000E+00 0. -1.
        -12    1    6    6    0    0 -0.83219648062E+02  0.10919269905E+02 -0.18207548060E+03  0.20048995215E+03  0.00000000000E+00 0.  1.
         -5    1    5    5    0  501 -0.10636442191E+03 -0.14753389245E+03 -0.38368685281E+03  0.42463788183E+03  0.47000000000E+01 0.  1.
<mgrwt>
<rscale>  2 0.29546489E+03</rscale>
<asrwt>0</asrwt>
<pdfrwt beam="1">  1        1 0.80847973E-02 0.29546489E+03</pdfrwt>
<pdfrwt beam="2">  1       -1 0.29177563E+00 0.29546489E+03</pdfrwt>
<totfact> 0.37089220E+01</totfact>
</mgrwt>
</event>
<event>
12    1  0.1093377E-001  0.1772111E+03  0.7546771E-02  0.1170530E+00
         -2   -1    0    0    0  501 -0.00000000000E+00  0.00000000000E+00  0.45505132921E+02  0.45505132921E+02  0.00000000000E+00 0. -1.
          2   -1    0    0  503    0  0.00000000000E+00 -0.00000000000E+00 -0.79168277490E+03  0.79168277490E+03  0.00000000000E+00 0.  1.
          6    2    1    2  503    0  0.20602713881E+02  0.36964859035E+02 -0.22255858842E+03  0.28428938818E+03  0.17174765889E+03 0.  0.
         24    2    3    3    0    0  0.99287831535E+01  0.75830533158E+02 -0.21656401936E+03  0.24327112054E+03  0.80199832389E+02 0.  0.
         -6    2    1    2    0  501 -0.20602713881E+02 -0.36964859035E+02 -0.52361905356E+03  0.55289851964E+03  0.17242095911E+03 0.  0.
        -24    2    5    5    0    0  0.36707756196E+02 -0.45448709965E+02 -0.44212901200E+03  0.45280265269E+03  0.78352628703E+02 0.  0.
          2    1    4    4  502    0  0.34963961432E+00  0.58930862551E+02 -0.55214692969E+02  0.80756616624E+02  0.00000000000E+00 0. -1.
         -1    1    4    4    0  502  0.95791435392E+01  0.16899670607E+02 -0.16134932639E+03  0.16251450392E+03  0.00000000000E+00 0.  1.
          5    1    3    3  503    0  0.10673930728E+02 -0.38865674123E+02 -0.59945690604E+01  0.41018267643E+02  0.47000000000E+01 0. -1.
         13    1    6    6    0    0  0.33459647155E+02  0.14574704651E+01 -0.68738377494E+02  0.76463303279E+02  0.00000000000E+00 0. -1.
        -14    1    6    6    0    0  0.32481090412E+01 -0.46906180430E+02 -0.37339063451E+03  0.37633934941E+03  0.00000000000E+00 0.  1.
         -5    1    5    5    0  501 -0.57310470077E+02  0.84838509301E+01 -0.81490041561E+02  0.10009586695E+03  0.47000000000E+01 0.  1.
<mgrwt>
<rscale>  2 0.17721112E+03</rscale>
<asrwt>0</asrwt>
<pdfrwt beam="2">  1        2 0.12179734E+00 0.17721112E+03</pdfrwt>
<pdfrwt beam="1">  1       -2 0.70007903E-02 0.17721112E+03</pdfrwt>
<totfact> 0.41236950E+03</totfact>
</mgrwt>
</event>
<event>
12    1  0.1093377E-001  0.2869644E+03  0.7546771E-02  0.1091945E+00
         -3   -1    0    0    0  501 -0.00000000000E+00  0.00000000000E+00  0.81187765005E+03  0.81187765005E+03  0.00000000000E+00 0.  1.
          3   -1    0    0  503    0  0.00000000000E+00 -0.00000000000E+00 -0.17120245825E+03  0.17120245825E+03  0.00000000000E+00 0. -1.
          6    2    1    2  503    0 -0.22871214801E+03 -0.21083530775E+02  0.63421008414E+03  0.69615946550E+03  0.17222603945E+03 0.  0.
         24    2    3    3    0    0 -0.76590752020E+02  0.46756140994E+02  0.26918256377E+03  0.29489855187E+03  0.80334446155E+02 0.  0.
         -6    2    1    2    0  501  0.22871214801E+03  0.21083530775E+02  0.64651076612E+01  0.28692064281E+03  0.17183682881E+03 0.  0.
        -24    2    5    5    0    0  0.22382502966E+03  0.31537204353E+02 -0.39580977978E+02  0.23921849171E+03  0.67576577279E+02 0.  0.
          2    1    4    4  502    0 -0.11431889405E+02  0.41273254415E+02  0.48358438614E+02  0.64596503083E+02  0.00000000000E+00 0. -1.
         -1    1    4    4    0  502 -0.65158862615E+02  0.54828865792E+01  0.22082412516E+03  0.23030204879E+03  0.00000000000E+00 0.  1.
          5    1    3    3  503    0 -0.15212139599E+03 -0.67839671769E+02  0.36502752036E+03  0.40126091363E+03  0.47000000000E+01 0. -1.
         13    1    6    6    0    0  0.16268173592E+03  0.51285923910E+02 -0.38936064092E+02  0.17496173948E+03  0.00000000000E+00 0. -1.
        -14    1    6    6    0    0  0.61143293737E+02 -0.19748719558E+02 -0.64491388545E+00  0.64256752230E+02  0.00000000000E+00 0.  1.
         -5    1    5    5    0  501  0.48871183476E+01 -0.10453673578E+02  0.46046085639E+02  0.47702151101E+02  0.47000000000E+01 0.  1.
<mgrwt>
<rscale>  2 0.28696443E+03</rscale>
<asrwt>0</asrwt>
<pdfrwt beam="2">  1        3 0.26338840E-01 0.28696443E+03</pdfrwt>
<pdfrwt beam="1">  1       -3 0.12490425E+00 0.28696443E+03</pdfrwt>
<totfact> 0.18224594E+01</totfact>
</mgrwt>
</event>
<event>
12    1  0.1093377E-001  0.2277859E+03  0.7546771E-02  0.1128208E+00
          2   -1    0    0  503    0  0.00000000000E+00  0.00000000000E+00  0.33437135042E+04  0.33437135042E+04  0.00000000000E+00 0.  1.
         -2   -1    0    0    0  501 -0.00000000000E+00 -0.00000000000E+00 -0.15664977803E+02  0.15664977803E+02  0.00000000000E+00 0. -1.
          6    2    1    2  503    0  0.83763581824E+02 -0.12187104111E+03  0.18233768618E+04  0.18374895236E+04  0.17261425456E+03 0.  0.
         24    2    3    3    0    0  0.61945465588E+02 -0.15318239779E+03  0.13281757208E+04  0.13407977768E+04  0.79911484438E+02 0.  0.
         -6    2    1    2    0  501 -0.83763581824E+02  0.12187104111E+03  0.15046716646E+04  0.15218889584E+04  0.17389736966E+03 0.  0.
        -24    2    5    5    0    0 -0.44252925853E+02  0.11196726131E+03  0.63805288133E+03  0.65430070221E+03  0.80640811486E+02 0.  0.
          4    1    4    4  502    0 -0.15085012978E+02 -0.62509523101E+02  0.43231975358E+03  0.43707592868E+03  0.00000000000E+00 0. -1.
         -3    1    4    4    0  502  0.77030478566E+02 -0.90672874685E+02  0.89585596722E+03  0.90372184815E+03  0.00000000000E+00 0.  1.
          5    1    3    3  503    0  0.21818116236E+02  0.31311356678E+02  0.49520114098E+03  0.49669174674E+03  0.47000000000E+01 0. -1.
         11    1    6    6    0    0 -0.50794141359E+02  0.11970817176E+03  0.62095350510E+03  0.63442363344E+03  0.00000000000E+00 0. -1.
        -12    1    6    6    0    0  0.65412155061E+01 -0.77409104462E+01  0.17099376238E+02  0.19877068762E+02  0.00000000000E+00 0.  1.
         -5    1    5    5    0  501 -0.39510655971E+02  0.99037797944E+01  0.86661878329E+03  0.86758825623E+03  0.47000000000E+01 0.  1.
<mgrwt>
<rscale>  2 0.22778586E+03</rscale>
<asrwt>0</asrwt>
<pdfrwt beam="1">  1        2 0.51441689E+00 0.22778586E+03</pdfrwt>
<pdfrwt beam="2">  1       -2 0.24099992E-02 0.22778586E+03</pdfrwt>
<totfact> 0.75973940E+02</totfact>
</mgrwt>
</event>
<event>
12    1  0.1093377E-001  0.1805159E+03  0.7546771E-02  0.1167305E+00
         -2   -1    0    0    0  501 -0.00000000000E+00  0.00000000000E+00  0.24195991606E+02  0.24195991606E+02  0.00000000000E+00 0. -1.
          2   -1    0    0  503    0  0.00000000000E+00 -0.00000000000E+00 -0.17476567486E+04  0.17476567486E+04  0.00000000000E+00 0.  1.
          6    2    1    2  503    0 -0.64951767741E+02  0.21168193249E+01 -0.44810399743E+03  0.48417682625E+03  0.17148409111E+03 0.  0.
         24    2    3    3    0    0  0.83868324338E+01 -0.39590768735E+02 -0.27079168594E+03  0.28775936525E+03  0.88541217452E+02 0.  0.
         -6    2    1    2    0  501  0.64951767741E+02 -0.21168193249E+01 -0.12753567596E+04  0.12876759140E+04  0.16538192821E+03 0.  0.
        -24    2    5    5    0    0 -0.11721319761E+02  0.24043408519E+02 -0.40019379686E+03  0.40875872722E+03  0.78823519337E+02 0.  0.
          4    1    4    4  502    0 -0.39411510823E+02 -0.17099965302E+02 -0.14745879075E+03  0.15358961869E+03  0.00000000000E+00 0. -1.
         -3    1    4    4    0  502  0.47798343257E+02 -0.22490803433E+02 -0.12333289519E+03  0.13416974656E+03  0.00000000000E+00 0.  1.
          5    1    3    3  503    0 -0.73338600174E+02  0.41707588060E+02 -0.17731231149E+03  0.19641746100E+03  0.47000000000E+01 0. -1.
         11    1    6    6    0    0  0.22794571847E+02 -0.17573437882E+02 -0.12080674189E+03  0.12418811179E+03  0.00000000000E+00 0. -1.
        -12    1    6    6    0    0 -0.34515891608E+02  0.41616846401E+02 -0.27938705497E+03  0.28457061543E+03  0.00000000000E+00 0.  1.
         -5    1    5    5    0  501  0.76673087501E+02 -0.26160227844E+02 -0.87516296273E+03  0.87891718677E+03  0.47000000000E+01 0.  1.
<mgrwt>
<rscale>  2 0.18051592E+03</rscale>
<asrwt>0</asrwt>
<pdfrwt beam="2">  1        2 0.26887033E+00 0.18051592E+03</pdfrwt>
<pdfrwt beam="1">  1       -2 0.37224594E-02 0.18051592E+03</pdfrwt>
<totfact> 0.30874285E+03</totfact>
</mgrwt>
</event>
<event>
12    1  0.1093377E-001  0.1874615E+03  0.7546771E-02  0.1160771E+00
          2   -1    0    0  503    0  0.00000000000E+00  0.00000000000E+00  0.48777353766E+03  0.48777353766E+03  0.00000000000E+00 0.  1.
         -2   -1    0    0    0  501 -0.00000000000E+00 -0.00000000000E+00 -0.75726907949E+02  0.75726907949E+02  0.00000000000E+00 0. -1.
          6    2    1    2  503    0 -0.22664199002E+02 -0.70907027074E+02  0.26937221864E+03  0.32886903572E+03  0.17335506361E+03 0.  0.
         24    2    3    3    0    0 -0.42611369573E+02 -0.10237147799E+03  0.13758334416E+03  0.19183510299E+03  0.74671827523E+02 0.  0.
         -6    2    1    2    0  501  0.22664199002E+02  0.70907027074E+02  0.14267441107E+03  0.23463140989E+03  0.17074670868E+03 0.  0.
        -24    2    5    5    0    0 -0.10343184449E+02  0.73911458586E+02  0.24880591496E+02  0.11217330316E+03  0.79961996815E+02 0.  0.
          2    1    4    4  502    0 -0.22005650400E+02 -0.93124490903E+02  0.64642473141E+02  0.11547756834E+03  0.00000000000E+00 0. -1.
         -1    1    4    4    0  502 -0.20605719173E+02 -0.92469870844E+01  0.72940871018E+02  0.76357534648E+02  0.00000000000E+00 0.  1.
          5    1    3    3  503    0  0.19947170571E+02  0.31464450913E+02  0.13178887448E+03  0.13703393274E+03  0.47000000000E+01 0. -1.
         11    1    6    6    0    0 -0.33325741912E+02  0.65942188445E+02  0.39512463848E+02  0.83786705928E+02  0.00000000000E+00 0. -1.
        -12    1    6    6    0    0  0.22982557463E+02  0.79692701409E+01 -0.14631872352E+02  0.28386597236E+02  0.00000000000E+00 0.  1.
         -5    1    5    5    0  501  0.33007383451E+02 -0.30044315122E+01  0.11779381958E+03  0.12245810672E+03  0.47000000000E+01 0.  1.
<mgrwt>
<rscale>  2 0.18746150E+03</rscale>
<asrwt>0</asrwt>
<pdfrwt beam="1">  1        2 0.75042081E-01 0.18746150E+03</pdfrwt>
<pdfrwt beam="2">  1       -2 0.11650294E-01 0.18746150E+03</pdfrwt>
<totfact> 0.32682903E+03</totfact>
</mgrwt>
</event>
<event>
12    1  0.1093377E-001  0.2154349E+03  0.7546771E-02  0.1137333E+00
         -2   -1    0    0    0  501 -0.00000000000E+00  0.00000000000E+00  0.33318445294E+02  0.33318445294E+02  0.00000000000E+00 0. -1.
          2   -1    0    0  503    0  0.00000000000E+00 -0.00000000000E+00 -0.17212607387E+04  0.17212607387E+04  0.00000000000E+00 0.  1.
          6    2    1    2  503    0 -0.22883449625E+02 -0.12488900588E+03 -0.46717909644E+03  0.51529169619E+03  0.17648883238E+03 0.  0.
         24    2    3    3    0    0  0.55608611884E+02 -0.69093662920E+02 -0.24603178988E+03  0.27404007399E+03  0.81853946446E+02 0.  0.
         -6    2    1    2    0  501  0.22883449625E+02  0.12488900588E+03 -0.12207631970E+04  0.12392874878E+04  0.17160937710E+03 0.  0.
        -24    2    5    5    0    0 -0.24413690215E+01 -0.28249180967E+01 -0.56704373422E+03  0.57271159656E+03  0.80287208641E+02 0.  0.
          4    1    4    4  502    0  0.59530030979E+02 -0.85291116768E+02 -0.21347924349E+03  0.23746954876E+03  0.00000000000E+00 0. -1.
         -3    1    4    4    0  502 -0.39214190956E+01  0.16197453849E+02 -0.32552546395E+02  0.36570525232E+02  0.00000000000E+00 0.  1.
          5    1    3    3  503    0 -0.78492061509E+02 -0.55795342958E+02 -0.22114730656E+03  0.24125162220E+03  0.47000000000E+01 0. -1.
         11    1    6    6    0    0  0.40813081303E+01 -0.22875946160E+02 -0.48913729353E+02  0.54152736847E+02  0.00000000000E+00 0. -1.
        -12    1    6    6    0    0 -0.65226771518E+01  0.20051028064E+02 -0.51813000487E+03  0.51855885971E+03  0.00000000000E+00 0.  1.
         -5    1    5    5    0  501  0.25324818647E+02  0.12771392397E+03 -0.65371946277E+03  0.66657589127E+03  0.47000000000E+01 0.  1.
<mgrwt>
<rscale>  2 0.21543489E+03</rscale>
<asrwt>0</asrwt>
<pdfrwt beam="2">  1        2 0.26480935E+00 0.21543489E+03</pdfrwt>
<pdfrwt beam="1">  1       -2 0.51259145E-02 0.21543489E+03</pdfrwt>
<totfact> 0.19671924E+03</totfact>
</mgrwt>
</event>
<event>
12    1  0.1093377E-001  0.2186426E+03  0.7546771E-02  0.1134899E+00
         -2   -1    0    0    0  501 -0.00000000000E+00  0.00000000000E+00  0.83833404641E+02  0.83833404641E+02  0.00000000000E+00 0. -1.
          2   -1    0    0  503    0  0.00000000000E+00 -0.00000000000E+00 -0.60344118736E+03  0.60344118736E+03  0.00000000000E+00 0.  1.
          6    2    1    2  503    0 -0.94369502685E+02  0.92394684324E+02 -0.34164267953E+03  0.40621601806E+03  0.17563983636E+03 0.  0.
         24    2    3    3    0    0  0.14896741379E+02  0.18155391676E+02 -0.17996564623E+03  0.19738082523E+03  0.77588821325E+02 0.  0.
         -6    2    1    2    0  501  0.94369502685E+02 -0.92394684324E+02 -0.17796510318E+03  0.28105857395E+03  0.17285821736E+03 0.  0.
        -24    2    5    5    0    0  0.20036544276E+02 -0.99691597389E+02 -0.65449465659E+02  0.14592718479E+03  0.81677616337E+02 0.  0.
          4    1    4    4  502    0 -0.57564991342E+01  0.36964881420E+02 -0.15646607015E+03  0.16087625943E+03  0.00000000000E+00 0. -1.
         -3    1    4    4    0  502  0.20653240513E+02 -0.18809489744E+02 -0.23499576082E+02  0.36504565799E+02  0.00000000000E+00 0.  1.
          5    1    3    3  503    0 -0.10926624406E+03  0.74239292648E+02 -0.16167703330E+03  0.20883519283E+03  0.47000000000E+01 0. -1.
         13    1    6    6    0    0 -0.41562391692E+01 -0.67198542454E+02 -0.78452232727E+02  0.10338119390E+03  0.00000000000E+00 0. -1.
        -14    1    6    6    0    0  0.24192783445E+02 -0.32493054935E+02  0.13002767069E+02  0.42545990896E+02  0.00000000000E+00 0.  1.
         -5    1    5    5    0  501  0.74332958409E+02  0.72969130652E+01 -0.11251563753E+03  0.13513138915E+03  0.47000000000E+01 0.  1.
<mgrwt>
<rscale>  2 0.21864259E+03</rscale>
<asrwt>0</asrwt>
<pdfrwt beam="2">  1        2 0.92837103E-01 0.21864259E+03</pdfrwt>
<pdfrwt beam="1">  1       -2 0.12897447E-01 0.21864259E+03</pdfrwt>
<totfact> 0.21892283E+03</totfact>
</mgrwt>
</event>
<event>
12    1  0.1093377E-001  0.3265342E+03  0.7546771E-02  0.1072681E+00
         -1   -1    0    0    0  501 -0.00000000000E+00  0.00000000000E+00  0.23723803903E+03  0.23723803903E+03  0.00000000000E+00 0.  1.
          1   -1    0    0  503    0  0.00000000000E+00 -0.00000000000E+00 -0.45080753859E+03  0.45080753859E+03  0.00000000000E+00 0. -1.
          6    2    1    2  503    0 -0.17003829946E+03  0.21835572075E+03 -0.87821170427E+02  0.33806310968E+03  0.17315271897E+03 0.  0.
         24    2    3    3    0    0 -0.70854733838E+02  0.18168474112E+03 -0.96477600964E+02  0.23185970001E+03  0.80132730749E+02 0.  0.
         -6    2    1    2    0  501  0.17003829946E+03 -0.21835572075E+03 -0.12574832913E+03  0.34998246793E+03  0.17344405874E+03 0.  0.
        -24    2    5    5    0    0  0.17329237856E+03 -0.22935267637E+03 -0.14122517849E+03  0.33015458529E+03  0.80153605765E+02 0.  0.
          4    1    4    4  502    0 -0.71993786125E+02  0.75672939011E+02 -0.54722785374E+02  0.11791557225E+03  0.00000000000E+00 0. -1.
         -3    1    4    4    0  502  0.11390522866E+01  0.10601180211E+03 -0.41754815590E+02  0.11394412776E+03  0.00000000000E+00 0.  1.
          5    1    3    3  503    0 -0.99183565626E+02  0.36670979626E+02  0.86564305367E+01  0.10620340968E+03  0.47000000000E+01 0. -1.
         13    1    6    6    0    0  0.10860489793E+03 -0.17924522611E+03 -0.67961799647E+02  0.22032403670E+03  0.00000000000E+00 0. -1.
        -14    1    6    6    0    0  0.64687480633E+02 -0.50107450269E+02 -0.73263378847E+02  0.10983054859E+03  0.00000000000E+00 0.  1.
         -5    1    5    5    0  501 -0.32540791002E+01  0.10996955628E+02  0.15476849366E+02  0.19827882644E+02  0.47000000000E+01 0.  1.
<mgrwt>
<rscale>  2 0.32653420E+03</rscale>
<asrwt>0</asrwt>
<pdfrwt beam="2">  1        1 0.69355006E-01 0.32653420E+03</pdfrwt>
<pdfrwt beam="1">  1       -1 0.36498160E-01 0.32653420E+03</pdfrwt>
<totfact> 0.37772287E+02</totfact>
</mgrwt>
</event>
<event>
12    1  0.1093377E-001  0.1763672E+03  0.7546771E-02  0.1171366E+00
          1   -1    0    0  503    0  0.00000000000E+00  0.00000000000E+00  0.67840944069E+03  0.67840944069E+03  0.00000000000E+00 0. -1.
         -1   -1    0    0    0  501 -0.00000000000E+00 -0.00000000000E+00 -0.46862689408E+02  0.46862689408E+02  0.00000000000E+00 0.  1.
          6    2    1    2  503    0  0.30387280112E+02  0.16529122588E+02  0.26354180044E+03  0.31744587896E+03  0.17355404577E+03 0.  0.
         24    2    3    3    0    0  0.80042616050E+02  0.16524740265E+02  0.23077359906E+03  0.25776759624E+03  0.80670888340E+02 0.  0.
         -6    2    1    2    0  501 -0.30387280112E+02 -0.16529122588E+02  0.36800495084E+03  0.40782625113E+03  0.17233110162E+03 0.  0.
        -24    2    5    5    0    0 -0.46726620565E+02 -0.10138907858E+02  0.37850414895E+03  0.38684692675E+03  0.64023272632E+02 0.  0.
          2    1    4    4  502    0  0.38685453340E+02  0.45991043009E+02  0.15786549897E+03  0.16891789752E+03  0.00000000000E+00 0. -1.
         -1    1    4    4    0  502  0.41357162711E+02 -0.29466302744E+02  0.72908100089E+02  0.88849698725E+02  0.00000000000E+00 0.  1.
          5    1    3    3  503    0 -0.49655335939E+02  0.43823225467E-02  0.32768201378E+02  0.59678282716E+02  0.47000000000E+01 0. -1.
         13    1    6    6    0    0 -0.30379610479E+01  0.19101554775E+02  0.19511881286E+03  0.19607511248E+03  0.00000000000E+00 0. -1.
        -14    1    6    6    0    0 -0.43688659517E+02 -0.29240462634E+02  0.18338533609E+03  0.19077181426E+03  0.00000000000E+00 0.  1.
         -5    1    5    5    0  501  0.16339340454E+02 -0.63902147293E+01 -0.10499198111E+02  0.20979324387E+02  0.47000000000E+01 0.  1.
<mgrwt>
<rscale>  2 0.17636719E+03</rscale>
<asrwt>0</asrwt>
<pdfrwt beam="1">  1        1 0.10437068E+00 0.17636719E+03</pdfrwt>
<pdfrwt beam="2">  1       -1 0.72096450E-02 0.17636719E+03</pdfrwt>
<totfact> 0.29409200E+03</totfact>
</mgrwt>
</event>
<event>
12    1  0.1093377E-001  0.2318610E+03  0.7546771E-02  0.1125337E+00
          1   -1    0    0  503    0  0.00000000000E+00  0.00000000000E+00  0.87247211585E+02  0.87247211585E+02  0.00000000000E+00 0.  1.
         -1   -1    0    0    0  501 -0.00000000000E+00 -0.00000000000E+00 -0.96352607123E+03  0.96352607123E+03  0.00000000000E+00 0. -1.
          6    2    1    2  503    0 -0.12975336436E+03 -0.90336962431E+02 -0.12587836231E+03  0.26612796336E+03  0.17315319357E+03 0.  0.
         24    2    3    3    0    0 -0.11498370882E+03 -0.40546672434E+02 -0.19325896952E+02  0.14749941041E+03  0.80729795227E+02 0.  0.
         -6    2    1    2    0  501  0.12975336436E+03  0.90336962431E+02 -0.75040049733E+03  0.78464531945E+03  0.16604417663E+03 0.  0.
        -24    2    5    5    0    0  0.12241473767E+03  0.11137277800E+03 -0.73374865787E+03  0.75643654890E+03  0.80124252986E+02 0.  0.
          2    1    4    4  502    0 -0.73145026036E+02  0.14658008490E+02  0.31801750361E+01  0.74667031279E+02  0.00000000000E+00 0. -1.
         -1    1    4    4    0  502 -0.41838682786E+02 -0.55204680924E+02 -0.22506071989E+02  0.72832379129E+02  0.00000000000E+00 0.  1.
          5    1    3    3  503    0 -0.14769655536E+02 -0.49790289997E+02 -0.10655246535E+03  0.11862855295E+03  0.47000000000E+01 0. -1.
         13    1    6    6    0    0  0.59926928801E+02  0.14043332112E+02 -0.35922243043E+03  0.36445741383E+03  0.00000000000E+00 0. -1.
        -14    1    6    6    0    0  0.62487808869E+02  0.97329445884E+02 -0.37452622744E+03  0.39197913508E+03  0.00000000000E+00 0.  1.
         -5    1    5    5    0  501  0.73386266894E+01 -0.21035815565E+02 -0.16651839465E+02  0.28208770546E+02  0.47000000000E+01 0.  1.
<mgrwt>
<rscale>  2 0.23186102E+03</rscale>
<asrwt>0</asrwt>
<pdfrwt beam="1">  1        1 0.13422648E-01 0.23186102E+03</pdfrwt>
<pdfrwt beam="2">  1       -1 0.14823478E+00 0.23186102E+03</pdfrwt>
<totfact> 0.16958021E+02</totfact>
</mgrwt>
</event>
<event>
12    1  0.1093377E-001  0.1842771E+03  0.7546771E-02  0.1163727E+00
         -2   -1    0    0    0  501 -0.00000000000E+00  0.00000000000E+00  0.41418395189E+03  0.41418395189E+03  0.00000000000E+00 0. -1.
          2   -1    0    0  503    0  0.00000000000E+00 -0.00000000000E+00 -0.33908575547E+03  0.33908575547E+03  0.00000000000E+00 0.  1.
          6    2    1    2  503    0  0.29359749763E+02 -0.52874412878E+02 -0.29039317835E+03  0.34407019111E+03  0.17435136919E+03 0.  0.
         24    2    3    3    0    0 -0.22409516184E+02 -0.23506839701E+02 -0.57824348195E+02  0.10396008718E+03  0.80058019925E+02 0.  0.
         -6    2    1    2    0  501 -0.29359749763E+02  0.52874412878E+02  0.36549137478E+03  0.40919951624E+03  0.17378895424E+03 0.  0.
        -24    2    5    5    0    0  0.16182084343E+02  0.64739895789E+02  0.34046812170E+03  0.35569155859E+03  0.78388959636E+02 0.  0.
          2    1    4    4  502    0 -0.22282533561E+02 -0.13636891592E+02  0.15231593459E+02  0.30240329916E+02  0.00000000000E+00 0. -1.
         -1    1    4    4    0  502 -0.12698262380E+00 -0.98699481091E+01 -0.73055941654E+02  0.73719757265E+02  0.00000000000E+00 0.  1.
          5    1    3    3  503    0  0.51769265947E+02 -0.29367573177E+02 -0.23256883016E+03  0.24011010393E+03  0.47000000000E+01 0. -1.
         11    1    6    6    0    0  0.44117033312E+02  0.47562173809E+02  0.27398404259E+03  0.28155945837E+03  0.00000000000E+00 0. -1.
        -12    1    6    6    0    0 -0.27934948969E+02  0.17177721979E+02  0.66484079111E+02  0.74132100210E+02  0.00000000000E+00 0.  1.
         -5    1    5    5    0  501 -0.45541834105E+02 -0.11865482911E+02  0.25023253073E+02  0.53507957658E+02  0.47000000000E+01 0.  1.
<mgrwt>
<rscale>  2 0.18427712E+03</rscale>
<asrwt>0</asrwt>
<pdfrwt beam="2">  1        2 0.52167039E-01 0.18427712E+03</pdfrwt>
<pdfrwt beam="1">  1       -2 0.63720608E-01 0.18427712E+03</pdfrwt>
<totfact> 0.22596231E+02</totfact>
</mgrwt>
</event>
<event>
12    1  0.1093377E-001  0.3086167E+03  0.7546771E-02  0.1081011E+00
          1   -1    0    0  503    0  0.00000000000E+00  0.00000000000E+00  0.94285450604E+03  0.94285450604E+03  0.00000000000E+00 0.  1.
         -1   -1    0    0    0  501 -0.00000000000E+00 -0.00000000000E+00 -0.10293139694E+03  0.10293139694E+03  0.00000000000E+00 0. -1.
          6    2    1    2  503    0  0.22235102984E+01  0.25511825058E+03  0.34910928081E+03  0.46618998473E+03  0.17425712652E+03 0.  0.
         24    2    3    3    0    0  0.12711345231E+02  0.13271539190E+03  0.77168388006E+02  0.16775005163E+03  0.66409081978E+02 0.  0.
         -6    2    1    2    0  501 -0.22235102984E+01 -0.25511825058E+03  0.49081382829E+03  0.57959591824E+03  0.17304030925E+03 0.  0.
        -24    2    5    5    0    0 -0.36445281491E+02 -0.20361410317E+03  0.26271717641E+03  0.34321914395E+03  0.77408684547E+02 0.  0.
          2    1    4    4  502    0 -0.11669841766E+02  0.79704510256E+02  0.73888193700E+02  0.10930900846E+03  0.00000000000E+00 0. -1.
         -1    1    4    4    0  502  0.24381186997E+02  0.53010881646E+02  0.32801943062E+01  0.58441043171E+02  0.00000000000E+00 0.  1.
          5    1    3    3  503    0 -0.10487834933E+02  0.12240285868E+03  0.27194089280E+03  0.29843993310E+03  0.47000000000E+01 0. -1.
         11    1    6    6    0    0  0.15447517719E+02 -0.12469877026E+03  0.16393076194E+03  0.20654709830E+03  0.00000000000E+00 0. -1.
        -12    1    6    6    0    0 -0.51892799210E+02 -0.78915332909E+02  0.98786414471E+02  0.13667204565E+03  0.00000000000E+00 0.  1.
         -5    1    5    5    0  501  0.34221771193E+02 -0.51504147414E+02  0.22809665188E+03  0.23637677429E+03  0.47000000000E+01 0.  1.
<mgrwt>
<rscale>  2 0.30861672E+03</rscale>
<asrwt>0</asrwt>
<pdfrwt beam="1">  1        1 0.14505453E+00 0.30861672E+03</pdfrwt>
<pdfrwt beam="2">  1       -1 0.15835600E-01 0.30861672E+03</pdfrwt>
<totfact> 0.52171150E+02</totfact>
</mgrwt>
</event>
<event>
12    1  0.1093377E-001  0.2505170E+03  0.7546771E-02  0.1112979E+00
         -1   -1    0    0    0  501 -0.00000000000E+00  0.00000000000E+00  0.63020517693E+02  0.63020517693E+02  0.00000000000E+00 0. -1.
          1   -1    0    0  503    0  0.00000000000E+00 -0.00000000000E+00 -0.10503948696E+04  0.10503948696E+04  0.00000000000E+00 0.  1.
          6    2    1    2  503    0  0.71881001914E+02 -0.16606541131E+03 -0.36770218593E+03  0.44519539542E+03  0.17392367088E+03 0.  0.
         24    2    3    3    0    0  0.88419215252E+02 -0.97785320313E+02 -0.33231951275E+03  0.36639370198E+03  0.80175805594E+02 0.  0.
         -6    2    1    2    0  501 -0.71881001914E+02  0.16606541131E+03 -0.61967216600E+03  0.66821999189E+03  0.17256814591E+03 0.  0.
        -24    2    5    5    0    0 -0.25381128130E+02  0.89644172110E+01 -0.17886884024E+03  0.19793005727E+03  0.80359710805E+02 0.  0.
          4    1    4    4  502    0  0.97771824561E+02 -0.85911977907E+02 -0.32394560584E+03  0.34911452730E+03  0.00000000000E+00 0. -1.
         -3    1    4    4    0  502 -0.93526093091E+01 -0.11873342405E+02 -0.83739069030E+01  0.17279174679E+02  0.00000000000E+00 0.  1.
          5    1    3    3  503    0 -0.16538213338E+02 -0.68280091002E+02 -0.35382673184E+02  0.78801693442E+02  0.47000000000E+01 0. -1.
         13    1    6    6    0    0 -0.15412205445E+00  0.90676730024E+01  0.63052313061E+01  0.11045469167E+02  0.00000000000E+00 0. -1.
        -14    1    6    6    0    0 -0.25227006075E+02 -0.10325579148E+00 -0.18517407154E+03  0.18688458810E+03  0.00000000000E+00 0.  1.
         -5    1    5    5    0  501 -0.46499873785E+02  0.15710099410E+03 -0.44080332576E+03  0.47028993462E+03  0.47000000000E+01 0.  1.
<mgrwt>
<rscale>  2 0.25051699E+03</rscale>
<asrwt>0</asrwt>
<pdfrwt beam="2">  1        1 0.16159922E+00 0.25051699E+03</pdfrwt>
<pdfrwt beam="1">  1       -1 0.96954637E-02 0.25051699E+03</pdfrwt>
<totfact> 0.94047729E+02</totfact>
</mgrwt>
</event>
<event>
12    1  0.1093377E-001  0.1812670E+03  0.7546771E-02  0.1166582E+00
         -1   -1    0    0    0  501 -0.00000000000E+00  0.00000000000E+00  0.21292596199E+02  0.21292596199E+02  0.00000000000E+00 0.  1.
          1   -1    0    0  503    0  0.00000000000E+00 -0.00000000000E+00 -0.15441628510E+04  0.15441628510E+04  0.00000000000E+00 0. -1.
          6    2    1    2  503    0  0.59422897684E+02  0.40161055994E+01 -0.77439705630E+03  0.79500250687E+03  0.16967903595E+03 0.  0.
         24    2    3    3    0    0  0.97844848791E+02 -0.13375563978E+02 -0.67699104384E+03  0.68875403506E+03  0.79452672867E+02 0.  0.
         -6    2    1    2    0  501 -0.59422897684E+02 -0.40161055994E+01 -0.74847319854E+03  0.77045294037E+03  0.17273793597E+03 0.  0.
        -24    2    5    5    0    0 -0.23136857406E+02 -0.64346470608E+01 -0.71762213577E+03  0.72253212927E+03  0.80588021676E+02 0.  0.
          4    1    4    4  502    0  0.69617291010E+02  0.20119199217E+02 -0.54227709316E+03  0.54709761026E+03  0.00000000000E+00 0. -1.
         -3    1    4    4    0  502  0.28227557781E+02 -0.33494763194E+02 -0.13471395067E+03  0.14165642480E+03  0.00000000000E+00 0.  1.
          5    1    3    3  503    0 -0.38421951107E+02  0.17391669577E+02 -0.97406012463E+02  0.10624847181E+03  0.47000000000E+01 0. -1.
         13    1    6    6    0    0  0.15774383946E+02 -0.28368863250E+02 -0.45344902488E+03  0.45460932872E+03  0.00000000000E+00 0. -1.
        -14    1    6    6    0    0 -0.38911241352E+02  0.21934216189E+02 -0.26417311089E+03  0.26792280056E+03  0.00000000000E+00 0.  1.
         -5    1    5    5    0  501 -0.36286040279E+02  0.24185414614E+01 -0.30851062769E+02  0.47920811094E+02  0.47000000000E+01 0.  1.
<mgrwt>
<rscale>  2 0.18126699E+03</rscale>
<asrwt>0</asrwt>
<pdfrwt beam="2">  1        1 0.23756348E+00 0.18126699E+03</pdfrwt>
<pdfrwt beam="1">  1       -1 0.32757845E-02 0.18126699E+03</pdfrwt>
<totfact> 0.22136358E+03</totfact>
</mgrwt>
</event>
<event>
12    1  0.1093377E-001  0.5362465E+03  0.7546771E-02  0.1004728E+00
          2   -1    0    0  503    0  0.00000000000E+00  0.00000000000E+00  0.16403699618E+04  0.16403699618E+04  0.00000000000E+00 0. -1.
         -2   -1    0    0    0  501 -0.00000000000E+00 -0.00000000000E+00 -0.18056911125E+03  0.18056911125E+03  0.00000000000E+00 0.  1.
          6    2    1    2  503    0  0.14778819923E+03 -0.48542169732E+03  0.88512729377E+03  0.10347901214E+04  0.17281404202E+03 0.  0.
         24    2    3    3    0    0  0.47709751120E+02 -0.19485972594E+03  0.25916648373E+03  0.33744445339E+03  0.80342763777E+02 0.  0.
         -6    2    1    2    0  501 -0.14778819923E+03  0.48542169732E+03  0.57467355676E+03  0.78614895163E+03  0.17408302973E+03 0.  0.
        -24    2    5    5    0    0 -0.12568350172E+03  0.34310673545E+03  0.49717434617E+03  0.62253237646E+03  0.82738471968E+02 0.  0.
          4    1    4    4  502    0  0.24947697864E+02 -0.12605158424E+03  0.22072976609E+03  0.25540755501E+03  0.00000000000E+00 0. -1.
         -3    1    4    4    0  502  0.22762053256E+02 -0.68808141706E+02  0.38436717634E+02  0.82036898381E+02  0.00000000000E+00 0.  1.
          5    1    3    3  503    0  0.10007844811E+03 -0.29056197138E+03  0.62596081004E+03  0.69734566801E+03  0.47000000000E+01 0. -1.
         11    1    6    6    0    0 -0.52445653587E+02  0.16682889306E+03  0.30555084136E+03  0.35205644831E+03  0.00000000000E+00 0. -1.
        -12    1    6    6    0    0 -0.73237848138E+02  0.17627784239E+03  0.19162350480E+03  0.27047592815E+03  0.00000000000E+00 0.  1.
         -5    1    5    5    0  501 -0.22104697506E+02  0.14231496188E+03  0.77499210593E+02  0.16361657517E+03  0.47000000000E+01 0.  1.
<mgrwt>
<rscale>  2 0.53624648E+03</rscale>
<asrwt>0</asrwt>
<pdfrwt beam="1">  1        2 0.25236460E+00 0.53624648E+03</pdfrwt>
<pdfrwt beam="2">  1       -2 0.27779864E-01 0.53624648E+03</pdfrwt>
<totfact> 0.13042238E+02</totfact>
</mgrwt>
</event>
<event>
12    1  0.1093377E-001  0.2383804E+03  0.7546771E-02  0.1120876E+00
         -1   -1    0    0    0  501 -0.00000000000E+00  0.00000000000E+00  0.29542429345E+03  0.29542429345E+03  0.00000000000E+00 0. -1.
          1   -1    0    0  503    0  0.00000000000E+00 -0.00000000000E+00 -0.19584748448E+03  0.19584748448E+03  0.00000000000E+00 0.  1.
          6    2    1    2  503    0  0.18295190339E+02  0.16558464903E+03  0.16750895675E+02  0.23780424129E+03  0.16887058561E+03 0.  0.
         24    2    3    3    0    0  0.28312434041E+02  0.48360423139E+02 -0.39307469072E+02  0.10739529004E+03  0.82754738536E+02 0.  0.
         -6    2    1    2    0  501 -0.18295190339E+02 -0.16558464903E+03  0.82825913296E+02  0.25346753665E+03  0.17214142510E+03 0.  0.
        -24    2    5    5    0    0 -0.75691764419E+02 -0.10114312332E+03  0.29688166495E+02  0.15201416269E+03  0.79169083822E+02 0.  0.
          2    1    4    4  502    0 -0.74567100303E-01 -0.18780748571E+02  0.80859775383E+01  0.20447618685E+02  0.00000000000E+00 0. -1.
         -1    1    4    4    0  502  0.28387001141E+02  0.67141171710E+02 -0.47393446610E+02  0.86947671354E+02  0.00000000000E+00 0.  1.
          5    1    3    3  503    0 -0.10017243701E+02  0.11722422589E+03  0.56058364746E+02  0.13040895125E+03  0.47000000000E+01 0. -1.
         13    1    6    6    0    0 -0.20467128168E+02 -0.75855551508E+02  0.43383714042E+02  0.89750290663E+02  0.00000000000E+00 0. -1.
        -14    1    6    6    0    0 -0.55224636251E+02 -0.25287571807E+02 -0.13695547547E+02  0.62263872026E+02  0.00000000000E+00 0.  1.
         -5    1    5    5    0  501  0.57396574080E+02 -0.64441525715E+02  0.53137746801E+02  0.10145337396E+03  0.47000000000E+01 0.  1.
<mgrwt>
<rscale>  2 0.23838042E+03</rscale>
<asrwt>0</asrwt>
<pdfrwt beam="2">  1        1 0.30130382E-01 0.23838042E+03</pdfrwt>
<pdfrwt beam="1">  1       -1 0.45449891E-01 0.23838042E+03</pdfrwt>
<totfact> 0.73933992E+02</totfact>
</mgrwt>
</event>
<event>
12    1  0.1093377E-001  0.1832023E+03  0.7546771E-02  0.1164739E+00
         -1   -1    0    0    0  501 -0.00000000000E+00  0.00000000000E+00  0.13647829352E+03  0.13647829352E+03  0.00000000000E+00 0.  1.
          1   -1    0    0  503    0  0.00000000000E+00 -0.00000000000E+00 -0.30983239808E+03  0.30983239808E+03  0.00000000000E+00 0. -1.
          6    2    1    2  503    0  0.31339215109E+02  0.38918824763E+02 -0.18915069400E+03  0.26556677860E+03  0.17958537672E+03 0.  0.
         24    2    3    3    0    0  0.86169112159E+02  0.51353397859E+02 -0.12505737622E+03  0.18017954535E+03  0.82237666875E+02 0.  0.
         -6    2    1    2    0  501 -0.31339215109E+02 -0.38918824763E+02  0.15796589437E+02  0.18074391300E+03  0.17297979224E+03 0.  0.
        -24    2    5    5    0    0  0.14184795574E+02  0.55332936614E+01 -0.45576598715E+02  0.92216038265E+02  0.78706706186E+02 0.  0.
          2    1    4    4  502    0  0.12580712004E+02  0.41801106411E+02 -0.85712036356E+02  0.96188148896E+02  0.00000000000E+00 0. -1.
         -1    1    4    4    0  502  0.73588400155E+02  0.95522914484E+01 -0.39345339868E+02  0.83991396456E+02  0.00000000000E+00 0.  1.
          5    1    3    3  503    0 -0.54829897050E+02 -0.12434573096E+02 -0.64093317776E+02  0.85387233250E+02  0.47000000000E+01 0. -1.
         11    1    6    6    0    0 -0.19134210097E+02  0.30941298775E+01 -0.54326801654E+02  0.57680958849E+02  0.00000000000E+00 0. -1.
        -12    1    6    6    0    0  0.33319005670E+02  0.24391637839E+01  0.87502029393E+01  0.34535079416E+02  0.00000000000E+00 0.  1.
         -5    1    5    5    0  501 -0.45524010683E+02 -0.44452118425E+02  0.61373188152E+02  0.88527874735E+02  0.47000000000E+01 0.  1.
<mgrwt>
<rscale>  2 0.18320231E+03</rscale>
<asrwt>0</asrwt>
<pdfrwt beam="2">  1        1 0.47666522E-01 0.18320231E+03</pdfrwt>
<pdfrwt beam="1">  1       -1 0.20996661E-01 0.18320231E+03</pdfrwt>
<totfact> 0.15517211E+03</totfact>
</mgrwt>
</event>
<event>
12    1  0.1093377E-001  0.2166951E+03  0.7546771E-02  0.1136371E+00
         -1   -1    0    0    0  501 -0.00000000000E+00  0.00000000000E+00  0.54987201739E+02  0.54987201739E+02  0.00000000000E+00 0. -1.
          1   -1    0    0  503    0  0.00000000000E+00 -0.00000000000E+00 -0.91169443569E+03  0.91169443569E+03  0.00000000000E+00 0.  1.
          6    2    1    2  503    0 -0.12926098109E+03 -0.12000232391E+01 -0.54916967162E+03  0.59021535691E+03  0.17336954178E+03 0.  0.
         24    2    3    3    0    0 -0.88013253723E+02  0.63452111475E+02 -0.28864492278E+03  0.31859704329E+03  0.80097947945E+02 0.  0.
         -6    2    1    2    0  501  0.12926098109E+03  0.12000232391E+01 -0.30753756234E+03  0.37646628052E+03  0.17446394136E+03 0.  0.
        -24    2    5    5    0    0  0.38786203136E+01  0.26824064952E+01 -0.65824805824E+02  0.10412443557E+03  0.80540387509E+02 0.  0.
          4    1    4    4  502    0 -0.74104096907E+02  0.29045224728E+02 -0.10789216362E+03  0.13407371565E+03  0.00000000000E+00 0. -1.
         -3    1    4    4    0  502 -0.13909156816E+02  0.34406886747E+02 -0.18075275916E+03  0.18452332764E+03  0.00000000000E+00 0.  1.
          5    1    3    3  503    0 -0.41247727365E+02 -0.64652134714E+02 -0.26052474885E+03  0.27161831363E+03  0.47000000000E+01 0. -1.
         13    1    6    6    0    0  0.36674727377E+02 -0.62296602417E+01 -0.58551444320E+02  0.69369416366E+02  0.00000000000E+00 0. -1.
        -14    1    6    6    0    0 -0.32796107064E+02  0.89120667369E+01 -0.72733615039E+01  0.34755019201E+02  0.00000000000E+00 0.  1.
         -5    1    5    5    0  501  0.12538236077E+03 -0.14823832561E+01 -0.24171275651E+03  0.27234184496E+03  0.47000000000E+01 0.  1.
<mgrwt>
<rscale>  2 0.21669515E+03</rscale>
<asrwt>0</asrwt>
<pdfrwt beam="2">  1        1 0.14026068E+00 0.21669515E+03</pdfrwt>
<pdfrwt beam="1">  1       -1 0.84595695E-02 0.21669515E+03</pdfrwt>
<totfact> 0.14764439E+03</totfact>
</mgrwt>
</event>
<event>
12    1  0.1093377E-001  0.1972966E+03  0.7546771E-02  0.1152040E+00
         -1   -1    0    0    0  501 -0.00000000000E+00  0.00000000000E+00  0.54753649054E+02  0.54753649054E+02  0.00000000000E+00 0. -1.
          1   -1    0    0  503    0  0.00000000000E+00 -0.00000000000E+00 -0.71092937056E+03  0.71092937056E+03  0.00000000000E+00 0.  1.
          6    2    1    2  503    0  0.73819819521E+02  0.59308695733E+02 -0.32784650488E+03  0.38262770307E+03  0.17307149172E+03 0.  0.
         24    2    3    3    0    0  0.36934213445E+02  0.67887658559E+02 -0.13634076081E+03  0.18735689995E+03  0.10266905372E+03 0.  0.
         -6    2    1    2    0  501 -0.73819819521E+02 -0.59308695733E+02 -0.32832921662E+03  0.38305531655E+03  0.17310232206E+03 0.  0.
        -24    2    5    5    0    0 -0.25266682322E+02  0.35485366081E+02 -0.16454120902E+03  0.18762777825E+03  0.78947813562E+02 0.  0.
          4    1    4    4  502    0 -0.16507556688E+02  0.59320074864E+02 -0.31028177740E+02  0.68950116197E+02  0.00000000000E+00 0. -1.
         -3    1    4    4    0  502  0.53441770133E+02  0.85675836950E+01 -0.10531258307E+03  0.11840678375E+03  0.00000000000E+00 0.  1.
          5    1    3    3  503    0  0.36885606076E+02 -0.85789628263E+01 -0.19150574407E+03  0.19527080312E+03  0.47000000000E+01 0. -1.
         13    1    6    6    0    0 -0.48030260408E+02  0.94393415565E+01 -0.59554724904E+02  0.77089378920E+02  0.00000000000E+00 0. -1.
        -14    1    6    6    0    0  0.22763578086E+02  0.26046024525E+02 -0.10498648411E+03  0.11053839933E+03  0.00000000000E+00 0.  1.
         -5    1    5    5    0  501 -0.48553137199E+02 -0.94794061815E+02 -0.16378800761E+03  0.19542753829E+03  0.47000000000E+01 0.  1.
<mgrwt>
<rscale>  2 0.19729664E+03</rscale>
<asrwt>0</asrwt>
<pdfrwt beam="2">  1        1 0.10937374E+00 0.19729664E+03</pdfrwt>
<pdfrwt beam="1">  1       -1 0.84236391E-02 0.19729664E+03</pdfrwt>
<totfact> 0.21761690E+03</totfact>
</mgrwt>
</event>
<event>
12    1  0.1093377E-001  0.3404746E+03  0.7546771E-02  0.1066594E+00
         -2   -1    0    0    0  501 -0.00000000000E+00  0.00000000000E+00  0.48606721740E+03  0.48606721740E+03  0.00000000000E+00 0.  1.
          2   -1    0    0  503    0  0.00000000000E+00 -0.00000000000E+00 -0.28266137046E+03  0.28266137046E+03  0.00000000000E+00 0. -1.
          6    2    1    2  503    0  0.12259792247E+02  0.29101612693E+03  0.25398400173E+03  0.42588370223E+03  0.17896470617E+03 0.  0.
         24    2    3    3    0    0 -0.27116200179E+02  0.16914565958E+03  0.22597151636E+03  0.29469807449E+03  0.80238933383E+02 0.  0.
         -6    2    1    2    0  501 -0.12259792247E+02 -0.29101612693E+03 -0.50578154790E+02  0.34284488563E+03  0.17361963373E+03 0.  0.
        -24    2    5    5    0    0 -0.86566252988E+01 -0.30870734598E+03 -0.41008819829E+02  0.32187766800E+03  0.80921858784E+02 0.  0.
          2    1    4    4  502    0 -0.21680139348E+02  0.17718451407E+03  0.20662138982E+03  0.27305087291E+03  0.00000000000E+00 0. -1.
         -1    1    4    4    0  502 -0.54360608308E+01 -0.80388544833E+01  0.19350126540E+02  0.21647201572E+02  0.00000000000E+00 0.  1.
          5    1    3    3  503    0  0.39375992425E+02  0.12187046735E+03  0.28012485362E+02  0.13118562775E+03  0.47000000000E+01 0. -1.
         11    1    6    6    0    0  0.14677194967E+02 -0.26652244377E+03 -0.53144681350E+02  0.27216537297E+03  0.00000000000E+00 0. -1.
        -12    1    6    6    0    0 -0.23333820266E+02 -0.42184902208E+02  0.12135861521E+02  0.49712295032E+02  0.00000000000E+00 0.  1.
         -5    1    5    5    0  501 -0.36031669478E+01  0.17691219047E+02 -0.95693349610E+01  0.20967217627E+02  0.47000000000E+01 0.  1.
<mgrwt>
<rscale>  2 0.34047457E+03</rscale>
<asrwt>0</asrwt>
<pdfrwt beam="2">  1        2 0.43486365E-01 0.34047457E+03</pdfrwt>
<pdfrwt beam="1">  1       -2 0.74779571E-01 0.34047457E+03</pdfrwt>
<totfact> 0.19342100E+02</totfact>
</mgrwt>
</event>
<event>
12    1  0.1093377E-001  0.1822784E+03  0.7546771E-02  0.1165616E+00
          1   -1    0    0  503    0  0.00000000000E+00  0.00000000000E+00  0.16675976273E+04  0.16675976273E+04  0.00000000000E+00 0. -1.
         -1   -1    0    0    0  501 -0.00000000000E+00 -0.00000000000E+00 -0.32050939552E+02  0.32050939552E+02  0.00000000000E+00 0.  1.
          6    2    1    2  503    0  0.42033001652E+02 -0.29383286627E+01  0.13518087306E+04  0.13646113914E+04  0.18166452139E+03 0.  0.
         24    2    3    3    0    0  0.20598884122E+02  0.28315330535E+02  0.12829439890E+04  0.12858671519E+04  0.79265260948E+02 0.  0.
         -6    2    1    2    0  501 -0.42033001652E+02  0.29383286627E+01  0.28373795709E+03  0.33503717542E+03  0.17311058205E+03 0.  0.
        -24    2    5    5    0    0 -0.34124666981E+02 -0.33084503233E+02  0.28315217147E+03  0.29785358603E+03  0.79262407590E+02 0.  0.
          4    1    4    4  502    0  0.96524281994E+01  0.55420471680E+02  0.93877228353E+03  0.94045627138E+03  0.00000000000E+00 0. -1.
         -3    1    4    4    0  502  0.10946455923E+02 -0.27105141145E+02  0.34417170542E+03  0.34541088052E+03  0.00000000000E+00 0.  1.
          5    1    3    3  503    0  0.21434117529E+02 -0.31253659198E+02  0.68864741694E+02  0.78744239511E+02  0.47000000000E+01 0. -1.
         13    1    6    6    0    0 -0.19780570277E+02 -0.53155884398E+02  0.11861837981E+03  0.13148056523E+03  0.00000000000E+00 0. -1.
        -14    1    6    6    0    0 -0.14344096704E+02  0.20071381165E+02  0.16453379166E+03  0.16637302080E+03  0.00000000000E+00 0.  1.
         -5    1    5    5    0  501 -0.79083346712E+01  0.36022831895E+02  0.58578562322E+00  0.37183589389E+02  0.47000000000E+01 0.  1.
<mgrwt>
<rscale>  2 0.18227839E+03</rscale>
<asrwt>0</asrwt>
<pdfrwt beam="1">  1        1 0.25655341E+00 0.18227839E+03</pdfrwt>
<pdfrwt beam="2">  1       -1 0.49309151E-02 0.18227839E+03</pdfrwt>
<totfact> 0.10051487E+03</totfact>
</mgrwt>
</event>
<event>
12    1  0.1093377E-001  0.2367976E+03  0.7546771E-02  0.1121945E+00
         -1   -1    0    0    0  501 -0.00000000000E+00  0.00000000000E+00  0.10334839599E+03  0.10334839599E+03  0.00000000000E+00 0. -1.
          1   -1    0    0  503    0  0.00000000000E+00 -0.00000000000E+00 -0.89497843538E+03  0.89497843538E+03  0.00000000000E+00 0.  1.
          6    2    1    2  503    0 -0.14188929254E+03  0.69230430491E+02 -0.71167450175E+03  0.75087674455E+03  0.18002740130E+03 0.  0.
         24    2    3    3    0    0 -0.16181303489E+03  0.36028261283E+02 -0.66559251706E+03  0.69050308421E+03  0.79370124547E+02 0.  0.
         -6    2    1    2    0  501  0.14188929254E+03 -0.69230430491E+02 -0.79955537634E+02  0.24745008682E+03  0.17295442645E+03 0.  0.
        -24    2    5    5    0    0  0.10629621543E+03 -0.11355303225E+03 -0.44437267823E+02  0.18025635456E+03  0.79526763043E+02 0.  0.
          2    1    4    4  502    0 -0.12698513681E+03  0.50816204116E+02 -0.41216731939E+03  0.43426882313E+03  0.00000000000E+00 0. -1.
         -1    1    4    4    0  502 -0.34827898079E+02 -0.14787942833E+02 -0.25342519766E+03  0.25623426108E+03  0.00000000000E+00 0.  1.
          5    1    3    3  503    0  0.19923742349E+02  0.33202169208E+02 -0.46081984694E+02  0.60373660338E+02  0.47000000000E+01 0. -1.
         11    1    6    6    0    0  0.61941415675E+02 -0.63216022014E+02  0.16022330363E+02  0.89942867896E+02  0.00000000000E+00 0. -1.
        -12    1    6    6    0    0  0.44354799759E+02 -0.50337010238E+02 -0.60459598186E+02  0.90313486668E+02  0.00000000000E+00 0.  1.
         -5    1    5    5    0  501  0.35593077103E+02  0.44322601761E+02 -0.35518269811E+02  0.67193732259E+02  0.47000000000E+01 0.  1.
<mgrwt>
<rscale>  2 0.23679755E+03</rscale>
<asrwt>0</asrwt>
<pdfrwt beam="2">  1        1 0.13768900E+00 0.23679755E+03</pdfrwt>
<pdfrwt beam="1">  1       -1 0.15899752E-01 0.23679755E+03</pdfrwt>
<totfact> 0.56810455E+02</totfact>
</mgrwt>
</event>
<event>
12    1  0.1093377E-001  0.1758658E+03  0.7546771E-02  0.1171865E+00
          2   -1    0    0  503    0  0.00000000000E+00  0.00000000000E+00  0.25025663561E+03  0.25025663561E+03  0.00000000000E+00 0. -1.
         -2   -1    0    0    0  501 -0.00000000000E+00 -0.00000000000E+00 -0.13941521827E+03  0.13941521827E+03  0.00000000000E+00 0.  1.
          6    2    1    2  503    0  0.15235388839E+02  0.28982770358E+02 -0.10149823176E+02  0.17642853926E+03  0.17306615066E+03 0.  0.
         24    2    3    3    0    0  0.54066818782E+02  0.60044215329E+02 -0.35446026003E+02  0.12044031557E+03  0.81981218376E+02 0.  0.
         -6    2    1    2    0  501 -0.15235388839E+02 -0.28982770358E+02  0.12099124051E+03  0.21324331462E+03  0.17251583376E+03 0.  0.
        -24    2    5    5    0    0 -0.30599097716E+02 -0.25246164268E+02 -0.12437203892E+01  0.89900372207E+02  0.80665088429E+02 0.  0.
          2    1    4    4  502    0 -0.63808635045E+01  0.47143446117E+02 -0.34249884992E+02  0.58619745418E+02  0.00000000000E+00 0. -1.
         -1    1    4    4    0  502  0.60447682287E+02  0.12900769212E+02 -0.11961410106E+01  0.61820570148E+02  0.00000000000E+00 0.  1.
          5    1    3    3  503    0 -0.38831429943E+02 -0.31061444971E+02  0.25296202826E+02  0.55988223696E+02  0.47000000000E+01 0. -1.
         13    1    6    6    0    0 -0.25313215615E+02 -0.41055606049E+02  0.28341216109E+02  0.55942347138E+02  0.00000000000E+00 0. -1.
        -14    1    6    6    0    0 -0.52858821015E+01  0.15809441781E+02 -0.29584936498E+02  0.33958025069E+02  0.00000000000E+00 0.  1.
         -5    1    5    5    0  501  0.15363708877E+02 -0.37366060896E+01  0.12223496090E+03  0.12334294241E+03  0.47000000000E+01 0.  1.
<mgrwt>
<rscale>  2 0.17586579E+03</rscale>
<asrwt>0</asrwt>
<pdfrwt beam="1">  1        2 0.38501021E-01 0.17586579E+03</pdfrwt>
<pdfrwt beam="2">  1       -2 0.21448495E-01 0.17586579E+03</pdfrwt>
<totfact> 0.24353303E+03</totfact>
</mgrwt>
</event>
<event>
12    1  0.1093377E-001  0.1785771E+03  0.7546771E-02  0.1169187E+00
          2   -1    0    0  503    0  0.00000000000E+00  0.00000000000E+00  0.10936966210E+04  0.10936966210E+04  0.00000000000E+00 0. -1.
         -2   -1    0    0    0  501 -0.00000000000E+00 -0.00000000000E+00 -0.29215480018E+02  0.29215480018E+02  0.00000000000E+00 0.  1.
          6    2    1    2  503    0 -0.43561665065E+02  0.20845568546E+02  0.56154917702E+03  0.58976392435E+03  0.17364288602E+03 0.  0.
         24    2    3    3    0    0 -0.92777269817E+02  0.17390864006E+02  0.31461818553E+03  0.33790857838E+03  0.79294014491E+02 0.  0.
         -6    2    1    2    0  501  0.43561665065E+02 -0.20845568546E+02  0.50293196392E+03  0.53314817662E+03  0.17021827609E+03 0.  0.
        -24    2    5    5    0    0  0.87211429973E+02 -0.22847197464E+02  0.44078369025E+03  0.45703111931E+03  0.80370109311E+02 0.  0.
          2    1    4    4  502    0 -0.51786476145E+02  0.33445867117E+02  0.26271034331E+03  0.26984660387E+03  0.00000000000E+00 0. -1.
         -1    1    4    4    0  502 -0.40990793671E+02 -0.16055003110E+02  0.51907842219E+02  0.68061974512E+02  0.00000000000E+00 0.  1.
          5    1    3    3  503    0  0.49215604752E+02  0.34547045398E+01  0.24693099149E+03  0.25185534597E+03  0.47000000000E+01 0. -1.
         13    1    6    6    0    0 -0.11700042842E+02  0.10310232387E+02  0.41153869542E+02  0.44009463445E+02  0.00000000000E+00 0. -1.
        -14    1    6    6    0    0  0.98911472815E+02 -0.33157429851E+02  0.39962982071E+03  0.41302165586E+03  0.00000000000E+00 0.  1.
         -5    1    5    5    0  501 -0.43649764908E+02  0.20016289173E+01  0.62148273661E+02  0.76117057313E+02  0.47000000000E+01 0.  1.
<mgrwt>
<rscale>  2 0.17857709E+03</rscale>
<asrwt>0</asrwt>
<pdfrwt beam="1">  1        2 0.16826099E+00 0.17857709E+03</pdfrwt>
<pdfrwt beam="2">  1       -2 0.44946901E-02 0.17857709E+03</pdfrwt>
<totfact> 0.52362019E+03</totfact>
</mgrwt>
</event>
<event>
12    1  0.1093377E-001  0.2067489E+03  0.7546771E-02  0.1144167E+00
          1   -1    0    0  503    0  0.00000000000E+00  0.00000000000E+00  0.25577961098E+03  0.25577961098E+03  0.00000000000E+00 0.  1.
         -1   -1    0    0    0  501 -0.00000000000E+00 -0.00000000000E+00 -0.19310028140E+03  0.19310028140E+03  0.00000000000E+00 0. -1.
          6    2    1    2  503    0 -0.40118577419E+02 -0.10639487838E+03  0.11366895362E+03  0.23593444557E+03  0.17267038307E+03 0.  0.
         24    2    3    3    0    0  0.58345547900E+01 -0.90680568640E+02  0.13555258805E+02  0.12456357066E+03  0.84114984009E+02 0.  0.
         -6    2    1    2    0  501  0.40118577419E+02  0.10639487838E+03 -0.50989624039E+02  0.21294544681E+03  0.17267440794E+03 0.  0.
        -24    2    5    5    0    0  0.53415555334E+02  0.12857295932E+03 -0.56294372653E+01  0.16052108759E+03  0.79693798876E+02 0.  0.
          4    1    4    4  502    0  0.23171160839E+02 -0.77018067223E+02 -0.21396313059E+02  0.83225522443E+02  0.00000000000E+00 0. -1.
         -3    1    4    4    0  502 -0.17336606049E+02 -0.13662501417E+02  0.34951571864E+02  0.41338048213E+02  0.00000000000E+00 0.  1.
          5    1    3    3  503    0 -0.45953132209E+02 -0.15714309744E+02  0.10011369481E+03  0.11137087492E+03  0.47000000000E+01 0. -1.
         13    1    6    6    0    0  0.17108518809E+02  0.72244568295E+02 -0.40928994073E+02  0.84777129108E+02  0.00000000000E+00 0. -1.
        -14    1    6    6    0    0  0.36307036525E+02  0.56328391021E+02  0.35299556807E+02  0.75743958486E+02  0.00000000000E+00 0.  1.
         -5    1    5    5    0  501 -0.13296977915E+02 -0.22178080932E+02 -0.45360186773E+02  0.52424359220E+02  0.47000000000E+01 0.  1.
<mgrwt>
<rscale>  2 0.20674895E+03</rscale>
<asrwt>0</asrwt>
<pdfrwt beam="1">  1        1 0.39350709E-01 0.20674895E+03</pdfrwt>
<pdfrwt beam="2">  1       -1 0.29707736E-01 0.20674895E+03</pdfrwt>
<totfact> 0.11116032E+03</totfact>
</mgrwt>
</event>
<event>
12    1  0.1093377E-001  0.2302987E+03  0.7546771E-02  0.1126430E+00
          2   -1    0    0  503    0  0.00000000000E+00  0.00000000000E+00  0.74786339974E+03  0.74786339974E+03  0.00000000000E+00 0.  1.
         -2   -1    0    0    0  501 -0.00000000000E+00 -0.00000000000E+00 -0.10285232727E+03  0.10285232727E+03  0.00000000000E+00 0. -1.
          6    2    1    2  503    0  0.13064587745E+03 -0.77995460622E+02  0.85479834801E+02  0.24563813764E+03  0.17285732653E+03 0.  0.
         24    2    3    3    0    0  0.40699969442E+02 -0.62100529010E+02 -0.14410020420E+02  0.11020184858E+03  0.80148833596E+02 0.  0.
         -6    2    1    2    0  501 -0.13064587745E+03  0.77995460622E+02  0.55953123767E+03  0.60507758937E+03  0.17289316372E+03 0.  0.
        -24    2    5    5    0    0 -0.16115654219E+03  0.52009642224E+02  0.46179079435E+03  0.49933522472E+03  0.86072614290E+02 0.  0.
          2    1    4    4  502    0  0.19114435231E+02 -0.30046847132E+02 -0.47472035496E+02  0.59344492676E+02  0.00000000000E+00 0. -1.
         -1    1    4    4    0  502  0.21585534210E+02 -0.32053681877E+02  0.33062015076E+02  0.50857355907E+02  0.00000000000E+00 0.  1.
          5    1    3    3  503    0  0.89945908006E+02 -0.15894931612E+02  0.99889855221E+02  0.13543628906E+03  0.47000000000E+01 0. -1.
         13    1    6    6    0    0  0.46126284544E+01 -0.11364639350E+02  0.24331492329E+02  0.27247988692E+02  0.00000000000E+00 0. -1.
        -14    1    6    6    0    0 -0.16576917064E+03  0.63374281574E+02  0.43745930202E+03  0.47208723603E+03  0.00000000000E+00 0.  1.
         -5    1    5    5    0  501  0.30510664741E+02  0.25985818398E+02  0.97740443320E+02  0.10574236465E+03  0.47000000000E+01 0.  1.
<mgrwt>
<rscale>  2 0.23029869E+03</rscale>
<asrwt>0</asrwt>
<pdfrwt beam="1">  1        2 0.11505590E+00 0.23029869E+03</pdfrwt>
<pdfrwt beam="2">  1       -2 0.15823435E-01 0.23029869E+03</pdfrwt>
<totfact> 0.12105865E+03</totfact>
</mgrwt>
</event>
<event>
12    1  0.1093377E-001  0.1948355E+03  0.7546771E-02  0.1154171E+00
          2   -1    0    0  503    0  0.00000000000E+00  0.00000000000E+00  0.16499423611E+03  0.16499423611E+03  0.00000000000E+00 0. -1.
         -2   -1    0    0    0  501 -0.00000000000E+00 -0.00000000000E+00 -0.23628366683E+03  0.23628366683E+03  0.00000000000E+00 0.  1.
          6    2    1    2  503    0  0.89200324992E+02 -0.12091596672E+02 -0.67887891394E+02  0.20500077459E+03  0.17121228663E+03 0.  0.
         24    2    3    3    0    0  0.89820845894E+02 -0.48175650979E+02 -0.20932676573E+01  0.12981123719E+03  0.80361046699E+02 0.  0.
         -6    2    1    2    0  501 -0.89200324992E+02  0.12091596672E+02 -0.34015393328E+01  0.19627712835E+03  0.17438530889E+03 0.  0.
        -24    2    5    5    0    0 -0.84211163847E+02  0.71009111812E+02  0.31604781590E+01  0.13660037080E+03  0.80720868445E+02 0.  0.
          4    1    4    4  502    0  0.40230156599E+02 -0.64063974757E+02  0.10126258521E+02  0.76322994394E+02  0.00000000000E+00 0. -1.
         -3    1    4    4    0  502  0.49590689295E+02  0.15888323778E+02 -0.12219526178E+02  0.53488242795E+02  0.00000000000E+00 0.  1.
          5    1    3    3  503    0 -0.62052090222E+00  0.36084054307E+02 -0.65794623737E+02  0.75189537397E+02  0.47000000000E+01 0. -1.
         11    1    6    6    0    0  0.50801908896E+01  0.11054817548E+02  0.24129526004E+02  0.27023163317E+02  0.00000000000E+00 0. -1.
        -12    1    6    6    0    0 -0.89291354737E+02  0.59954294263E+02 -0.20969047845E+02  0.10957720748E+03  0.00000000000E+00 0.  1.
         -5    1    5    5    0  501 -0.49891611453E+01 -0.58917515140E+02 -0.65620174918E+01  0.59676757559E+02  0.47000000000E+01 0.  1.
<mgrwt>
<rscale>  2 0.19483554E+03</rscale>
<asrwt>0</asrwt>
<pdfrwt beam="1">  1        2 0.25383729E-01 0.19483554E+03</pdfrwt>
<pdfrwt beam="2">  1       -2 0.36351333E-01 0.19483554E+03</pdfrwt>
<totfact> 0.14966721E+03</totfact>
</mgrwt>
</event>
<event>
12    1  0.1093377E-001  0.2043196E+03  0.7546771E-02  0.1146145E+00
         -1   -1    0    0    0  501 -0.00000000000E+00  0.00000000000E+00  0.19166586431E+03  0.19166586431E+03  0.00000000000E+00 0.  1.
          1   -1    0    0  503    0  0.00000000000E+00 -0.00000000000E+00 -0.22060366830E+03  0.22060366830E+03  0.00000000000E+00 0. -1.
          6    2    1    2  503    0 -0.99333269158E+02  0.40429082006E+02 -0.37692928876E+02  0.20810908378E+03  0.17431874493E+03 0.  0.
         24    2    3    3    0    0 -0.76145646018E+02 -0.40760580786E+02 -0.88442486102E+01  0.11875717522E+03  0.81027535932E+02 0.  0.
         -6    2    1    2    0  501  0.99333269158E+02 -0.40429082006E+02  0.87551248882E+01  0.20416044883E+03  0.17350281733E+03 0.  0.
        -24    2    5    5    0    0  0.25467187930E+02 -0.61058237079E+02 -0.41252895267E+02  0.11248355930E+03  0.81080600439E+02 0.  0.
          4    1    4    4  502    0  0.95129430537E+01 -0.16547555011E+02 -0.21608930806E+02  0.28831641524E+02  0.00000000000E+00 0. -1.
         -3    1    4    4    0  502 -0.85658589072E+02 -0.24213025775E+02  0.12764682196E+02  0.89925533696E+02  0.00000000000E+00 0.  1.
          5    1    3    3  503    0 -0.23187623140E+02  0.81189662792E+02 -0.28848680266E+02  0.89351908565E+02  0.47000000000E+01 0. -1.
         11    1    6    6    0    0 -0.29406361687E+02 -0.24931312634E+02 -0.10581400784E+02  0.39978375403E+02  0.00000000000E+00 0. -1.
        -12    1    6    6    0    0  0.54873549617E+02 -0.36126924445E+02 -0.30671494483E+02  0.72505183892E+02  0.00000000000E+00 0.  1.
         -5    1    5    5    0  501  0.73866081227E+02  0.20629155073E+02  0.50008020155E+02  0.91676889535E+02  0.47000000000E+01 0.  1.
<mgrwt>
<rscale>  2 0.20431959E+03</rscale>
<asrwt>0</asrwt>
<pdfrwt beam="2">  1        1 0.33939026E-01 0.20431959E+03</pdfrwt>
<pdfrwt beam="1">  1       -1 0.29487056E-01 0.20431959E+03</pdfrwt>
<totfact> 0.13547503E+03</totfact>
</mgrwt>
</event>
<event>
12    1  0.1093377E-001  0.1795476E+03  0.7546771E-02  0.1168242E+00
         -2   -1    0    0    0  501 -0.00000000000E+00  0.00000000000E+00  0.17722179026E+02  0.17722179026E+02  0.00000000000E+00 0. -1.
          2   -1    0    0  503    0  0.00000000000E+00 -0.00000000000E+00 -0.18281764005E+04  0.18281764005E+04  0.00000000000E+00 0.  1.
          6    2    1    2  503    0 -0.18079317878E+02 -0.45365501536E+02 -0.96966492169E+03  0.98611857508E+03  0.17261197320E+03 0.  0.
         24    2    3    3    0    0  0.11662218524E+02  0.38293595165E+02 -0.53294503915E+03  0.54043959952E+03  0.80262937915E+02 0.  0.
         -6    2    1    2    0  501  0.18079317878E+02  0.45365501536E+02 -0.84078929979E+03  0.85978000446E+03  0.17294542189E+03 0.  0.
        -24    2    5    5    0    0 -0.37671142246E+01 -0.31732976730E+02 -0.59012161485E+03  0.59657320321E+03  0.81454855699E+02 0.  0.
          2    1    4    4  502    0  0.32531807837E+02  0.49932442259E+02 -0.27463240534E+03  0.28102406547E+03  0.00000000000E+00 0. -1.
         -1    1    4    4    0  502 -0.20869589313E+02 -0.11638847093E+02 -0.25831263381E+03  0.25941553405E+03  0.00000000000E+00 0.  1.
          5    1    3    3  503    0 -0.29741536401E+02 -0.83659096701E+02 -0.43671988254E+03  0.44567897556E+03  0.47000000000E+01 0. -1.
         13    1    6    6    0    0  0.17646184679E+02  0.22624111179E+02 -0.16898898721E+03  0.17140745619E+03  0.00000000000E+00 0. -1.
        -14    1    6    6    0    0 -0.21413298903E+02 -0.54357087909E+02 -0.42113262764E+03  0.42516574702E+03  0.00000000000E+00 0.  1.
         -5    1    5    5    0  501  0.21846432102E+02  0.77098478266E+02 -0.25066768495E+03  0.26320680125E+03  0.47000000000E+01 0.  1.
<mgrwt>
<rscale>  2 0.17954761E+03</rscale>
<asrwt>0</asrwt>
<pdfrwt beam="2">  1        2 0.28125785E+00 0.17954761E+03</pdfrwt>
<pdfrwt beam="1">  1       -2 0.27264897E-02 0.17954761E+03</pdfrwt>
<totfact> 0.44517380E+03</totfact>
</mgrwt>
</event>
<event>
12    1  0.1093377E-001  0.1733616E+03  0.7546771E-02  0.1174387E+00
         -1   -1    0    0    0  501 -0.00000000000E+00  0.00000000000E+00  0.21324943702E+03  0.21324943702E+03  0.00000000000E+00 0. -1.
          1   -1    0    0  503    0  0.00000000000E+00 -0.00000000000E+00 -0.27502200424E+03  0.27502200424E+03  0.00000000000E+00 0.  1.
          6    2    1    2  503    0 -0.83408599176E+01 -0.42944251934E+01  0.13964728420E+03  0.22202747148E+03  0.17235667112E+03 0.  0.
         24    2    3    3    0    0  0.22621814755E+02  0.29806084906E+02  0.14164543902E+03  0.17568510820E+03  0.96962248568E+02 0.  0.
         -6    2    1    2    0  501  0.83408599176E+01  0.42944251934E+01 -0.20141985142E+03  0.26624396978E+03  0.17386167739E+03 0.  0.
        -24    2    5    5    0    0 -0.65636515798E+01  0.65007446135E+02 -0.86864264320E+02  0.13565573175E+03  0.81166665366E+02 0.  0.
          2    1    4    4  502    0  0.12152065366E+02 -0.35348709743E+02  0.42660933647E+02  0.56720007342E+02  0.00000000000E+00 0. -1.
         -1    1    4    4    0  502  0.10469749389E+02  0.65154794649E+02  0.98984505376E+02  0.11896510086E+03  0.00000000000E+00 0.  1.
          5    1    3    3  503    0 -0.30962674672E+02 -0.34100510100E+02 -0.19981548274E+01  0.46342363283E+02  0.47000000000E+01 0. -1.
         11    1    6    6    0    0  0.30822674285E+02  0.29969652064E+01 -0.18500306337E+02  0.36073264131E+02  0.00000000000E+00 0. -1.
        -12    1    6    6    0    0 -0.37386325865E+02  0.62010480929E+02 -0.68363957983E+02  0.99582467622E+02  0.00000000000E+00 0.  1.
         -5    1    5    5    0  501  0.14904511497E+02 -0.60713020942E+02 -0.11455558710E+03  0.13058823803E+03  0.47000000000E+01 0.  1.
<mgrwt>
<rscale>  2 0.17336157E+03</rscale>
<asrwt>0</asrwt>
<pdfrwt beam="2">  1        1 0.42311078E-01 0.17336157E+03</pdfrwt>
<pdfrwt beam="1">  1       -1 0.32807606E-01 0.17336157E+03</pdfrwt>
<totfact> 0.85571554E+02</totfact>
</mgrwt>
</event>
<event>
12    1  0.1093377E-001  0.1860553E+03  0.7546771E-02  0.1162068E+00
         -2   -1    0    0    0  501 -0.00000000000E+00  0.00000000000E+00  0.87360214920E+03  0.87360214920E+03  0.00000000000E+00 0.  1.
          2   -1    0    0  503    0  0.00000000000E+00 -0.00000000000E+00 -0.85371972618E+02  0.85371972618E+02  0.00000000000E+00 0. -1.
          6    2    1    2  503    0  0.64872903908E+02  0.20289162265E+02  0.74482265732E+03  0.76763877511E+03  0.17288248731E+03 0.  0.
         24    2    3    3    0    0 -0.33253135423E+01  0.50798103656E+02  0.56150841450E+03  0.56962868953E+03  0.81201227428E+02 0.  0.
         -6    2    1    2    0  501 -0.64872903908E+02 -0.20289162265E+02  0.43407519265E+02  0.19133534672E+03  0.17350751686E+03 0.  0.
        -24    2    5    5    0    0 -0.64439740186E+02 -0.78269219708E+02  0.29109223926E+02  0.13143204179E+03  0.78412268314E+02 0.  0.
          2    1    4    4  502    0 -0.23374145571E+01  0.34376324240E+02  0.71752954451E+02  0.79596995217E+02  0.00000000000E+00 0. -1.
         -1    1    4    4    0  502 -0.98789898521E+00  0.16421779417E+02  0.48975546005E+03  0.49003169432E+03  0.00000000000E+00 0.  1.
          5    1    3    3  503    0  0.68198217450E+02 -0.30508941391E+02  0.18331424282E+03  0.19801008557E+03  0.47000000000E+01 0. -1.
         13    1    6    6    0    0 -0.50656106199E+02 -0.48809485975E+01 -0.10461538883E+01  0.50901465523E+02  0.00000000000E+00 0. -1.
        -14    1    6    6    0    0 -0.13783633987E+02 -0.73388271110E+02  0.30155377814E+02  0.80530576265E+02  0.00000000000E+00 0.  1.
         -5    1    5    5    0  501 -0.43316372237E+00  0.57980057442E+02  0.14298295340E+02  0.59903304929E+02  0.47000000000E+01 0.  1.
<mgrwt>
<rscale>  2 0.18605532E+03</rscale>
<asrwt>0</asrwt>
<pdfrwt beam="2">  1        2 0.13134150E-01 0.18605532E+03</pdfrwt>
<pdfrwt beam="1">  1       -2 0.13440032E+00 0.18605532E+03</pdfrwt>
<totfact> 0.19250198E+02</totfact>
</mgrwt>
</event>
<event>
12    1  0.1093377E-001  0.1936346E+03  0.7546771E-02  0.1155223E+00
         -2   -1    0    0    0  501 -0.00000000000E+00  0.00000000000E+00  0.24412259693E+03  0.24412259693E+03  0.00000000000E+00 0. -1.
          2   -1    0    0  503    0  0.00000000000E+00 -0.00000000000E+00 -0.18485514201E+03  0.18485514201E+03  0.00000000000E+00 0.  1.
          6    2    1    2  503    0 -0.57902637845E+02 -0.63068857829E+02  0.11774603942E+03  0.22597722240E+03  0.17283280634E+03 0.  0.
         24    2    3    3    0    0 -0.71628307802E+02 -0.10127128611E+03  0.68203188286E+02  0.16175570233E+03  0.78273523463E+02 0.  0.
         -6    2    1    2    0  501  0.57902637845E+02  0.63068857829E+02 -0.58478584501E+02  0.20300051654E+03  0.17452526629E+03 0.  0.
        -24    2    5    5    0    0  0.14272593458E+02  0.10094575597E+03 -0.64348368807E+02  0.14473573684E+03  0.80087254776E+02 0.  0.
          2    1    4    4  502    0 -0.71734322591E+02 -0.50613642436E+02  0.68082067958E+02  0.11109780293E+03  0.00000000000E+00 0. -1.
         -1    1    4    4    0  502  0.10601478914E+00 -0.50657643672E+02  0.12112032791E+00  0.50657899400E+02  0.00000000000E+00 0.  1.
          5    1    3    3  503    0  0.13725669957E+02  0.38202428279E+02  0.49542851134E+02  0.64221520074E+02  0.47000000000E+01 0. -1.
         13    1    6    6    0    0 -0.27908939253E+02  0.53080444975E+02 -0.52795479886E+02  0.79898718546E+02  0.00000000000E+00 0. -1.
        -14    1    6    6    0    0  0.42181532712E+02  0.47865310994E+02 -0.11552888921E+02  0.64837018291E+02  0.00000000000E+00 0.  1.
         -5    1    5    5    0  501  0.43630044387E+02 -0.37876898140E+02  0.58697843057E+01  0.58264779702E+02  0.47000000000E+01 0.  1.
<mgrwt>
<rscale>  2 0.19363462E+03</rscale>
<asrwt>0</asrwt>
<pdfrwt beam="2">  1        2 0.28439253E-01 0.19363462E+03</pdfrwt>
<pdfrwt beam="1">  1       -2 0.37557323E-01 0.19363462E+03</pdfrwt>
<totfact> 0.12411721E+03</totfact>
</mgrwt>
</event>
<event>
12    1  0.1093377E-001  0.2356480E+03  0.7546771E-02  0.1122726E+00
         -2   -1    0    0    0  501 -0.00000000000E+00  0.00000000000E+00  0.13757812573E+02  0.13757812573E+02  0.00000000000E+00 0.  1.
          2   -1    0    0  503    0  0.00000000000E+00 -0.00000000000E+00 -0.41481756180E+04  0.41481756180E+04  0.00000000000E+00 0. -1.
          6    2    1    2  503    0 -0.53351904421E+02 -0.15016811131E+03 -0.17281216160E+04  0.17441573801E+04  0.17402229535E+03 0.  0.
         24    2    3    3    0    0 -0.59970734240E+02 -0.15104289627E+03 -0.10229903132E+04  0.10389788081E+04  0.80977387321E+02 0.  0.
         -6    2    1    2    0  501  0.53351904421E+02  0.15016811131E+03 -0.24062961893E+04  0.24177760505E+04  0.17315539827E+03 0.  0.
        -24    2    5    5    0    0  0.77746750595E+02  0.47473265672E+02 -0.15819598431E+04  0.15866961256E+04  0.81910814177E+02 0.  0.
          2    1    4    4  502    0  0.60152375689E+01 -0.15254506380E+02 -0.26836719667E+02  0.31449842136E+02  0.00000000000E+00 0. -1.
         -1    1    4    4    0  502 -0.65985971809E+02 -0.13578838989E+03 -0.99615359357E+03  0.10075289660E+04  0.00000000000E+00 0.  1.
          5    1    3    3  503    0  0.66188298191E+01  0.87478495471E+00 -0.70513130280E+03  0.70517857196E+03  0.47000000000E+01 0. -1.
         11    1    6    6    0    0  0.44136447439E+02  0.43863802220E+02 -0.14139933490E+04  0.14153618795E+04  0.00000000000E+00 0. -1.
        -12    1    6    6    0    0  0.33610303155E+02  0.36094634521E+01 -0.16796649415E+03  0.17133424603E+03  0.00000000000E+00 0.  1.
         -5    1    5    5    0  501 -0.24394846174E+02  0.10269484564E+03 -0.82433634622E+03  0.83107992488E+03  0.47000000000E+01 0.  1.
<mgrwt>
<rscale>  2 0.23564796E+03</rscale>
<asrwt>0</asrwt>
<pdfrwt beam="2">  1        2 0.63817989E+00 0.23564796E+03</pdfrwt>
<pdfrwt beam="1">  1       -2 0.21165898E-02 0.23564796E+03</pdfrwt>
<totfact> 0.24659522E+02</totfact>
</mgrwt>
</event>
<event>
12    1  0.1093377E-001  0.1819981E+03  0.7546771E-02  0.1165883E+00
          1   -1    0    0  503    0  0.00000000000E+00  0.00000000000E+00  0.50871104246E+03  0.50871104246E+03  0.00000000000E+00 0. -1.
         -1   -1    0    0    0  501 -0.00000000000E+00 -0.00000000000E+00 -0.67249649942E+02  0.67249649942E+02  0.00000000000E+00 0.  1.
          6    2    1    2  503    0 -0.54795932236E+02  0.12097891698E+02  0.16942966120E+03  0.24868068477E+03  0.17316673962E+03 0.  0.
         24    2    3    3    0    0 -0.88087441077E+02  0.43117548494E+02  0.84429161218E+02  0.15215235387E+03  0.80022092329E+02 0.  0.
         -6    2    1    2    0  501  0.54795932236E+02 -0.12097891698E+02  0.27203173131E+03  0.32728000763E+03  0.17309531299E+03 0.  0.
        -24    2    5    5    0    0 -0.73287098523E+01 -0.53119290183E+01  0.24207431196E+03  0.25781737437E+03  0.88249076152E+02 0.  0.
          4    1    4    4  502    0 -0.35863013139E+02  0.56613549730E+02  0.24082323768E+02  0.71212414947E+02  0.00000000000E+00 0. -1.
         -3    1    4    4    0  502 -0.52224427939E+02 -0.13496001236E+02  0.60346837450E+02  0.80939938924E+02  0.00000000000E+00 0.  1.
          5    1    3    3  503    0  0.33291508841E+02 -0.31019656796E+02  0.85000499984E+02  0.96528330899E+02  0.47000000000E+01 0. -1.
         13    1    6    6    0    0  0.61605999407E+01  0.40390387748E+02  0.12048003189E+03  0.12721939513E+03  0.00000000000E+00 0. -1.
        -14    1    6    6    0    0 -0.13489309793E+02 -0.45702316767E+02  0.12159428006E+03  0.13059797924E+03  0.00000000000E+00 0.  1.
         -5    1    5    5    0  501  0.62124642089E+02 -0.67859626799E+01  0.29957419357E+02  0.69462633255E+02  0.47000000000E+01 0.  1.
<mgrwt>
<rscale>  2 0.18199809E+03</rscale>
<asrwt>0</asrwt>
<pdfrwt beam="1">  1        1 0.78263235E-01 0.18199809E+03</pdfrwt>
<pdfrwt beam="2">  1       -1 0.10346100E-01 0.18199809E+03</pdfrwt>
<totfact> 0.25170533E+03</totfact>
</mgrwt>
</event>
<event>
12    1  0.1093377E-001  0.1746911E+03  0.7546771E-02  0.1173042E+00
         -2   -1    0    0    0  501 -0.00000000000E+00  0.00000000000E+00  0.64558326559E+02  0.64558326559E+02  0.00000000000E+00 0. -1.
          2   -1    0    0  503    0  0.00000000000E+00 -0.00000000000E+00 -0.10984203373E+04  0.10984203373E+04  0.00000000000E+00 0.  1.
          6    2    1    2  503    0 -0.18284201957E+02 -0.38869290859E+01 -0.95589877277E+03  0.97174246113E+03  0.17375709113E+03 0.  0.
         24    2    3    3    0    0  0.54583850563E+01  0.24066369961E+02 -0.91153791491E+03  0.91399236956E+03  0.62222963378E+02 0.  0.
         -6    2    1    2    0  501  0.18284201957E+02  0.38869290859E+01 -0.77963237993E+02  0.19123620275E+03  0.17361911907E+03 0.  0.
        -24    2    5    5    0    0 -0.32256662840E+02 -0.95931978876E+01  0.10801347623E+02  0.88098748367E+02  0.80698194590E+02 0.  0.
          2    1    4    4  502    0 -0.26310194227E+02  0.69906907097E+01 -0.25133491521E+03  0.25280493603E+03  0.00000000000E+00 0. -1.
         -1    1    4    4    0  502  0.31768579284E+02  0.17075679251E+02 -0.66020299970E+03  0.66118743353E+03  0.00000000000E+00 0.  1.
          5    1    3    3  503    0 -0.23742587013E+02 -0.27953299046E+02 -0.44360857862E+02  0.57750091567E+02  0.47000000000E+01 0. -1.
         13    1    6    6    0    0 -0.90285918413E+01  0.33589947260E+02 -0.78157717482E+01  0.35649492501E+02  0.00000000000E+00 0. -1.
        -14    1    6    6    0    0 -0.23228070999E+02 -0.43183145148E+02  0.18617119371E+02  0.52449255866E+02  0.00000000000E+00 0.  1.
         -5    1    5    5    0  501  0.50540864797E+02  0.13480126973E+02 -0.88764585615E+02  0.10313745439E+03  0.47000000000E+01 0.  1.
<mgrwt>
<rscale>  2 0.17469108E+03</rscale>
<asrwt>0</asrwt>
<pdfrwt beam="2">  1        2 0.16898774E+00 0.17469108E+03</pdfrwt>
<pdfrwt beam="1">  1       -2 0.99320508E-02 0.17469108E+03</pdfrwt>
<totfact> 0.15366695E+03</totfact>
</mgrwt>
</event>
<event>
12    1  0.1093377E-001  0.1997881E+03  0.7546771E-02  0.1149918E+00
          2   -1    0    0  503    0  0.00000000000E+00  0.00000000000E+00  0.24469558604E+04  0.24469558604E+04  0.00000000000E+00 0.  1.
         -2   -1    0    0    0  501 -0.00000000000E+00 -0.00000000000E+00 -0.20184479350E+02  0.20184479350E+02  0.00000000000E+00 0. -1.
          6    2    1    2  503    0 -0.87296157276E+02  0.54490432029E+02  0.17600895767E+04  0.17715416771E+04  0.17278532784E+03 0.  0.
         24    2    3    3    0    0  0.70249772134E+01  0.22615299402E+02  0.11747299553E+04  0.11777568029E+04  0.80992696115E+02 0.  0.
         -6    2    1    2    0  501  0.87296157276E+02 -0.54490432029E+02  0.66668180435E+03  0.69559866263E+03  0.16971459849E+03 0.  0.
        -24    2    5    5    0    0  0.28004914621E+01 -0.74046489690E+02  0.32448394513E+03  0.34254990992E+03  0.80993115464E+02 0.  0.
          2    1    4    4  502    0  0.43120989190E+02  0.47361327576E+01  0.53192842232E+03  0.53369438551E+03  0.00000000000E+00 0. -1.
         -1    1    4    4    0  502 -0.36096011977E+02  0.17879166644E+02  0.64280153297E+03  0.64406241738E+03  0.00000000000E+00 0.  1.
          5    1    3    3  503    0 -0.94321134489E+02  0.31875132626E+02  0.58535962142E+03  0.59378487424E+03  0.47000000000E+01 0. -1.
         11    1    6    6    0    0  0.22237817469E+02 -0.75975762961E+02  0.30443403984E+03  0.31455829618E+03  0.00000000000E+00 0. -1.
        -12    1    6    6    0    0 -0.19437326007E+02  0.19292732707E+01  0.20049905290E+02  0.27991613741E+02  0.00000000000E+00 0.  1.
         -5    1    5    5    0  501  0.84495665814E+02  0.19556057661E+02  0.34219785922E+03  0.35304875271E+03  0.47000000000E+01 0.  1.
<mgrwt>
<rscale>  2 0.19978806E+03</rscale>
<asrwt>0</asrwt>
<pdfrwt beam="1">  1        2 0.37645451E+00 0.19978806E+03</pdfrwt>
<pdfrwt beam="2">  1       -2 0.31053065E-02 0.19978806E+03</pdfrwt>
<totfact> 0.17381033E+03</totfact>
</mgrwt>
</event>
<event>
12    1  0.1093377E-001  0.2186165E+03  0.7546771E-02  0.1134919E+00
         -2   -1    0    0    0  501 -0.00000000000E+00  0.00000000000E+00  0.42420174893E+02  0.42420174893E+02  0.00000000000E+00 0. -1.
          2   -1    0    0  503    0  0.00000000000E+00 -0.00000000000E+00 -0.14173079327E+04  0.14173079327E+04  0.00000000000E+00 0.  1.
          6    2    1    2  503    0 -0.12574872109E+03 -0.43244614344E+02 -0.35606299157E+03  0.41763938174E+03  0.17308657280E+03 0.  0.
         24    2    3    3    0    0  0.69308591754E+01 -0.91484275968E+01 -0.13438526132E+03  0.15700644625E+03  0.80373473034E+02 0.  0.
         -6    2    1    2    0  501  0.12574872109E+03  0.43244614344E+02 -0.10188247663E+04  0.10420887259E+04  0.17396025619E+03 0.  0.
        -24    2    5    5    0    0  0.11047428033E+03 -0.20425123077E+02 -0.49648250884E+03  0.51563771402E+03  0.82253378456E+02 0.  0.
          4    1    4    4  502    0 -0.17978929877E+02  0.29865390680E+02 -0.55257962465E+02  0.65334721976E+02  0.00000000000E+00 0. -1.
         -3    1    4    4    0  502  0.24909789052E+02 -0.39013818277E+02 -0.79127298854E+02  0.91671724273E+02  0.00000000000E+00 0.  1.
          5    1    3    3  503    0 -0.13267958027E+03 -0.34096186747E+02 -0.22167773025E+03  0.26063293549E+03  0.47000000000E+01 0. -1.
         13    1    6    6    0    0  0.79235139046E+02 -0.79934064939E+01 -0.17343132960E+03  0.19084163040E+03  0.00000000000E+00 0. -1.
        -14    1    6    6    0    0  0.31239141280E+02 -0.12431716583E+02 -0.32305117924E+03  0.32479608362E+03  0.00000000000E+00 0.  1.
         -5    1    5    5    0  501  0.15274440768E+02  0.63669737421E+02 -0.52234225742E+03  0.52645101186E+03  0.47000000000E+01 0.  1.
<mgrwt>
<rscale>  2 0.21861648E+03</rscale>
<asrwt>0</asrwt>
<pdfrwt beam="2">  1        2 0.21804735E+00 0.21861648E+03</pdfrwt>
<pdfrwt beam="1">  1       -2 0.65261813E-02 0.21861648E+03</pdfrwt>
<totfact> 0.19673787E+03</totfact>
</mgrwt>
</event>
<event>
12    1  0.1093377E-001  0.2459666E+03  0.7546771E-02  0.1115881E+00
          2   -1    0    0  503    0  0.00000000000E+00  0.00000000000E+00  0.19042718476E+03  0.19042718476E+03  0.00000000000E+00 0. -1.
         -2   -1    0    0    0  501 -0.00000000000E+00 -0.00000000000E+00 -0.46617702090E+03  0.46617702090E+03  0.00000000000E+00 0.  1.
          6    2    1    2  503    0 -0.48352147289E+02  0.16810887456E+03  0.47333560667E+02  0.25065520464E+03  0.17317344426E+03 0.  0.
         24    2    3    3    0    0 -0.89957846660E+02  0.11062518834E+03 -0.30464898848E+01  0.16350219038E+03  0.79958355956E+02 0.  0.
         -6    2    1    2    0  501  0.48352147289E+02 -0.16810887456E+03 -0.32308339681E+03  0.40594900103E+03  0.17266495385E+03 0.  0.
        -24    2    5    5    0    0 -0.11608369656E+02 -0.14833485716E+03 -0.16762628158E+03  0.23809406356E+03  0.80325766296E+02 0.  0.
          2    1    4    4  502    0 -0.97130290921E+01  0.41616088843E+02  0.30470007303E+02  0.52484884775E+02  0.00000000000E+00 0. -1.
         -1    1    4    4    0  502 -0.80244817568E+02  0.69009099499E+02 -0.33516497188E+02  0.11101730561E+03  0.00000000000E+00 0.  1.
          5    1    3    3  503    0  0.41605699371E+02  0.57483686215E+02  0.50380050552E+02  0.87153014260E+02  0.47000000000E+01 0. -1.
         13    1    6    6    0    0  0.10067548390E+02 -0.43997656531E+01  0.51855314031E+01  0.12149205913E+02  0.00000000000E+00 0. -1.
        -14    1    6    6    0    0 -0.21675918046E+02 -0.14393509151E+03 -0.17281181298E+03  0.22594485765E+03  0.00000000000E+00 0.  1.
         -5    1    5    5    0  501  0.59960516945E+02 -0.19774017394E+02 -0.15545711523E+03  0.16785493747E+03  0.47000000000E+01 0.  1.
<mgrwt>
<rscale>  2 0.24596661E+03</rscale>
<asrwt>0</asrwt>
<pdfrwt beam="1">  1        2 0.29296490E-01 0.24596661E+03</pdfrwt>
<pdfrwt beam="2">  1       -2 0.71719541E-01 0.24596661E+03</pdfrwt>
<totfact> 0.32744113E+02</totfact>
</mgrwt>
</event>
<event>
12    1  0.1093377E-001  0.3126059E+03  0.7546771E-02  0.1079103E+00
          4   -1    0    0  503    0  0.00000000000E+00  0.00000000000E+00  0.34073421109E+03  0.34073421109E+03  0.00000000000E+00 0.  1.
         -4   -1    0    0    0  501 -0.00000000000E+00 -0.00000000000E+00 -0.28744666271E+03  0.28744666271E+03  0.00000000000E+00 0. -1.
          6    2    1    2  503    0  0.25693049799E+03 -0.41062719596E+02  0.41572583258E+02  0.31574154009E+03  0.17396842451E+03 0.  0.
         24    2    3    3    0    0  0.21083113190E+03  0.33190952452E+02  0.17414437294E+02  0.22494250165E+03  0.68880047319E+02 0.  0.
         -6    2    1    2    0  501 -0.25693049799E+03  0.41062719596E+02  0.11714965115E+02  0.31243933371E+03  0.17257366284E+03 0.  0.
        -24    2    5    5    0    0 -0.10888648329E+03 -0.42323808116E+02  0.62787400501E+01  0.14237468179E+03  0.81139117939E+02 0.  0.
          2    1    4    4  502    0  0.57454688979E+02  0.40951466462E+02  0.18033857612E+01  0.70578439281E+02  0.00000000000E+00 0. -1.
         -1    1    4    4    0  502  0.15337644292E+03 -0.77605140097E+01  0.15611051533E+02  0.15436406237E+03  0.00000000000E+00 0.  1.
          5    1    3    3  503    0  0.46099366082E+02 -0.74253672048E+02  0.24158145964E+02  0.90799038443E+02  0.47000000000E+01 0. -1.
         11    1    6    6    0    0 -0.96220217495E+02 -0.32297181829E+02 -0.27307487570E+02  0.10510536183E+03  0.00000000000E+00 0. -1.
        -12    1    6    6    0    0 -0.12666265797E+02 -0.10026626287E+02  0.33586227620E+02  0.37269319952E+02  0.00000000000E+00 0.  1.
         -5    1    5    5    0  501 -0.14804401469E+03  0.83386527712E+02  0.54362250648E+01  0.17006465192E+03  0.47000000000E+01 0.  1.
<mgrwt>
<rscale>  2 0.31260593E+03</rscale>
<asrwt>0</asrwt>
<pdfrwt beam="1">  1        4 0.52420648E-01 0.31260593E+03</pdfrwt>
<pdfrwt beam="2">  1       -4 0.44222563E-01 0.31260593E+03</pdfrwt>
<totfact> 0.32531069E+01</totfact>
</mgrwt>
</event>
<event>
12    1  0.1093377E-001  0.2180367E+03  0.7546771E-02  0.1135355E+00
          2   -1    0    0  503    0  0.00000000000E+00  0.00000000000E+00  0.57880319908E+03  0.57880319908E+03  0.00000000000E+00 0.  1.
         -2   -1    0    0    0  501 -0.00000000000E+00 -0.00000000000E+00 -0.12581461903E+03  0.12581461903E+03  0.00000000000E+00 0. -1.
          6    2    1    2  503    0  0.95992504314E+02 -0.92533946099E+02  0.18786751877E+02  0.21866549234E+03  0.17229208755E+03 0.  0.
         24    2    3    3    0    0  0.25538232613E+02 -0.64840214876E+02  0.66660607436E+02  0.12897299993E+03  0.85638445431E+02 0.  0.
         -6    2    1    2    0  501 -0.95992504314E+02  0.92533946099E+02  0.43420182817E+03  0.48595232576E+03  0.17274647106E+03 0.  0.
        -24    2    5    5    0    0 -0.72042573793E+02 -0.11842824315E+02  0.18004620997E+03  0.21011672684E+03  0.80012600537E+02 0.  0.
          2    1    4    4  502    0  0.54251060249E+02 -0.42162827148E+02  0.61136153471E+02  0.91970162512E+02  0.00000000000E+00 0. -1.
         -1    1    4    4    0  502 -0.28712827637E+02 -0.22677387727E+02  0.55244539656E+01  0.37002837413E+02  0.00000000000E+00 0.  1.
          5    1    3    3  503    0  0.70454271701E+02 -0.27693731223E+02 -0.47873855560E+02  0.89692492418E+02  0.47000000000E+01 0. -1.
         13    1    6    6    0    0 -0.38239777001E+02 -0.20712898473E+02  0.22936094998E+02  0.49166748540E+02  0.00000000000E+00 0. -1.
        -14    1    6    6    0    0 -0.33802796792E+02  0.88700741576E+01  0.15711011497E+03  0.16094997830E+03  0.00000000000E+00 0.  1.
         -5    1    5    5    0  501 -0.23949930522E+02  0.10437677041E+03  0.25415561820E+03  0.27583559893E+03  0.47000000000E+01 0.  1.
<mgrwt>
<rscale>  2 0.21803665E+03</rscale>
<asrwt>0</asrwt>
<pdfrwt beam="1">  1        2 0.89046645E-01 0.21803665E+03</pdfrwt>
<pdfrwt beam="2">  1       -2 0.19356095E-01 0.21803665E+03</pdfrwt>
<totfact> 0.11698560E+03</totfact>
</mgrwt>
</event>
<event>
12    1  0.1093377E-001  0.2441483E+03  0.7546771E-02  0.1117060E+00
          2   -1    0    0  503    0  0.00000000000E+00  0.00000000000E+00  0.43011390349E+03  0.43011390349E+03  0.00000000000E+00 0. -1.
         -2   -1    0    0    0  501 -0.00000000000E+00 -0.00000000000E+00 -0.14737417506E+03  0.14737417506E+03  0.00000000000E+00 0.  1.
          6    2    1    2  503    0  0.14932908876E+03  0.84541738048E+02  0.70403651520E+02  0.25327003567E+03  0.17246029862E+03 0.  0.
         24    2    3    3    0    0  0.66344849574E+02 -0.23778067474E+02  0.30072709345E+02  0.11090346966E+03  0.80175907710E+02 0.  0.
         -6    2    1    2    0  501 -0.14932908876E+03 -0.84541738048E+02  0.21233607691E+03  0.32421804287E+03  0.17488352565E+03 0.  0.
        -24    2    5    5    0    0 -0.60453549058E+02  0.20206009741E+02  0.10203170565E+03  0.14797929418E+03  0.86165469433E+02 0.  0.
          2    1    4    4  502    0  0.43975873417E+01  0.61487260322E+01  0.40606672265E+02  0.41304327118E+02  0.00000000000E+00 0. -1.
         -1    1    4    4    0  502  0.61947262232E+02 -0.29926793506E+02 -0.10533962919E+02  0.69599142540E+02  0.00000000000E+00 0.  1.
          5    1    3    3  503    0  0.82984239191E+02  0.10831980552E+03  0.40330942175E+02  0.14236656602E+03  0.47000000000E+01 0. -1.
         11    1    6    6    0    0  0.64041230647E+01  0.17010779971E+02 -0.74613074890E+01  0.19648168792E+02  0.00000000000E+00 0. -1.
        -12    1    6    6    0    0 -0.66857672123E+02  0.31952297697E+01  0.10949301314E+03  0.12833112538E+03  0.00000000000E+00 0.  1.
         -5    1    5    5    0  501 -0.88875539707E+02 -0.10474774779E+03  0.11030437125E+03  0.17623874870E+03  0.47000000000E+01 0.  1.
<mgrwt>
<rscale>  2 0.24414831E+03</rscale>
<asrwt>0</asrwt>
<pdfrwt beam="1">  1        2 0.66171369E-01 0.24414831E+03</pdfrwt>
<pdfrwt beam="2">  1       -2 0.22672950E-01 0.24414831E+03</pdfrwt>
<totfact> 0.12439095E+03</totfact>
</mgrwt>
</event>
<event>
12    1  0.1093377E-001  0.1746255E+03  0.7546771E-02  0.1173108E+00
          1   -1    0    0  503    0  0.00000000000E+00  0.00000000000E+00  0.31017760526E+04  0.31017760526E+04  0.00000000000E+00 0.  1.
         -1   -1    0    0    0  501 -0.00000000000E+00 -0.00000000000E+00 -0.98361348884E+01  0.98361348884E+01  0.00000000000E+00 0. -1.
          6    2    1    2  503    0 -0.16575091525E+02 -0.30499605666E+01  0.14967468226E+04  0.15065987666E+04  0.17118632164E+03 0.  0.
         24    2    3    3    0    0  0.34400207545E+02  0.47838294199E+02  0.83814698186E+03  0.84405523159E+03  0.80417623133E+02 0.  0.
         -6    2    1    2    0  501  0.16575091525E+02  0.30499605666E+01  0.15951930951E+04  0.16050134209E+04  0.17647389195E+03 0.  0.
        -24    2    5    5    0    0 -0.15070149035E+01 -0.12466598363E+02  0.15611290920E+04  0.15631783581E+04  0.79024363049E+02 0.  0.
          2    1    4    4  502    0  0.34986175127E+02  0.51647155819E+02  0.32718951671E+03  0.33308323434E+03  0.00000000000E+00 0. -1.
         -1    1    4    4    0  502 -0.58596758274E+00 -0.38088616195E+01  0.51095746515E+03  0.51097199725E+03  0.00000000000E+00 0.  1.
          5    1    3    3  503    0 -0.50975299070E+02 -0.50888254766E+02  0.65859984075E+03  0.66254353504E+03  0.47000000000E+01 0. -1.
         13    1    6    6    0    0 -0.30261974890E+02 -0.28011351673E+02  0.56019159559E+03  0.56170726070E+03  0.00000000000E+00 0. -1.
        -14    1    6    6    0    0  0.28754959986E+02  0.15544753310E+02  0.10009374964E+04  0.10014710974E+04  0.00000000000E+00 0.  1.
         -5    1    5    5    0  501  0.18082106429E+02  0.15516558930E+02  0.34064003089E+02  0.41835062811E+02  0.47000000000E+01 0.  1.
<mgrwt>
<rscale>  2 0.17462555E+03</rscale>
<asrwt>0</asrwt>
<pdfrwt beam="1">  1        1 0.47719554E+00 0.17462555E+03</pdfrwt>
<pdfrwt beam="2">  1       -1 0.15132540E-02 0.17462555E+03</pdfrwt>
<totfact> 0.64387481E+02</totfact>
</mgrwt>
</event>
<event>
12    1  0.1093377E-001  0.2507557E+03  0.7546771E-02  0.1112828E+00
          1   -1    0    0  503    0  0.00000000000E+00  0.00000000000E+00  0.52300854566E+03  0.52300854566E+03  0.00000000000E+00 0.  1.
         -1   -1    0    0    0  501 -0.00000000000E+00 -0.00000000000E+00 -0.14059928125E+03  0.14059928125E+03  0.00000000000E+00 0. -1.
          6    2    1    2  503    0  0.11997235186E+03  0.13601621370E+03  0.65063173680E+02  0.25930852385E+03  0.17353362318E+03 0.  0.
         24    2    3    3    0    0  0.16804507919E+02  0.12130401664E+03  0.41025891212E+02  0.15225744392E+03  0.80635907268E+02 0.  0.
         -6    2    1    2    0  501 -0.11997235186E+03 -0.13601621370E+03  0.31734609073E+03  0.40429930305E+03  0.17278775868E+03 0.  0.
        -24    2    5    5    0    0 -0.86553388334E+02 -0.69278318826E+02  0.90054080267E+02  0.16502013188E+03  0.82649452890E+02 0.  0.
          4    1    4    4  502    0  0.13737997719E+02  0.51847219378E+02 -0.22421274531E+02  0.58134157689E+02  0.00000000000E+00 0. -1.
         -3    1    4    4    0  502  0.30665101992E+01  0.69456797262E+02  0.63447165743E+02  0.94123286235E+02  0.00000000000E+00 0.  1.
          5    1    3    3  503    0  0.10316784394E+03  0.14712197061E+02  0.24037282469E+02  0.10705107993E+03  0.47000000000E+01 0. -1.
         11    1    6    6    0    0 -0.91529207835E+02 -0.83073194731E+02  0.79889990100E+02  0.14717731513E+03  0.00000000000E+00 0. -1.
        -12    1    6    6    0    0  0.49758195004E+01  0.13794875905E+02  0.10164090167E+02  0.17842816758E+02  0.00000000000E+00 0.  1.
         -5    1    5    5    0  501 -0.33418963525E+02 -0.66737894876E+02  0.22729201046E+03  0.23927917117E+03  0.47000000000E+01 0.  1.
<mgrwt>
<rscale>  2 0.25075567E+03</rscale>
<asrwt>0</asrwt>
<pdfrwt beam="1">  1        1 0.80462852E-01 0.25075567E+03</pdfrwt>
<pdfrwt beam="2">  1       -1 0.21630659E-01 0.25075567E+03</pdfrwt>
<totfact> 0.75583688E+02</totfact>
</mgrwt>
</event>
<event>
12    1  0.1093377E-001  0.1741162E+03  0.7546771E-02  0.1173622E+00
         -1   -1    0    0    0  501 -0.00000000000E+00  0.00000000000E+00  0.20736261139E+03  0.20736261139E+03  0.00000000000E+00 0.  1.
          1   -1    0    0  503    0  0.00000000000E+00 -0.00000000000E+00 -0.29403364393E+03  0.29403364393E+03  0.00000000000E+00 0. -1.
          6    2    1    2  503    0  0.27378643325E+01 -0.12817468017E+02 -0.22109765959E+03  0.28142692590E+03  0.17362360484E+03 0.  0.
         24    2    3    3    0    0 -0.32023950998E+02 -0.56321676490E+02 -0.83033265882E+02  0.13248107409E+03  0.80368196880E+02 0.  0.
         -6    2    1    2    0  501 -0.27378643325E+01  0.12817468017E+02  0.13442662706E+03  0.21996932941E+03  0.17362086405E+03 0.  0.
        -24    2    5    5    0    0 -0.18478161750E+02 -0.44769140668E+02  0.13561538947E+03  0.16007377349E+03  0.69902508400E+02 0.  0.
          4    1    4    4  502    0  0.16673059061E+02 -0.50212883178E+02 -0.32792764848E+02  0.62247007654E+02  0.00000000000E+00 0. -1.
         -3    1    4    4    0  502 -0.48697010059E+02 -0.61087933118E+01 -0.50240501034E+02  0.70234066439E+02  0.00000000000E+00 0.  1.
          5    1    3    3  503    0  0.34761815331E+02  0.43504208473E+02 -0.13806439371E+03  0.14894585181E+03  0.47000000000E+01 0. -1.
         13    1    6    6    0    0 -0.76480137292E+01 -0.24275912199E+02  0.32087691431E+01  0.25653620144E+02  0.00000000000E+00 0. -1.
        -14    1    6    6    0    0 -0.10830148021E+02 -0.20493228469E+02  0.13240662033E+03  0.13442015335E+03  0.00000000000E+00 0.  1.
         -5    1    5    5    0  501  0.15740297418E+02  0.57586608685E+02 -0.11887624153E+01  0.59895555918E+02  0.47000000000E+01 0.  1.
<mgrwt>
<rscale>  2 0.17411624E+03</rscale>
<asrwt>0</asrwt>
<pdfrwt beam="2">  1        1 0.45235945E-01 0.17411624E+03</pdfrwt>
<pdfrwt beam="1">  1       -1 0.31901940E-01 0.17411624E+03</pdfrwt>
<totfact> 0.82591774E+02</totfact>
</mgrwt>
</event>
<event>
12    1  0.1093377E-001  0.1778646E+03  0.7546771E-02  0.1169886E+00
         -1   -1    0    0    0  501 -0.00000000000E+00  0.00000000000E+00  0.40784498292E+03  0.40784498292E+03  0.00000000000E+00 0.  1.
          1   -1    0    0  503    0  0.00000000000E+00 -0.00000000000E+00 -0.11099373961E+03  0.11099373961E+03  0.00000000000E+00 0. -1.
          6    2    1    2  503    0 -0.12585399463E+01  0.41691689331E+01  0.28791712040E+03  0.33602879462E+03  0.17320541765E+03 0.  0.
         24    2    3    3    0    0  0.14532709520E+02 -0.52535318991E+02  0.99045404613E+02  0.13814150970E+03  0.79384665642E+02 0.  0.
         -6    2    1    2    0  501  0.12585399463E+01 -0.41691689331E+01  0.89341229057E+01  0.18280992791E+03  0.18253954447E+03 0.  0.
        -24    2    5    5    0    0  0.32961605040E+02  0.63335530473E+02  0.45078490478E+01  0.10795239202E+03  0.80842695484E+02 0.  0.
          2    1    4    4  502    0  0.28536485697E+02 -0.41139210696E+02  0.15127052552E+02  0.52302900412E+02  0.00000000000E+00 0. -1.
         -1    1    4    4    0  502 -0.14003776176E+02 -0.11396108295E+02  0.83918352061E+02  0.85838609286E+02  0.00000000000E+00 0.  1.
          5    1    3    3  503    0 -0.15791249467E+02  0.56704487924E+02  0.18887171579E+03  0.19788728493E+03  0.47000000000E+01 0. -1.
         11    1    6    6    0    0  0.29200078411E+02  0.34098392259E+02  0.41167760068E+02  0.60910831573E+02  0.00000000000E+00 0. -1.
        -12    1    6    6    0    0  0.37615266286E+01  0.29237138215E+02 -0.36659911020E+02  0.47041560450E+02  0.00000000000E+00 0.  1.
         -5    1    5    5    0  501 -0.31703065094E+02 -0.67504699406E+02  0.44262738580E+01  0.74857535883E+02  0.47000000000E+01 0.  1.
<mgrwt>
<rscale>  2 0.17786464E+03</rscale>
<asrwt>0</asrwt>
<pdfrwt beam="2">  1        1 0.17075960E-01 0.17786464E+03</pdfrwt>
<pdfrwt beam="1">  1       -1 0.62745381E-01 0.17786464E+03</pdfrwt>
<totfact> 0.83306213E+02</totfact>
</mgrwt>
</event>
<event>
12    1  0.1093377E-001  0.1750061E+03  0.7546771E-02  0.1172726E+00
          1   -1    0    0  503    0  0.00000000000E+00  0.00000000000E+00  0.22725084949E+04  0.22725084949E+04  0.00000000000E+00 0. -1.
         -1   -1    0    0    0  501 -0.00000000000E+00 -0.00000000000E+00 -0.19089634876E+02  0.19089634876E+02  0.00000000000E+00 0.  1.
          6    2    1    2  503    0  0.37423595098E+02  0.76472521261E+01  0.50907241533E+03  0.53857380370E+03  0.17160423086E+03 0.  0.
         24    2    3    3    0    0  0.28127745498E+02  0.21156050770E+02  0.11464826265E+03  0.14378094323E+03  0.79309438007E+02 0.  0.
         -6    2    1    2    0  501 -0.37423595098E+02 -0.76472521261E+01  0.17443464447E+04  0.17530243261E+04  0.16997282947E+03 0.  0.
        -24    2    5    5    0    0 -0.86295921454E+01 -0.27385301044E+02  0.16600700750E+04  0.16616827601E+04  0.67323969078E+02 0.  0.
          2    1    4    4  502    0  0.50962668365E+02  0.33313063940E+02  0.79267243397E+02  0.99951236469E+02  0.00000000000E+00 0. -1.
         -1    1    4    4    0  502 -0.22834922867E+02 -0.12157013170E+02  0.35381019248E+02  0.43829706759E+02  0.00000000000E+00 0.  1.
          5    1    3    3  503    0  0.92958495996E+01 -0.13508798644E+02  0.39442415269E+03  0.39479286048E+03  0.47000000000E+01 0. -1.
         13    1    6    6    0    0 -0.22606707723E+02 -0.41122155831E+02  0.14331326464E+04  0.14339007208E+04  0.00000000000E+00 0. -1.
        -14    1    6    6    0    0  0.13977115577E+02  0.13736854787E+02  0.22693742857E+03  0.22778203929E+03  0.00000000000E+00 0.  1.
         -5    1    5    5    0  501 -0.28794002952E+02  0.19738048918E+02  0.84276369681E+02  0.91341565937E+02  0.47000000000E+01 0.  1.
<mgrwt>
<rscale>  2 0.17500607E+03</rscale>
<asrwt>0</asrwt>
<pdfrwt beam="1">  1        1 0.34961648E+00 0.17500607E+03</pdfrwt>
<pdfrwt beam="2">  1       -1 0.29368687E-02 0.17500607E+03</pdfrwt>
<totfact> 0.88297278E+02</totfact>
</mgrwt>
</event>
<event>
12    1  0.1093377E-001  0.1898613E+03  0.7546771E-02  0.1158586E+00
         -2   -1    0    0    0  501 -0.00000000000E+00  0.00000000000E+00  0.24258728469E+03  0.24258728469E+03  0.00000000000E+00 0.  1.
          2   -1    0    0  503    0  0.00000000000E+00 -0.00000000000E+00 -0.20478180117E+03  0.20478180117E+03  0.00000000000E+00 0. -1.
          6    2    1    2  503    0 -0.26522588293E+01  0.76407293608E+02 -0.98298989759E+02  0.21336001169E+03  0.17324749409E+03 0.  0.
         24    2    3    3    0    0  0.65542970467E+02  0.43067921198E+02 -0.38791117308E+02  0.11679200491E+03  0.77362101922E+02 0.  0.
         -6    2    1    2    0  501  0.26522588293E+01 -0.76407293608E+02  0.13610447328E+03  0.23400907417E+03  0.17432931525E+03 0.  0.
        -24    2    5    5    0    0 -0.22743592705E+02  0.77672095072E+01  0.11586283871E+03  0.14366467744E+03  0.81472336396E+02 0.  0.
          4    1    4    4  502    0  0.69950811745E+02  0.45961409857E+02 -0.54729288781E+02  0.10000431146E+03  0.00000000000E+00 0. -1.
         -3    1    4    4    0  502 -0.44078412787E+01 -0.28934886595E+01  0.15938171473E+02  0.16787693446E+02  0.00000000000E+00 0.  1.
          5    1    3    3  503    0 -0.68195229296E+02  0.33339372411E+02 -0.59507872451E+02  0.96568006788E+02  0.47000000000E+01 0. -1.
         13    1    6    6    0    0 -0.42363582923E+02  0.16063330324E+02  0.28009566842E+02  0.53265744845E+02  0.00000000000E+00 0. -1.
        -14    1    6    6    0    0  0.19619990217E+02 -0.82961208173E+01  0.87853271868E+02  0.90398932597E+02  0.00000000000E+00 0.  1.
         -5    1    5    5    0  501  0.25395851535E+02 -0.84174503116E+02  0.20241634565E+02  0.90344396726E+02  0.47000000000E+01 0.  1.
<mgrwt>
<rscale>  2 0.18986132E+03</rscale>
<asrwt>0</asrwt>
<pdfrwt beam="2">  1        2 0.31504893E-01 0.18986132E+03</pdfrwt>
<pdfrwt beam="1">  1       -2 0.37321121E-01 0.18986132E+03</pdfrwt>
<totfact> 0.11223270E+03</totfact>
</mgrwt>
</event>
<event>
12    1  0.1093377E-001  0.1762794E+03  0.7546771E-02  0.1171453E+00
          2   -1    0    0  503    0  0.00000000000E+00  0.00000000000E+00  0.26295220809E+04  0.26295220809E+04  0.00000000000E+00 0.  1.
         -2   -1    0    0    0  501 -0.00000000000E+00 -0.00000000000E+00 -0.13585421132E+02  0.13585421132E+02  0.00000000000E+00 0. -1.
          6    2    1    2  503    0  0.27602404718E+02 -0.14447074519E+02  0.83634570536E+03  0.85488427880E+03  0.17430542321E+03 0.  0.
         24    2    3    3    0    0 -0.38715118026E+02 -0.28880320030E+02  0.64762206960E+03  0.65427263135E+03  0.79532369833E+02 0.  0.
         -6    2    1    2    0  501 -0.27602404718E+02  0.14447074519E+02  0.17795909544E+04  0.17882232232E+04  0.17270703627E+03 0.  0.
        -24    2    5    5    0    0 -0.52993193136E+02  0.70345267032E+01  0.55520971109E+03  0.56354728365E+03  0.80436027585E+02 0.  0.
          4    1    4    4  502    0  0.21196151655E+02  0.48413468091E+01  0.98975345281E+02  0.10133525772E+03  0.00000000000E+00 0. -1.
         -3    1    4    4    0  502 -0.59911269681E+02 -0.33721666839E+02  0.54864672432E+03  0.55293737363E+03  0.00000000000E+00 0.  1.
          5    1    3    3  503    0  0.66317522745E+02  0.14433245511E+02  0.18872363576E+03  0.20061164745E+03  0.47000000000E+01 0. -1.
         13    1    6    6    0    0 -0.91125599547E+01  0.24215784910E+02  0.51461880770E+02  0.57600070834E+02  0.00000000000E+00 0. -1.
        -14    1    6    6    0    0 -0.43880633181E+02 -0.17181258206E+02  0.50374783032E+03  0.50594721281E+03  0.00000000000E+00 0.  1.
         -5    1    5    5    0  501  0.25390788418E+02  0.74125478158E+01  0.12243812433E+04  0.12246759395E+04  0.47000000000E+01 0.  1.
<mgrwt>
<rscale>  2 0.17627939E+03</rscale>
<asrwt>0</asrwt>
<pdfrwt beam="1">  1        2 0.40454145E+00 0.17627939E+03</pdfrwt>
<pdfrwt beam="2">  1       -2 0.20900669E-02 0.17627939E+03</pdfrwt>
<totfact> 0.24860679E+03</totfact>
</mgrwt>
</event>
<event>
12    1  0.1093377E-001  0.2124266E+03  0.7546771E-02  0.1139659E+00
          1   -1    0    0  503    0  0.00000000000E+00  0.00000000000E+00  0.53535171162E+03  0.53535171162E+03  0.00000000000E+00 0. -1.
         -1   -1    0    0    0  501 -0.00000000000E+00 -0.00000000000E+00 -0.98164550377E+02  0.98164550377E+02  0.00000000000E+00 0.  1.
          6    2    1    2  503    0  0.12401483228E+03 -0.16367774794E+02  0.33647963907E+03  0.39721429081E+03  0.17003841518E+03 0.  0.
         24    2    3    3    0    0  0.13381879201E+03  0.22673241513E+02  0.31327745094E+03  0.35051578854E+03  0.79353713023E+02 0.  0.
         -6    2    1    2    0  501 -0.12401483228E+03  0.16367774794E+02  0.10070752217E+03  0.23630197119E+03  0.17334657160E+03 0.  0.
        -24    2    5    5    0    0 -0.93244349672E+01 -0.30774780509E+02  0.60010377274E+02  0.10570849754E+03  0.80864138332E+02 0.  0.
          2    1    4    4  502    0  0.92749853296E+02  0.50179453700E+02  0.23976250292E+03  0.26192856023E+03  0.00000000000E+00 0. -1.
         -1    1    4    4    0  502  0.41068938711E+02 -0.27506212187E+02  0.73514948023E+02  0.88587228304E+02  0.00000000000E+00 0.  1.
          5    1    3    3  503    0 -0.98039597234E+01 -0.39041016307E+02  0.23202188130E+02  0.46698502273E+02  0.47000000000E+01 0. -1.
         13    1    6    6    0    0 -0.44639237030E+02 -0.95219173266E+01  0.34757847275E+02  0.57371040947E+02  0.00000000000E+00 0. -1.
        -14    1    6    6    0    0  0.35314802063E+02 -0.21252863182E+02  0.25252529999E+02  0.48337456590E+02  0.00000000000E+00 0.  1.
         -5    1    5    5    0  501 -0.11469039732E+03  0.47142555303E+02  0.40697144897E+02  0.13059347365E+03  0.47000000000E+01 0.  1.
<mgrwt>
<rscale>  2 0.21242659E+03</rscale>
<asrwt>0</asrwt>
<pdfrwt beam="1">  1        1 0.82361800E-01 0.21242659E+03</pdfrwt>
<pdfrwt beam="2">  1       -1 0.15102239E-01 0.21242659E+03</pdfrwt>
<totfact> 0.13065393E+03</totfact>
</mgrwt>
</event>
<event>
12    1  0.1093377E-001  0.1951767E+03  0.7546771E-02  0.1153873E+00
         -1   -1    0    0    0  501 -0.00000000000E+00  0.00000000000E+00  0.46823474239E+02  0.46823474239E+02  0.00000000000E+00 0.  1.
          1   -1    0    0  503    0  0.00000000000E+00 -0.00000000000E+00 -0.81436507107E+03  0.81436507107E+03  0.00000000000E+00 0. -1.
          6    2    1    2  503    0 -0.57490133896E+02  0.69176327510E+02 -0.39779281962E+03  0.44321619068E+03  0.17352516979E+03 0.  0.
         24    2    3    3    0    0 -0.69300674124E+02 -0.69468277298E+01 -0.19741149278E+03  0.22848615139E+03  0.91562994959E+02 0.  0.
         -6    2    1    2    0  501  0.57490133896E+02 -0.69176327510E+02 -0.36974877721E+03  0.41797235463E+03  0.17290532440E+03 0.  0.
        -24    2    5    5    0    0  0.72303903891E+02 -0.42594700530E+02 -0.36946901990E+03  0.38717951555E+03  0.79739937077E+02 0.  0.
          4    1    4    4  502    0 -0.50506330711E+02 -0.28997346693E+02 -0.18979381229E+03  0.19852815101E+03  0.00000000000E+00 0. -1.
         -3    1    4    4    0  502 -0.18794343413E+02  0.22050518963E+02 -0.76176804839E+01  0.29958000381E+02  0.00000000000E+00 0.  1.
          5    1    3    3  503    0  0.11810540227E+02  0.76123155240E+02 -0.20038132685E+03  0.21473003929E+03  0.47000000000E+01 0. -1.
         13    1    6    6    0    0 -0.89230823116E+01  0.98316666058E+01 -0.10031029592E+03  0.10118516953E+03  0.00000000000E+00 0. -1.
        -14    1    6    6    0    0  0.81226986202E+02 -0.52426367136E+02 -0.26915872398E+03  0.28599434602E+03  0.00000000000E+00 0.  1.
         -5    1    5    5    0  501 -0.14813769994E+02 -0.26581626980E+02 -0.27975730459E+00  0.30792839079E+02  0.47000000000E+01 0.  1.
<mgrwt>
<rscale>  2 0.19517671E+03</rscale>
<asrwt>0</asrwt>
<pdfrwt beam="2">  1        1 0.12528693E+00 0.19517671E+03</pdfrwt>
<pdfrwt beam="1">  1       -1 0.72036117E-02 0.19517671E+03</pdfrwt>
<totfact> 0.22524159E+03</totfact>
</mgrwt>
</event>
<event>
12    1  0.1093377E-001  0.1845371E+03  0.7546771E-02  0.1163483E+00
          2   -1    0    0  503    0  0.00000000000E+00  0.00000000000E+00  0.13975325050E+03  0.13975325050E+03  0.00000000000E+00 0. -1.
         -2   -1    0    0    0  501 -0.00000000000E+00 -0.00000000000E+00 -0.38297245704E+03  0.38297245704E+03  0.00000000000E+00 0.  1.
          6    2    1    2  503    0 -0.41565488758E+02  0.40443630451E+02 -0.28014153504E+03  0.33669216860E+03  0.17753579819E+03 0.  0.
         24    2    3    3    0    0  0.18583937757E+02  0.69878753213E+02 -0.22603060989E+03  0.25046884123E+03  0.80102440194E+02 0.  0.
         -6    2    1    2    0  501  0.41565488758E+02 -0.40443630451E+02  0.36922328496E+02  0.18603353894E+03  0.17286365196E+03 0.  0.
        -24    2    5    5    0    0  0.86959570031E+02 -0.84614810359E+01 -0.27807750421E+01  0.11760907748E+03  0.78680359134E+02 0.  0.
          2    1    4    4  502    0 -0.24643741333E+02  0.27487345157E+02 -0.14312338087E+03  0.14780788302E+03  0.00000000000E+00 0. -1.
         -1    1    4    4    0  502  0.43227679089E+02  0.42391408056E+02 -0.82907229017E+02  0.10266095821E+03  0.00000000000E+00 0.  1.
          5    1    3    3  503    0 -0.60149426515E+02 -0.29435122763E+02 -0.54110925150E+02  0.86223327370E+02  0.47000000000E+01 0. -1.
         11    1    6    6    0    0  0.88551039116E+02 -0.26827369316E+02  0.12883119949E+02  0.93418247964E+02  0.00000000000E+00 0. -1.
        -12    1    6    6    0    0 -0.15914690852E+01  0.18365888280E+02 -0.15663894991E+02  0.24190829512E+02  0.00000000000E+00 0.  1.
         -5    1    5    5    0  501 -0.45394081273E+02 -0.31982149415E+02  0.39703103538E+02  0.68424461462E+02  0.47000000000E+01 0.  1.
<mgrwt>
<rscale>  2 0.18453710E+03</rscale>
<asrwt>0</asrwt>
<pdfrwt beam="1">  1        2 0.21500500E-01 0.18453710E+03</pdfrwt>
<pdfrwt beam="2">  1       -2 0.58918839E-01 0.18453710E+03</pdfrwt>
<totfact> 0.69839857E+02</totfact>
</mgrwt>
</event>
<event>
12    1  0.1093377E-001  0.1985305E+03  0.7546771E-02  0.1150985E+00
         -2   -1    0    0    0  501 -0.00000000000E+00  0.00000000000E+00  0.91003264420E+02  0.91003264420E+02  0.00000000000E+00 0.  1.
          2   -1    0    0  503    0  0.00000000000E+00 -0.00000000000E+00 -0.88717239544E+03  0.88717239544E+03  0.00000000000E+00 0. -1.
          6    2    1    2  503    0 -0.74884820864E+02  0.60995067610E+02 -0.74789686674E+03  0.77377617217E+03  0.17335428078E+03 0.  0.
         24    2    3    3    0    0 -0.57313722228E+02 -0.31755548567E+02 -0.38889072388E+03  0.40253646400E+03  0.80661838000E+02 0.  0.
         -6    2    1    2    0  501  0.74884820864E+02 -0.60995067610E+02 -0.48272264282E+02  0.20439948770E+03  0.17355346266E+03 0.  0.
        -24    2    5    5    0    0  0.11592816925E+03 -0.38240246069E+02 -0.14072554279E+02  0.14614102467E+03  0.79104395964E+02 0.  0.
          2    1    4    4  502    0 -0.28893078041E+02  0.23003041957E+02 -0.88874599517E+02  0.96242632639E+02  0.00000000000E+00 0. -1.
         -1    1    4    4    0  502 -0.28420644188E+02 -0.54758590525E+02 -0.30001612436E+03  0.30629383136E+03  0.00000000000E+00 0.  1.
          5    1    3    3  503    0 -0.17571098636E+02  0.92750616177E+02 -0.35900614286E+03  0.37123970817E+03  0.47000000000E+01 0. -1.
         13    1    6    6    0    0 -0.29415126195E+01  0.11329686447E+01 -0.20513886256E+02  0.20754653545E+02  0.00000000000E+00 0. -1.
        -14    1    6    6    0    0  0.11886968187E+03 -0.39373214714E+02  0.64413319773E+01  0.12538637112E+03  0.00000000000E+00 0.  1.
         -5    1    5    5    0  501 -0.41043348388E+02 -0.22754821541E+02 -0.34199710003E+02  0.58258463030E+02  0.47000000000E+01 0.  1.
<mgrwt>
<rscale>  2 0.19853054E+03</rscale>
<asrwt>0</asrwt>
<pdfrwt beam="2">  1        2 0.13648806E+00 0.19853054E+03</pdfrwt>
<pdfrwt beam="1">  1       -2 0.14000502E-01 0.19853054E+03</pdfrwt>
<totfact> 0.11906993E+03</totfact>
</mgrwt>
</event>
<event>
12    1  0.1093377E-001  0.2155547E+03  0.7546771E-02  0.1137241E+00
          2   -1    0    0  503    0  0.00000000000E+00  0.00000000000E+00  0.74363807106E+03  0.74363807106E+03  0.00000000000E+00 0.  1.
         -2   -1    0    0    0  501 -0.00000000000E+00 -0.00000000000E+00 -0.69858692779E+02  0.69858692779E+02  0.00000000000E+00 0. -1.
          6    2    1    2  503    0 -0.12726778115E+03 -0.95427882995E+01  0.46926607240E+03  0.51646529801E+03  0.17388963285E+03 0.  0.
         24    2    3    3    0    0 -0.67306627560E+02  0.61708696729E+02  0.28660191116E+03  0.31137897506E+03  0.80486429058E+02 0.  0.
         -6    2    1    2    0  501  0.12726778115E+03  0.95427882995E+01  0.20451330588E+03  0.29703146583E+03  0.17353341604E+03 0.  0.
        -24    2    5    5    0    0  0.66332750771E+02 -0.46263384991E+02  0.17687020802E+03  0.20977530407E+03  0.78627432222E+02 0.  0.
          2    1    4    4  502    0 -0.74915209613E+02  0.70524314667E+02  0.20948660538E+03  0.23338938584E+03  0.00000000000E+00 0. -1.
         -1    1    4    4    0  502  0.76085820528E+01 -0.88156179378E+01  0.77115305780E+02  0.77989589215E+02  0.00000000000E+00 0.  1.
          5    1    3    3  503    0 -0.59961153595E+02 -0.71251485029E+02  0.18266416124E+03  0.20508632295E+03  0.47000000000E+01 0. -1.
         11    1    6    6    0    0  0.68922451511E+02 -0.60104660042E+02  0.11823923895E+03  0.14947706215E+03  0.00000000000E+00 0. -1.
        -12    1    6    6    0    0 -0.25897007392E+01  0.13841275051E+02  0.58630969076E+02  0.60298241929E+02  0.00000000000E+00 0.  1.
         -5    1    5    5    0  501  0.60935030384E+02  0.55806173290E+02  0.27643097858E+02  0.87256161756E+02  0.47000000000E+01 0.  1.
<mgrwt>
<rscale>  2 0.21555472E+03</rscale>
<asrwt>0</asrwt>
<pdfrwt beam="1">  1        2 0.11440585E+00 0.21555472E+03</pdfrwt>
<pdfrwt beam="2">  1       -2 0.10747492E-01 0.21555472E+03</pdfrwt>
<totfact> 0.22876640E+03</totfact>
</mgrwt>
</event>
<event>
12    1  0.1093377E-001  0.2131003E+03  0.7546771E-02  0.1139134E+00
         -2   -1    0    0    0  501 -0.00000000000E+00  0.00000000000E+00  0.17733051758E+03  0.17733051758E+03  0.00000000000E+00 0. -1.
          2   -1    0    0  503    0  0.00000000000E+00 -0.00000000000E+00 -0.39967323749E+03  0.39967323749E+03  0.00000000000E+00 0.  1.
          6    2    1    2  503    0 -0.52098249786E+02 -0.11197525354E+03  0.61483834562E+02  0.22255815971E+03  0.17464016578E+03 0.  0.
         24    2    3    3    0    0 -0.32553887286E+02  0.23321846529E+02  0.24943925498E+02  0.80979410079E+02  0.65816421465E+02 0.  0.
         -6    2    1    2    0  501  0.52098249786E+02  0.11197525354E+03 -0.28382655448E+03  0.35444559536E+03  0.17268897478E+03 0.  0.
        -24    2    5    5    0    0  0.74977446447E+01  0.12225481868E+03 -0.13706173311E+03  0.20063767194E+03  0.80418280591E+02 0.  0.
          4    1    4    4  502    0 -0.22488118810E+02  0.20655856661E+02  0.47309988114E+02  0.56308213231E+02  0.00000000000E+00 0. -1.
         -3    1    4    4    0  502 -0.10065768476E+02  0.26659898687E+01 -0.22366062615E+02  0.24671196848E+02  0.00000000000E+00 0.  1.
          5    1    3    3  503    0 -0.19544362500E+02 -0.13529710007E+03  0.36539909064E+02  0.14157874963E+03  0.47000000000E+01 0. -1.
         13    1    6    6    0    0  0.17944176306E+02  0.56966060130E+02 -0.14627349921E+02  0.61490526390E+02  0.00000000000E+00 0. -1.
        -14    1    6    6    0    0 -0.10446431662E+02  0.65288758546E+02 -0.12243438319E+03  0.13914714555E+03  0.00000000000E+00 0.  1.
         -5    1    5    5    0  501  0.44600505142E+02 -0.10279565136E+02 -0.14676482136E+03  0.15380792343E+03  0.47000000000E+01 0.  1.
<mgrwt>
<rscale>  2 0.21310034E+03</rscale>
<asrwt>0</asrwt>
<pdfrwt beam="2">  1        2 0.61488190E-01 0.21310034E+03</pdfrwt>
<pdfrwt beam="1">  1       -2 0.27281618E-01 0.21310034E+03</pdfrwt>
<totfact> 0.97079026E+02</totfact>
</mgrwt>
</event>
<event>
12    1  0.1093377E-001  0.1851531E+03  0.7546771E-02  0.1162907E+00
          2   -1    0    0  503    0  0.00000000000E+00  0.00000000000E+00  0.20683932010E+04  0.20683932010E+04  0.00000000000E+00 0.  1.
         -2   -1    0    0    0  501 -0.00000000000E+00 -0.00000000000E+00 -0.19495384372E+02  0.19495384372E+02  0.00000000000E+00 0. -1.
          6    2    1    2  503    0  0.31146878293E+02 -0.60248900510E+02  0.14233315822E+04  0.14351825590E+04  0.17110267836E+03 0.  0.
         24    2    3    3    0    0  0.25534311698E+02 -0.81615368703E+02  0.60848000829E+03  0.62001803298E+03  0.82833394545E+02 0.  0.
         -6    2    1    2    0  501 -0.31146878293E+02  0.60248900510E+02  0.62556623439E+03  0.65270602640E+03  0.17347041606E+03 0.  0.
        -24    2    5    5    0    0 -0.71441615600E+02  0.45226951645E+01  0.27801934400E+03  0.29838977382E+03  0.81347048351E+02 0.  0.
          2    1    4    4  502    0  0.34929491885E+02 -0.91120234395E+02  0.42533732169E+03  0.43638836343E+03  0.00000000000E+00 0. -1.
         -1    1    4    4    0  502 -0.93951801871E+01  0.95048656929E+01  0.18314268660E+03  0.18362966955E+03  0.00000000000E+00 0.  1.
          5    1    3    3  503    0  0.56125665954E+01  0.21366468193E+02  0.81485157395E+03  0.81516452599E+03  0.47000000000E+01 0. -1.
         13    1    6    6    0    0  0.12829583949E+02 -0.57509145885E+01  0.10017865191E+02  0.17263512560E+02  0.00000000000E+00 0. -1.
        -14    1    6    6    0    0 -0.84271199549E+02  0.10273609753E+02  0.26800147880E+03  0.28112626126E+03  0.00000000000E+00 0.  1.
         -5    1    5    5    0  501  0.40294737307E+02  0.55726205345E+02  0.34754689039E+03  0.35431625257E+03  0.47000000000E+01 0.  1.
<mgrwt>
<rscale>  2 0.18515314E+03</rscale>
<asrwt>0</asrwt>
<pdfrwt beam="1">  1        2 0.31821417E+00 0.18515314E+03</pdfrwt>
<pdfrwt beam="2">  1       -2 0.29992915E-02 0.18515314E+03</pdfrwt>
<totfact> 0.29036657E+03</totfact>
</mgrwt>
</event>
<event>
12    1  0.1093377E-001  0.2304865E+03  0.7546771E-02  0.1126298E+00
         -2   -1    0    0    0  501 -0.00000000000E+00  0.00000000000E+00  0.59857102934E+03  0.59857102934E+03  0.00000000000E+00 0.  1.
          2   -1    0    0  503    0  0.00000000000E+00 -0.00000000000E+00 -0.95134576340E+02  0.95134576340E+02  0.00000000000E+00 0. -1.
          6    2    1    2  503    0  0.46028584808E+01  0.15157787915E+03  0.16265897017E+03  0.28272834326E+03  0.17458618431E+03 0.  0.
         24    2    3    3    0    0 -0.46440752094E+02  0.29579577468E+02  0.86730444085E+02  0.13016272830E+03  0.79927911584E+02 0.  0.
         -6    2    1    2    0  501 -0.46028584808E+01 -0.15157787915E+03  0.34077748283E+03  0.41097726242E+03  0.17255717218E+03 0.  0.
        -24    2    5    5    0    0  0.22237693171E+02 -0.16328702934E+03  0.33360635599E+03  0.38046440494E+03  0.79390136165E+02 0.  0.
          2    1    4    4  502    0 -0.52645478415E+02 -0.11861637781E+02  0.38610690011E+02  0.66355333105E+02  0.00000000000E+00 0. -1.
         -1    1    4    4    0  502  0.62047263208E+01  0.41441215248E+02  0.48119754074E+02  0.63807395199E+02  0.00000000000E+00 0.  1.
          5    1    3    3  503    0  0.51043610575E+02  0.12199830168E+03  0.75928526087E+02  0.15256561496E+03  0.47000000000E+01 0. -1.
         13    1    6    6    0    0  0.85743094847E+01 -0.78061043880E+02  0.78027010594E+02  0.11070347663E+03  0.00000000000E+00 0. -1.
        -14    1    6    6    0    0  0.13663383686E+02 -0.85225985461E+02  0.25557934540E+03  0.26976092832E+03  0.00000000000E+00 0.  1.
         -5    1    5    5    0  501 -0.26840551652E+02  0.11709150195E+02  0.71711268326E+01  0.30512857475E+02  0.47000000000E+01 0.  1.
<mgrwt>
<rscale>  2 0.23048651E+03</rscale>
<asrwt>0</asrwt>
<pdfrwt beam="2">  1        2 0.14636089E-01 0.23048651E+03</pdfrwt>
<pdfrwt beam="1">  1       -2 0.92087848E-01 0.23048651E+03</pdfrwt>
<totfact> 0.41645617E+02</totfact>
</mgrwt>
</event>
<event>
12    1  0.1093377E-001  0.2392488E+03  0.7546771E-02  0.1120294E+00
         -4   -1    0    0    0  501 -0.00000000000E+00  0.00000000000E+00  0.96627698085E+02  0.96627698085E+02  0.00000000000E+00 0. -1.
          4   -1    0    0  503    0  0.00000000000E+00 -0.00000000000E+00 -0.87260311926E+03  0.87260311926E+03  0.00000000000E+00 0.  1.
          6    2    1    2  503    0  0.10905922798E+02 -0.16155817183E+03 -0.66029047184E+03  0.70159429156E+03  0.17329472212E+03 0.  0.
         24    2    3    3    0    0  0.24596412085E+02 -0.79020470253E+02 -0.54793016785E+03  0.56142714280E+03  0.90131845831E+02 0.  0.
         -6    2    1    2    0  501 -0.10905922798E+02  0.16155817183E+03 -0.11568494933E+03  0.26763652578E+03  0.17895899082E+03 0.  0.
        -24    2    5    5    0    0 -0.64276884385E+02  0.78978117291E+02 -0.10907976975E+03  0.16897729740E+03  0.79283478667E+02 0.  0.
          2    1    4    4  502    0  0.91548038482E+01 -0.38524302801E+01 -0.33404430064E+03  0.33419193055E+03  0.00000000000E+00 0. -1.
         -1    1    4    4    0  502  0.15441608237E+02 -0.75168039973E+02 -0.21388586721E+03  0.22723521226E+03  0.00000000000E+00 0.  1.
          5    1    3    3  503    0 -0.13690489288E+02 -0.82537701572E+02 -0.11236030400E+03  0.14016714876E+03  0.47000000000E+01 0. -1.
         11    1    6    6    0    0 -0.69601367571E+01 -0.21741469838E+01  0.10954643704E+02  0.13159583484E+02  0.00000000000E+00 0. -1.
        -12    1    6    6    0    0 -0.57316747628E+02  0.81152264275E+02 -0.12003441345E+03  0.15581771391E+03  0.00000000000E+00 0.  1.
         -5    1    5    5    0  501  0.53370961588E+02  0.82580054534E+02 -0.66051795807E+01  0.98659228382E+02  0.47000000000E+01 0.  1.
<mgrwt>
<rscale>  2 0.23924878E+03</rscale>
<asrwt>0</asrwt>
<pdfrwt beam="2">  1        4 0.13424663E+00 0.23924878E+03</pdfrwt>
<pdfrwt beam="1">  1       -4 0.14865800E-01 0.23924878E+03</pdfrwt>
<totfact> 0.29121470E+01</totfact>
</mgrwt>
</event>
<event>
12    1  0.1093377E-001  0.2049852E+03  0.7546771E-02  0.1145600E+00
         -1   -1    0    0    0  501 -0.00000000000E+00  0.00000000000E+00  0.71360724252E+03  0.71360724252E+03  0.00000000000E+00 0. -1.
          1   -1    0    0  503    0  0.00000000000E+00 -0.00000000000E+00 -0.59107962855E+02  0.59107962855E+02  0.00000000000E+00 0.  1.
          6    2    1    2  503    0  0.10379262431E+03 -0.33934283182E+02  0.30413525229E+03  0.36702454670E+03  0.17402391146E+03 0.  0.
         24    2    3    3    0    0  0.72776153643E+02 -0.36958668309E+02  0.31363078610E+03  0.33410914726E+03  0.81254788145E+02 0.  0.
         -6    2    1    2    0  501 -0.10379262431E+03  0.33934283182E+02  0.35036402738E+03  0.40569065868E+03  0.17293210929E+03 0.  0.
        -24    2    5    5    0    0 -0.75524930229E+02  0.73686460666E+02  0.15701148585E+03  0.20622488853E+03  0.82112047784E+02 0.  0.
          2    1    4    4  502    0  0.26569598800E+02 -0.10005682221E+02  0.24716779536E+03  0.24879303913E+03  0.00000000000E+00 0. -1.
         -1    1    4    4    0  502  0.46206554843E+02 -0.26952986088E+02  0.66462990738E+02  0.85316108135E+02  0.00000000000E+00 0.  1.
          5    1    3    3  503    0  0.31016470664E+02  0.30243851274E+01 -0.94955338032E+01  0.32915399436E+02  0.47000000000E+01 0. -1.
         11    1    6    6    0    0  0.99847044755E+01  0.15374284759E+02  0.65678593912E+02  0.68189006838E+02  0.00000000000E+00 0. -1.
        -12    1    6    6    0    0 -0.85509634704E+02  0.58312175907E+02  0.91332891935E+02  0.13803588170E+03  0.00000000000E+00 0.  1.
         -5    1    5    5    0  501 -0.28267694078E+02 -0.39752177484E+02  0.19335254153E+03  0.19946577014E+03  0.47000000000E+01 0.  1.
<mgrwt>
<rscale>  2 0.20498521E+03</rscale>
<asrwt>0</asrwt>
<pdfrwt beam="2">  1        1 0.90935333E-02 0.20498521E+03</pdfrwt>
<pdfrwt beam="1">  1       -1 0.10978572E+00 0.20498521E+03</pdfrwt>
<totfact> 0.59409775E+02</totfact>
</mgrwt>
</event>
<event>
12    1  0.1093377E-001  0.1823441E+03  0.7546771E-02  0.1165554E+00
         -2   -1    0    0    0  501 -0.00000000000E+00  0.00000000000E+00  0.12460596026E+03  0.12460596026E+03  0.00000000000E+00 0.  1.
          2   -1    0    0  503    0  0.00000000000E+00 -0.00000000000E+00 -0.48060808805E+03  0.48060808805E+03  0.00000000000E+00 0. -1.
          6    2    1    2  503    0  0.34037459708E+02  0.49218280638E+02  0.23814716588E+02  0.18389590101E+03  0.17224858162E+03 0.  0.
         24    2    3    3    0    0  0.62960772248E+02  0.82237983634E+02 -0.47328928323E+01  0.13132295362E+03  0.80598840424E+02 0.  0.
         -6    2    1    2    0  501 -0.34037459708E+02 -0.49218280638E+02 -0.37981684439E+03  0.42131814730E+03  0.17224156917E+03 0.  0.
        -24    2    5    5    0    0  0.45582907015E+02 -0.38625135637E+02 -0.23450280141E+03  0.25521613465E+03  0.81080262723E+02 0.  0.
          2    1    4    4  502    0  0.66520513545E+02  0.22147424828E+02 -0.10329750125E+02  0.70867417664E+02  0.00000000000E+00 0. -1.
         -1    1    4    4    0  502 -0.35597412965E+01  0.60090558806E+02  0.55968572929E+01  0.60455535952E+02  0.00000000000E+00 0.  1.
          5    1    3    3  503    0 -0.28923312540E+02 -0.33019702996E+02  0.28547609420E+02  0.52572947396E+02  0.47000000000E+01 0. -1.
         13    1    6    6    0    0 -0.13534407301E+02  0.65920275622E+01 -0.10314850883E+03  0.10424130602E+03  0.00000000000E+00 0. -1.
        -14    1    6    6    0    0  0.59117314315E+02 -0.45217163199E+02 -0.13135429258E+03  0.15097482863E+03  0.00000000000E+00 0.  1.
         -5    1    5    5    0  501 -0.79620366722E+02 -0.10593145001E+02 -0.14531404298E+03  0.16610201264E+03  0.47000000000E+01 0.  1.
<mgrwt>
<rscale>  2 0.18234405E+03</rscale>
<asrwt>0</asrwt>
<pdfrwt beam="2">  1        2 0.73939707E-01 0.18234405E+03</pdfrwt>
<pdfrwt beam="1">  1       -2 0.19170147E-01 0.18234405E+03</pdfrwt>
<totfact> 0.14623197E+03</totfact>
</mgrwt>
</event>
<event>
12    1  0.1093377E-001  0.1842425E+03  0.7546771E-02  0.1163759E+00
         -2   -1    0    0    0  501 -0.00000000000E+00  0.00000000000E+00  0.14580816011E+02  0.14580816011E+02  0.00000000000E+00 0. -1.
          2   -1    0    0  503    0  0.00000000000E+00 -0.00000000000E+00 -0.31904653204E+04  0.31904653204E+04  0.00000000000E+00 0.  1.
          6    2    1    2  503    0  0.61272239851E+02 -0.19324897135E+02 -0.75435245797E+03  0.77650995686E+03  0.17260458635E+03 0.  0.
         24    2    3    3    0    0  0.88453269592E+02  0.64164099142E+01 -0.70169742798E+03  0.71173291270E+03  0.79494071293E+02 0.  0.
         -6    2    1    2    0  501 -0.61272239851E+02  0.19324897135E+02 -0.24215320464E+04  0.24285361795E+04  0.17275064268E+03 0.  0.
        -24    2    5    5    0    0 -0.55498108426E+02 -0.13872643631E+02 -0.23062889732E+04  0.23083759813E+04  0.79739282087E+02 0.  0.
          2    1    4    4  502    0  0.83237404324E+02  0.33785975881E+02 -0.57777151844E+03  0.58471350691E+03  0.00000000000E+00 0. -1.
         -1    1    4    4    0  502  0.52158652675E+01 -0.27369565967E+02 -0.12392590954E+03  0.12701940579E+03  0.00000000000E+00 0.  1.
          5    1    3    3  503    0 -0.27181029741E+02 -0.25741307050E+02 -0.52655029993E+02  0.64777044159E+02  0.47000000000E+01 0. -1.
         13    1    6    6    0    0  0.11244841961E+02  0.80336097448E+01 -0.97956608819E+02  0.98926652463E+02  0.00000000000E+00 0. -1.
        -14    1    6    6    0    0 -0.66742950387E+02 -0.21906253375E+02 -0.22083323644E+04  0.22094493289E+04  0.00000000000E+00 0.  1.
         -5    1    5    5    0  501 -0.57741314245E+01  0.33197540766E+02 -0.11524307321E+03  0.12016019820E+03  0.47000000000E+01 0.  1.
<mgrwt>
<rscale>  2 0.18424249E+03</rscale>
<asrwt>0</asrwt>
<pdfrwt beam="2">  1        2 0.49084099E+00 0.18424249E+03</pdfrwt>
<pdfrwt beam="1">  1       -2 0.22432017E-02 0.18424249E+03</pdfrwt>
<totfact> 0.10635125E+03</totfact>
</mgrwt>
</event>
<event>
12    1  0.1093377E-001  0.1857274E+03  0.7546771E-02  0.1162372E+00
          2   -1    0    0  503    0  0.00000000000E+00  0.00000000000E+00  0.77337128163E+03  0.77337128163E+03  0.00000000000E+00 0. -1.
         -2   -1    0    0    0  501 -0.00000000000E+00 -0.00000000000E+00 -0.46235124137E+02  0.46235124137E+02  0.00000000000E+00 0.  1.
          6    2    1    2  503    0  0.33841011925E+02 -0.53771873455E+02  0.28680596201E+03  0.34175760708E+03  0.17465386823E+03 0.  0.
         24    2    3    3    0    0  0.21010717776E+02 -0.35832676235E+02  0.49963721002E+02  0.10384424391E+03  0.81005077805E+02 0.  0.
         -6    2    1    2    0  501 -0.33841011925E+02  0.53771873455E+02  0.44033019548E+03  0.47784879869E+03  0.17439083948E+03 0.  0.
        -24    2    5    5    0    0 -0.79698837728E+02  0.35425844069E+02  0.20583724485E+03  0.23816452537E+03  0.82136926006E+02 0.  0.
          4    1    4    4  502    0  0.52284799244E+02 -0.24291833306E+02  0.33249704942E+02  0.66553258944E+02  0.00000000000E+00 0. -1.
         -3    1    4    4    0  502 -0.31274081468E+02 -0.11540842929E+02  0.16714016059E+02  0.37290984970E+02  0.00000000000E+00 0.  1.
          5    1    3    3  503    0  0.12830294150E+02 -0.17939197220E+02  0.23684224101E+03  0.23791336316E+03  0.47000000000E+01 0. -1.
         11    1    6    6    0    0  0.15852722244E+02  0.18696749131E+01  0.48432044308E+02  0.50994778190E+02  0.00000000000E+00 0. -1.
        -12    1    6    6    0    0 -0.95551559972E+02  0.33556169156E+02  0.15740520054E+03  0.18716974718E+03  0.00000000000E+00 0.  1.
         -5    1    5    5    0  501  0.45857825803E+02  0.18346029387E+02  0.23449295064E+03  0.23968427333E+03  0.47000000000E+01 0.  1.
<mgrwt>
<rscale>  2 0.18572740E+03</rscale>
<asrwt>0</asrwt>
<pdfrwt beam="1">  1        2 0.11898019E+00 0.18572740E+03</pdfrwt>
<pdfrwt beam="2">  1       -2 0.71130966E-02 0.18572740E+03</pdfrwt>
<totfact> 0.41495351E+03</totfact>
</mgrwt>
</event>
<event>
12    1  0.1093377E-001  0.2855564E+03  0.7546771E-02  0.1092692E+00
         -1   -1    0    0    0  501 -0.00000000000E+00  0.00000000000E+00  0.37898622862E+03  0.37898622862E+03  0.00000000000E+00 0.  1.
          1   -1    0    0  503    0  0.00000000000E+00 -0.00000000000E+00 -0.21933734669E+03  0.21933734669E+03  0.00000000000E+00 0. -1.
          6    2    1    2  503    0  0.21073951772E+03 -0.85193293871E+02  0.12108946495E+03  0.31009071817E+03  0.17269786717E+03 0.  0.
         24    2    3    3    0    0  0.17964913690E+03 -0.44761797559E+02  0.14925536649E+03  0.25163795362E+03  0.82262168485E+02 0.  0.
         -6    2    1    2    0  501 -0.21073951772E+03  0.85193293871E+02  0.38559416987E+02  0.28823285714E+03  0.17298066264E+03 0.  0.
        -24    2    5    5    0    0 -0.11133311920E+03  0.80573318458E+02 -0.40615579937E+02  0.16097820545E+03  0.73329627144E+02 0.  0.
          4    1    4    4  502    0  0.94730521019E+02  0.18724742671E+02  0.70343756197E+02  0.11946853827E+03  0.00000000000E+00 0. -1.
         -3    1    4    4    0  502  0.84918615884E+02 -0.63486540230E+02  0.78911610297E+02  0.13216941535E+03  0.00000000000E+00 0.  1.
          5    1    3    3  503    0  0.31090380817E+02 -0.40431496312E+02 -0.28165901547E+02  0.58452764548E+02  0.47000000000E+01 0. -1.
         11    1    6    6    0    0 -0.12043322179E+03  0.74462022729E+02 -0.28125270493E+02  0.14435991334E+03  0.00000000000E+00 0. -1.
        -12    1    6    6    0    0  0.91001025865E+01  0.61112957289E+01 -0.12490309444E+02  0.16618292108E+02  0.00000000000E+00 0.  1.
         -5    1    5    5    0  501 -0.99406398518E+02  0.46199754131E+01  0.79174996924E+02  0.12725465169E+03  0.47000000000E+01 0.  1.
<mgrwt>
<rscale>  2 0.28555640E+03</rscale>
<asrwt>0</asrwt>
<pdfrwt beam="2">  1        1 0.33744207E-01 0.28555640E+03</pdfrwt>
<pdfrwt beam="1">  1       -1 0.58305573E-01 0.28555640E+03</pdfrwt>
<totfact> 0.40227664E+02</totfact>
</mgrwt>
</event>
<event>
12    1  0.1093377E-001  0.1932396E+03  0.7546771E-02  0.1155571E+00
          3   -1    0    0  503    0  0.00000000000E+00  0.00000000000E+00  0.42994901286E+03  0.42994901286E+03  0.00000000000E+00 0.  1.
         -3   -1    0    0    0  501 -0.00000000000E+00 -0.00000000000E+00 -0.97469222304E+02  0.97469222304E+02  0.00000000000E+00 0. -1.
          6    2    1    2  503    0 -0.73028793054E+02  0.51381520071E+02  0.25293995978E+03  0.31804173361E+03  0.17087614182E+03 0.  0.
         24    2    3    3    0    0 -0.42961975276E+02 -0.35051026995E+02  0.92256759864E+02  0.13306665567E+03  0.78237582386E+02 0.  0.
         -6    2    1    2    0  501  0.73028793054E+02 -0.51381520071E+02  0.79539830777E+02  0.20937650156E+03  0.17186817479E+03 0.  0.
        -24    2    5    5    0    0  0.10645375832E+03 -0.51933718493E+02  0.24535862396E+02  0.14483922734E+03  0.79667304807E+02 0.  0.
          4    1    4    4  502    0 -0.61373613032E+02 -0.35303834801E+02  0.90004726229E+02  0.11451607691E+03  0.00000000000E+00 0. -1.
         -3    1    4    4    0  502  0.18411637757E+02  0.25280780591E+00  0.22520336353E+01  0.18550578756E+02  0.00000000000E+00 0.  1.
          5    1    3    3  503    0 -0.30066817778E+02  0.86432547066E+02  0.16068319991E+03  0.18497507794E+03  0.47000000000E+01 0. -1.
         13    1    6    6    0    0  0.69475714549E+02 -0.40494194046E+02 -0.22902352057E+02  0.83613230970E+02  0.00000000000E+00 0. -1.
        -14    1    6    6    0    0  0.36978043769E+02 -0.11439524447E+02  0.47438214452E+02  0.61225996366E+02  0.00000000000E+00 0.  1.
         -5    1    5    5    0  501 -0.33424965265E+02  0.55219842154E+00  0.55003968381E+02  0.64537274220E+02  0.47000000000E+01 0.  1.
<mgrwt>
<rscale>  2 0.19323959E+03</rscale>
<asrwt>0</asrwt>
<pdfrwt beam="1">  1        3 0.66146001E-01 0.19323959E+03</pdfrwt>
<pdfrwt beam="2">  1       -3 0.14995265E-01 0.19323959E+03</pdfrwt>
<totfact> 0.20301061E+02</totfact>
</mgrwt>
</event>
<event>
12    1  0.1093377E-001  0.1879669E+03  0.7546771E-02  0.1160308E+00
          2   -1    0    0  503    0  0.00000000000E+00  0.00000000000E+00  0.25456170345E+04  0.25456170345E+04  0.00000000000E+00 0. -1.
         -2   -1    0    0    0  501 -0.00000000000E+00 -0.00000000000E+00 -0.15668095886E+02  0.15668095886E+02  0.00000000000E+00 0.  1.
          6    2    1    2  503    0 -0.68886449517E+02 -0.20605110776E+02  0.16954155277E+04  0.17057618116E+04  0.17326174746E+03 0.  0.
         24    2    3    3    0    0 -0.24553028375E+02  0.49748076097E+02  0.10720038217E+04  0.10768108849E+04  0.85157300436E+02 0.  0.
         -6    2    1    2    0  501  0.68886449517E+02  0.20605110776E+02  0.83453341095E+03  0.85552331873E+03  0.17408107705E+03 0.  0.
        -24    2    5    5    0    0  0.11307534669E+02  0.42841671332E+02  0.71369996281E+03  0.71975657667E+03  0.81967210542E+02 0.  0.
          2    1    4    4  502    0 -0.43068428522E+02  0.21149195982E+02  0.28049619348E+03  0.28457036491E+03  0.00000000000E+00 0. -1.
         -1    1    4    4    0  502  0.18515400148E+02  0.28598880116E+02  0.79150762821E+03  0.79224051998E+03  0.00000000000E+00 0.  1.
          5    1    3    3  503    0 -0.44333421142E+02 -0.70353186873E+02  0.62341170597E+03  0.62895092676E+03  0.47000000000E+01 0. -1.
         13    1    6    6    0    0  0.45988002157E+02  0.14608209948E+02  0.34654096903E+03  0.34988417992E+03  0.00000000000E+00 0. -1.
        -14    1    6    6    0    0 -0.34680467489E+02  0.28233461385E+02  0.36715899377E+03  0.36987239675E+03  0.00000000000E+00 0.  1.
         -5    1    5    5    0  501  0.57578914849E+02 -0.22236560556E+02  0.12083344814E+03  0.13576674206E+03  0.47000000000E+01 0.  1.
<mgrwt>
<rscale>  2 0.18796690E+03</rscale>
<asrwt>0</asrwt>
<pdfrwt beam="1">  1        2 0.39163306E+00 0.18796690E+03</pdfrwt>
<pdfrwt beam="2">  1       -2 0.24104783E-02 0.18796690E+03</pdfrwt>
<totfact> 0.22381943E+03</totfact>
</mgrwt>
</event>
<event>
12    1  0.1093377E-001  0.2115312E+03  0.7546771E-02  0.1140359E+00
          2   -1    0    0  503    0  0.00000000000E+00  0.00000000000E+00  0.11138335575E+04  0.11138335575E+04  0.00000000000E+00 0.  1.
         -2   -1    0    0    0  501 -0.00000000000E+00 -0.00000000000E+00 -0.40445037843E+02  0.40445037843E+02  0.00000000000E+00 0. -1.
          6    2    1    2  503    0 -0.12020322471E+03  0.27988536571E+02  0.58215892998E+03  0.61914571029E+03  0.17088071105E+03 0.  0.
         24    2    3    3    0    0 -0.92464661914E+02  0.83360752452E+02  0.38242214131E+03  0.40997500273E+03  0.79586933233E+02 0.  0.
         -6    2    1    2    0  501  0.12020322471E+03 -0.27988536571E+02  0.49122958967E+03  0.53513288504E+03  0.17270935550E+03 0.  0.
        -24    2    5    5    0    0  0.10923106478E+03  0.14445050746E+01  0.19676251032E+03  0.23895786406E+03  0.80323491084E+02 0.  0.
          2    1    4    4  502    0  0.32117679388E+01  0.29880604037E+02  0.37502414338E+02  0.48058267053E+02  0.00000000000E+00 0. -1.
         -1    1    4    4    0  502 -0.95676429853E+02  0.53480148414E+02  0.34491972698E+03  0.36191673567E+03  0.00000000000E+00 0.  1.
          5    1    3    3  503    0 -0.27738562797E+02 -0.55372215880E+02  0.19973678867E+03  0.20917070757E+03  0.47000000000E+01 0. -1.
         13    1    6    6    0    0  0.88142408214E+02 -0.24139515792E+02  0.17985261543E+03  0.20173934576E+03  0.00000000000E+00 0. -1.
        -14    1    6    6    0    0  0.21088656565E+02  0.25584020866E+02  0.16909894887E+02  0.37218518300E+02  0.00000000000E+00 0.  1.
         -5    1    5    5    0  501  0.10972159932E+02 -0.29433041646E+02  0.29446707935E+03  0.29617502099E+03  0.47000000000E+01 0.  1.
<mgrwt>
<rscale>  2 0.21153118E+03</rscale>
<asrwt>0</asrwt>
<pdfrwt beam="1">  1        2 0.17135899E+00 0.21153118E+03</pdfrwt>
<pdfrwt beam="2">  1       -2 0.62223144E-02 0.21153118E+03</pdfrwt>
<totfact> 0.31220054E+03</totfact>
</mgrwt>
</event>
<event>
12    1  0.1093377E-001  0.2052184E+03  0.7546771E-02  0.1145409E+00
         -1   -1    0    0    0  501 -0.00000000000E+00  0.00000000000E+00  0.58396461828E+02  0.58396461828E+02  0.00000000000E+00 0. -1.
          1   -1    0    0  503    0  0.00000000000E+00 -0.00000000000E+00 -0.99276407348E+03  0.99276407348E+03  0.00000000000E+00 0.  1.
          6    2    1    2  503    0  0.22352235882E+02 -0.10784092322E+03 -0.19186989765E+03  0.28075674850E+03  0.17286123635E+03 0.  0.
         24    2    3    3    0    0 -0.15828634972E+02 -0.21509687945E+01 -0.11693713147E+03  0.14560810880E+03  0.85277525054E+02 0.  0.
         -6    2    1    2    0  501 -0.22352235882E+02  0.10784092322E+03 -0.74249771400E+03  0.77040378681E+03  0.17346426797E+03 0.  0.
        -24    2    5    5    0    0 -0.63168658213E+02  0.73685161026E+02 -0.31049812983E+03  0.33511270357E+03  0.80446585570E+02 0.  0.
          4    1    4    4  502    0 -0.40980393270E+02  0.17632972661E+02 -0.32170318995E+02  0.55002216153E+02  0.00000000000E+00 0. -1.
         -3    1    4    4    0  502  0.25151758298E+02 -0.19783941456E+02 -0.84766812471E+02  0.90605892642E+02  0.00000000000E+00 0.  1.
          5    1    3    3  503    0  0.38180870854E+02 -0.10568995443E+03 -0.74932766183E+02  0.13514863970E+03  0.47000000000E+01 0. -1.
         13    1    6    6    0    0 -0.20109746906E+02  0.33992772084E+02 -0.32896712869E+02  0.51401402628E+02  0.00000000000E+00 0. -1.
        -14    1    6    6    0    0 -0.43058911307E+02  0.39692388942E+02 -0.27760141696E+03  0.28371130094E+03  0.00000000000E+00 0.  1.
         -5    1    5    5    0  501  0.40816422331E+02  0.34155762196E+02 -0.43199958417E+03  0.43529108324E+03  0.47000000000E+01 0.  1.
<mgrwt>
<rscale>  2 0.20521839E+03</rscale>
<asrwt>0</asrwt>
<pdfrwt beam="2">  1        1 0.15273294E+00 0.20521839E+03</pdfrwt>
<pdfrwt beam="1">  1       -1 0.89840709E-02 0.20521839E+03</pdfrwt>
<totfact> 0.11682093E+03</totfact>
</mgrwt>
</event>
<event>
12    1  0.1093377E-001  0.2469914E+03  0.7546771E-02  0.1115221E+00
          1   -1    0    0  503    0  0.00000000000E+00  0.00000000000E+00  0.41964168505E+03  0.41964168505E+03  0.00000000000E+00 0.  1.
         -1   -1    0    0    0  501 -0.00000000000E+00 -0.00000000000E+00 -0.17496869410E+03  0.17496869410E+03  0.00000000000E+00 0. -1.
          6    2    1    2  503    0  0.59615400802E+02 -0.16762473277E+03  0.94649231913E-01  0.24706907531E+03  0.17143824534E+03 0.  0.
         24    2    3    3    0    0  0.58652745847E+02 -0.10327924426E+03  0.64923389112E+02  0.15560255623E+03  0.76748694861E+02 0.  0.
         -6    2    1    2    0  501 -0.59615400802E+02  0.16762473277E+03  0.24457834172E+03  0.34754130384E+03  0.17121432647E+03 0.  0.
        -24    2    5    5    0    0 -0.99758657117E+02  0.16274023924E+03  0.20891275137E+03  0.29341678408E+03  0.77541578233E+02 0.  0.
          2    1    4    4  502    0  0.39755803997E+02 -0.11083580355E+03  0.66427776412E+02  0.13519522469E+03  0.00000000000E+00 0. -1.
         -1    1    4    4    0  502  0.18896941849E+02  0.75565592920E+01 -0.15043873001E+01  0.20407331544E+02  0.00000000000E+00 0.  1.
          5    1    3    3  503    0  0.96265495560E+00 -0.64345488517E+02 -0.64828739880E+02  0.91466519074E+02  0.47000000000E+01 0. -1.
         13    1    6    6    0    0  0.83309804410E+01 -0.12936187249E+01  0.16015886792E+02  0.18099373311E+02  0.00000000000E+00 0. -1.
        -14    1    6    6    0    0 -0.10808963756E+03  0.16403385797E+03  0.19289686458E+03  0.27531741077E+03  0.00000000000E+00 0.  1.
         -5    1    5    5    0  501  0.40143256315E+02  0.48844935300E+01  0.35665590352E+02  0.54124519765E+02  0.47000000000E+01 0.  1.
<mgrwt>
<rscale>  2 0.24699138E+03</rscale>
<asrwt>0</asrwt>
<pdfrwt beam="1">  1        1 0.64560259E-01 0.24699138E+03</pdfrwt>
<pdfrwt beam="2">  1       -1 0.26918261E-01 0.24699138E+03</pdfrwt>
<totfact> 0.70242965E+02</totfact>
</mgrwt>
</event>
<event>
12    1  0.1093377E-001  0.1733951E+03  0.7546771E-02  0.1174353E+00
          1   -1    0    0  503    0  0.00000000000E+00  0.00000000000E+00  0.12977305612E+04  0.12977305612E+04  0.00000000000E+00 0.  1.
         -1   -1    0    0    0  501 -0.00000000000E+00 -0.00000000000E+00 -0.23237190512E+02  0.23237190512E+02  0.00000000000E+00 0. -1.
          6    2    1    2  503    0  0.18755650395E+02 -0.51944302584E+01  0.59684314964E+03  0.62116478348E+03  0.17101224060E+03 0.  0.
         24    2    3    3    0    0 -0.11560945521E+02  0.20654839188E+02  0.56428009793E+03  0.56949542064E+03  0.73162335759E+02 0.  0.
         -6    2    1    2    0  501 -0.18755650395E+02  0.51944302584E+01  0.67765022108E+03  0.69980296827E+03  0.17359612824E+03 0.  0.
        -24    2    5    5    0    0 -0.33398492387E+02 -0.61146510713E+02  0.40013730309E+03  0.41405650211E+03  0.80489567949E+02 0.  0.
          2    1    4    4  502    0 -0.72625717868E+01 -0.77829159787E+01  0.48571225011E+03  0.48582888823E+03  0.00000000000E+00 0. -1.
         -1    1    4    4    0  502 -0.42983737341E+01  0.28437755167E+02  0.78567847813E+02  0.83666532411E+02  0.00000000000E+00 0.  1.
          5    1    3    3  503    0  0.30316595916E+02 -0.25849269447E+02  0.32563051713E+02  0.51669362835E+02  0.47000000000E+01 0. -1.
         13    1    6    6    0    0 -0.19518548833E+02  0.12003075307E+02  0.38240314358E+02  0.44579919331E+02  0.00000000000E+00 0. -1.
        -14    1    6    6    0    0 -0.13879943554E+02 -0.73149586020E+02  0.36189698874E+03  0.36947658278E+03  0.00000000000E+00 0.  1.
         -5    1    5    5    0  501  0.14642841992E+02  0.66340940971E+02  0.27751291799E+03  0.28574646616E+03  0.47000000000E+01 0.  1.
<mgrwt>
<rscale>  2 0.17339510E+03</rscale>
<asrwt>0</asrwt>
<pdfrwt beam="1">  1        1 0.19965080E+00 0.17339510E+03</pdfrwt>
<pdfrwt beam="2">  1       -1 0.35749534E-02 0.17339510E+03</pdfrwt>
<totfact> 0.28326137E+03</totfact>
</mgrwt>
</event>
<event>
12    1  0.1093377E-001  0.4297911E+03  0.7546771E-02  0.1033926E+00
         -1   -1    0    0    0  501 -0.00000000000E+00  0.00000000000E+00  0.21023314224E+03  0.21023314224E+03  0.00000000000E+00 0.  1.
          1   -1    0    0  503    0  0.00000000000E+00 -0.00000000000E+00 -0.11626963277E+04  0.11626963277E+04  0.00000000000E+00 0. -1.
          6    2    1    2  503    0 -0.28165174593E+03  0.26800138033E+03 -0.81871168349E+03  0.92647613683E+03  0.19213736126E+03 0.  0.
         24    2    3    3    0    0 -0.11731752065E+03  0.12365964650E+03 -0.53985200379E+03  0.57203984540E+03  0.82062719319E+02 0.  0.
         -6    2    1    2    0  501  0.28165174593E+03 -0.26800138033E+03 -0.13375150202E+03  0.44645333316E+03  0.17400766807E+03 0.  0.
        -24    2    5    5    0    0  0.10916967978E+03 -0.19442284698E+03 -0.92743646749E+02  0.25444396384E+03  0.80137908059E+02 0.  0.
          4    1    4    4  502    0 -0.51685220244E+02  0.19580184503E+02 -0.89580509990E+02  0.10525879245E+03  0.00000000000E+00 0. -1.
         -3    1    4    4    0  502 -0.65632300402E+02  0.10407946200E+03 -0.45027149380E+03  0.46678105295E+03  0.00000000000E+00 0.  1.
          5    1    3    3  503    0 -0.16433422528E+03  0.14434173383E+03 -0.27885967970E+03  0.35443629143E+03  0.47000000000E+01 0. -1.
         13    1    6    6    0    0 -0.71159444225E+01 -0.27383924107E+02 -0.30515345926E+02  0.41613727320E+02  0.00000000000E+00 0. -1.
        -14    1    6    6    0    0  0.11628562421E+03 -0.16703892287E+03 -0.62228300823E+02  0.21283023652E+03  0.00000000000E+00 0.  1.
         -5    1    5    5    0  501  0.17248206615E+03 -0.73578533350E+02 -0.41007855272E+02  0.19200936932E+03  0.47000000000E+01 0.  1.
<mgrwt>
<rscale>  2 0.42979105E+03</rscale>
<asrwt>0</asrwt>
<pdfrwt beam="2">  1        1 0.17887636E+00 0.42979105E+03</pdfrwt>
<pdfrwt beam="1">  1       -1 0.32343559E-01 0.42979105E+03</pdfrwt>
<totfact> 0.10736479E+02</totfact>
</mgrwt>
</event>
<event>
12    1  0.1093377E-001  0.2092004E+03  0.7546771E-02  0.1142201E+00
          2   -1    0    0  503    0  0.00000000000E+00  0.00000000000E+00  0.86379625011E+03  0.86379625011E+03  0.00000000000E+00 0.  1.
         -2   -1    0    0    0  501 -0.00000000000E+00 -0.00000000000E+00 -0.55654933093E+02  0.55654933093E+02  0.00000000000E+00 0. -1.
          6    2    1    2  503    0 -0.11764702792E+03 -0.14830990802E+02  0.54036390318E+03  0.57917137025E+03  0.17142213039E+03 0.  0.
         24    2    3    3    0    0 -0.39018689405E+02  0.39993682506E+01  0.44787595946E+03  0.45623598977E+03  0.77588338227E+02 0.  0.
         -6    2    1    2    0  501  0.11764702792E+03  0.14830990802E+02  0.26777741384E+03  0.34027981295E+03  0.17327673322E+03 0.  0.
        -24    2    5    5    0    0  0.91060199691E+02 -0.29329371548E+02  0.25911617018E+03  0.28780025332E+03  0.80843207222E+02 0.  0.
          4    1    4    4  502    0 -0.24278863766E+02  0.40542439601E+02  0.26228711237E+03  0.26651019108E+03  0.00000000000E+00 0. -1.
         -3    1    4    4    0  502 -0.14739825640E+02 -0.36543071350E+02  0.18558884709E+03  0.18972579869E+03  0.00000000000E+00 0.  1.
          5    1    3    3  503    0 -0.78628338517E+02 -0.18830359052E+02  0.92487943722E+02  0.12293538048E+03  0.47000000000E+01 0. -1.
         13    1    6    6    0    0  0.81350726083E+02 -0.31553572620E+02  0.12022174395E+03  0.14854910400E+03  0.00000000000E+00 0. -1.
        -14    1    6    6    0    0  0.97094736084E+01  0.22242010719E+01  0.13889442623E+03  0.13925114932E+03  0.00000000000E+00 0.  1.
         -5    1    5    5    0  501  0.26586828231E+02  0.44160362350E+02  0.86612436517E+01  0.52479559639E+02  0.47000000000E+01 0.  1.
<mgrwt>
<rscale>  2 0.20920038E+03</rscale>
<asrwt>0</asrwt>
<pdfrwt beam="1">  1        2 0.13289172E+00 0.20920038E+03</pdfrwt>
<pdfrwt beam="2">  1       -2 0.85622980E-02 0.20920038E+03</pdfrwt>
<totfact> 0.27093656E+03</totfact>
</mgrwt>
</event>
<event>
12    1  0.1093377E-001  0.2793226E+03  0.7546771E-02  0.1096059E+00
          1   -1    0    0  503    0  0.00000000000E+00  0.00000000000E+00  0.28258690256E+04  0.28258690256E+04  0.00000000000E+00 0. -1.
         -1   -1    0    0    0  501 -0.00000000000E+00 -0.00000000000E+00 -0.32768670903E+02  0.32768670903E+02  0.00000000000E+00 0.  1.
          6    2    1    2  503    0 -0.98129766044E+01 -0.21800784602E+03  0.19600835111E+04  0.19797663230E+04  0.17298441543E+03 0.  0.
         24    2    3    3    0    0 -0.26866896483E+02 -0.54882092218E+02  0.47438506863E+03  0.48503464155E+03  0.80520407301E+02 0.  0.
         -6    2    1    2    0  501  0.98129766044E+01  0.21800784602E+03  0.83301684367E+03  0.87887137352E+03  0.17571031249E+03 0.  0.
        -24    2    5    5    0    0  0.28386124574E+02  0.21722688362E+03  0.82368938568E+03  0.85754854068E+03  0.94509282668E+02 0.  0.
          4    1    4    4  502    0  0.15264173119E+02  0.76415745004E+01  0.19202649598E+03  0.19278372286E+03  0.00000000000E+00 0. -1.
         -3    1    4    4    0  502 -0.42131069603E+02 -0.62523666718E+02  0.28235857265E+03  0.29225091869E+03  0.00000000000E+00 0.  1.
          5    1    3    3  503    0  0.17053919879E+02 -0.16312575381E+03  0.14856984424E+04  0.14947316815E+04  0.47000000000E+01 0. -1.
         11    1    6    6    0    0  0.15384101930E+02  0.18549902131E+03  0.52742308296E+03  0.55930462714E+03  0.00000000000E+00 0. -1.
        -12    1    6    6    0    0  0.13002022644E+02  0.31727862309E+02  0.29626630271E+03  0.29824391354E+03  0.00000000000E+00 0.  1.
         -5    1    5    5    0  501 -0.18573147970E+02  0.78096240752E+00  0.93274579970E+01  0.21322832844E+02  0.47000000000E+01 0.  1.
<mgrwt>
<rscale>  2 0.27932263E+03</rscale>
<asrwt>0</asrwt>
<pdfrwt beam="1">  1        1 0.43474889E+00 0.27932263E+03</pdfrwt>
<pdfrwt beam="2">  1       -1 0.50413362E-02 0.27932263E+03</pdfrwt>
<totfact> 0.16568086E+02</totfact>
</mgrwt>
</event>
<event>
12    1  0.1093377E-001  0.1916526E+03  0.7546771E-02  0.1156979E+00
         -1   -1    0    0    0  501 -0.00000000000E+00  0.00000000000E+00  0.19298178790E+03  0.19298178790E+03  0.00000000000E+00 0. -1.
          1   -1    0    0  503    0  0.00000000000E+00 -0.00000000000E+00 -0.19285491242E+03  0.19285491242E+03  0.00000000000E+00 0.  1.
          6    2    1    2  503    0 -0.58215974687E+01 -0.89520066945E+02 -0.21728280065E+02  0.18950256498E+03  0.16550338545E+03 0.  0.
         24    2    3    3    0    0  0.59703012584E+02 -0.55084735960E+02 -0.18611553437E+02  0.11526598015E+03  0.79630888544E+02 0.  0.
         -6    2    1    2    0  501  0.58215974687E+01  0.89520066945E+02  0.21855155548E+02  0.19633413534E+03  0.17326774511E+03 0.  0.
        -24    2    5    5    0    0  0.61438322160E+02  0.19880187394E+02  0.69611485905E+01  0.10585289788E+03  0.83585220703E+02 0.  0.
          2    1    4    4  502    0  0.33675324190E+01 -0.48679723298E+02  0.12801141048E+02  0.50447249153E+02  0.00000000000E+00 0. -1.
         -1    1    4    4    0  502  0.56335480165E+02 -0.64050126615E+01 -0.31412694485E+02  0.64818730992E+02  0.00000000000E+00 0.  1.
          5    1    3    3  503    0 -0.65524610053E+02 -0.34435330985E+02 -0.31167266279E+01  0.74236584832E+02  0.47000000000E+01 0. -1.
         11    1    6    6    0    0  0.31895267487E+02  0.17732777872E+02  0.44810622960E+02  0.57790582530E+02  0.00000000000E+00 0. -1.
        -12    1    6    6    0    0  0.29543054673E+02  0.21474095220E+01 -0.37849474369E+02  0.48062315353E+02  0.00000000000E+00 0.  1.
         -5    1    5    5    0  501 -0.55616724691E+02  0.69639879550E+02  0.14894006957E+02  0.90481237461E+02  0.47000000000E+01 0.  1.
<mgrwt>
<rscale>  2 0.19165265E+03</rscale>
<asrwt>0</asrwt>
<pdfrwt beam="2">  1        1 0.29669987E-01 0.19165265E+03</pdfrwt>
<pdfrwt beam="1">  1       -1 0.29689506E-01 0.19165265E+03</pdfrwt>
<totfact> 0.15831030E+03</totfact>
</mgrwt>
</event>
<event>
12    1  0.1093377E-001  0.2999342E+03  0.7546771E-02  0.1085274E+00
         -2   -1    0    0    0  501 -0.00000000000E+00  0.00000000000E+00  0.99917617764E+02  0.99917617764E+02  0.00000000000E+00 0. -1.
          2   -1    0    0  503    0  0.00000000000E+00 -0.00000000000E+00 -0.18983196131E+04  0.18983196131E+04  0.00000000000E+00 0.  1.
          6    2    1    2  503    0 -0.23790012133E+03  0.61956929165E+02 -0.16245247854E+04  0.16520966862E+04  0.17293800428E+03 0.  0.
         24    2    3    3    0    0 -0.23145327255E+03  0.73749719165E+02 -0.16145571644E+04  0.16347163748E+04  0.80580087197E+02 0.  0.
         -6    2    1    2    0  501  0.23790012133E+03 -0.61956929165E+02 -0.17387720995E+03  0.34614054469E+03  0.17071866840E+03 0.  0.
        -24    2    5    5    0    0  0.22235821309E+03 -0.69932336794E+02 -0.92422771998E+02  0.26270150406E+03  0.78335207902E+02 0.  0.
          4    1    4    4  502    0 -0.71248897108E+02 -0.12573092566E+02 -0.54621355864E+03  0.55098433701E+03  0.00000000000E+00 0. -1.
         -3    1    4    4    0  502 -0.16020437544E+03  0.86322811731E+02 -0.10683436058E+04  0.10837320378E+04  0.00000000000E+00 0.  1.
          5    1    3    3  503    0 -0.64468487851E+01 -0.11792790000E+02 -0.99676209677E+01  0.17380311361E+02  0.47000000000E+01 0. -1.
         11    1    6    6    0    0  0.12736065787E+03 -0.77390676604E+02 -0.41709209735E+02  0.15475694548E+03  0.00000000000E+00 0. -1.
        -12    1    6    6    0    0  0.94997555222E+02  0.74583398104E+01 -0.50713562263E+02  0.10794455859E+03  0.00000000000E+00 0.  1.
         -5    1    5    5    0  501  0.15541908244E+02  0.79754076287E+01 -0.81454437955E+02  0.83439040630E+02  0.47000000000E+01 0.  1.
<mgrwt>
<rscale>  2 0.29993421E+03</rscale>
<asrwt>0</asrwt>
<pdfrwt beam="2">  1        2 0.29204915E+00 0.29993421E+03</pdfrwt>
<pdfrwt beam="1">  1       -2 0.15371942E-01 0.29993421E+03</pdfrwt>
<totfact> 0.27580660E+02</totfact>
</mgrwt>
</event>
<event>
12    1  0.1093377E-001  0.2045937E+03  0.7546771E-02  0.1145920E+00
          1   -1    0    0  503    0  0.00000000000E+00  0.00000000000E+00  0.16824927480E+04  0.16824927480E+04  0.00000000000E+00 0. -1.
         -1   -1    0    0    0  501 -0.00000000000E+00 -0.00000000000E+00 -0.63763592320E+02  0.63763592320E+02  0.00000000000E+00 0.  1.
          6    2    1    2  503    0  0.61555619819E+02  0.79950603598E+02  0.13411897309E+03  0.24817352562E+03  0.18281413110E+03 0.  0.
         24    2    3    3    0    0  0.78812561740E+02  0.10633669995E+02  0.21201997873E+02  0.11447620844E+03  0.79566216196E+02 0.  0.
         -6    2    1    2    0  501 -0.61555619819E+02 -0.79950603598E+02  0.14846101826E+04  0.14980828147E+04  0.17321527675E+03 0.  0.
        -24    2    5    5    0    0 -0.61406588223E+02 -0.12097257692E+03  0.12385135927E+04  0.12485463523E+04  0.80913170275E+02 0.  0.
          2    1    4    4  502    0  0.89934855910E+02  0.12894028394E+02  0.34328388990E+02  0.97123491321E+02  0.00000000000E+00 0. -1.
         -1    1    4    4    0  502 -0.11122294170E+02 -0.22603583987E+01 -0.13126391117E+02  0.17352717120E+02  0.00000000000E+00 0.  1.
          5    1    3    3  503    0 -0.17256941922E+02  0.69316933603E+02  0.11291697521E+03  0.13369731717E+03  0.47000000000E+01 0. -1.
         11    1    6    6    0    0  0.76067129738E+01 -0.61783258355E+02  0.36018471285E+03  0.36552436371E+03  0.00000000000E+00 0. -1.
        -12    1    6    6    0    0 -0.69013301197E+02 -0.59189318565E+02  0.87832887983E+03  0.88302198858E+03  0.00000000000E+00 0.  1.
         -5    1    5    5    0  501 -0.14903159534E+00  0.41021973322E+02  0.24609658994E+03  0.24953646243E+03  0.47000000000E+01 0.  1.
<mgrwt>
<rscale>  2 0.20459374E+03</rscale>
<asrwt>0</asrwt>
<pdfrwt beam="1">  1        1 0.25884500E+00 0.20459374E+03</pdfrwt>
<pdfrwt beam="2">  1       -1 0.98097847E-02 0.20459374E+03</pdfrwt>
<totfact> 0.34600529E+02</totfact>
</mgrwt>
</event>
<event>
12    1  0.1198222E-001  0.2506151E+03  0.7546771E-02  0.1112917E+00
         -1   -1    0    0    0  501 -0.00000000000E+00  0.00000000000E+00  0.57246829435E+02  0.57246829435E+02  0.00000000000E+00 0. -1.
          1   -1    0    0  503    0  0.00000000000E+00 -0.00000000000E+00 -0.10976492721E+04  0.10976492721E+04  0.00000000000E+00 0.  1.
          6    2    1    2  503    0  0.17955602124E+03  0.15505793597E+02 -0.53134284353E+03  0.58723520872E+03  0.17331814271E+03 0.  0.
         24    2    3    3    0    0  0.15291661564E+03  0.34063039759E+02 -0.52491459985E+03  0.55380705244E+03  0.81382628205E+02 0.  0.
         -6    2    1    2    0  501 -0.17955602124E+03 -0.15505793597E+02 -0.50905959918E+03  0.56766089286E+03  0.17497548218E+03 0.  0.
        -24    2    5    5    0    0 -0.99673728624E+02 -0.64113447592E+02 -0.39311161253E+03  0.41863099549E+03  0.81668746413E+02 0.  0.
          2    1    4    4  502    0  0.51920095657E+02  0.52519302980E+02 -0.22388133569E+03  0.23574737748E+03  0.00000000000E+00 0. -1.
         -1    1    4    4    0  502  0.10099651999E+03 -0.18456263221E+02 -0.30103326416E+03  0.31805967495E+03  0.00000000000E+00 0.  1.
          5    1    3    3  503    0  0.26639405599E+02 -0.18557246162E+02 -0.64282436755E+01  0.33428156284E+02  0.47000000000E+01 0. -1.
         13    1    6    6    0    0 -0.65847924755E+02 -0.39570743889E+02 -0.12099098380E+03  0.14331996067E+03  0.00000000000E+00 0. -1.
        -14    1    6    6    0    0 -0.33825803869E+02 -0.24542703704E+02 -0.27212062873E+03  0.27531103482E+03  0.00000000000E+00 0.  1.
         -5    1    5    5    0  501 -0.79882292618E+02  0.48607653995E+02 -0.11594798665E+03  0.14902989737E+03  0.47000000000E+01 0.  1.
<mgrwt>
<rscale>  2 0.25061510E+03</rscale>
<asrwt>0</asrwt>
<pdfrwt beam="2">  1        1 0.16886912E+00 0.25061510E+03</pdfrwt>
<pdfrwt beam="1">  1       -1 0.88072043E-02 0.25061510E+03</pdfrwt>
<totfact> 0.10077393E+03</totfact>
</mgrwt>
</event>
<event>
12    1  0.1093377E-001  0.1840224E+03  0.7546771E-02  0.1163966E+00
          2   -1    0    0  503    0  0.00000000000E+00  0.00000000000E+00  0.56119358877E+02  0.56119358877E+02  0.00000000000E+00 0. -1.
         -2   -1    0    0    0  501 -0.00000000000E+00 -0.00000000000E+00 -0.60493656515E+03  0.60493656515E+03  0.00000000000E+00 0.  1.
          6    2    1    2  503    0  0.21160917176E+02 -0.64441253978E+02 -0.25614458375E+03  0.31463361940E+03  0.16965791182E+03 0.  0.
         24    2    3    3    0    0 -0.18307386441E+02 -0.98413964810E+02 -0.20805495646E+03  0.24359423368E+03  0.77658334418E+02 0.  0.
         -6    2    1    2    0  501 -0.21160917176E+02  0.64441253978E+02 -0.29267262253E+03  0.34642230463E+03  0.17248388196E+03 0.  0.
        -24    2    5    5    0    0  0.24608965670E+02  0.97241575652E+02 -0.18917062116E+03  0.22850073084E+03  0.79784302073E+02 0.  0.
          4    1    4    4  502    0 -0.99994323068E+01 -0.98806483768E+02 -0.12278883580E+03  0.15792342473E+03  0.00000000000E+00 0. -1.
         -3    1    4    4    0  502 -0.83079541347E+01  0.39251895778E+00 -0.85266120664E+02  0.85670808950E+02  0.00000000000E+00 0.  1.
          5    1    3    3  503    0  0.39468303617E+02  0.33972710832E+02 -0.48089627290E+02  0.71039385728E+02  0.47000000000E+01 0. -1.
         11    1    6    6    0    0  0.43477885745E+02  0.33107139803E+02 -0.49842623131E+02  0.73964155747E+02  0.00000000000E+00 0. -1.
        -12    1    6    6    0    0 -0.18868920075E+02  0.64134435849E+02 -0.13932799803E+03  0.15453657509E+03  0.00000000000E+00 0.  1.
         -5    1    5    5    0  501 -0.45769882846E+02 -0.32800321674E+02 -0.10350200136E+03  0.11792157379E+03  0.47000000000E+01 0.  1.
<mgrwt>
<rscale>  2 0.18402244E+03</rscale>
<asrwt>0</asrwt>
<pdfrwt beam="1">  1        2 0.86337472E-02 0.18402244E+03</pdfrwt>
<pdfrwt beam="2">  1       -2 0.93067168E-01 0.18402244E+03</pdfrwt>
<totfact> 0.77238989E+02</totfact>
</mgrwt>
</event>
<event>
12    1  0.1093377E-001  0.2700481E+03  0.7546771E-02  0.1101252E+00
         -2   -1    0    0    0  501 -0.00000000000E+00  0.00000000000E+00  0.18754814647E+03  0.18754814647E+03  0.00000000000E+00 0. -1.
          2   -1    0    0  503    0  0.00000000000E+00 -0.00000000000E+00 -0.39730403657E+03  0.39730403657E+03  0.00000000000E+00 0.  1.
          6    2    1    2  503    0  0.14159447007E+03  0.15143979035E+03 -0.14760620172E+03  0.30785575893E+03  0.17321828271E+03 0.  0.
         24    2    3    3    0    0  0.15649084941E+03  0.15110627251E+03 -0.16552538905E+03  0.28408181046E+03  0.77339052694E+02 0.  0.
         -6    2    1    2    0  501 -0.14159447007E+03 -0.15143979035E+03 -0.62149688379E+02  0.27699642410E+03  0.17286246309E+03 0.  0.
        -24    2    5    5    0    0 -0.78765975018E+02 -0.16816253914E+02  0.55459711260E+01  0.11366942490E+03  0.80019467290E+02 0.  0.
          4    1    4    4  502    0  0.39946933783E+02  0.21325159012E+01 -0.16459545045E+02  0.43257620899E+02  0.00000000000E+00 0. -1.
         -3    1    4    4    0  502  0.11654391563E+03  0.14897375660E+03 -0.14906584401E+03  0.24082418956E+03  0.00000000000E+00 0.  1.
          5    1    3    3  503    0 -0.14896379339E+02  0.33351784067E+00  0.17919187329E+02  0.23773948475E+02  0.47000000000E+01 0. -1.
         11    1    6    6    0    0 -0.27633850628E+02 -0.28760221728E+02  0.35347043241E+02  0.53293466018E+02  0.00000000000E+00 0. -1.
        -12    1    6    6    0    0 -0.51132124390E+02  0.11943967815E+02 -0.29801072115E+02  0.60375958883E+02  0.00000000000E+00 0.  1.
         -5    1    5    5    0  501 -0.62828495056E+02 -0.13462353643E+03 -0.67695659505E+02  0.16332699920E+03  0.47000000000E+01 0.  1.
<mgrwt>
<rscale>  2 0.27004811E+03</rscale>
<asrwt>0</asrwt>
<pdfrwt beam="2">  1        2 0.61123698E-01 0.27004811E+03</pdfrwt>
<pdfrwt beam="1">  1       -2 0.28853561E-01 0.27004811E+03</pdfrwt>
<totfact> 0.88504603E+02</totfact>
</mgrwt>
</event>
<event>
12    1  0.1093377E-001  0.1799555E+03  0.7546771E-02  0.1167846E+00
          1   -1    0    0  503    0  0.00000000000E+00  0.00000000000E+00  0.23568406086E+03  0.23568406086E+03  0.00000000000E+00 0. -1.
         -1   -1    0    0    0  501 -0.00000000000E+00 -0.00000000000E+00 -0.13910631627E+03  0.13910631627E+03  0.00000000000E+00 0.  1.
          6    2    1    2  503    0  0.31765782471E+01 -0.50809647539E+02  0.69222224878E+02  0.19359680506E+03  0.17348283944E+03 0.  0.
         24    2    3    3    0    0 -0.15340419237E+02 -0.18736857033E+02 -0.32617727921E+02  0.85130178521E+02  0.74811983307E+02 0.  0.
         -6    2    1    2    0  501 -0.31765782471E+01  0.50809647539E+02  0.27355519717E+02  0.18119357207E+03  0.17172965722E+03 0.  0.
        -24    2    5    5    0    0 -0.11841416559E+02  0.88299794524E+02  0.54199319492E+02  0.13404200656E+03  0.84217696656E+02 0.  0.
          4    1    4    4  502    0  0.18172199283E+02  0.17427068090E+02 -0.24557924424E+02  0.35171340335E+02  0.00000000000E+00 0. -1.
         -3    1    4    4    0  502 -0.33512618521E+02 -0.36163925123E+02 -0.80598034972E+01  0.49958838185E+02  0.00000000000E+00 0.  1.
          5    1    3    3  503    0  0.18516997484E+02 -0.32072790506E+02  0.10183995280E+03  0.10846662654E+03  0.47000000000E+01 0. -1.
         11    1    6    6    0    0 -0.26169381067E+02  0.18020358431E+02 -0.14317048727E+02  0.34850361657E+02  0.00000000000E+00 0. -1.
        -12    1    6    6    0    0  0.14327964508E+02  0.70279436093E+02  0.68516368219E+02  0.99191644902E+02  0.00000000000E+00 0.  1.
         -5    1    5    5    0  501  0.86648383123E+01 -0.37490146984E+02 -0.26843799775E+02  0.47151565512E+02  0.47000000000E+01 0.  1.
<mgrwt>
<rscale>  2 0.17995550E+03</rscale>
<asrwt>0</asrwt>
<pdfrwt beam="1">  1        1 0.36259086E-01 0.17995550E+03</pdfrwt>
<pdfrwt beam="2">  1       -1 0.21400972E-01 0.17995550E+03</pdfrwt>
<totfact> 0.21152193E+03</totfact>
</mgrwt>
</event>
<event>
12    1  0.1093377E-001  0.1740610E+03  0.7546771E-02  0.1173678E+00
         -2   -1    0    0    0  501 -0.00000000000E+00  0.00000000000E+00  0.17553511342E+03  0.17553511342E+03  0.00000000000E+00 0.  1.
          2   -1    0    0  503    0  0.00000000000E+00 -0.00000000000E+00 -0.17353033556E+03  0.17353033556E+03  0.00000000000E+00 0. -1.
          6    2    1    2  503    0 -0.53028886742E+01 -0.14579769687E+02  0.13783305136E+02  0.17435981880E+03  0.17312041070E+03 0.  0.
         24    2    3    3    0    0 -0.58158594379E+02 -0.47423307775E+02 -0.23414050959E+01  0.10990425349E+03  0.80262510160E+02 0.  0.
         -6    2    1    2    0  501  0.53028886742E+01  0.14579769687E+02 -0.11778527276E+02  0.17470563017E+03  0.17361633908E+03 0.  0.
        -24    2    5    5    0    0  0.58998653996E+02  0.25198210064E+02 -0.42671200504E+02  0.11167838409E+03  0.80842063034E+02 0.  0.
          2    1    4    4  502    0 -0.73887391698E+02 -0.31596047706E+02 -0.18367409589E+02  0.82431902911E+02  0.00000000000E+00 0. -1.
         -1    1    4    4    0  502  0.15728797319E+02 -0.15827260069E+02  0.16026004493E+02  0.27472350580E+02  0.00000000000E+00 0.  1.
          5    1    3    3  503    0  0.52855705705E+02  0.32843538088E+02  0.16124710232E+02  0.64455565312E+02  0.47000000000E+01 0. -1.
         11    1    6    6    0    0  0.67499238249E+02  0.45196069232E+02 -0.36730721144E+02  0.89151431363E+02  0.00000000000E+00 0. -1.
        -12    1    6    6    0    0 -0.85005842535E+01 -0.19997859168E+02 -0.59404793605E+01  0.22526952723E+02  0.00000000000E+00 0.  1.
         -5    1    5    5    0  501 -0.53695765321E+02 -0.10618440377E+02  0.30892673229E+02  0.63027246082E+02  0.47000000000E+01 0.  1.
<mgrwt>
<rscale>  2 0.17406098E+03</rscale>
<asrwt>0</asrwt>
<pdfrwt beam="2">  1        2 0.26696975E-01 0.17406098E+03</pdfrwt>
<pdfrwt beam="1">  1       -2 0.27005402E-01 0.17406098E+03</pdfrwt>
<totfact> 0.24234970E+03</totfact>
</mgrwt>
</event>
<event>
12    1  0.1093377E-001  0.1743324E+03  0.7546771E-02  0.1173404E+00
         -2   -1    0    0    0  501 -0.00000000000E+00  0.00000000000E+00  0.71198887420E+02  0.71198887420E+02  0.00000000000E+00 0. -1.
          2   -1    0    0  503    0  0.00000000000E+00 -0.00000000000E+00 -0.86585142319E+03  0.86585142319E+03  0.00000000000E+00 0.  1.
          6    2    1    2  503    0 -0.80075234485E+01 -0.28183270919E+02 -0.73246127968E+03  0.75324145918E+03  0.17324766204E+03 0.  0.
         24    2    3    3    0    0 -0.43834587805E+02  0.14256434157E+02 -0.62911245131E+03  0.63582009216E+03  0.79749584293E+02 0.  0.
         -6    2    1    2    0  501  0.80075234485E+01  0.28183270919E+02 -0.62191256089E+02  0.18380885143E+03  0.17046854355E+03 0.  0.
        -24    2    5    5    0    0 -0.89569889207E+01  0.82849336722E+02 -0.42310648812E+02  0.12303466303E+03  0.80019354271E+02 0.  0.
          2    1    4    4  502    0  0.91597520037E+01 -0.71436381769E+01 -0.38232025309E+03  0.38249667782E+03  0.00000000000E+00 0. -1.
         -1    1    4    4    0  502 -0.52994339809E+02  0.21400072334E+02 -0.24679219823E+03  0.25332341434E+03  0.00000000000E+00 0.  1.
          5    1    3    3  503    0  0.35827064356E+02 -0.42439705076E+02 -0.10334882837E+03  0.11742136702E+03  0.47000000000E+01 0. -1.
         11    1    6    6    0    0 -0.38115055819E+02  0.18349670005E+02 -0.28249197533E+02  0.50867327732E+02  0.00000000000E+00 0. -1.
        -12    1    6    6    0    0  0.29158066898E+02  0.64499666717E+02 -0.14061451279E+02  0.72167335297E+02  0.00000000000E+00 0.  1.
         -5    1    5    5    0  501  0.16964512369E+02 -0.54666065803E+02 -0.19880607277E+02  0.60774188403E+02  0.47000000000E+01 0.  1.
<mgrwt>
<rscale>  2 0.17433245E+03</rscale>
<asrwt>0</asrwt>
<pdfrwt beam="2">  1        2 0.13320790E+00 0.17433245E+03</pdfrwt>
<pdfrwt beam="1">  1       -2 0.10953676E-01 0.17433245E+03</pdfrwt>
<totfact> 0.18249873E+03</totfact>
</mgrwt>
</event>
<event>
12    1  0.1093377E-001  0.2353220E+03  0.7546771E-02  0.1122949E+00
         -2   -1    0    0    0  501 -0.00000000000E+00  0.00000000000E+00  0.15057994959E+03  0.15057994959E+03  0.00000000000E+00 0.  1.
          2   -1    0    0  503    0  0.00000000000E+00 -0.00000000000E+00 -0.36996598385E+03  0.36996598385E+03  0.00000000000E+00 0. -1.
          6    2    1    2  503    0 -0.15559530224E+03  0.33767977037E+02 -0.12935166583E+03  0.26770396924E+03  0.17199821901E+03 0.  0.
         24    2    3    3    0    0 -0.45869270962E+02 -0.23566954887E+01 -0.11988285192E+03  0.15170163158E+03  0.80820435587E+02 0.  0.
         -6    2    1    2    0  501  0.15559530224E+03 -0.33767977037E+02 -0.90034368434E+02  0.25284196420E+03  0.17456430622E+03 0.  0.
        -24    2    5    5    0    0  0.99585217100E+02 -0.84487289972E+02 -0.34347729903E+02  0.15885967835E+03  0.83673850304E+02 0.  0.
          4    1    4    4  502    0 -0.43360508732E+02 -0.35738067983E+02 -0.54663453311E+02  0.78392833528E+02  0.00000000000E+00 0. -1.
         -3    1    4    4    0  502 -0.25087622303E+01  0.33381372494E+02 -0.65219398609E+02  0.73308798056E+02  0.00000000000E+00 0.  1.
          5    1    3    3  503    0 -0.10972603128E+03  0.36124672526E+02 -0.94688139126E+01  0.11600233766E+03  0.47000000000E+01 0. -1.
         11    1    6    6    0    0  0.53597756187E+02 -0.66914428291E+00 -0.33579588244E+02  0.63251529380E+02  0.00000000000E+00 0. -1.
        -12    1    6    6    0    0  0.45987460914E+02 -0.83818145689E+02 -0.76814165905E+00  0.95608148971E+02  0.00000000000E+00 0.  1.
         -5    1    5    5    0  501  0.56010085142E+02  0.50719312935E+02 -0.55686638531E+02  0.93982285847E+02  0.47000000000E+01 0.  1.
<mgrwt>
<rscale>  2 0.23532197E+03</rscale>
<asrwt>0</asrwt>
<pdfrwt beam="2">  1        2 0.56917844E-01 0.23532197E+03</pdfrwt>
<pdfrwt beam="1">  1       -2 0.23166146E-01 0.23532197E+03</pdfrwt>
<totfact> 0.14110792E+03</totfact>
</mgrwt>
</event>
<event>
12    1  0.1093377E-001  0.1938574E+03  0.7546771E-02  0.1155027E+00
         -2   -1    0    0    0  501 -0.00000000000E+00  0.00000000000E+00  0.34667644591E+02  0.34667644591E+02  0.00000000000E+00 0. -1.
          2   -1    0    0  503    0  0.00000000000E+00 -0.00000000000E+00 -0.12496041466E+04  0.12496041466E+04  0.00000000000E+00 0.  1.
          6    2    1    2  503    0 -0.87994286223E+02 -0.95635824924E+01 -0.84025794377E+03  0.86225212108E+03  0.17207803962E+03 0.  0.
         24    2    3    3    0    0 -0.51461014682E+01  0.39489007460E+02 -0.52345165354E+03  0.53110518417E+03  0.80530857341E+02 0.  0.
         -6    2    1    2    0  501  0.87994286223E+02  0.95635824924E+01 -0.37467855828E+03  0.42201967016E+03  0.17286446553E+03 0.  0.
        -24    2    5    5    0    0  0.70493663134E+02  0.77881318303E+02 -0.24059618561E+03  0.27044870494E+03  0.64970156155E+02 0.  0.
          2    1    4    4  502    0  0.26836234347E+01 -0.17246775368E+01  0.21404242461E+01  0.38415834364E+01  0.00000000000E+00 0. -1.
         -1    1    4    4    0  502 -0.78297249028E+01  0.41213684997E+02 -0.52559207779E+03  0.52726360073E+03  0.00000000000E+00 0.  1.
          5    1    3    3  503    0 -0.82848184755E+02 -0.49052589953E+02 -0.31680629023E+03  0.33114693691E+03  0.47000000000E+01 0. -1.
         13    1    6    6    0    0 -0.77431372982E+01 -0.35236717069E+00 -0.29219833888E+01  0.82836178549E+01  0.00000000000E+00 0. -1.
        -14    1    6    6    0    0  0.78236800432E+02  0.78233685474E+02 -0.23767420222E+03  0.26216508708E+03  0.00000000000E+00 0.  1.
         -5    1    5    5    0  501  0.17500623089E+02 -0.68317735811E+02 -0.13408237268E+03  0.15157096522E+03  0.47000000000E+01 0.  1.
<mgrwt>
<rscale>  2 0.19385742E+03</rscale>
<asrwt>0</asrwt>
<pdfrwt beam="2">  1        2 0.19224681E+00 0.19385742E+03</pdfrwt>
<pdfrwt beam="1">  1       -2 0.53334831E-02 0.19385742E+03</pdfrwt>
<totfact> 0.33050299E+03</totfact>
</mgrwt>
</event>
<event>
12    1  0.1093377E-001  0.2521464E+03  0.7546771E-02  0.1111956E+00
         -2   -1    0    0    0  501 -0.00000000000E+00  0.00000000000E+00  0.35720409268E+03  0.35720409268E+03  0.00000000000E+00 0.  1.
          2   -1    0    0  503    0  0.00000000000E+00 -0.00000000000E+00 -0.19126111505E+03  0.19126111505E+03  0.00000000000E+00 0. -1.
          6    2    1    2  503    0 -0.33290957659E+02 -0.18049117258E+03  0.10312479066E+02  0.25095518057E+03  0.17084145923E+03 0.  0.
         24    2    3    3    0    0  0.20104785892E+02 -0.20423703773E+02  0.57550603865E+01  0.82089671765E+02  0.76708952535E+02 0.  0.
         -6    2    1    2    0  501  0.33290957659E+02  0.18049117258E+03  0.15563049857E+03  0.29751002716E+03  0.17494574283E+03 0.  0.
        -24    2    5    5    0    0  0.29231217253E+02  0.31811171413E+02  0.10684633596E+03  0.14090795578E+03  0.81070943039E+02 0.  0.
          4    1    4    4  502    0  0.36614953097E+02  0.89522809226E+01 -0.17081094307E+02  0.41383111371E+02  0.00000000000E+00 0. -1.
         -3    1    4    4    0  502 -0.16510167205E+02 -0.29375984695E+02  0.22836154693E+02  0.40706560395E+02  0.00000000000E+00 0.  1.
          5    1    3    3  503    0 -0.53395743551E+02 -0.16006746881E+03  0.45574186792E+01  0.16886550881E+03  0.47000000000E+01 0. -1.
         13    1    6    6    0    0  0.56699092425E+02  0.22717446527E+02  0.84915768321E+02  0.10460189849E+03  0.00000000000E+00 0. -1.
        -14    1    6    6    0    0 -0.27467875173E+02  0.90937248853E+01  0.21930567638E+02  0.36306057287E+02  0.00000000000E+00 0.  1.
         -5    1    5    5    0  501  0.40597404065E+01  0.14868000117E+03  0.48784162614E+02  0.15660207138E+03  0.47000000000E+01 0.  1.
<mgrwt>
<rscale>  2 0.25214639E+03</rscale>
<asrwt>0</asrwt>
<pdfrwt beam="2">  1        2 0.29424787E-01 0.25214639E+03</pdfrwt>
<pdfrwt beam="1">  1       -2 0.54954476E-01 0.25214639E+03</pdfrwt>
<totfact> 0.56952663E+02</totfact>
</mgrwt>
</event>
<event>
12    1  0.1093377E-001  0.2529032E+03  0.7546771E-02  0.1111484E+00
          2   -1    0    0  503    0  0.00000000000E+00  0.00000000000E+00  0.67580752718E+03  0.67580752718E+03  0.00000000000E+00 0. -1.
         -2   -1    0    0    0  501 -0.00000000000E+00 -0.00000000000E+00 -0.10876444713E+03  0.10876444713E+03  0.00000000000E+00 0.  1.
          6    2    1    2  503    0  0.15937263024E+03 -0.91844119638E+02  0.42498803577E+03  0.49460407366E+03  0.17373365120E+03 0.  0.
         24    2    3    3    0    0  0.13809656294E+03 -0.23273768119E+02  0.37042516119E+03  0.40430589301E+03  0.81462421409E+02 0.  0.
         -6    2    1    2    0  501 -0.15937263024E+03  0.91844119638E+02  0.14205504429E+03  0.28996790064E+03  0.17339772263E+03 0.  0.
        -24    2    5    5    0    0 -0.13024481268E+03  0.13011119342E+03  0.14203663280E+03  0.24164721118E+03  0.65774886766E+02 0.  0.
          2    1    4    4  502    0  0.14429900644E+03 -0.31910784390E+02  0.31598079214E+03  0.34883285743E+03  0.00000000000E+00 0. -1.
         -1    1    4    4    0  502 -0.62024435005E+01  0.86370162716E+01  0.54444369051E+02  0.55473035583E+02  0.00000000000E+00 0.  1.
          5    1    3    3  503    0  0.21276067304E+02 -0.68570351520E+02  0.54562874575E+02  0.90298180654E+02  0.47000000000E+01 0.  1.
         11    1    6    6    0    0 -0.14830211015E+02  0.10359326724E+02  0.46383688525E+02  0.49786517955E+02  0.00000000000E+00 0. -1.
        -12    1    6    6    0    0 -0.11541460167E+03  0.11975186670E+03  0.95652944271E+02  0.19186069322E+03  0.00000000000E+00 0.  1.
         -5    1    5    5    0  501 -0.29127817558E+02 -0.38267073783E+02  0.18411490982E-01  0.48320689467E+02  0.47000000000E+01 0.  1.
<mgrwt>
<rscale>  2 0.25290320E+03</rscale>
<asrwt>0</asrwt>
<pdfrwt beam="1">  1        2 0.10397039E+00 0.25290320E+03</pdfrwt>
<pdfrwt beam="2">  1       -2 0.16732992E-01 0.25290320E+03</pdfrwt>
<totfact> 0.12482898E+03</totfact>
</mgrwt>
</event>
<event>
12    1  0.1093377E-001  0.1983060E+03  0.7546771E-02  0.1151176E+00
         -2   -1    0    0    0  501 -0.00000000000E+00  0.00000000000E+00  0.15864774912E+03  0.15864774912E+03  0.00000000000E+00 0.  1.
          2   -1    0    0  503    0  0.00000000000E+00 -0.00000000000E+00 -0.15948660996E+04  0.15948660996E+04  0.00000000000E+00 0. -1.
          6    2    1    2  503    0  0.80923594685E+02 -0.50954995131E+02  0.87843332923E+02  0.21655766417E+03  0.17330819676E+03 0.  0.
         24    2    3    3    0    0  0.11089057219E+03  0.16514780091E+00  0.46777188146E+02  0.14430943235E+03  0.79626381682E+02 0.  0.
         -6    2    1    2    0  501 -0.80923594685E+02  0.50954995131E+02 -0.15240616834E+04  0.15369561845E+04  0.17414149042E+03 0.  0.
        -24    2    5    5    0    0 -0.54088485262E+02  0.88528912381E+02 -0.13655015450E+04  0.13717432013E+04  0.79511057356E+02 0.  0.
          2    1    4    4  502    0  0.70599204182E+02  0.36311829790E+01  0.68472650715E+02  0.98417158143E+02  0.00000000000E+00 0. -1.
         -1    1    4    4    0  502  0.40291368006E+02 -0.34660351781E+01 -0.21695462569E+02  0.45892274205E+02  0.00000000000E+00 0.  1.
          5    1    3    3  503    0 -0.29966977503E+02 -0.51120142932E+02  0.41066144777E+02  0.72248231819E+02  0.47000000000E+01 0. -1.
         11    1    6    6    0    0  0.19531001428E+02  0.10958577945E+02 -0.17020920191E+03  0.17167621519E+03  0.00000000000E+00 0. -1.
        -12    1    6    6    0    0 -0.73619486690E+02  0.77570334436E+02 -0.11952923431E+04  0.12000669861E+04  0.00000000000E+00 0.  1.
         -5    1    5    5    0  501 -0.26835109423E+02 -0.37573917250E+02 -0.15856013841E+03  0.16521298330E+03  0.47000000000E+01 0.  1.
<mgrwt>
<rscale>  2 0.19830600E+03</rscale>
<asrwt>0</asrwt>
<pdfrwt beam="2">  1        2 0.24536403E+00 0.19830600E+03</pdfrwt>
<pdfrwt beam="1">  1       -2 0.24407345E-01 0.19830600E+03</pdfrwt>
<totfact> 0.18510308E+02</totfact>
</mgrwt>
</event>
<event>
12    1  0.1093377E-001  0.1860699E+03  0.7546771E-02  0.1162055E+00
          2   -1    0    0  503    0  0.00000000000E+00  0.00000000000E+00  0.13640388592E+04  0.13640388592E+04  0.00000000000E+00 0. -1.
         -2   -1    0    0    0  501 -0.00000000000E+00 -0.00000000000E+00 -0.26167629274E+02  0.26167629274E+02  0.00000000000E+00 0.  1.
          6    2    1    2  503    0 -0.30222249298E+02 -0.64072576742E+02  0.78982754488E+03  0.81147858460E+03  0.17219542145E+03 0.  0.
         24    2    3    3    0    0  0.38380217669E+02 -0.22111207724E+02  0.56809514688E+03  0.57556673393E+03  0.81135828592E+02 0.  0.
         -6    2    1    2    0  501  0.30222249298E+02  0.64072576742E+02  0.54804368503E+03  0.57872790385E+03  0.17191691761E+03 0.  0.
        -24    2    5    5    0    0 -0.41704269097E+00 -0.29727517497E+02  0.30553049934E+03  0.31686542254E+03  0.78555144631E+02 0.  0.
          2    1    4    4  502    0  0.26558733140E+02 -0.35595606505E+02  0.13534847591E+03  0.14244866949E+03  0.00000000000E+00 0. -1.
         -1    1    4    4    0  502  0.11821484529E+02  0.13484398781E+02  0.43274667097E+03  0.43311806444E+03  0.00000000000E+00 0.  1.
          5    1    3    3  503    0 -0.68602466967E+02 -0.41961369018E+02  0.22173239800E+03  0.23591185067E+03  0.47000000000E+01 0. -1.
         13    1    6    6    0    0  0.68428085297E+01  0.26448683773E+02  0.10341920888E+03  0.10696676899E+03  0.00000000000E+00 0. -1.
        -14    1    6    6    0    0 -0.72598512206E+01 -0.56176201270E+02  0.20211129046E+03  0.20989865355E+03  0.00000000000E+00 0.  1.
         -5    1    5    5    0  501  0.30639291989E+02  0.93800094239E+02  0.24251318568E+03  0.26186248132E+03  0.47000000000E+01 0.  1.
<mgrwt>
<rscale>  2 0.18606986E+03</rscale>
<asrwt>0</asrwt>
<pdfrwt beam="1">  1        2 0.20985208E+00 0.18606986E+03</pdfrwt>
<pdfrwt beam="2">  1       -2 0.40257902E-02 0.18606986E+03</pdfrwt>
<totfact> 0.43711915E+03</totfact>
</mgrwt>
</event>
<event>
12    1  0.1093377E-001  0.2175977E+03  0.7546771E-02  0.1135687E+00
          2   -1    0    0  503    0  0.00000000000E+00  0.00000000000E+00  0.16292819872E+04  0.16292819872E+04  0.00000000000E+00 0.  1.
         -2   -1    0    0    0  501 -0.00000000000E+00 -0.00000000000E+00 -0.31981357270E+02  0.31981357270E+02  0.00000000000E+00 0. -1.
          6    2    1    2  503    0 -0.83432796826E+02  0.10298133521E+03  0.54882806468E+03  0.59052024541E+03  0.17301944594E+03 0.  0.
         24    2    3    3    0    0 -0.31185892107E+02 -0.15439918327E+02  0.20379222031E+03  0.22197559921E+03  0.80814272516E+02 0.  0.
         -6    2    1    2    0  501  0.83432796826E+02 -0.10298133521E+03  0.10484725652E+04  0.10707430990E+04  0.17213331203E+03 0.  0.
        -24    2    5    5    0    0  0.89200679717E+01 -0.70025448028E+02  0.31589777568E+03  0.33363649240E+03  0.80862682365E+02 0.  0.
          2    1    4    4  502    0 -0.40414318869E+02 -0.41545453713E+02  0.11214833843E+03  0.12624021430E+03  0.00000000000E+00 0. -1.
         -1    1    4    4    0  502  0.92284267618E+01  0.26105535386E+02  0.91643881885E+02  0.95735384917E+02  0.00000000000E+00 0.  1.
          5    1    3    3  503    0 -0.52246904718E+02  0.11842125354E+03  0.34503584437E+03  0.36854464620E+03  0.47000000000E+01 0. -1.
         13    1    6    6    0    0 -0.24293830146E+02  0.48645472088E+01  0.89744566721E+02  0.93101779030E+02  0.00000000000E+00 0. -1.
        -14    1    6    6    0    0  0.33213898118E+02 -0.74889995237E+02  0.22615320896E+03  0.24053471337E+03  0.00000000000E+00 0.  1.
         -5    1    5    5    0  501  0.74512728854E+02 -0.32955887184E+02  0.73257478955E+03  0.73710660664E+03  0.47000000000E+01 0.  1.
<mgrwt>
<rscale>  2 0.21759766E+03</rscale>
<asrwt>0</asrwt>
<pdfrwt beam="1">  1        2 0.25065870E+00 0.21759766E+03</pdfrwt>
<pdfrwt beam="2">  1       -2 0.49202101E-02 0.21759766E+03</pdfrwt>
<totfact> 0.23387038E+03</totfact>
</mgrwt>
</event>
<event>
12    1  0.1093377E-001  0.1884144E+03  0.7546771E-02  0.1159899E+00
          1   -1    0    0  503    0  0.00000000000E+00  0.00000000000E+00  0.13040992413E+03  0.13040992413E+03  0.00000000000E+00 0.  1.
         -1   -1    0    0    0  501 -0.00000000000E+00 -0.00000000000E+00 -0.52205409603E+03  0.52205409603E+03  0.00000000000E+00 0. -1.
          6    2    1    2  503    0 -0.67216174244E+02 -0.23791672641E+02 -0.42244756409E+03  0.46328800893E+03  0.17632293398E+03 0.  0.
         24    2    3    3    0    0 -0.22319583271E+02  0.43320876945E+02 -0.31325072011E+03  0.32739894047E+03  0.81787470879E+02 0.  0.
         -6    2    1    2    0  501  0.67216174244E+02  0.23791672641E+02  0.30803392190E+02  0.18917601124E+03  0.17249538107E+03 0.  0.
        -24    2    5    5    0    0 -0.26526364447E+02 -0.91739720746E+01 -0.59855119334E+01  0.83110414749E+02  0.77998108389E+02 0.  0.
          2    1    4    4  502    0 -0.13849184061E+02  0.18233299335E+02 -0.29343346869E+03  0.29432542135E+03  0.00000000000E+00 0. -1.
         -1    1    4    4    0  502 -0.84703992105E+01  0.25087577610E+02 -0.19817251421E+02  0.33073519120E+02  0.00000000000E+00 0.  1.
          5    1    3    3  503    0 -0.44896590973E+02 -0.67112549586E+02 -0.10919684398E+03  0.13588906846E+03  0.47000000000E+01 0. -1.
         13    1    6    6    0    0  0.26615369642E+02  0.65776590199E+01 -0.33596381061E+01  0.27621199604E+02  0.00000000000E+00 0. -1.
        -14    1    6    6    0    0 -0.53141734089E+02 -0.15751631094E+02 -0.26258738273E+01  0.55489215145E+02  0.00000000000E+00 0.  1.
         -5    1    5    5    0  501  0.93742538691E+02  0.32965644715E+02  0.36788904124E+02  0.10606559649E+03  0.47000000000E+01 0.  1.
<mgrwt>
<rscale>  2 0.18841443E+03</rscale>
<asrwt>0</asrwt>
<pdfrwt beam="1">  1        1 0.20063065E-01 0.18841443E+03</pdfrwt>
<pdfrwt beam="2">  1       -1 0.80316014E-01 0.18841443E+03</pdfrwt>
<totfact> 0.41364740E+02</totfact>
</mgrwt>
</event>
<event>
12    1  0.1093377E-001  0.1928572E+03  0.7546771E-02  0.1155909E+00
         -2   -1    0    0    0  501 -0.00000000000E+00  0.00000000000E+00  0.21378506346E+03  0.21378506346E+03  0.00000000000E+00 0. -1.
          2   -1    0    0  503    0  0.00000000000E+00 -0.00000000000E+00 -0.44277203814E+03  0.44277203814E+03  0.00000000000E+00 0.  1.
          6    2    1    2  503    0 -0.81069312981E+02  0.31846352338E+02  0.14160771535E+03  0.23812479137E+03  0.17048239661E+03 0.  0.
         24    2    3    3    0    0  0.62704459994E+01  0.34656198908E+02  0.27088638863E+02  0.93996939741E+02  0.82832721248E+02 0.  0.
         -6    2    1    2    0  501  0.81069312981E+02 -0.31846352338E+02 -0.37059469003E+03  0.41843231022E+03  0.17366274874E+03 0.  0.
        -24    2    5    5    0    0  0.10434222713E+02  0.85275171192E+01 -0.30052090470E+03  0.31095305315E+03  0.78723538708E+02 0.  0.
          2    1    4    4  502    0  0.22996221983E+02  0.56566435675E+02  0.26123073808E+02  0.66415381168E+02  0.00000000000E+00 0. -1.
         -1    1    4    4    0  502 -0.16725775984E+02 -0.21910236767E+02  0.96556505481E+00  0.27581558573E+02  0.00000000000E+00 0.  1.
          5    1    3    3  503    0 -0.87339758981E+02 -0.28098465705E+01  0.11451907649E+03  0.14412785163E+03  0.47000000000E+01 0. -1.
         11    1    6    6    0    0 -0.17086905119E+02 -0.27033131526E+02 -0.16783680523E+03  0.17085650622E+03  0.00000000000E+00 0. -1.
        -12    1    6    6    0    0  0.27521127832E+02  0.35560648645E+02 -0.13268409947E+03  0.14009654693E+03  0.00000000000E+00 0.  1.
         -5    1    5    5    0  501  0.70635090268E+02 -0.40373869457E+02 -0.70073785321E+02  0.10747925707E+03  0.47000000000E+01 0.  1.
<mgrwt>
<rscale>  2 0.19285719E+03</rscale>
<asrwt>0</asrwt>
<pdfrwt beam="2">  1        2 0.68118775E-01 0.19285719E+03</pdfrwt>
<pdfrwt beam="1">  1       -2 0.32890010E-01 0.19285719E+03</pdfrwt>
<totfact> 0.61840680E+02</totfact>
</mgrwt>
</event>
<event>
12    1  0.1093377E-001  0.3256645E+03  0.7546771E-02  0.1073071E+00
          1   -1    0    0  503    0  0.00000000000E+00  0.00000000000E+00  0.64565344065E+03  0.64565344065E+03  0.00000000000E+00 0.  1.
         -1   -1    0    0    0  501 -0.00000000000E+00 -0.00000000000E+00 -0.19609468513E+03  0.19609468513E+03  0.00000000000E+00 0. -1.
          6    2    1    2  503    0 -0.15614276272E+03  0.22654279184E+03  0.54801125108E+02  0.32954063173E+03  0.17289206392E+03 0.  0.
         24    2    3    3    0    0 -0.96617434119E+02  0.13921438409E+03 -0.35049213572E+02  0.19074333743E+03  0.80243380340E+02 0.  0.
         -6    2    1    2    0  501  0.15614276272E+03 -0.22654279184E+03  0.39475763041E+03  0.51220749406E+03  0.17555834164E+03 0.  0.
        -24    2    5    5    0    0  0.13770284726E+03 -0.24592044700E+03  0.32622330670E+03  0.43848797474E+03  0.80069455863E+02 0.  0.
          4    1    4    4  502    0  0.14285645973E+02  0.18835978888E+02 -0.16922214440E+01  0.23700999872E+02  0.00000000000E+00 0. -1.
         -3    1    4    4    0  502 -0.11090308009E+03  0.12037840521E+03 -0.33356992128E+02  0.16704233756E+03  0.00000000000E+00 0.  1.
          5    1    3    3  503    0 -0.59525328600E+02  0.87328407741E+02  0.89850338680E+02  0.13879729430E+03  0.47000000000E+01 0. -1.
         11    1    6    6    0    0  0.31327189897E+02 -0.76756133398E+02  0.15305281898E+03  0.17406338569E+03  0.00000000000E+00 0. -1.
        -12    1    6    6    0    0  0.10637565737E+03 -0.16916431360E+03  0.17317048772E+03  0.26442458904E+03  0.00000000000E+00 0.  1.
         -5    1    5    5    0  501  0.18439915456E+02  0.19377655163E+02  0.68534323713E+02  0.73719519317E+02  0.47000000000E+01 0.  1.
<mgrwt>
<rscale>  2 0.32566452E+03</rscale>
<asrwt>0</asrwt>
<pdfrwt beam="1">  1        1 0.99331298E-01 0.32566452E+03</pdfrwt>
<pdfrwt beam="2">  1       -1 0.30168413E-01 0.32566452E+03</pdfrwt>
<totfact> 0.32172272E+02</totfact>
</mgrwt>
</event>
<event>
12    1  0.1093377E-001  0.4397338E+03  0.7546771E-02  0.1030829E+00
          2   -1    0    0  503    0  0.00000000000E+00  0.00000000000E+00  0.58316429840E+03  0.58316429840E+03  0.00000000000E+00 0. -1.
         -2   -1    0    0    0  501 -0.00000000000E+00 -0.00000000000E+00 -0.34518915764E+03  0.34518915764E+03  0.00000000000E+00 0.  1.
          6    2    1    2  503    0  0.40096356227E+02  0.40184634807E+03  0.21124976781E+03  0.48818497155E+03  0.17495684270E+03 0.  0.
         24    2    3    3    0    0 -0.58543558320E+01  0.30739427188E+03  0.95274790634E+02  0.33164440822E+03  0.79907546012E+02 0.  0.
         -6    2    1    2    0  501 -0.40096356227E+02 -0.40184634807E+03  0.26725372950E+02  0.44016848449E+03  0.17304867506E+03 0.  0.
        -24    2    5    5    0    0 -0.56114619601E+02 -0.83653894099E+02 -0.92659263044E+01  0.11951214798E+03  0.63643315380E+02 0.  0.
          2    1    4    4  502    0 -0.41739552812E+02  0.16577690143E+03  0.41030300008E+02  0.17580573607E+03  0.00000000000E+00 0. -1.
         -1    1    4    4    0  502  0.35885196980E+02  0.14161737045E+03  0.54244490626E+02  0.15583867215E+03  0.00000000000E+00 0.  1.
          5    1    3    3  503    0  0.45950712059E+02  0.94452076194E+02  0.11597497717E+03  0.15654056333E+03  0.47000000000E+01 0. -1.
         13    1    6    6    0    0 -0.19900039182E+02  0.31880944505E+01  0.11434248598E+02  0.23171481323E+02  0.00000000000E+00 0. -1.
        -14    1    6    6    0    0 -0.36214580419E+02 -0.86841988550E+02 -0.20700174902E+02  0.96340666653E+02  0.00000000000E+00 0.  1.
         -5    1    5    5    0  501  0.16018263375E+02 -0.31819245397E+03  0.35991299255E+02  0.32065633652E+03  0.47000000000E+01 0.  1.
<mgrwt>
<rscale>  2 0.43973377E+03</rscale>
<asrwt>0</asrwt>
<pdfrwt beam="1">  1        2 0.89717584E-01 0.43973377E+03</pdfrwt>
<pdfrwt beam="2">  1       -2 0.53106024E-01 0.43973377E+03</pdfrwt>
<totfact> 0.17647292E+02</totfact>
</mgrwt>
</event>
<event>
12    1  0.1093377E-001  0.1912327E+03  0.7546771E-02  0.1157354E+00
         -2   -1    0    0    0  501 -0.00000000000E+00  0.00000000000E+00  0.18493598322E+02  0.18493598322E+02  0.00000000000E+00 0.  1.
          2   -1    0    0  503    0  0.00000000000E+00 -0.00000000000E+00 -0.23398871819E+04  0.23398871819E+04  0.00000000000E+00 0. -1.
          6    2    1    2  503    0  0.14661358539E+02  0.79243876538E+02 -0.69232739637E+03  0.71803062982E+03  0.17249989621E+03 0.  0.
         24    2    3    3    0    0  0.91926655433E+01  0.11367440103E+03 -0.63976541791E+03  0.65478334372E+03  0.80218842601E+02 0.  0.
         -6    2    1    2    0  501 -0.14661358539E+02 -0.79243876538E+02 -0.16290661872E+04  0.16403501504E+04  0.17434857676E+03 0.  0.
        -24    2    5    5    0    0  0.28780355770E+02 -0.52843791852E+02 -0.14702879450E+04  0.14735665564E+04  0.77659383579E+02 0.  0.
          4    1    4    4  502    0  0.24030183877E+02  0.67847794964E+02 -0.53064430477E+03  0.53550364257E+03  0.00000000000E+00 0. -1.
         -3    1    4    4    0  502 -0.14837518334E+02  0.45826606062E+02 -0.10912111314E+03  0.11927970115E+03  0.00000000000E+00 0.  1.
          5    1    3    3  503    0  0.54686929952E+01 -0.34430524488E+02 -0.52561978458E+02  0.63247286100E+02  0.47000000000E+01 0. -1.
         11    1    6    6    0    0 -0.20859135595E+02 -0.17023821078E+02 -0.80995063124E+03  0.81039801275E+03  0.00000000000E+00 0. -1.
        -12    1    6    6    0    0  0.49639491365E+02 -0.35819970774E+02 -0.66033731371E+03  0.66316854365E+03  0.00000000000E+00 0.  1.
         -5    1    5    5    0  501 -0.43441714308E+02 -0.26400084686E+02 -0.15877824222E+03  0.16678359396E+03  0.47000000000E+01 0.  1.
<mgrwt>
<rscale>  2 0.19123274E+03</rscale>
<asrwt>0</asrwt>
<pdfrwt beam="2">  1        2 0.35998286E+00 0.19123274E+03</pdfrwt>
<pdfrwt beam="1">  1       -2 0.28451673E-02 0.19123274E+03</pdfrwt>
<totfact> 0.22599018E+03</totfact>
</mgrwt>
</event>
<event>
12    1  0.1093377E-001  0.3037886E+03  0.7546771E-02  0.1083362E+00
          2   -1    0    0  503    0  0.00000000000E+00  0.00000000000E+00  0.20906577137E+04  0.20906577137E+04  0.00000000000E+00 0.  1.
         -2   -1    0    0    0  501 -0.00000000000E+00 -0.00000000000E+00 -0.61236143562E+02  0.61236143562E+02  0.00000000000E+00 0. -1.
          6    2    1    2  503    0  0.55802197238E+02  0.24328986264E+03  0.15827947565E+04  0.16116550027E+04  0.17288367220E+03 0.  0.
         24    2    3    3    0    0  0.82293016160E+02  0.16054827960E+03  0.80658962428E+03  0.83058878892E+03  0.82115916230E+02 0.  0.
         -6    2    1    2    0  501 -0.55802197238E+02 -0.24328986264E+03  0.44662681364E+03  0.54023885454E+03  0.17343202362E+03 0.  0.
        -24    2    5    5    0    0 -0.38348810523E+02 -0.24300505002E+03  0.31626415507E+03  0.40862876915E+03  0.80202054806E+02 0.  0.
          2    1    4    4  502    0  0.70839852121E+02  0.16869132424E+03  0.72094290617E+03  0.74379682809E+03  0.00000000000E+00 0. -1.
         -1    1    4    4    0  502  0.11453164039E+02 -0.81430446314E+01  0.85646718107E+02  0.86791960831E+02  0.00000000000E+00 0.  1.
          5    1    3    3  503    0 -0.26490818922E+02  0.82741583034E+02  0.77620513223E+03  0.78106621380E+03  0.47000000000E+01 0. -1.
         13    1    6    6    0    0 -0.16899782476E+02 -0.18254095674E+03  0.17482382509E+03  0.25331832416E+03  0.00000000000E+00 0. -1.
        -14    1    6    6    0    0 -0.21449028047E+02 -0.60464093283E+02  0.14144032998E+03  0.15531044500E+03  0.00000000000E+00 0.  1.
         -5    1    5    5    0  501 -0.17453386715E+02 -0.28481261644E+00  0.13036265857E+03  0.13161008539E+03  0.47000000000E+01 0.  1.
<mgrwt>
<rscale>  2 0.30378859E+03</rscale>
<asrwt>0</asrwt>
<pdfrwt beam="1">  1        2 0.32163959E+00 0.30378859E+03</pdfrwt>
<pdfrwt beam="2">  1       -2 0.94209468E-02 0.30378859E+03</pdfrwt>
<totfact> 0.48376394E+02</totfact>
</mgrwt>
</event>
<event>
12    1  0.1093377E-001  0.1847117E+03  0.7546771E-02  0.1163319E+00
         -4   -1    0    0    0  501 -0.00000000000E+00  0.00000000000E+00  0.88534751177E+03  0.88534751177E+03  0.00000000000E+00 0. -1.
          4   -1    0    0  503    0  0.00000000000E+00 -0.00000000000E+00 -0.94434125660E+02  0.94434125660E+02  0.00000000000E+00 0.  1.
          6    2    1    2  503    0  0.12403883979E+01  0.60018951327E+02  0.18478433344E+02  0.18554886498E+03  0.17459414571E+03 0.  0.
         24    2    3    3    0    0  0.30545120182E+02  0.44542375231E+02  0.73235685567E+02  0.12137146722E+03  0.80315252953E+02 0.  0.
         -6    2    1    2    0  501 -0.12403883979E+01 -0.60018951327E+02  0.77243495277E+03  0.79423277245E+03  0.17477450469E+03 0.  0.
        -24    2    5    5    0    0  0.27613766509E+02 -0.42838833890E+02  0.20736161472E+03  0.22814295090E+03  0.80328581431E+02 0.  0.
          2    1    4    4  502    0  0.20185708533E+02 -0.17711504260E+02  0.44618083878E+02  0.52076228945E+02  0.00000000000E+00 0. -1.
         -1    1    4    4    0  502  0.10359411648E+02  0.62253879491E+02  0.28617601689E+02  0.69295238277E+02  0.00000000000E+00 0.  1.
          5    1    3    3  503    0 -0.29304731784E+02  0.15476576096E+02 -0.54757252223E+02  0.64177397763E+02  0.47000000000E+01 0. -1.
         11    1    6    6    0    0 -0.47203015801E+01 -0.58484131272E+02  0.11656710245E+03  0.13050120394E+03  0.00000000000E+00 0. -1.
        -12    1    6    6    0    0  0.32334068089E+02  0.15645297382E+02  0.90794512269E+02  0.97641746951E+02  0.00000000000E+00 0.  1.
         -5    1    5    5    0  501 -0.28854154907E+02 -0.17180117437E+02  0.56507333805E+03  0.56608982155E+03  0.47000000000E+01 0.  1.
<mgrwt>
<rscale>  2 0.18471172E+03</rscale>
<asrwt>0</asrwt>
<pdfrwt beam="2">  1        4 0.14528328E-01 0.18471172E+03</pdfrwt>
<pdfrwt beam="1">  1       -4 0.13620730E+00 0.18471172E+03</pdfrwt>
<totfact> 0.28477466E+01</totfact>
</mgrwt>
</event>
<event>
12    1  0.1093377E-001  0.2001567E+03  0.7546771E-02  0.1149607E+00
         -2   -1    0    0    0  501 -0.00000000000E+00  0.00000000000E+00  0.42040567465E+02  0.42040567465E+02  0.00000000000E+00 0.  1.
          2   -1    0    0  503    0  0.00000000000E+00 -0.00000000000E+00 -0.12898425147E+04  0.12898425147E+04  0.00000000000E+00 0. -1.
          6    2    1    2  503    0  0.97830756276E+02 -0.14565392234E+02 -0.28236320574E+03  0.34580780970E+03  0.17341007401E+03 0.  0.
         24    2    3    3    0    0  0.10727239346E+02 -0.60273387764E+02 -0.15496646048E+03  0.18478525159E+03  0.79893869573E+02 0.  0.
         -6    2    1    2    0  501 -0.97830756276E+02  0.14565392234E+02 -0.96543874147E+03  0.98607527244E+03  0.17461234740E+03 0.  0.
        -24    2    5    5    0    0 -0.21567073820E+02 -0.26724730999E+02 -0.75068261243E+03  0.75442184921E+03  0.66697766283E+02 0.  0.
          4    1    4    4  502    0  0.36988806716E+01 -0.79498368843E+02 -0.13086547755E+03  0.15316476612E+03  0.00000000000E+00 0. -1.
         -3    1    4    4    0  502  0.70283586743E+01  0.19224981079E+02 -0.24100982937E+02  0.31620485475E+02  0.00000000000E+00 0.  1.
          5    1    3    3  503    0  0.87103516930E+02  0.45707995530E+02 -0.12739674525E+03  0.16102255810E+03  0.47000000000E+01 0. -1.
         13    1    6    6    0    0 -0.14352595361E+02 -0.35578985311E+02 -0.20145773024E+03  0.20507822475E+03  0.00000000000E+00 0. -1.
        -14    1    6    6    0    0 -0.72144784594E+01  0.88542543112E+01 -0.54922488219E+03  0.54934362446E+03  0.00000000000E+00 0.  1.
         -5    1    5    5    0  501 -0.76263682456E+02  0.41290123233E+02 -0.21475612904E+03  0.23165342324E+03  0.47000000000E+01 0.  1.
<mgrwt>
<rscale>  2 0.20015675E+03</rscale>
<asrwt>0</asrwt>
<pdfrwt beam="2">  1        2 0.19843730E+00 0.20015675E+03</pdfrwt>
<pdfrwt beam="1">  1       -2 0.64677798E-02 0.20015675E+03</pdfrwt>
<totfact> 0.23394888E+03</totfact>
</mgrwt>
</event>
<event>
12    1  0.1093377E-001  0.2579685E+03  0.7546771E-02  0.1108370E+00
         -2   -1    0    0    0  501 -0.00000000000E+00  0.00000000000E+00  0.40929057998E+03  0.40929057998E+03  0.00000000000E+00 0.  1.
          2   -1    0    0  503    0  0.00000000000E+00 -0.00000000000E+00 -0.17565323906E+03  0.17565323906E+03  0.00000000000E+00 0. -1.
          6    2    1    2  503    0  0.17922345279E+03 -0.66764253956E+02  0.19659271015E+03  0.32438472247E+03  0.17320000823E+03 0.  0.
         24    2    3    3    0    0  0.62891680334E+02 -0.67591631014E+02  0.16513829999E+03  0.20378109170E+03  0.75710522208E+02 0.  0.
         -6    2    1    2    0  501 -0.17922345279E+03  0.66764253956E+02  0.37044630772E+02  0.26055909656E+03  0.17303244347E+03 0.  0.
        -24    2    5    5    0    0 -0.88024538648E+02 -0.30421897858E+02  0.25331231479E+02  0.12668720344E+03  0.82061958011E+02 0.  0.
          2    1    4    4  502    0  0.79643933431E+01 -0.63847819301E+02  0.89490624484E+02  0.11022044938E+03  0.00000000000E+00 0. -1.
         -1    1    4    4    0  502  0.54927286990E+02 -0.37438117133E+01  0.75647675503E+02  0.93560642319E+02  0.00000000000E+00 0.  1.
          5    1    3    3  503    0  0.11633177246E+03  0.82737705805E+00  0.31454410162E+02  0.12060363077E+03  0.47000000000E+01 0. -1.
         11    1    6    6    0    0 -0.99116828476E+02 -0.40714315807E+02  0.29215828825E+02  0.11106469220E+03  0.00000000000E+00 0. -1.
        -12    1    6    6    0    0  0.11092289828E+02  0.10292417949E+02 -0.38845973468E+01  0.15622511239E+02  0.00000000000E+00 0.  1.
         -5    1    5    5    0  501 -0.91198914147E+02  0.97186151814E+02  0.11713399294E+02  0.13387189313E+03  0.47000000000E+01 0.  1.
<mgrwt>
<rscale>  2 0.25796849E+03</rscale>
<asrwt>0</asrwt>
<pdfrwt beam="2">  1        2 0.27023575E-01 0.25796849E+03</pdfrwt>
<pdfrwt beam="1">  1       -2 0.62967781E-01 0.25796849E+03</pdfrwt>
<totfact> 0.47238098E+02</totfact>
</mgrwt>
</event>
<event>
12    1  0.1093377E-001  0.1808992E+03  0.7546771E-02  0.1166936E+00
          1   -1    0    0  503    0  0.00000000000E+00  0.00000000000E+00  0.62707753658E+03  0.62707753658E+03  0.00000000000E+00 0. -1.
         -1   -1    0    0    0  501 -0.00000000000E+00 -0.00000000000E+00 -0.56987807283E+02  0.56987807283E+02  0.00000000000E+00 0.  1.
          6    2    1    2  503    0 -0.39632830992E+02 -0.32615156921E+02  0.18521137334E+03  0.25863141205E+03  0.17306774607E+03 0.  0.
         24    2    3    3    0    0  0.11393668130E+02 -0.30315905955E+02  0.18818096652E+03  0.20725146799E+03  0.80574344531E+02 0.  0.
         -6    2    1    2    0  501  0.39632830992E+02  0.32615156921E+02  0.38487835596E+03  0.42543393181E+03  0.17386250803E+03 0.  0.
        -24    2    5    5    0    0  0.53424191118E+02 -0.24700174951E+02  0.12571556606E+03  0.15960938338E+03  0.78781399290E+02 0.  0.
          2    1    4    4  502    0  0.20051474337E+02  0.16411447899E+02  0.12786152362E+03  0.13046059355E+03  0.00000000000E+00 0. -1.
         -1    1    4    4    0  502 -0.86578062078E+01 -0.46727353854E+02  0.60319442897E+02  0.76790874445E+02  0.00000000000E+00 0.  1.
          5    1    3    3  503    0 -0.51026499122E+02 -0.22992509657E+01 -0.29695931820E+01  0.51379944057E+02  0.47000000000E+01 0. -1.
         11    1    6    6    0    0  0.42801692429E+02 -0.41266030609E+02  0.12664700039E+03  0.13990830163E+03  0.00000000000E+00 0. -1.
        -12    1    6    6    0    0  0.10622498689E+02  0.16565855658E+02 -0.93143433461E+00  0.19701081747E+02  0.00000000000E+00 0.  1.
         -5    1    5    5    0  501 -0.13791360126E+02  0.57315331872E+02  0.25916278990E+03  0.26582454843E+03  0.47000000000E+01 0.  1.
<mgrwt>
<rscale>  2 0.18089922E+03</rscale>
<asrwt>0</asrwt>
<pdfrwt beam="1">  1        1 0.96473462E-01 0.18089922E+03</pdfrwt>
<pdfrwt beam="2">  1       -1 0.87673554E-02 0.18089922E+03</pdfrwt>
<totfact> 0.24432179E+03</totfact>
</mgrwt>
</event>
<event>
12    1  0.1093377E-001  0.2704615E+03  0.7546771E-02  0.1101016E+00
         -2   -1    0    0    0  501 -0.00000000000E+00  0.00000000000E+00  0.99138183980E+02  0.99138183980E+02  0.00000000000E+00 0.  1.
          2   -1    0    0  503    0  0.00000000000E+00 -0.00000000000E+00 -0.92304041376E+03  0.92304041376E+03  0.00000000000E+00 0. -1.
          6    2    1    2  503    0  0.11126877362E+03 -0.17398990386E+03 -0.18522826878E+03  0.32929129181E+03  0.17739790495E+03 0.  0.
         24    2    3    3    0    0  0.11500648699E+03 -0.87355100421E+02 -0.91065008934E+02  0.20119613510E+03  0.10644079720E+03 0.  0.
         -6    2    1    2    0  501 -0.11126877362E+03  0.17398990386E+03 -0.63867396100E+03  0.69288730592E+03  0.17185797516E+03 0.  0.
        -24    2    5    5    0    0 -0.67045189661E+02  0.18351947813E+03 -0.42534013398E+03  0.47475901818E+03  0.79419389709E+02 0.  0.
          2    1    4    4  502    0  0.14515303564E+02 -0.95092018933E+00 -0.64384568437E+02  0.66007355193E+02  0.00000000000E+00 0. -1.
         -1    1    4    4    0  502  0.10049118342E+03 -0.86404180231E+02 -0.26680440497E+02  0.13518877991E+03  0.00000000000E+00 0.  1.
          5    1    3    3  503    0 -0.37377133730E+01 -0.86634803442E+02 -0.94163259846E+02  0.12809515671E+03  0.47000000000E+01 0. -1.
         13    1    6    6    0    0 -0.12165611302E+02  0.96556984527E+02 -0.13258365793E+03  0.16446786832E+03  0.00000000000E+00 0. -1.
        -14    1    6    6    0    0 -0.54879578359E+02  0.86962493599E+02 -0.29275647604E+03  0.31029114986E+03  0.00000000000E+00 0.  1.
         -5    1    5    5    0  501 -0.44223583954E+02 -0.95295742633E+01 -0.21333382702E+03  0.21812828774E+03  0.47000000000E+01 0.  1.
<mgrwt>
<rscale>  2 0.27046149E+03</rscale>
<asrwt>0</asrwt>
<pdfrwt beam="2">  1        2 0.14200622E+00 0.27046149E+03</pdfrwt>
<pdfrwt beam="1">  1       -2 0.15252028E-01 0.27046149E+03</pdfrwt>
<totfact> 0.97928132E+02</totfact>
</mgrwt>
</event>
<event>
12    1  0.1093377E-001  0.2626835E+03  0.7546771E-02  0.1105542E+00
          2   -1    0    0  503    0  0.00000000000E+00  0.00000000000E+00  0.32483168549E+04  0.32483168549E+04  0.00000000000E+00 0.  1.
         -2   -1    0    0    0  501 -0.00000000000E+00 -0.00000000000E+00 -0.24916619534E+02  0.24916619534E+02  0.00000000000E+00 0. -1.
          6    2    1    2  503    0  0.18415009118E+03 -0.60095547942E+02  0.99661515507E+03  0.10313004919E+04  0.18115243922E+03 0.  0.
         24    2    3    3    0    0  0.85053327087E+02 -0.10314290913E+03  0.65196962597E+03  0.67008604768E+03  0.77964029860E+02 0.  0.
         -6    2    1    2    0  501 -0.18415009118E+03  0.60095547942E+02  0.22267850803E+04  0.22419329825E+04  0.17369218045E+03 0.  0.
        -24    2    5    5    0    0 -0.30644454849E+02  0.27133934608E+02  0.11826706051E+04  0.11860695560E+04  0.79849222851E+02 0.  0.
          4    1    4    4  502    0 -0.58617961753E+01 -0.43401325732E+02  0.24185337397E+03  0.24578667627E+03  0.00000000000E+00 0. -1.
         -3    1    4    4    0  502  0.90915123262E+02 -0.59741583399E+02  0.41011625200E+03  0.42429937141E+03  0.00000000000E+00 0.  1.
          5    1    3    3  503    0  0.99096764092E+02  0.43047361189E+02  0.34464552910E+03  0.36121444419E+03  0.47000000000E+01 0. -1.
         11    1    6    6    0    0 -0.57057033151E+00  0.18518808860E+02  0.56413624633E+02  0.59378185189E+02  0.00000000000E+00 0. -1.
        -12    1    6    6    0    0 -0.30073884517E+02  0.86151257479E+01  0.11262569805E+04  0.11266913708E+04  0.00000000000E+00 0.  1.
         -5    1    5    5    0  501 -0.15350563633E+03  0.32961613333E+02  0.10441144751E+04  0.10558634266E+04  0.47000000000E+01 0.  1.
<mgrwt>
<rscale>  2 0.26268351E+03</rscale>
<asrwt>0</asrwt>
<pdfrwt beam="1">  1        2 0.49974072E+00 0.26268351E+03</pdfrwt>
<pdfrwt beam="2">  1       -2 0.38333287E-02 0.26268351E+03</pdfrwt>
<totfact> 0.43238040E+02</totfact>
</mgrwt>
</event>
<event>
12    1  0.1093377E-001  0.1796051E+03  0.7546771E-02  0.1168186E+00
          1   -1    0    0  503    0  0.00000000000E+00  0.00000000000E+00  0.15855107728E+04  0.15855107728E+04  0.00000000000E+00 0. -1.
         -1   -1    0    0    0  501 -0.00000000000E+00 -0.00000000000E+00 -0.20371974564E+02  0.20371974564E+02  0.00000000000E+00 0.  1.
          6    2    1    2  503    0 -0.24430911558E+02 -0.43981851288E+02  0.80729537801E+03  0.82683733203E+03  0.17147266138E+03 0.  0.
         24    2    3    3    0    0 -0.46021691998E+02 -0.86896842240E+02  0.50881898338E+03  0.52448305903E+03  0.80725857309E+02 0.  0.
         -6    2    1    2    0  501  0.24430911558E+02  0.43981851288E+02  0.75784342020E+03  0.77904541531E+03  0.17336042481E+03 0.  0.
        -24    2    5    5    0    0 -0.41507906383E+02  0.63922408310E+02  0.43011615236E+03  0.44412332644E+03  0.80228698048E+02 0.  0.
          4    1    4    4  502    0 -0.56981582217E+02 -0.96306019838E+02  0.42818147696E+03  0.44256200399E+03  0.00000000000E+00 0. -1.
         -3    1    4    4    0  502  0.10959890219E+02  0.94091775977E+01  0.80637506419E+02  0.81921055036E+02  0.00000000000E+00 0.  1.
          5    1    3    3  503    0  0.21590780441E+02  0.42914990952E+02  0.29847639463E+03  0.30235427300E+03  0.47000000000E+01 0. -1.
         13    1    6    6    0    0  0.77905260442E+01  0.60088561918E+02  0.25997083308E+03  0.26693849783E+03  0.00000000000E+00 0. -1.
        -14    1    6    6    0    0 -0.49298432427E+02  0.38338463919E+01  0.17014531928E+03  0.17718482862E+03  0.00000000000E+00 0.  1.
         -5    1    5    5    0  501  0.65938817940E+02 -0.19940557022E+02  0.32772726784E+03  0.33492208887E+03  0.47000000000E+01 0.  1.
<mgrwt>
<rscale>  2 0.17960508E+03</rscale>
<asrwt>0</asrwt>
<pdfrwt beam="1">  1        1 0.24392464E+00 0.17960508E+03</pdfrwt>
<pdfrwt beam="2">  1       -1 0.31341512E-02 0.17960508E+03</pdfrwt>
<totfact> 0.22201995E+03</totfact>
</mgrwt>
</event>
<event>
12    1  0.1093377E-001  0.1763988E+03  0.7546771E-02  0.1171334E+00
          2   -1    0    0  503    0  0.00000000000E+00  0.00000000000E+00  0.77475704551E+02  0.77475704551E+02  0.00000000000E+00 0.  1.
         -2   -1    0    0    0  501 -0.00000000000E+00 -0.00000000000E+00 -0.49120663098E+03  0.49120663098E+03  0.00000000000E+00 0. -1.
          6    2    1    2  503    0  0.37740194361E+02 -0.23815820190E+02 -0.83136498723E+02  0.19279331152E+03  0.16812515572E+03 0.  0.
         24    2    3    3    0    0 -0.92172369679E+01  0.57504071910E+01  0.12856711547E+02  0.81816068010E+02  0.80065906057E+02 0.  0.
         -6    2    1    2    0  501 -0.37740194361E+02  0.23815820190E+02 -0.33059442771E+03  0.37588902401E+03  0.17322923305E+03 0.  0.
        -24    2    5    5    0    0  0.20024579362E+02 -0.32413441888E+02 -0.11136991447E+03  0.14226544601E+03  0.79903593693E+02 0.  0.
          2    1    4    4  502    0 -0.31768800829E+02 -0.13634637731E+02  0.31456411323E+02  0.46740409343E+02  0.00000000000E+00 0. -1.
         -1    1    4    4    0  502  0.22551563861E+02  0.19385044922E+02 -0.18599699776E+02  0.35075658668E+02  0.00000000000E+00 0.  1.
          5    1    3    3  503    0  0.46957431329E+02 -0.29566227381E+02 -0.95993210270E+02  0.11097724351E+03  0.47000000000E+01 0. -1.
         11    1    6    6    0    0 -0.12344513128E+02 -0.47263784171E+02 -0.84685100736E+02  0.97764096606E+02  0.00000000000E+00 0. -1.
        -12    1    6    6    0    0  0.32369092490E+02  0.14850342284E+02 -0.26684813738E+02  0.44501349404E+02  0.00000000000E+00 0.  1.
         -5    1    5    5    0  501 -0.57764773723E+02  0.56229262078E+02 -0.21922451323E+03  0.23362357800E+03  0.47000000000E+01 0.  1.
<mgrwt>
<rscale>  2 0.17639881E+03</rscale>
<asrwt>0</asrwt>
<pdfrwt beam="1">  1        2 0.11919339E-01 0.17639881E+03</pdfrwt>
<pdfrwt beam="2">  1       -2 0.75570250E-01 0.17639881E+03</pdfrwt>
<totfact> 0.82278007E+02</totfact>
</mgrwt>
</event>
<event>
12    1  0.1093377E-001  0.2160539E+03  0.7546771E-02  0.1136860E+00
         -2   -1    0    0    0  501 -0.00000000000E+00  0.00000000000E+00  0.20202805207E+03  0.20202805207E+03  0.00000000000E+00 0.  1.
          2   -1    0    0  503    0  0.00000000000E+00 -0.00000000000E+00 -0.23932478927E+03  0.23932478927E+03  0.00000000000E+00 0. -1.
          6    2    1    2  503    0 -0.11597310469E+03  0.56559743331E+02 -0.59670364901E+02  0.22410710928E+03  0.17324744848E+03 0.  0.
         24    2    3    3    0    0 -0.10255184235E+03 -0.18170537241E+02 -0.67291879546E+02  0.14765501576E+03  0.80167062026E+02 0.  0.
         -6    2    1    2    0  501  0.11597310469E+03 -0.56559743331E+02  0.22373627698E+02  0.21724573207E+03  0.17333886843E+03 0.  0.
        -24    2    5    5    0    0  0.79781435459E+02 -0.40264462226E+02 -0.52424225478E+02  0.13243899915E+03  0.82495361792E+02 0.  0.
          2    1    4    4  502    0 -0.41619155693E+02 -0.32405455958E+02 -0.66754990485E+02  0.85079353848E+02  0.00000000000E+00 0. -1.
         -1    1    4    4    0  502 -0.60932686659E+02  0.14234918717E+02 -0.53688906151E+00  0.62575661916E+02  0.00000000000E+00 0.  1.
          5    1    3    3  503    0 -0.13421262336E+02  0.74730280573E+02  0.76215146458E+01  0.76452093514E+02  0.47000000000E+01 0. -1.
         13    1    6    6    0    0  0.95975781349E+02 -0.29551765345E+02 -0.34990009125E+02  0.10634358551E+03  0.00000000000E+00 0. -1.
        -14    1    6    6    0    0 -0.16194345891E+02 -0.10712696881E+02 -0.17434216352E+02  0.26095413641E+02  0.00000000000E+00 0.  1.
         -5    1    5    5    0  501  0.36191669230E+02 -0.16295281106E+02  0.74797853176E+02  0.84806732915E+02  0.47000000000E+01 0.  1.
<mgrwt>
<rscale>  2 0.21605389E+03</rscale>
<asrwt>0</asrwt>
<pdfrwt beam="2">  1        2 0.36819198E-01 0.21605389E+03</pdfrwt>
<pdfrwt beam="1">  1       -2 0.31081239E-01 0.21605389E+03</pdfrwt>
<totfact> 0.13336494E+03</totfact>
</mgrwt>
</event>
<event>
12    1  0.1093377E-001  0.1802749E+03  0.7546771E-02  0.1167537E+00
          2   -1    0    0  503    0  0.00000000000E+00  0.00000000000E+00  0.15435348836E+04  0.15435348836E+04  0.00000000000E+00 0. -1.
         -2   -1    0    0    0  501 -0.00000000000E+00 -0.00000000000E+00 -0.23081638095E+02  0.23081638095E+02  0.00000000000E+00 0.  1.
          6    2    1    2  503    0 -0.33405764734E+02 -0.39728786397E+02  0.53045478217E+03  0.56044608645E+03  0.17327209327E+03 0.  0.
         24    2    3    3    0    0  0.21095194293E+02  0.29278555551E+01  0.43304718651E+03  0.44086233618E+03  0.79850824392E+02 0.  0.
         -6    2    1    2    0  501  0.33405764734E+02  0.39728786397E+02  0.98999846337E+03  0.10061704353E+04  0.17201065597E+03 0.  0.
        -24    2    5    5    0    0  0.72248826034E+01  0.60429069295E+02  0.94332130246E+03  0.94859624269E+03  0.79220455898E+02 0.  0.
          4    1    4    4  502    0  0.95701787849E+01  0.34300642623E+02  0.34245184773E+03  0.34429840316E+03  0.00000000000E+00 0. -1.
         -3    1    4    4    0  502  0.11525015508E+02 -0.31372787068E+02  0.90595338778E+02  0.96563933014E+02  0.00000000000E+00 0.  1.
          5    1    3    3  503    0 -0.54500959028E+02 -0.42656641952E+02  0.97407595661E+02  0.11958375028E+03  0.47000000000E+01 0. -1.
         13    1    6    6    0    0  0.26949448404E+02  0.14055463251E+02  0.66863812621E+03  0.66932859840E+03  0.00000000000E+00 0. -1.
        -14    1    6    6    0    0 -0.19724565801E+02  0.46373606044E+02  0.27468317625E+03  0.27926764429E+03  0.00000000000E+00 0.  1.
         -5    1    5    5    0  501  0.26180882131E+02 -0.20700282898E+02  0.46677160914E+02  0.57574192588E+02  0.47000000000E+01 0.  1.
<mgrwt>
<rscale>  2 0.18027488E+03</rscale>
<asrwt>0</asrwt>
<pdfrwt beam="1">  1        2 0.23746683E+00 0.18027488E+03</pdfrwt>
<pdfrwt beam="2">  1       -2 0.35510224E-02 0.18027488E+03</pdfrwt>
<totfact> 0.42303814E+03</totfact>
</mgrwt>
</event>
<event>
12    1  0.1093377E-001  0.2288945E+03  0.7546771E-02  0.1127420E+00
         -1   -1    0    0    0  501 -0.00000000000E+00  0.00000000000E+00  0.19915634731E+03  0.19915634731E+03  0.00000000000E+00 0. -1.
          1   -1    0    0  503    0  0.00000000000E+00 -0.00000000000E+00 -0.27958536258E+03  0.27958536258E+03  0.00000000000E+00 0.  1.
          6    2    1    2  503    0  0.50325863836E+02  0.14206998622E+03 -0.98412161197E+02  0.24929554886E+03  0.17247244316E+03 0.  0.
         24    2    3    3    0    0 -0.40809833400E+02  0.64123663936E+02 -0.53742804692E+02  0.12123780454E+03  0.77672578266E+02 0.  0.
         -6    2    1    2    0  501 -0.50325863836E+02 -0.14206998622E+03  0.17983145919E+02  0.22944616103E+03  0.17206270287E+03 0.  0.
        -24    2    5    5    0    0 -0.35595438016E+02 -0.98106721879E+01 -0.39062494969E+01  0.94498959412E+02  0.86899424903E+02 0.  0.
          4    1    4    4  502    0 -0.20156620697E+02 -0.52757650588E+01  0.11477469249E+02  0.23787714376E+02  0.00000000000E+00 0. -1.
         -3    1    4    4    0  502 -0.20653212703E+02  0.69399428995E+02 -0.65220273941E+02  0.97450090163E+02  0.00000000000E+00 0.  1.
          5    1    3    3  503    0  0.91135697236E+02  0.77946322289E+02 -0.44669356504E+02  0.12805774432E+03  0.47000000000E+01 0. -1.
         11    1    6    6    0    0  0.96597471574E+01  0.29310416463E+02  0.11148597165E+02  0.32813144427E+02  0.00000000000E+00 0. -1.
        -12    1    6    6    0    0 -0.45255185173E+02 -0.39121088651E+02 -0.15054846662E+02  0.61685814985E+02  0.00000000000E+00 0.  1.
         -5    1    5    5    0  501 -0.14730425820E+02 -0.13225931404E+03  0.21889395416E+02  0.13494720162E+03  0.47000000000E+01 0.  1.
<mgrwt>
<rscale>  2 0.22889448E+03</rscale>
<asrwt>0</asrwt>
<pdfrwt beam="2">  1        1 0.43013133E-01 0.22889448E+03</pdfrwt>
<pdfrwt beam="1">  1       -1 0.30639438E-01 0.22889448E+03</pdfrwt>
<totfact> 0.94454493E+02</totfact>
</mgrwt>
</event>
<event>
12    1  0.1093377E-001  0.1831061E+03  0.7546771E-02  0.1164830E+00
          1   -1    0    0  503    0  0.00000000000E+00  0.00000000000E+00  0.14332844640E+03  0.14332844640E+03  0.00000000000E+00 0.  1.
         -1   -1    0    0    0  501 -0.00000000000E+00 -0.00000000000E+00 -0.29326654812E+03  0.29326654812E+03  0.00000000000E+00 0. -1.
          6    2    1    2  503    0 -0.20989006263E+02  0.55485779014E+02 -0.17297615423E+03  0.25147099365E+03  0.17262010502E+03 0.  0.
         24    2    3    3    0    0  0.76694427360E+01  0.74774093015E+01 -0.15770850068E+02  0.84552726471E+02  0.82375432260E+02 0.  0.
         -6    2    1    2    0  501  0.20989006263E+02 -0.55485779014E+02  0.23038052506E+02  0.18512400087E+03  0.17384169171E+03 0.  0.
        -24    2    5    5    0    0  0.62826999380E+02 -0.38002857810E+02  0.62189167099E+02  0.12503265394E+03  0.79838731160E+02 0.  0.
          2    1    4    4  502    0 -0.24640045713E+02 -0.23632237436E+02  0.60520367536E+01  0.34673356455E+02  0.00000000000E+00 0. -1.
         -1    1    4    4    0  502  0.32309488449E+02  0.31109646737E+02 -0.21822886822E+02  0.49879370016E+02  0.00000000000E+00 0.  1.
          5    1    3    3  503    0 -0.28658448999E+02  0.48008369712E+02 -0.15720530416E+03  0.16691826717E+03  0.47000000000E+01 0. -1.
         11    1    6    6    0    0 -0.84248863046E+01  0.51203024763E+01  0.36600511419E+02  0.37905060913E+02  0.00000000000E+00 0. -1.
        -12    1    6    6    0    0  0.71251885684E+02 -0.43123160287E+02  0.25588655680E+02  0.87127593024E+02  0.00000000000E+00 0.  1.
         -5    1    5    5    0  501 -0.41837993117E+02 -0.17482921204E+02 -0.39151114593E+02  0.60091346929E+02  0.47000000000E+01 0.  1.
<mgrwt>
<rscale>  2 0.18310614E+03</rscale>
<asrwt>0</asrwt>
<pdfrwt beam="1">  1        1 0.22050531E-01 0.18310614E+03</pdfrwt>
<pdfrwt beam="2">  1       -1 0.45117930E-01 0.18310614E+03</pdfrwt>
<totfact> 0.11098757E+03</totfact>
</mgrwt>
</event>
<event>
12    1  0.1093377E-001  0.2213014E+03  0.7546771E-02  0.1132917E+00
          2   -1    0    0  503    0  0.00000000000E+00  0.00000000000E+00  0.19790376856E+03  0.19790376856E+03  0.00000000000E+00 0. -1.
         -2   -1    0    0    0  501 -0.00000000000E+00 -0.00000000000E+00 -0.27839041680E+03  0.27839041680E+03  0.00000000000E+00 0.  1.
          6    2    1    2  503    0  0.93895876162E+02  0.10088891664E+03  0.39091059948E+02  0.22496186108E+03  0.17344947078E+03 0.  0.
         24    2    3    3    0    0  0.97641060115E+02  0.11331954235E+03 -0.13067222371E+02  0.17100703486E+03  0.81838611746E+02 0.  0.
         -6    2    1    2    0  501 -0.93895876162E+02 -0.10088891664E+03 -0.11957770819E+03  0.25133232428E+03  0.17284125628E+03 0.  0.
        -24    2    5    5    0    0 -0.97797022682E+02 -0.71759060938E+02 -0.19421493490E+02  0.14684727855E+03  0.80456872529E+02 0.  0.
          2    1    4    4  502    0  0.92799943353E+02  0.87699451662E+02 -0.39722926554E+02  0.13371961039E+03  0.00000000000E+00 0. -1.
         -1    1    4    4    0  502  0.48411167623E+01  0.25620090686E+02  0.26655704183E+02  0.37287424472E+02  0.00000000000E+00 0.  1.
          5    1    3    3  503    0 -0.37451839533E+01 -0.12430625708E+02  0.52158282319E+02  0.53954826224E+02  0.47000000000E+01 0. -1.
         11    1    6    6    0    0 -0.39258241139E+02 -0.13975837246E+02 -0.44392085213E+02  0.60886704244E+02  0.00000000000E+00 0. -1.
        -12    1    6    6    0    0 -0.58538781543E+02 -0.57783223692E+02  0.24970591723E+02  0.85960574310E+02  0.00000000000E+00 0.  1.
         -5    1    5    5    0  501  0.39011465201E+01 -0.29129855703E+02 -0.10015621470E+03  0.10448504573E+03  0.47000000000E+01 0.  1.
<mgrwt>
<rscale>  2 0.22130139E+03</rscale>
<asrwt>0</asrwt>
<pdfrwt beam="1">  1        2 0.30446734E-01 0.22130139E+03</pdfrwt>
<pdfrwt beam="2">  1       -2 0.42829295E-01 0.22130139E+03</pdfrwt>
<totfact> 0.89861012E+02</totfact>
</mgrwt>
</event>
<event>
12    1  0.1093377E-001  0.1968045E+03  0.7546771E-02  0.1152463E+00
          3   -1    0    0  503    0  0.00000000000E+00  0.00000000000E+00  0.92945985629E+03  0.92945985629E+03  0.00000000000E+00 0. -1.
         -3   -1    0    0    0  501 -0.00000000000E+00 -0.00000000000E+00 -0.54132542054E+02  0.54132542054E+02  0.00000000000E+00 0.  1.
          6    2    1    2  503    0  0.88408165625E+02 -0.32540791288E+02  0.67384399908E+03  0.70203219462E+03  0.17294091577E+03 0.  0.
         24    2    3    3    0    0  0.48629849906E+02  0.17762703030E+02  0.18727244027E+03  0.21123006771E+03  0.82866149293E+02 0.  0.
         -6    2    1    2    0  501 -0.88408165625E+02  0.32540791288E+02  0.20148331516E+03  0.28156020373E+03  0.17264331782E+03 0.  0.
        -24    2    5    5    0    0  0.22573092831E+02  0.15141885362E+02  0.82744134106E+02  0.11803453365E+03  0.79666418226E+02 0.  0.
          4    1    4    4  502    0 -0.44204527539E+01  0.36260989589E+02  0.10842754866E+03  0.11441561552E+03  0.00000000000E+00 0. -1.
         -3    1    4    4    0  502  0.53050302660E+02 -0.18498286559E+02  0.78844891614E+02  0.96814452184E+02  0.00000000000E+00 0.  1.
          5    1    3    3  503    0  0.39778315719E+02 -0.50303494318E+02  0.48657155881E+03  0.49080212691E+03  0.47000000000E+01 0. -1.
         11    1    6    6    0    0  0.14684147034E+02  0.10114900375E+01  0.95995876589E+02  0.97117740956E+02  0.00000000000E+00 0. -1.
        -12    1    6    6    0    0  0.78889457964E+01  0.14130395324E+02 -0.13251742483E+02  0.20916792695E+02  0.00000000000E+00 0.  1.
         -5    1    5    5    0  501 -0.11098125846E+03  0.17398905927E+02  0.11873918106E+03  0.16352567008E+03  0.47000000000E+01 0.  1.
<mgrwt>
<rscale>  2 0.19680450E+03</rscale>
<asrwt>0</asrwt>
<pdfrwt beam="1">  1        3 0.14299381E+00 0.19680450E+03</pdfrwt>
<pdfrwt beam="2">  1       -3 0.83280841E-02 0.19680450E+03</pdfrwt>
<totfact> 0.94399000E+01</totfact>
</mgrwt>
</event>
<event>
12    1  0.1093377E-001  0.1869614E+03  0.7546771E-02  0.1161231E+00
         -1   -1    0    0    0  501 -0.00000000000E+00  0.00000000000E+00  0.54175616230E+03  0.54175616230E+03  0.00000000000E+00 0. -1.
          1   -1    0    0  503    0  0.00000000000E+00 -0.00000000000E+00 -0.66214935746E+02  0.66214935746E+02  0.00000000000E+00 0.  1.
          6    2    1    2  503    0  0.16100871821E+02 -0.68007055335E+02  0.18971247747E+03  0.26667318425E+03  0.17389527147E+03 0.  0.
         24    2    3    3    0    0  0.95162899562E+01 -0.48025556296E+02  0.20358220893E+02  0.95952443730E+02  0.79971247756E+02 0.  0.
         -6    2    1    2    0  501 -0.16100871821E+02  0.68007055335E+02  0.28582874908E+03  0.34129791380E+03  0.17292193184E+03 0.  0.
        -24    2    5    5    0    0 -0.64791426046E+01  0.55715660064E+02  0.30220813931E+03  0.31818881397E+03  0.82268753494E+02 0.  0.
          2    1    4    4  502    0 -0.22635643210E+02 -0.11648736599E+02  0.36754153029E+02  0.44709430468E+02  0.00000000000E+00 0. -1.
         -1    1    4    4    0  502  0.32151933166E+02 -0.36376819697E+02 -0.16395932136E+02  0.51243013262E+02  0.00000000000E+00 0.  1.
          5    1    3    3  503    0  0.65845818649E+01 -0.19981499038E+02  0.16935425658E+03  0.17072074052E+03  0.47000000000E+01 0. -1.
         11    1    6    6    0    0 -0.31720480036E+02  0.63691251777E+02  0.18961124654E+03  0.20252207095E+03  0.00000000000E+00 0. -1.
        -12    1    6    6    0    0  0.25241337432E+02 -0.79755917134E+01  0.11259689277E+03  0.11566674301E+03  0.00000000000E+00 0.  1.
         -5    1    5    5    0  501 -0.96217292165E+01  0.12291395271E+02 -0.16379390229E+02  0.23109099833E+02  0.47000000000E+01 0.  1.
<mgrwt>
<rscale>  2 0.18696141E+03</rscale>
<asrwt>0</asrwt>
<pdfrwt beam="2">  1        1 0.10186914E-01 0.18696141E+03</pdfrwt>
<pdfrwt beam="1">  1       -1 0.83347099E-01 0.18696141E+03</pdfrwt>
<totfact> 0.93065716E+02</totfact>
</mgrwt>
</event>
<event>
12    1  0.1093377E-001  0.1790789E+03  0.7546771E-02  0.1168697E+00
         -2   -1    0    0    0  501 -0.00000000000E+00  0.00000000000E+00  0.31443903152E+02  0.31443903152E+02  0.00000000000E+00 0. -1.
          2   -1    0    0  503    0  0.00000000000E+00 -0.00000000000E+00 -0.10951342042E+04  0.10951342042E+04  0.00000000000E+00 0.  1.
          6    2    1    2  503    0 -0.15242842020E+02  0.45800987954E+02 -0.38706168132E+03  0.42691337103E+03  0.17351716481E+03 0.  0.
         24    2    3    3    0    0 -0.54043133106E+02  0.51179049308E+02 -0.18545898103E+03  0.22148668119E+03  0.95505816454E+02 0.  0.
         -6    2    1    2    0  501  0.15242842020E+02 -0.45800987954E+02 -0.67662861972E+03  0.69966473632E+03  0.17138955480E+03 0.  0.
        -24    2    5    5    0    0 -0.55469370750E+00  0.68138603359E+01 -0.13614996262E+03  0.15638105979E+03  0.76625629938E+02 0.  0.
          2    1    4    4  502    0 -0.66660441536E+02 -0.14540597062E+01 -0.94789140969E+02  0.11589094012E+03  0.00000000000E+00 0. -1.
         -1    1    4    4    0  502  0.12617308430E+02  0.52633109014E+02 -0.90669840060E+02  0.10559574107E+03  0.00000000000E+00 0.  1.
          5    1    3    3  503    0  0.38800291085E+02 -0.53780613540E+01 -0.20160270030E+03  0.20542668984E+03  0.47000000000E+01 0. -1.
         11    1    6    6    0    0  0.42177999590E+01 -0.57832258555E+00  0.95289192958E+01  0.10436694709E+02  0.00000000000E+00 0. -1.
        -12    1    6    6    0    0 -0.47724936665E+01  0.73921829215E+01 -0.14567888191E+03  0.14594436508E+03  0.00000000000E+00 0.  1.
         -5    1    5    5    0  501  0.15797535728E+02 -0.52614848290E+02 -0.54047865711E+03  0.54328367653E+03  0.47000000000E+01 0.  1.
<mgrwt>
<rscale>  2 0.17907895E+03</rscale>
<asrwt>0</asrwt>
<pdfrwt beam="2">  1        2 0.16848215E+00 0.17907895E+03</pdfrwt>
<pdfrwt beam="1">  1       -2 0.48375244E-02 0.17907895E+03</pdfrwt>
<totfact> 0.46786479E+03</totfact>
</mgrwt>
</event>
<event>
12    1  0.1093377E-001  0.2262180E+03  0.7546771E-02  0.1129330E+00
          2   -1    0    0  503    0  0.00000000000E+00  0.00000000000E+00  0.29019370657E+04  0.29019370657E+04  0.00000000000E+00 0. -1.
         -2   -1    0    0    0  501 -0.00000000000E+00 -0.00000000000E+00 -0.95611203093E+02  0.95611203093E+02  0.00000000000E+00 0.  1.
          6    2    1    2  503    0  0.16681042207E+02 -0.14427717680E+03  0.50179891413E+02  0.23217220466E+03  0.17404525331E+03 0.  0.
         24    2    3    3    0    0 -0.38851069632E+02 -0.49527448620E+02  0.64443618841E+02  0.12132604840E+03  0.81269036132E+02 0.  0.
         -6    2    1    2    0  501 -0.16681042207E+02  0.14427717680E+03  0.27561459712E+04  0.27653760641E+04  0.17282939748E+03 0.  0.
        -24    2    5    5    0    0  0.12164278811E+02  0.75078398835E+02  0.79826428469E+03  0.80605390793E+03  0.81928619147E+02 0.  0.
          2    1    4    4  502    0  0.20008232562E+01  0.14324723988E+02 -0.79528975146E+01  0.16506047071E+02  0.00000000000E+00 0. -1.
         -1    1    4    4    0  502 -0.40851892889E+02 -0.63852172608E+02  0.72396516355E+02  0.10482000133E+03  0.00000000000E+00 0.  1.
          5    1    3    3  503    0  0.55532111840E+02 -0.94749728184E+02 -0.14263727428E+02  0.11084615626E+03  0.47000000000E+01 0. -1.
         13    1    6    6    0    0 -0.13362712891E+02  0.21821032637E+02  0.55982021602E+03  0.56040466970E+03  0.00000000000E+00 0. -1.
        -14    1    6    6    0    0  0.25526991702E+02  0.53257366198E+02  0.23844406867E+03  0.24564923823E+03  0.00000000000E+00 0.  1.
         -5    1    5    5    0  501 -0.28845321019E+02  0.69198777969E+02  0.19578816865E+04  0.19593221562E+04  0.47000000000E+01 0.  1.
<mgrwt>
<rscale>  2 0.22621804E+03</rscale>
<asrwt>0</asrwt>
<pdfrwt beam="1">  1        2 0.44645179E+00 0.22621804E+03</pdfrwt>
<pdfrwt beam="2">  1       -2 0.14709418E-01 0.22621804E+03</pdfrwt>
<totfact> 0.86127999E+01</totfact>
</mgrwt>
</event>
<event>
12    1  0.1093377E-001  0.1799705E+03  0.7546771E-02  0.1167832E+00
         -2   -1    0    0    0  501 -0.00000000000E+00  0.00000000000E+00  0.19172937660E+02  0.19172937660E+02  0.00000000000E+00 0.  1.
          2   -1    0    0  503    0  0.00000000000E+00 -0.00000000000E+00 -0.21050341939E+04  0.21050341939E+04  0.00000000000E+00 0. -1.
          6    2    1    2  503    0 -0.44697949438E+02  0.21171091103E+02 -0.57634422153E+03  0.60413499699E+03  0.17424210488E+03 0.  0.
         24    2    3    3    0    0  0.70133079188E+01 -0.46679062023E+02 -0.32257576707E+03  0.33636977166E+03  0.82833426024E+02 0.  0.
         -6    2    1    2    0  501  0.44697949438E+02 -0.21171091103E+02 -0.15095170347E+04  0.15200721346E+04  0.17184729977E+03 0.  0.
        -24    2    5    5    0    0  0.37313135518E+02 -0.77663537155E+02 -0.87797786629E+03  0.88595089760E+03  0.81485975274E+02 0.  0.
          4    1    4    4  502    0  0.33180425402E+02 -0.13817450213E+02 -0.24954028848E+03  0.25211548571E+03  0.00000000000E+00 0. -1.
         -3    1    4    4    0  502 -0.26167117483E+02 -0.32861611809E+02 -0.73035478588E+02  0.84254285948E+02  0.00000000000E+00 0.  1.
          5    1    3    3  503    0 -0.51711257356E+02  0.67850153126E+02 -0.25376845447E+03  0.26776522534E+03  0.47000000000E+01 0. -1.
         11    1    6    6    0    0  0.44563270846E+02 -0.12569554732E+02 -0.51782504524E+03  0.51989100424E+03  0.00000000000E+00 0. -1.
        -12    1    6    6    0    0 -0.72501353277E+01 -0.65093982423E+02 -0.36015282106E+03  0.36605989336E+03  0.00000000000E+00 0.  1.
         -5    1    5    5    0  501  0.73848139193E+01  0.56492446051E+02 -0.63153916840E+03  0.63412123696E+03  0.47000000000E+01 0.  1.
<mgrwt>
<rscale>  2 0.17997048E+03</rscale>
<asrwt>0</asrwt>
<pdfrwt beam="2">  1        2 0.32385124E+00 0.17997048E+03</pdfrwt>
<pdfrwt beam="1">  1       -2 0.29496843E-02 0.17997048E+03</pdfrwt>
<totfact> 0.28489359E+03</totfact>
</mgrwt>
</event>
<event>
12    1  0.1093377E-001  0.1844586E+03  0.7546771E-02  0.1163556E+00
          1   -1    0    0  503    0  0.00000000000E+00  0.00000000000E+00  0.19691583542E+04  0.19691583542E+04  0.00000000000E+00 0. -1.
         -1   -1    0    0    0  501 -0.00000000000E+00 -0.00000000000E+00 -0.17488624743E+02  0.17488624743E+02  0.00000000000E+00 0.  1.
          6    2    1    2  503    0 -0.55586105425E+02 -0.30836378645E+02  0.86746637235E+03  0.88687704589E+03  0.17324055529E+03 0.  0.
         24    2    3    3    0    0 -0.63780367201E+02 -0.23333900400E+02  0.29009611335E+03  0.30938077829E+03  0.83356492535E+02 0.  0.
         -6    2    1    2    0  501  0.55586105425E+02  0.30836378645E+02  0.10842033571E+04  0.10997699331E+04  0.17307885120E+03 0.  0.
        -24    2    5    5    0    0  0.55967311355E+02  0.67213976447E+02  0.45968994525E+03  0.47418015811E+03  0.76693663385E+02 0.  0.
          2    1    4    4  502    0 -0.49280804537E+02 -0.52614908988E+02  0.16447642449E+03  0.17958123665E+03  0.00000000000E+00 0. -1.
         -1    1    4    4    0  502 -0.14499562664E+02  0.29281008588E+02  0.12561968886E+03  0.12979954164E+03  0.00000000000E+00 0.  1.
          5    1    3    3  503    0  0.81942617753E+01 -0.75024782451E+01  0.57737025901E+03  0.57749626760E+03  0.47000000000E+01 0. -1.
         13    1    6    6    0    0  0.18201018076E+02  0.49869158602E+02  0.38554316356E+03  0.38918085899E+03  0.00000000000E+00 0. -1.
        -14    1    6    6    0    0  0.37766293279E+02  0.17344817845E+02  0.74146781694E+02  0.84999299112E+02  0.00000000000E+00 0.  1.
         -5    1    5    5    0  501 -0.38120592967E+00 -0.36377597802E+02  0.62451341187E+03  0.62558977497E+03  0.47000000000E+01 0.  1.
<mgrwt>
<rscale>  2 0.18445860E+03</rscale>
<asrwt>0</asrwt>
<pdfrwt beam="1">  1        1 0.30294726E+00 0.18445860E+03</pdfrwt>
<pdfrwt beam="2">  1       -1 0.26905592E-02 0.18445860E+03</pdfrwt>
<totfact> 0.15721982E+03</totfact>
</mgrwt>
</event>
<event>
12    1  0.1093377E-001  0.1935871E+03  0.7546771E-02  0.1155265E+00
         -2   -1    0    0    0  501 -0.00000000000E+00  0.00000000000E+00  0.33770242393E+02  0.33770242393E+02  0.00000000000E+00 0.  1.
          2   -1    0    0  503    0  0.00000000000E+00 -0.00000000000E+00 -0.11591582066E+04  0.11591582066E+04  0.00000000000E+00 0. -1.
          6    2    1    2  503    0 -0.30248701834E+02  0.80528039343E+02 -0.43707436844E+03  0.47766688792E+03  0.17242941510E+03 0.  0.
         24    2    3    3    0    0 -0.19434202616E+01 -0.23053911739E+01 -0.89469371567E+02  0.11917854777E+03  0.78674430976E+02 0.  0.
         -6    2    1    2    0  501  0.30248701834E+02 -0.80528039343E+02 -0.68831359579E+03  0.71526156108E+03  0.17442403945E+03 0.  0.
        -24    2    5    5    0    0  0.33043418852E+02 -0.40965963178E+02 -0.65758608839E+03  0.66487070850E+03  0.82846349985E+02 0.  0.
          4    1    4    4  502    0 -0.23018264640E+02 -0.30711318005E+02 -0.67182135279E+02  0.77372248651E+02  0.00000000000E+00 0. -1.
         -3    1    4    4    0  502  0.21074844378E+02  0.28405926832E+02 -0.22287236288E+02  0.41806299120E+02  0.00000000000E+00 0.  1.
          5    1    3    3  503    0 -0.28305281573E+02  0.82833430517E+02 -0.34760499687E+03  0.35848834015E+03  0.47000000000E+01 0. -1.
         11    1    6    6    0    0  0.35713734065E+01 -0.36511409871E+02 -0.58833118254E+03  0.58947384853E+03  0.00000000000E+00 0. -1.
        -12    1    6    6    0    0  0.29472045445E+02 -0.44545533072E+01 -0.69254905855E+02  0.75396859967E+02  0.00000000000E+00 0.  1.
         -5    1    5    5    0  501 -0.27947170176E+01 -0.39562076165E+02 -0.30727507395E+02  0.50390852586E+02  0.47000000000E+01 0.  1.
<mgrwt>
<rscale>  2 0.19358713E+03</rscale>
<asrwt>0</asrwt>
<pdfrwt beam="2">  1        2 0.17833205E+00 0.19358713E+03</pdfrwt>
<pdfrwt beam="1">  1       -2 0.51954215E-02 0.19358713E+03</pdfrwt>
<totfact> 0.38659367E+03</totfact>
</mgrwt>
</event>
<event>
12    1  0.1093377E-001  0.1796873E+03  0.7546771E-02  0.1168106E+00
         -2   -1    0    0    0  501 -0.00000000000E+00  0.00000000000E+00  0.28126103137E+02  0.28126103137E+02  0.00000000000E+00 0.  1.
          2   -1    0    0  503    0  0.00000000000E+00 -0.00000000000E+00 -0.15774861529E+04  0.15774861529E+04  0.00000000000E+00 0. -1.
          6    2    1    2  503    0 -0.14247389945E+02 -0.49779916995E+02 -0.11948920139E+04  0.12083889577E+04  0.17249904370E+03 0.  0.
         24    2    3    3    0    0 -0.64288325586E+02  0.87764567054E+01 -0.66538985880E+03  0.67329310990E+03  0.79811857736E+02 0.  0.
         -6    2    1    2    0  501  0.14247389945E+02  0.49779916995E+02 -0.35446803587E+03  0.39722329829E+03  0.17163254935E+03 0.  0.
        -24    2    5    5    0    0  0.68666760933E+02  0.24817412653E+02 -0.15623431277E+03  0.19009219600E+03  0.79967833946E+02 0.  0.
          4    1    4    4  502    0  0.84389053312E+01 -0.12383167805E+01 -0.76146628252E+01  0.11433793840E+02  0.00000000000E+00 0. -1.
         -3    1    4    4    0  502 -0.72727230917E+02  0.10014773486E+02 -0.65777519598E+03  0.66185931606E+03  0.00000000000E+00 0.  1.
          5    1    3    3  503    0  0.50040935641E+02 -0.58556373701E+02 -0.52950215505E+03  0.53509584781E+03  0.47000000000E+01 0. -1.
         11    1    6    6    0    0  0.13724095068E+01 -0.21092277779E+02 -0.62124334776E+02  0.65621647808E+02  0.00000000000E+00 0. -1.
        -12    1    6    6    0    0  0.67294351426E+02  0.45909690431E+02 -0.94109977993E+02  0.12447054819E+03  0.00000000000E+00 0.  1.
         -5    1    5    5    0  501 -0.54419370988E+02  0.24962504343E+02 -0.19823372310E+03  0.20713110229E+03  0.47000000000E+01 0.  1.
<mgrwt>
<rscale>  2 0.17968726E+03</rscale>
<asrwt>0</asrwt>
<pdfrwt beam="2">  1        2 0.24269021E+00 0.17968726E+03</pdfrwt>
<pdfrwt beam="1">  1       -2 0.43270922E-02 0.17968726E+03</pdfrwt>
<totfact> 0.30215334E+03</totfact>
</mgrwt>
</event>
<event>
12    1  0.1093377E-001  0.2037096E+03  0.7546771E-02  0.1146646E+00
          2   -1    0    0  503    0  0.00000000000E+00  0.00000000000E+00  0.33309575366E+04  0.33309575366E+04  0.00000000000E+00 0.  1.
         -2   -1    0    0    0  501 -0.00000000000E+00 -0.00000000000E+00 -0.12674089001E+02  0.12674089001E+02  0.00000000000E+00 0. -1.
          6    2    1    2  503    0 -0.77667970590E+02 -0.74000438099E+02  0.14446680980E+04  0.14590245649E+04  0.17371928240E+03 0.  0.
         24    2    3    3    0    0 -0.52327058917E+02 -0.11865499343E+03  0.11463945300E+04  0.11563276827E+04  0.77821351941E+02 0.  0.
         -6    2    1    2    0  501  0.77667970590E+02  0.74000438099E+02  0.18736153496E+04  0.18846070608E+04  0.17262941967E+03 0.  0.
        -24    2    5    5    0    0  0.56004356749E+02  0.85688156708E+02  0.79704048009E+03  0.80774056268E+03  0.81806732711E+02 0.  0.
          4    1    4    4  502    0 -0.67675909133E+01 -0.80817580700E+02  0.86352782276E+03  0.86732784016E+03  0.00000000000E+00 0. -1.
         -3    1    4    4    0  502 -0.45559468003E+02 -0.37837412730E+02  0.28286670728E+03  0.28899984258E+03  0.00000000000E+00 0.  1.
          5    1    3    3  503    0 -0.25340911673E+02  0.44654555331E+02  0.29827356797E+03  0.30269688215E+03  0.47000000000E+01 0. -1.
         13    1    6    6    0    0 -0.95206212385E+00  0.51258575708E+01  0.64086506695E+00  0.52527655723E+01  0.00000000000E+00 0. -1.
        -14    1    6    6    0    0  0.56956418873E+02  0.80562299137E+02  0.79639961502E+03  0.80248779710E+03  0.00000000000E+00 0.  1.
         -5    1    5    5    0  501  0.21663613841E+02 -0.11687718608E+02  0.10765748696E+04  0.10768664981E+04  0.47000000000E+01 0.  1.
<mgrwt>
<rscale>  2 0.20370960E+03</rscale>
<asrwt>0</asrwt>
<pdfrwt beam="1">  1        2 0.51245431E+00 0.20370960E+03</pdfrwt>
<pdfrwt beam="2">  1       -2 0.19498625E-02 0.20370960E+03</pdfrwt>
<totfact> 0.10638399E+03</totfact>
</mgrwt>
</event>
<event>
12    1  0.1093377E-001  0.2175399E+03  0.7546771E-02  0.1135731E+00
         -1   -1    0    0    0  501 -0.00000000000E+00  0.00000000000E+00  0.23119494425E+03  0.23119494425E+03  0.00000000000E+00 0.  1.
          1   -1    0    0  503    0  0.00000000000E+00 -0.00000000000E+00 -0.29152908031E+03  0.29152908031E+03  0.00000000000E+00 0. -1.
          6    2    1    2  503    0  0.12690443109E+03  0.38974189176E+02  0.11253473543E+03  0.24438843662E+03  0.17157482107E+03 0.  0.
         24    2    3    3    0    0 -0.87088929579E+00  0.19818964351E+01  0.14336715853E+02  0.78980143993E+02  0.77637847485E+02 0.  0.
         -6    2    1    2    0  501 -0.12690443109E+03 -0.38974189176E+02 -0.17286887149E+03  0.27833558794E+03  0.17309919334E+03 0.  0.
        -24    2    5    5    0    0 -0.99267060501E+02 -0.91899056717E+02 -0.11952888958E+03  0.19813515448E+03  0.81676178114E+02 0.  0.
          2    1    4    4  502    0 -0.23998306059E+02 -0.29175101643E+02  0.48752512048E+00  0.37780192302E+02  0.00000000000E+00 0. -1.
         -1    1    4    4    0  502  0.23127416764E+02  0.31156998078E+02  0.13849190733E+02  0.41199951691E+02  0.00000000000E+00 0.  1.
          5    1    3    3  503    0  0.12777532038E+03  0.36992292741E+02  0.98198019581E+02  0.16540829263E+03  0.47000000000E+01 0. -1.
         13    1    6    6    0    0 -0.31435681564E+02  0.49520297012E+00 -0.62832121378E+02  0.70258969379E+02  0.00000000000E+00 0. -1.
        -14    1    6    6    0    0 -0.67831378936E+02 -0.92394259688E+02 -0.56696768197E+02  0.12787618510E+03  0.00000000000E+00 0.  1.
         -5    1    5    5    0  501 -0.27637370585E+02  0.52924867542E+02 -0.53339981914E+02  0.80200433463E+02  0.47000000000E+01 0.  1.
<mgrwt>
<rscale>  2 0.21753992E+03</rscale>
<asrwt>0</asrwt>
<pdfrwt beam="2">  1        1 0.44850627E-01 0.21753992E+03</pdfrwt>
<pdfrwt beam="1">  1       -1 0.35568453E-01 0.21753992E+03</pdfrwt>
<totfact> 0.69295997E+02</totfact>
</mgrwt>
</event>
<event>
12    1  0.1093377E-001  0.1874345E+03  0.7546771E-02  0.1160796E+00
          2   -1    0    0  503    0  0.00000000000E+00  0.00000000000E+00  0.28559633766E+04  0.28559633766E+04  0.00000000000E+00 0.  1.
         -2   -1    0    0    0  501 -0.00000000000E+00 -0.00000000000E+00 -0.12911274308E+02  0.12911274308E+02  0.00000000000E+00 0. -1.
          6    2    1    2  503    0 -0.67557968764E+02  0.77109156596E+01  0.17478980502E+04  0.17581421409E+04  0.17689730499E+03 0.  0.
         24    2    3    3    0    0  0.98099652180E+01 -0.33725945490E+02  0.11996937121E+04  0.12029368664E+04  0.80984113625E+02 0.  0.
         -6    2    1    2    0  501  0.67557968764E+02 -0.77109156596E+01  0.10951540521E+04  0.11107325100E+04  0.17245513477E+03 0.  0.
        -24    2    5    5    0    0 -0.21338721666E+02 -0.23725423120E+02  0.70402615415E+03  0.70928237785E+03  0.80065155135E+02 0.  0.
          4    1    4    4  502    0 -0.34765247044E+02 -0.25059649152E+02  0.59025728113E+03  0.59181100559E+03  0.00000000000E+00 0. -1.
         -3    1    4    4    0  502  0.44575212262E+02 -0.86662963385E+01  0.60943643102E+03  0.61112586076E+03  0.00000000000E+00 0.  1.
          5    1    3    3  503    0 -0.77367933981E+02  0.41436861150E+02  0.54820433802E+03  0.55520527456E+03  0.47000000000E+01 0. -1.
         11    1    6    6    0    0 -0.52082193879E+02 -0.15847304936E+02  0.43876047765E+03  0.44212492436E+03  0.00000000000E+00 0. -1.
        -12    1    6    6    0    0  0.30743472213E+02 -0.78781181845E+01  0.26526567650E+03  0.26715745349E+03  0.00000000000E+00 0.  1.
         -5    1    5    5    0  501  0.88896690430E+02  0.16014507461E+02  0.39112789794E+03  0.40145013211E+03  0.47000000000E+01 0.  1.
<mgrwt>
<rscale>  2 0.18743448E+03</rscale>
<asrwt>0</asrwt>
<pdfrwt beam="1">  1        2 0.43937848E+00 0.18743448E+03</pdfrwt>
<pdfrwt beam="2">  1       -2 0.19863522E-02 0.18743448E+03</pdfrwt>
<totfact> 0.19979289E+03</totfact>
</mgrwt>
</event>
<event>
12    1  0.1093377E-001  0.2730470E+03  0.7546771E-02  0.1099548E+00
         -2   -1    0    0    0  501 -0.00000000000E+00  0.00000000000E+00  0.57323920032E+03  0.57323920032E+03  0.00000000000E+00 0.  1.
          2   -1    0    0  503    0  0.00000000000E+00 -0.00000000000E+00 -0.33349562910E+03  0.33349562910E+03  0.00000000000E+00 0. -1.
          6    2    1    2  503    0 -0.13180690917E+03 -0.16463544650E+03  0.47383858052E+03  0.54650968147E+03  0.17225544984E+03 0.  0.
         24    2    3    3    0    0 -0.92939233141E+02 -0.47876119199E+02  0.32377394318E+03  0.35238363445E+03  0.91732413554E+02 0.  0.
         -6    2    1    2    0  501  0.13180690917E+03  0.16463544650E+03 -0.23409500930E+03  0.36022514796E+03  0.17459608326E+03 0.  0.
        -24    2    5    5    0    0  0.52829980457E+02  0.16581041787E+03 -0.13357069844E+03  0.23229562478E+03  0.76393876066E+02 0.  0.
          2    1    4    4  502    0 -0.47462971568E+02  0.23732948043E+02  0.14762645755E+03  0.15687433653E+03  0.00000000000E+00 0. -1.
         -1    1    4    4    0  502 -0.45476261573E+02 -0.71609067242E+02  0.17614748563E+03  0.19550929792E+03  0.00000000000E+00 0.  1.
          5    1    3    3  503    0 -0.38867676030E+02 -0.11675932730E+03  0.15006463734E+03  0.19412604702E+03  0.47000000000E+01 0. -1.
         11    1    6    6    0    0  0.72427554444E+02  0.13739818574E+03 -0.11348467649E+03  0.19236107685E+03  0.00000000000E+00 0. -1.
        -12    1    6    6    0    0 -0.19597573987E+02  0.28412232130E+02 -0.20086021941E+02  0.39934547928E+02  0.00000000000E+00 0.  1.
         -5    1    5    5    0  501  0.78976928714E+02 -0.11749713653E+01 -0.10052431086E+03  0.12792952318E+03  0.47000000000E+01 0.  1.
<mgrwt>
<rscale>  2 0.27304698E+03</rscale>
<asrwt>0</asrwt>
<pdfrwt beam="2">  1        2 0.51307020E-01 0.27304698E+03</pdfrwt>
<pdfrwt beam="1">  1       -2 0.88190646E-01 0.27304698E+03</pdfrwt>
<totfact> 0.11252833E+02</totfact>
</mgrwt>
</event>
<event>
12    1  0.1093377E-001  0.1915949E+03  0.7546771E-02  0.1157031E+00
          1   -1    0    0  503    0  0.00000000000E+00  0.00000000000E+00  0.14177218900E+03  0.14177218900E+03  0.00000000000E+00 0. -1.
         -1   -1    0    0    0  501 -0.00000000000E+00 -0.00000000000E+00 -0.28440598248E+03  0.28440598248E+03  0.00000000000E+00 0.  1.
          6    2    1    2  503    0 -0.31023075480E+02 -0.76515325819E+02 -0.75193855415E+01  0.19169139455E+03  0.17283524897E+03 0.  0.
         24    2    3    3    0    0  0.25822275482E+02 -0.10137460952E+02 -0.45162479163E+02  0.96420688829E+02  0.80546518761E+02 0.  0.
         -6    2    1    2    0  501  0.31023075480E+02  0.76515325819E+02 -0.13511440794E+03  0.23448677694E+03  0.17294831318E+03 0.  0.
        -24    2    5    5    0    0 -0.33039597428E+02  0.88055095660E+02 -0.63071017670E+02  0.13727807142E+03  0.77601551224E+02 0.  0.
          4    1    4    4  502    0  0.44261550495E+02 -0.14494469119E+02  0.93233888459E+00  0.46583728308E+02  0.00000000000E+00 0. -1.
         -3    1    4    4    0  502 -0.18439275013E+02  0.43570081664E+01 -0.46094818048E+02  0.49836960521E+02  0.00000000000E+00 0.  1.
          5    1    3    3  503    0 -0.56845350962E+02 -0.66377864867E+02  0.37643093622E+02  0.95270705717E+02  0.47000000000E+01 0. -1.
         13    1    6    6    0    0  0.83777155547E+01  0.45383938360E+02  0.55414288534E+01  0.46482205334E+02  0.00000000000E+00 0. -1.
        -14    1    6    6    0    0 -0.41417312983E+02  0.42671157301E+02 -0.68612446523E+02  0.90795866084E+02  0.00000000000E+00 0.  1.
         -5    1    5    5    0  501  0.64062672908E+02 -0.11539769841E+02 -0.72043390267E+02  0.97208705522E+02  0.47000000000E+01 0.  1.
<mgrwt>
<rscale>  2 0.19159486E+03</rscale>
<asrwt>0</asrwt>
<pdfrwt beam="1">  1        1 0.21811106E-01 0.19159486E+03</pdfrwt>
<pdfrwt beam="2">  1       -1 0.43754766E-01 0.19159486E+03</pdfrwt>
<totfact> 0.11904232E+03</totfact>
</mgrwt>
</event>
<event>
12    1  0.1093377E-001  0.1951043E+03  0.7546771E-02  0.1153936E+00
          2   -1    0    0  503    0  0.00000000000E+00  0.00000000000E+00  0.90401625580E+03  0.90401625580E+03  0.00000000000E+00 0. -1.
         -2   -1    0    0    0  501 -0.00000000000E+00 -0.00000000000E+00 -0.47744925156E+02  0.47744925156E+02  0.00000000000E+00 0.  1.
          6    2    1    2  503    0  0.30862870382E+02 -0.83851167515E+02  0.26609401413E+03  0.33040841278E+03  0.17429905283E+03 0.  0.
         24    2    3    3    0    0  0.79607528842E+02 -0.27820218877E+02  0.12544771814E+03  0.17128902518E+03  0.80569702340E+02 0.  0.
         -6    2    1    2    0  501 -0.30862870382E+02  0.83851167515E+02  0.59017731651E+03  0.62135276817E+03  0.17258755033E+03 0.  0.
        -24    2    5    5    0    0 -0.76099946236E+02  0.93002706138E+02  0.39606794150E+03  0.42177650917E+03  0.81147422853E+02 0.  0.
          2    1    4    4  502    0  0.33945754087E+00  0.17345325846E+02  0.49924510085E+02  0.52852930546E+02  0.00000000000E+00 0. -1.
         -1    1    4    4    0  502  0.79268071301E+02 -0.45165544723E+02  0.75523208055E+02  0.11843609464E+03  0.00000000000E+00 0.  1.
          5    1    3    3  503    0 -0.48744658460E+02 -0.56030948638E+02  0.14064629599E+03  0.15911938760E+03  0.47000000000E+01 0. -1.
         11    1    6    6    0    0 -0.73364355643E+02  0.26383507089E+02  0.22827139151E+03  0.24121825450E+03  0.00000000000E+00 0. -1.
        -12    1    6    6    0    0 -0.27355905930E+01  0.66619199049E+02  0.16779654999E+03  0.18055825467E+03  0.00000000000E+00 0.  1.
         -5    1    5    5    0  501  0.45237075854E+02 -0.91515386231E+01  0.19410937501E+03  0.19957625900E+03  0.47000000000E+01 0.  1.
<mgrwt>
<rscale>  2 0.19510430E+03</rscale>
<asrwt>0</asrwt>
<pdfrwt beam="1">  1        2 0.13907941E+00 0.19510430E+03</pdfrwt>
<pdfrwt beam="2">  1       -2 0.73453738E-02 0.19510430E+03</pdfrwt>
<totfact> 0.32354339E+03</totfact>
</mgrwt>
</event>
<event>
12    1  0.1192828E-001  0.2370244E+03  0.7546771E-02  0.1121791E+00
         -2   -1    0    0    0  501 -0.00000000000E+00  0.00000000000E+00  0.10233731822E+03  0.10233731822E+03  0.00000000000E+00 0. -1.
          2   -1    0    0  503    0  0.00000000000E+00 -0.00000000000E+00 -0.61082515646E+03  0.61082515646E+03  0.00000000000E+00 0.  1.
          6    2    1    2  503    0 -0.68521666281E+02 -0.14882619720E+03 -0.14205421950E+03  0.27745911058E+03  0.17308870860E+03 0.  0.
         24    2    3    3    0    0 -0.33178252701E+02 -0.48608809642E+02 -0.13855334818E+03  0.17103060053E+03  0.81183885093E+02 0.  0.
         -6    2    1    2    0  501  0.68521666281E+02  0.14882619720E+03 -0.36643361875E+03  0.43570336409E+03  0.16946789905E+03 0.  0.
        -24    2    5    5    0    0  0.80984700066E+02  0.32884403832E+02 -0.17845738010E+03  0.21444563438E+03  0.80622502642E+02 0.  0.
          2    1    4    4  502    0  0.21452606719E+02 -0.10781412978E+02 -0.76254471540E+02  0.79944966262E+02  0.00000000000E+00 0. -1.
         -1    1    4    4    0  502 -0.54630859420E+02 -0.37827396664E+02 -0.62298876635E+02  0.91085634265E+02  0.00000000000E+00 0.  1.
          5    1    3    3  503    0 -0.35343413580E+02 -0.10021738756E+03 -0.35008713221E+01  0.10642851006E+03  0.47000000000E+01 0. -1.
         13    1    6    6    0    0 -0.10200793344E+02  0.27539862731E+01  0.12977203987E+01  0.10645407623E+02  0.00000000000E+00 0. -1.
        -14    1    6    6    0    0  0.91185493409E+02  0.30130417559E+02 -0.17975510050E+03  0.20380022676E+03  0.00000000000E+00 0.  1.
         -5    1    5    5    0  501 -0.12463033784E+02  0.11594179337E+03 -0.18797623864E+03  0.22125772971E+03  0.47000000000E+01 0.  1.
<mgrwt>
<rscale>  2 0.23702440E+03</rscale>
<asrwt>0</asrwt>
<pdfrwt beam="2">  1        2 0.93973101E-01 0.23702440E+03</pdfrwt>
<pdfrwt beam="1">  1       -2 0.15744203E-01 0.23702440E+03</pdfrwt>
<totfact> 0.15570526E+03</totfact>
</mgrwt>
</event>
<event>
12    1  0.1093377E-001  0.2053698E+03  0.7546771E-02  0.1145286E+00
          4   -1    0    0  503    0  0.00000000000E+00  0.00000000000E+00  0.23272198165E+02  0.23272198165E+02  0.00000000000E+00 0. -1.
         -4   -1    0    0    0  501 -0.00000000000E+00 -0.00000000000E+00 -0.19025933747E+04  0.19025933747E+04  0.00000000000E+00 0.  1.
          6    2    1    2  503    0 -0.89555018226E+02 -0.68928149468E+02 -0.11403622159E+04  0.11583518025E+04  0.16906130150E+03 0.  0.
         24    2    3    3    0    0  0.12804478286E+02 -0.12104078929E+02 -0.34101938979E+03  0.35046722826E+03  0.78883398035E+02 0.  0.
         -6    2    1    2    0  501  0.89555018226E+02  0.68928149468E+02 -0.73895896064E+03  0.76751377044E+03  0.17391334401E+03 0.  0.
        -24    2    5    5    0    0  0.13105475420E+03  0.50486904437E+02 -0.56096607752E+03  0.58375886834E+03  0.79794737425E+02 0.  0.
          2    1    4    4  502    0  0.31520838721E+02 -0.36204680759E+02 -0.16574810086E+03  0.17255948285E+03  0.00000000000E+00 0. -1.
         -1    1    4    4    0  502 -0.18716360434E+02  0.24100601830E+02 -0.17527128892E+03  0.17790774541E+03  0.00000000000E+00 0.  1.
          5    1    3    3  503    0 -0.10235949651E+03 -0.56824070539E+02 -0.79934282615E+03  0.80788457420E+03  0.47000000000E+01 0. -1.
         13    1    6    6    0    0  0.70221414037E+02 -0.14940915118E+02 -0.27039650818E+03  0.27976516862E+03  0.00000000000E+00 0. -1.
        -14    1    6    6    0    0  0.60833340160E+02  0.65427819555E+02 -0.29056956934E+03  0.30399369973E+03  0.00000000000E+00 0.  1.
         -5    1    5    5    0  501 -0.41499735971E+02  0.18441245031E+02 -0.17799288311E+03  0.18375490209E+03  0.47000000000E+01 0.  1.
<mgrwt>
<rscale>  2 0.20536984E+03</rscale>
<asrwt>0</asrwt>
<pdfrwt beam="1">  1        4 0.35803383E-02 0.20536984E+03</pdfrwt>
<pdfrwt beam="2">  1       -4 0.29270666E+00 0.20536984E+03</pdfrwt>
<totfact> 0.29695483E+01</totfact>
</mgrwt>
</event>
<event>
12    1  0.1093377E-001  0.1983705E+03  0.7546771E-02  0.1151121E+00
          2   -1    0    0  503    0  0.00000000000E+00  0.00000000000E+00  0.12253658443E+04  0.12253658443E+04  0.00000000000E+00 0.  1.
         -2   -1    0    0    0  501 -0.00000000000E+00 -0.00000000000E+00 -0.38051784220E+02  0.38051784220E+02  0.00000000000E+00 0. -1.
          6    2    1    2  503    0  0.93398425407E+02  0.47316898120E+02  0.83065649976E+03  0.85292837579E+03  0.16289394991E+03 0.  0.
         24    2    3    3    0    0  0.11966846951E+03  0.39250998653E+02  0.78746423463E+03  0.80151985783E+03  0.80454820770E+02 0.  0.
         -6    2    1    2    0  501 -0.93398425407E+02 -0.47316898120E+02  0.35665756035E+03  0.41048925276E+03  0.17416847178E+03 0.  0.
        -24    2    5    5    0    0 -0.12427895081E+03 -0.56673630572E+02  0.33593816394E+03  0.37185586462E+03  0.82250690227E+02 0.  0.
          2    1    4    4  502    0  0.14675099524E+02  0.31410445468E+02  0.95639246583E+02  0.10172924908E+03  0.00000000000E+00 0. -1.
         -1    1    4    4    0  502  0.10499336999E+03  0.78405531853E+01  0.69182498805E+03  0.69979060876E+03  0.00000000000E+00 0.  1.
          5    1    3    3  503    0 -0.26270044107E+02  0.80658994665E+01  0.43192265130E+02  0.51408517958E+02  0.47000000000E+01 0. -1.
         13    1    6    6    0    0 -0.10891089359E+03 -0.10407243595E+02  0.20956731698E+03  0.23640717800E+03  0.00000000000E+00 0. -1.
        -14    1    6    6    0    0 -0.15368057226E+02 -0.46266386977E+02  0.12637084696E+03  0.13544868663E+03  0.00000000000E+00 0.  1.
         -5    1    5    5    0  501  0.30880525408E+02  0.93567324521E+01  0.20719396410E+02  0.38633388141E+02  0.47000000000E+01 0.  1.
<mgrwt>
<rscale>  2 0.19837050E+03</rscale>
<asrwt>0</asrwt>
<pdfrwt beam="1">  1        2 0.18851779E+00 0.19837050E+03</pdfrwt>
<pdfrwt beam="2">  1       -2 0.58541216E-02 0.19837050E+03</pdfrwt>
<totfact> 0.29591219E+03</totfact>
</mgrwt>
</event>
<event>
12    1  0.1093377E-001  0.2560159E+03  0.7546771E-02  0.1109561E+00
          2   -1    0    0  503    0  0.00000000000E+00  0.00000000000E+00  0.45122117710E+03  0.45122117710E+03  0.00000000000E+00 0.  1.
         -2   -1    0    0    0  501 -0.00000000000E+00 -0.00000000000E+00 -0.17524079344E+03  0.17524079344E+03  0.00000000000E+00 0. -1.
          6    2    1    2  503    0  0.16792908173E+03  0.84593920455E+02  0.87104617931E+01  0.25678804964E+03  0.17466517232E+03 0.  0.
         24    2    3    3    0    0  0.19158125438E+03  0.72120851055E+02  0.31249205053E+02  0.22150224967E+03  0.78625311476E+02 0.  0.
         -6    2    1    2    0  501 -0.16792908173E+03 -0.84593920455E+02  0.26726992186E+03  0.36967392090E+03  0.17282733809E+03 0.  0.
        -24    2    5    5    0    0 -0.10199432483E+03 -0.12237502084E+03  0.19576594050E+03  0.26522434902E+03  0.81493336133E+02 0.  0.
          2    1    4    4  502    0  0.17774751307E+03  0.86847140460E+02  0.35139381313E+02  0.20092630571E+03  0.00000000000E+00 0. -1.
         -1    1    4    4    0  502  0.13833741315E+02 -0.14726289406E+02 -0.38901762597E+01  0.20575943958E+02  0.00000000000E+00 0.  1.
          5    1    3    3  503    0 -0.23652172651E+02  0.12473069400E+02 -0.22538743260E+02  0.35285799964E+02  0.47000000000E+01 0. -1.
         13    1    6    6    0    0  0.78769888430E+01 -0.18427871090E+02  0.55258952727E+02  0.58780823766E+02  0.00000000000E+00 0. -1.
        -14    1    6    6    0    0 -0.10987131367E+03 -0.10394714975E+03  0.14050698777E+03  0.20644352526E+03  0.00000000000E+00 0.  1.
         -5    1    5    5    0  501 -0.65934756906E+02  0.37781100383E+02  0.71503981366E+02  0.10444957188E+03  0.47000000000E+01 0.  1.
<mgrwt>
<rscale>  2 0.25601589E+03</rscale>
<asrwt>0</asrwt>
<pdfrwt beam="1">  1        2 0.69418642E-01 0.25601589E+03</pdfrwt>
<pdfrwt beam="2">  1       -2 0.26960122E-01 0.25601589E+03</pdfrwt>
<totfact> 0.86934479E+02</totfact>
</mgrwt>
</event>
<event>
12    1  0.1093377E-001  0.2352407E+03  0.7546771E-02  0.1123005E+00
         -2   -1    0    0    0  501 -0.00000000000E+00  0.00000000000E+00  0.30834749792E+02  0.30834749792E+02  0.00000000000E+00 0.  1.
          2   -1    0    0  503    0  0.00000000000E+00 -0.00000000000E+00 -0.23434261791E+04  0.23434261791E+04  0.00000000000E+00 0. -1.
          6    2    1    2  503    0 -0.13783233632E+03 -0.71965759604E+02 -0.17209698116E+04  0.17366295305E+04  0.17311328775E+03 0.  0.
         24    2    3    3    0    0 -0.24233850163E+01 -0.50625918459E+02 -0.62255386529E+03  0.62968298529E+03  0.79740142750E+02 0.  0.
         -6    2    1    2    0  501  0.13783233632E+03  0.71965759604E+02 -0.59162161775E+03  0.63763139840E+03  0.17994676476E+03 0.  0.
        -24    2    5    5    0    0  0.13597633776E+03  0.56973150959E+02 -0.59758170171E+03  0.62072472382E+03  0.80372807494E+02 0.  0.
          2    1    4    4  502    0 -0.21662945764E+02 -0.65373843858E+02 -0.40902324562E+03  0.41478071090E+03  0.00000000000E+00 0. -1.
         -1    1    4    4    0  502  0.19239560748E+02  0.14747925400E+02 -0.21353061967E+03  0.21490227439E+03  0.00000000000E+00 0.  1.
          5    1    3    3  503    0 -0.13540895130E+03 -0.21339841146E+02 -0.10984159463E+04  0.11069465452E+04  0.47000000000E+01 0. -1.
         11    1    6    6    0    0 -0.47592378663E+00 -0.10427369598E+02 -0.95905366160E+02  0.96471735749E+02  0.00000000000E+00 0. -1.
        -12    1    6    6    0    0  0.13645226154E+03  0.67400520557E+02 -0.50167633555E+03  0.52425298807E+03  0.00000000000E+00 0.  1.
         -5    1    5    5    0  501  0.18559985607E+01  0.14992608645E+02  0.59600839564E+01  0.16906674582E+02  0.47000000000E+01 0.  1.
<mgrwt>
<rscale>  2 0.23524073E+03</rscale>
<asrwt>0</asrwt>
<pdfrwt beam="2">  1        2 0.36052724E+00 0.23524073E+03</pdfrwt>
<pdfrwt beam="1">  1       -2 0.47438059E-02 0.23524073E+03</pdfrwt>
<totfact> 0.10405330E+03</totfact>
</mgrwt>
</event>
<event>
12    1  0.1093377E-001  0.1833670E+03  0.7546771E-02  0.1164584E+00
          1   -1    0    0  503    0  0.00000000000E+00  0.00000000000E+00  0.33200069331E+03  0.33200069331E+03  0.00000000000E+00 0.  1.
         -1   -1    0    0    0  501 -0.00000000000E+00 -0.00000000000E+00 -0.12435919798E+03  0.12435919798E+03  0.00000000000E+00 0. -1.
          6    2    1    2  503    0  0.48110051782E+02 -0.51234940844E+02  0.73806011105E+01  0.18736459641E+03  0.17352643162E+03 0.  0.
         24    2    3    3    0    0 -0.44102448698E+02 -0.36359565545E+02  0.16040513318E+02  0.93441723186E+02  0.72159639527E+02 0.  0.
         -6    2    1    2    0  501 -0.48110051782E+02  0.51234940844E+02  0.20026089422E+03  0.26899529488E+03  0.16527082825E+03 0.  0.
        -24    2    5    5    0    0 -0.45587140599E+02  0.11676116612E+01  0.39930065180E+02  0.10094420957E+03  0.80720335952E+02 0.  0.
          2    1    4    4  502    0 -0.48771508989E+02  0.59910099307E+01  0.47697991143E+01  0.49369051770E+02  0.00000000000E+00 0. -1.
         -1    1    4    4    0  502  0.46690602906E+01 -0.42350575475E+02  0.11270714204E+02  0.44072671416E+02  0.00000000000E+00 0.  1.
          5    1    3    3  503    0  0.92212500480E+02 -0.14875375299E+02 -0.86599122077E+01  0.93922873223E+02  0.47000000000E+01 0. -1.
         11    1    6    6    0    0 -0.34738298250E+02  0.65017844196E+01 -0.19454023945E+02  0.40342057627E+02  0.00000000000E+00 0. -1.
        -12    1    6    6    0    0 -0.10848842349E+02 -0.53341727584E+01  0.59384089125E+02  0.60602151946E+02  0.00000000000E+00 0.  1.
         -5    1    5    5    0  501 -0.25229111831E+01  0.50067329182E+02  0.16033082904E+03  0.16805108531E+03  0.47000000000E+01 0.  1.
<mgrwt>
<rscale>  2 0.18336701E+03</rscale>
<asrwt>0</asrwt>
<pdfrwt beam="1">  1        1 0.51077030E-01 0.18336701E+03</pdfrwt>
<pdfrwt beam="2">  1       -1 0.19132184E-01 0.18336701E+03</pdfrwt>
<totfact> 0.16540998E+03</totfact>
</mgrwt>
</event>
<event>
12    1  0.1093377E-001  0.2782922E+03  0.7546771E-02  0.1096625E+00
          4   -1    0    0  503    0  0.00000000000E+00  0.00000000000E+00  0.63148567010E+03  0.63148567010E+03  0.00000000000E+00 0. -1.
         -4   -1    0    0    0  501 -0.00000000000E+00 -0.00000000000E+00 -0.13243163621E+03  0.13243163621E+03  0.00000000000E+00 0.  1.
          6    2    1    2  503    0 -0.21109071093E+03 -0.50934373446E+02  0.35372873605E+03  0.45034162145E+03  0.17472824231E+03 0.  0.
         24    2    3    3    0    0 -0.16123382370E+03  0.13483798572E+00  0.14823131398E+03  0.23275243505E+03  0.78770613117E+02 0.  0.
         -6    2    1    2    0  501  0.21109071093E+03  0.50934373446E+02  0.14532529784E+03  0.31357568487E+03  0.17336859378E+03 0.  0.
        -24    2    5    5    0    0  0.18986884078E+03 -0.15799786530E+02  0.11448349527E+03  0.23691329079E+03  0.81985527443E+02 0.  0.
          4    1    4    4  502    0 -0.15404275791E+03  0.17545601245E+02  0.10989064570E+03  0.19003413746E+03  0.00000000000E+00 0. -1.
         -3    1    4    4    0  502 -0.71910657816E+01 -0.17410763259E+02  0.38340668277E+02  0.42718297581E+02  0.00000000000E+00 0.  1.
          5    1    3    3  503    0 -0.49856887235E+02 -0.51069211432E+02  0.20549742207E+03  0.21758918640E+03  0.47000000000E+01 0. -1.
         11    1    6    6    0    0  0.88964698404E+02  0.46438232461E+01  0.98356192979E+02  0.13270351673E+03  0.00000000000E+00 0. -1.
        -12    1    6    6    0    0  0.10090414238E+03 -0.20443609776E+02  0.16127302289E+02  0.10420977405E+03  0.00000000000E+00 0.  1.
         -5    1    5    5    0  501  0.21221870152E+02  0.66734159976E+02  0.30841802569E+02  0.76662394081E+02  0.47000000000E+01 0.  1.
<mgrwt>
<rscale>  2 0.27829220E+03</rscale>
<asrwt>0</asrwt>
<pdfrwt beam="1">  1        4 0.97151640E-01 0.27829220E+03</pdfrwt>
<pdfrwt beam="2">  1       -4 0.20374098E-01 0.27829220E+03</pdfrwt>
<totfact> 0.36668659E+01</totfact>
</mgrwt>
</event>
<event>
12    1  0.1093377E-001  0.1822810E+03  0.7546771E-02  0.1165614E+00
          2   -1    0    0  503    0  0.00000000000E+00  0.00000000000E+00  0.67081178279E+03  0.67081178279E+03  0.00000000000E+00 0.  1.
         -2   -1    0    0    0  501 -0.00000000000E+00 -0.00000000000E+00 -0.65756901117E+02  0.65756901117E+02  0.00000000000E+00 0. -1.
          6    2    1    2  503    0  0.37562424074E+02 -0.44274087500E+02  0.48408711098E+03  0.51688505267E+03  0.17163535805E+03 0.  0.
         24    2    3    3    0    0 -0.28989720654E+02 -0.61621895299E+02  0.21862319824E+03  0.24261636440E+03  0.80180643414E+02 0.  0.
         -6    2    1    2    0  501 -0.37562424074E+02  0.44274087500E+02  0.12096777070E+03  0.21968363124E+03  0.17394414552E+03 0.  0.
        -24    2    5    5    0    0 -0.88894147832E+02 -0.21681367072E+01  0.81023428830E+02  0.13962448747E+03  0.70875462238E+02 0.  0.
          2    1    4    4  502    0  0.22420522477E+02 -0.50041864578E+00  0.27557231120E+02  0.35529301062E+02  0.00000000000E+00 0. -1.
         -1    1    4    4    0  502 -0.51410243131E+02 -0.61121476654E+02  0.19106596712E+03  0.20708706333E+03  0.00000000000E+00 0.  1.
          5    1    3    3  503    0  0.66552144727E+02  0.17347807799E+02  0.26546391274E+03  0.27426868828E+03  0.47000000000E+01 0. -1.
         11    1    6    6    0    0 -0.91228114077E+01 -0.28312633741E+02  0.22312564255E+02  0.37184424710E+02  0.00000000000E+00 0. -1.
        -12    1    6    6    0    0 -0.79771336424E+02  0.26144497034E+02  0.58710864575E+02  0.10244006276E+03  0.00000000000E+00 0.  1.
         -5    1    5    5    0  501  0.51331723758E+02  0.46442224208E+02  0.39944341866E+02  0.80059143765E+02  0.47000000000E+01 0.  1.
<mgrwt>
<rscale>  2 0.18228101E+03</rscale>
<asrwt>0</asrwt>
<pdfrwt beam="1">  1        2 0.10320181E+00 0.18228101E+03</pdfrwt>
<pdfrwt beam="2">  1       -2 0.10116447E-01 0.18228101E+03</pdfrwt>
<totfact> 0.28423339E+03</totfact>
</mgrwt>
</event>
<event>
12    1  0.1093377E-001  0.1788332E+03  0.7546771E-02  0.1168937E+00
         -2   -1    0    0    0  501 -0.00000000000E+00  0.00000000000E+00  0.22986904745E+03  0.22986904745E+03  0.00000000000E+00 0. -1.
          2   -1    0    0  503    0  0.00000000000E+00 -0.00000000000E+00 -0.14054819882E+03  0.14054819882E+03  0.00000000000E+00 0.  1.
          6    2    1    2  503    0 -0.34336262817E+02  0.23427532955E+02  0.63124526090E+02  0.18910828358E+03  0.17334765323E+03 0.  0.
         24    2    3    3    0    0 -0.23504704682E+02 -0.52460322752E+02  0.45207756647E+02  0.11024517483E+03  0.82496670880E+02 0.  0.
         -6    2    1    2    0  501  0.34336262817E+02 -0.23427532955E+02  0.26196322537E+02  0.18130896268E+03  0.17452468132E+03 0.  0.
        -24    2    5    5    0    0  0.74471992864E+01  0.24056173037E+02  0.70498000354E+02  0.11086428418E+03  0.81772618974E+02 0.  0.
          2    1    4    4  502    0  0.20211745208E+01 -0.17291508657E+02 -0.23319282559E+02  0.29101037046E+02  0.00000000000E+00 0. -1.
         -1    1    4    4    0  502 -0.25525879203E+02 -0.35168814095E+02  0.68527039206E+02  0.81144137782E+02  0.00000000000E+00 0.  1.
          5    1    3    3  503    0 -0.10831558135E+02  0.75887855707E+02  0.17916769443E+02  0.78863108757E+02  0.47000000000E+01 0. -1.
         13    1    6    6    0    0 -0.17095493622E+02  0.30137770398E+02 -0.13722093661E+01  0.34675986868E+02  0.00000000000E+00 0. -1.
        -14    1    6    6    0    0  0.24542692908E+02 -0.60815973612E+01  0.71870209720E+02  0.76188297309E+02  0.00000000000E+00 0.  1.
         -5    1    5    5    0  501  0.26889063531E+02 -0.47483705992E+02 -0.44301677817E+02  0.70444678505E+02  0.47000000000E+01 0.  1.
<mgrwt>
<rscale>  2 0.17883319E+03</rscale>
<asrwt>0</asrwt>
<pdfrwt beam="2">  1        2 0.21622800E-01 0.17883319E+03</pdfrwt>
<pdfrwt beam="1">  1       -2 0.35364469E-01 0.17883319E+03</pdfrwt>
<totfact> 0.18803520E+03</totfact>
</mgrwt>
</event>
<event>
12    1  0.1464142E-001  0.2099117E+03  0.7546771E-02  0.1141636E+00
         -3   -1    0    0    0  501 -0.00000000000E+00  0.00000000000E+00  0.11167119479E+03  0.11167119479E+03  0.00000000000E+00 0. -1.
          3   -1    0    0  503    0  0.00000000000E+00 -0.00000000000E+00 -0.69759230704E+03  0.69759230704E+03  0.00000000000E+00 0.  1.
          6    2    1    2  503    0 -0.11407631520E+03  0.39703635420E+02 -0.27332002989E+02  0.21299674523E+03  0.17329394316E+03 0.  0.
         24    2    3    3    0    0 -0.10005804355E+03  0.59711514736E+02 -0.74496179107E+02  0.15967342309E+03  0.79805039121E+02 0.  0.
         -6    2    1    2    0  501  0.11407631520E+03 -0.39703635420E+02 -0.55858910926E+03  0.59626675660E+03  0.17006606860E+03 0.  0.
        -24    2    5    5    0    0  0.35331486872E+02  0.40421406178E+02 -0.30847431886E+03  0.32204008275E+03  0.75307406371E+02 0.  0.
          2    1    4    4  502    0 -0.10620786962E+03  0.32024413215E+02 -0.48035040356E+02  0.12088440641E+03  0.00000000000E+00 0. -1.
         -1    1    4    4    0  502  0.61498260677E+01  0.27687101521E+02 -0.26461138751E+02  0.38789016684E+02  0.00000000000E+00 0.  1.
          5    1    3    3  503    0 -0.14018271648E+02 -0.20007879316E+02  0.47164176119E+02  0.53323322137E+02  0.47000000000E+01 0. -1.
         11    1    6    6    0    0  0.10387521379E+02 -0.56796610339E+00 -0.56910069910E+00  0.10418592107E+02  0.00000000000E+00 0. -1.
        -12    1    6    6    0    0  0.24943965494E+02  0.40989372281E+02 -0.30790521817E+03  0.31162149064E+03  0.00000000000E+00 0.  1.
         -5    1    5    5    0  501  0.78744828327E+02 -0.80125041597E+02 -0.25011479040E+03  0.27422667386E+03  0.47000000000E+01 0.  1.
<mgrwt>
<rscale>  2 0.20991172E+03</rscale>
<asrwt>0</asrwt>
<pdfrwt beam="2">  1        3 0.10732189E+00 0.20991172E+03</pdfrwt>
<pdfrwt beam="1">  1       -3 0.17180184E-01 0.20991172E+03</pdfrwt>
<totfact> 0.55382494E+01</totfact>
</mgrwt>
</event>
<event>
12    1  0.1093377E-001  0.2058030E+03  0.7546771E-02  0.1144933E+00
          2   -1    0    0  503    0  0.00000000000E+00  0.00000000000E+00  0.61985060888E+02  0.61985060888E+02  0.00000000000E+00 0.  1.
         -2   -1    0    0    0  501 -0.00000000000E+00 -0.00000000000E+00 -0.90390169943E+03  0.90390169943E+03  0.00000000000E+00 0. -1.
          6    2    1    2  503    0  0.10389928675E+03 -0.30769192560E+02 -0.18534545940E+03  0.27837779704E+03  0.17719890960E+03 0.  0.
         24    2    3    3    0    0  0.52819212477E+01 -0.56414934984E+02 -0.12697195745E+03  0.16085058907E+03  0.80873298697E+02 0.  0.
         -6    2    1    2    0  501 -0.10389928675E+03  0.30769192560E+02 -0.65657117913E+03  0.68750896328E+03  0.17274564052E+03 0.  0.
        -24    2    5    5    0    0 -0.94366257817E+02 -0.25533165399E+02 -0.56743828174E+03  0.58154860489E+03  0.81582124953E+02 0.  0.
          4    1    4    4  502    0  0.16007543444E+02 -0.60892629405E+00 -0.93574886735E+02  0.94936145202E+02  0.00000000000E+00 0. -1.
         -3    1    4    4    0  502 -0.10725622196E+02 -0.55806008690E+02 -0.33397070718E+02  0.65914443864E+02  0.00000000000E+00 0.  1.
          5    1    3    3  503    0  0.98617365504E+02  0.25645742424E+02 -0.58373501951E+02  0.11752720797E+03  0.47000000000E+01 0. -1.
         13    1    6    6    0    0  0.11468524096E+02 -0.59178449119E+01 -0.14646562227E+03  0.14703307941E+03  0.00000000000E+00 0. -1.
        -14    1    6    6    0    0 -0.10583478191E+03 -0.19615320487E+02 -0.42097265947E+03  0.43451552548E+03  0.00000000000E+00 0.  1.
         -5    1    5    5    0  501 -0.95330289348E+01  0.56302357959E+02 -0.89132897396E+02  0.10596035839E+03  0.47000000000E+01 0.  1.
<mgrwt>
<rscale>  2 0.20580304E+03</rscale>
<asrwt>0</asrwt>
<pdfrwt beam="1">  1        2 0.95361634E-02 0.20580304E+03</pdfrwt>
<pdfrwt beam="2">  1       -2 0.13906180E+00 0.20580304E+03</pdfrwt>
<totfact> 0.26164144E+02</totfact>
</mgrwt>
</event>
<event>
12    1  0.1093377E-001  0.1810069E+03  0.7546771E-02  0.1166832E+00
         -2   -1    0    0    0  501 -0.00000000000E+00  0.00000000000E+00  0.30694515971E+03  0.30694515971E+03  0.00000000000E+00 0.  1.
          2   -1    0    0  503    0  0.00000000000E+00 -0.00000000000E+00 -0.16408490140E+03  0.16408490140E+03  0.00000000000E+00 0. -1.
          6    2    1    2  503    0  0.48627477708E+02  0.14941963115E+02 -0.67765693021E+02  0.19339702228E+03  0.17384569373E+03 0.  0.
         24    2    3    3    0    0 -0.34451301012E+02 -0.41134457093E+01 -0.64098569823E+02  0.10795271369E+03  0.79632588567E+02 0.  0.
         -6    2    1    2    0  501 -0.48627477708E+02 -0.14941963115E+02  0.21062595133E+03  0.27763303882E+03  0.17357683895E+03 0.  0.
        -24    2    5    5    0    0 -0.61130853902E+02  0.22523634144E+02  0.52886993618E+02  0.11495644501E+03  0.78572608207E+02 0.  0.
          4    1    4    4  502    0 -0.40456392167E+02 -0.35578078077E+02 -0.47746400740E+02  0.71987763477E+02  0.00000000000E+00 0. -1.
         -3    1    4    4    0  502  0.60050911549E+01  0.31464632368E+02 -0.16352169083E+02  0.35964950209E+02  0.00000000000E+00 0.  1.
          5    1    3    3  503    0  0.83078778719E+02  0.19055408824E+02 -0.36671231983E+01  0.85444308596E+02  0.47000000000E+01 0. -1.
         11    1    6    6    0    0 -0.58919290074E+02  0.48251461789E+02  0.37372878933E+02  0.84831706262E+02  0.00000000000E+00 0. -1.
        -12    1    6    6    0    0 -0.22115638286E+01 -0.25727827645E+02  0.15514114684E+02  0.30124738743E+02  0.00000000000E+00 0.  1.
         -5    1    5    5    0  501  0.12503376195E+02 -0.37465597259E+02  0.15773895771E+03  0.16267659381E+03  0.47000000000E+01 0.  1.
<mgrwt>
<rscale>  2 0.18100686E+03</rscale>
<asrwt>0</asrwt>
<pdfrwt beam="2">  1        2 0.25243831E-01 0.18100686E+03</pdfrwt>
<pdfrwt beam="1">  1       -2 0.47222332E-01 0.18100686E+03</pdfrwt>
<totfact> 0.91001051E+02</totfact>
</mgrwt>
</event>
<event>
12    1  0.1093377E-001  0.2554881E+03  0.7546771E-02  0.1109885E+00
         -2   -1    0    0    0  501 -0.00000000000E+00  0.00000000000E+00  0.27035067644E+02  0.27035067644E+02  0.00000000000E+00 0. -1.
          2   -1    0    0  503    0  0.00000000000E+00 -0.00000000000E+00 -0.25080715630E+04  0.25080715630E+04  0.00000000000E+00 0.  1.
          6    2    1    2  503    0  0.18667172038E+03  0.84210516990E+01 -0.14817772695E+04  0.15035096760E+04  0.17309021947E+03 0.  0.
         24    2    3    3    0    0  0.56463337220E+02 -0.49938370521E+02 -0.51215180874E+03  0.52343025606E+03  0.77445519328E+02 0.  0.
         -6    2    1    2    0  501 -0.18667172038E+03 -0.84210516990E+01 -0.99925922584E+03  0.10315969546E+04  0.17537397497E+03 0.  0.
        -24    2    5    5    0    0 -0.12497462731E+03  0.52015041115E+02 -0.47307484227E+03  0.49835109378E+03  0.78928982717E+02 0.  0.
          4    1    4    4  502    0 -0.15170150492E+02 -0.26830877493E+02 -0.10721506210E+03  0.11155760392E+03  0.00000000000E+00 0. -1.
         -3    1    4    4    0  502  0.71633487712E+02 -0.23107493028E+02 -0.40493674664E+03  0.41187265214E+03  0.00000000000E+00 0.  1.
          5    1    3    3  503    0  0.13020838316E+03  0.58359422220E+02 -0.96962546078E+03  0.98007941995E+03  0.47000000000E+01 0. -1.
         13    1    6    6    0    0 -0.25839396369E+02  0.40381835773E+02 -0.84415046361E+02  0.97078664583E+02  0.00000000000E+00 0. -1.
        -14    1    6    6    0    0 -0.99135230945E+02  0.11633205342E+02 -0.38865979591E+03  0.40127242920E+03  0.00000000000E+00 0.  1.
         -5    1    5    5    0  501 -0.61697093071E+02 -0.60436092814E+02 -0.52618438357E+03  0.53324586086E+03  0.47000000000E+01 0.  1.
<mgrwt>
<rscale>  2 0.25548808E+03</rscale>
<asrwt>0</asrwt>
<pdfrwt beam="2">  1        2 0.38585728E+00 0.25548808E+03</pdfrwt>
<pdfrwt beam="1">  1       -2 0.41592400E-02 0.25548808E+03</pdfrwt>
<totfact> 0.10308511E+03</totfact>
</mgrwt>
</event>
<event>
12    1  0.1093377E-001  0.1933909E+03  0.7546771E-02  0.1155438E+00
         -2   -1    0    0    0  501 -0.00000000000E+00  0.00000000000E+00  0.26013761479E+02  0.26013761479E+02  0.00000000000E+00 0.  1.
          2   -1    0    0  503    0  0.00000000000E+00 -0.00000000000E+00 -0.31573065600E+04  0.31573065600E+04  0.00000000000E+00 0. -1.
          6    2    1    2  503    0  0.10339770707E+02 -0.88537815242E+02 -0.27389362644E+04  0.27457294788E+04  0.17120938828E+03 0.  0.
         24    2    3    3    0    0  0.68347552261E+02 -0.80130115050E+02 -0.17012378280E+04  0.17063663435E+04  0.79898231968E+02 0.  0.
         -6    2    1    2    0  501 -0.10339770707E+02  0.88537815242E+02 -0.39235653411E+03  0.43759084269E+03  0.17203557817E+03 0.  0.
        -24    2    5    5    0    0 -0.54609746716E+02  0.10712334905E+03 -0.30271517591E+03  0.33579243433E+03  0.81623800950E+02 0.  0.
          2    1    4    4  502    0  0.70367951242E+02 -0.28706508958E+02 -0.12252066745E+04  0.12275614475E+04  0.00000000000E+00 0. -1.
         -1    1    4    4    0  502 -0.20203989814E+01 -0.51423606092E+02 -0.47603115359E+03  0.47880489603E+03  0.00000000000E+00 0.  1.
          5    1    3    3  503    0 -0.58007781554E+02 -0.84077001914E+01 -0.10376984363E+04  0.10393631352E+04  0.47000000000E+01 0. -1.
         13    1    6    6    0    0 -0.65173013261E+02  0.38123354625E+02 -0.16002313078E+03  0.17694155592E+03  0.00000000000E+00 0. -1.
        -14    1    6    6    0    0  0.10563266544E+02  0.68999994424E+02 -0.14269204513E+03  0.15885087842E+03  0.00000000000E+00 0.  1.
         -5    1    5    5    0  501  0.44269976009E+02 -0.18585533807E+02 -0.89641358201E+02  0.10179840835E+03  0.47000000000E+01 0.  1.
<mgrwt>
<rscale>  2 0.19339088E+03</rscale>
<asrwt>0</asrwt>
<pdfrwt beam="2">  1        2 0.48573952E+00 0.19339088E+03</pdfrwt>
<pdfrwt beam="1">  1       -2 0.40021167E-02 0.19339088E+03</pdfrwt>
<totfact> 0.47089500E+02</totfact>
</mgrwt>
</event>
<event>
12    1  0.1093377E-001  0.4242344E+03  0.7546771E-02  0.1035697E+00
         -2   -1    0    0    0  501 -0.00000000000E+00  0.00000000000E+00  0.99591507491E+02  0.99591507491E+02  0.00000000000E+00 0.  1.
          2   -1    0    0  503    0  0.00000000000E+00 -0.00000000000E+00 -0.24149336230E+04  0.24149336230E+04  0.00000000000E+00 0. -1.
          6    2    1    2  503    0 -0.27870882317E+03 -0.27098317871E+03 -0.52915601997E+03  0.67890152554E+03  0.17259981650E+03 0.  0.
         24    2    3    3    0    0 -0.16089427782E+03 -0.97834867657E+02 -0.18372027333E+03  0.27491074622E+03  0.79775620292E+02 0.  0.
         -6    2    1    2    0  501  0.27870882317E+03  0.27098317871E+03 -0.17861860956E+04  0.18356236050E+04  0.16716088030E+03 0.  0.
        -24    2    5    5    0    0  0.29652896309E+03  0.25638173421E+03 -0.16728345567E+04  0.17198590986E+04  0.76673629334E+02 0.  0.
          2    1    4    4  502    0 -0.44159035053E+02  0.88204415473E+01 -0.28245437821E+02  0.53156611288E+02  0.00000000000E+00 0. -1.
         -1    1    4    4    0  502 -0.11673524277E+03 -0.10665530920E+03 -0.15547483551E+03  0.22175413494E+03  0.00000000000E+00 0.  1.
          5    1    3    3  503    0 -0.11781454535E+03 -0.17314831105E+03 -0.34543574664E+03  0.40399077932E+03  0.47000000000E+01 0. -1.
         11    1    6    6    0    0  0.80491616362E+02  0.45096112498E+02 -0.51747417631E+03  0.52563493302E+03  0.00000000000E+00 0. -1.
        -12    1    6    6    0    0  0.21603734673E+03  0.21128562171E+03 -0.11553603803E+04  0.11942241656E+04  0.00000000000E+00 0.  1.
         -5    1    5    5    0  501 -0.17820139924E+02  0.14601444498E+02 -0.11335153892E+03  0.11576450641E+03  0.47000000000E+01 0.  1.
<mgrwt>
<rscale>  2 0.42423443E+03</rscale>
<asrwt>0</asrwt>
<pdfrwt beam="2">  1        2 0.37152823E+00 0.42423443E+03</pdfrwt>
<pdfrwt beam="1">  1       -2 0.15321771E-01 0.42423443E+03</pdfrwt>
<totfact> 0.14286227E+02</totfact>
</mgrwt>
</event>
<event>
12    1  0.1093377E-001  0.1909371E+03  0.7546771E-02  0.1157619E+00
         -1   -1    0    0    0  501 -0.00000000000E+00  0.00000000000E+00  0.20845245922E+02  0.20845245922E+02  0.00000000000E+00 0.  1.
          1   -1    0    0  503    0  0.00000000000E+00 -0.00000000000E+00 -0.18176783167E+04  0.18176783167E+04  0.00000000000E+00 0. -1.
          6    2    1    2  503    0 -0.77235990198E+02 -0.24008370837E+02 -0.10762871362E+04  0.10930577566E+04  0.17274101888E+03 0.  0.
         24    2    3    3    0    0  0.14351170535E+02 -0.49032017306E+02 -0.53664186053E+03  0.54510383110E+03  0.80892554568E+02 0.  0.
         -6    2    1    2    0  501  0.77235990198E+02  0.24008370837E+02 -0.72054593452E+03  0.74546580599E+03  0.17317916762E+03 0.  0.
        -24    2    5    5    0    0  0.11240969779E+03  0.51192265443E+02 -0.57309817232E+03  0.59139086835E+03  0.77749957252E+02 0.  0.
          4    1    4    4  502    0  0.85493376127E+01 -0.71098174029E+02 -0.44112916256E+03  0.44690376994E+03  0.00000000000E+00 0. -1.
         -3    1    4    4    0  502  0.58018329228E+01  0.22066156722E+02 -0.95512697971E+02  0.98200061158E+02  0.00000000000E+00 0.  1.
          5    1    3    3  503    0 -0.91587160734E+02  0.25023646470E+02 -0.53964527570E+03  0.54795392551E+03  0.47000000000E+01 0. -1.
         11    1    6    6    0    0  0.84299385475E+01 -0.12459050838E+02 -0.15924810863E+03  0.15995703146E+03  0.00000000000E+00 0. -1.
        -12    1    6    6    0    0  0.10397975924E+03  0.63651316281E+02 -0.41385006370E+03  0.43143383689E+03  0.00000000000E+00 0.  1.
         -5    1    5    5    0  501 -0.35173707588E+02 -0.27183894606E+02 -0.14744776219E+03  0.15407493763E+03  0.47000000000E+01 0.  1.
<mgrwt>
<rscale>  2 0.19093707E+03</rscale>
<asrwt>0</asrwt>
<pdfrwt beam="2">  1        1 0.27964266E+00 0.19093707E+03</pdfrwt>
<pdfrwt beam="1">  1       -1 0.32069627E-02 0.19093707E+03</pdfrwt>
<totfact> 0.15197246E+03</totfact>
</mgrwt>
</event>
<event>
12    1  0.1093377E-001  0.1773805E+03  0.7546771E-02  0.1170363E+00
         -2   -1    0    0    0  501 -0.00000000000E+00  0.00000000000E+00  0.64469424946E+02  0.64469424946E+02  0.00000000000E+00 0.  1.
          2   -1    0    0  503    0  0.00000000000E+00 -0.00000000000E+00 -0.57363627162E+03  0.57363627162E+03  0.00000000000E+00 0. -1.
          6    2    1    2  503    0 -0.11484896861E+02  0.15256418898E+02 -0.12610831237E+03  0.21403797135E+03  0.17188451227E+03 0.  0.
         24    2    3    3    0    0 -0.53189916419E+02  0.59437796891E+02 -0.70716706417E+02  0.13168736220E+03  0.77321988396E+02 0.  0.
         -6    2    1    2    0  501  0.11484896861E+02 -0.15256418898E+02 -0.38305853430E+03  0.42406772521E+03  0.18092797929E+03 0.  0.
        -24    2    5    5    0    0  0.55724385489E+02  0.36324523987E+02 -0.16077352344E+03  0.19158021570E+03  0.80188372151E+02 0.  0.
          4    1    4    4  502    0  0.75573703731E+01 -0.35730469232E+01  0.97162661975E+01  0.12817423302E+02  0.00000000000E+00 0. -1.
         -3    1    4    4    0  502 -0.60747286792E+02  0.63010843814E+02 -0.80432972614E+02  0.11886993890E+03  0.00000000000E+00 0.  1.
          5    1    3    3  503    0  0.41705019557E+02 -0.44181377993E+02 -0.55391605953E+02  0.82350609152E+02  0.47000000000E+01 0. -1.
         11    1    6    6    0    0  0.24709646678E+02 -0.14725933217E+02 -0.10835607800E+03  0.11210914052E+03  0.00000000000E+00 0. -1.
        -12    1    6    6    0    0  0.31014738811E+02  0.51050457205E+02 -0.52417445436E+02  0.79471075180E+02  0.00000000000E+00 0.  1.
         -5    1    5    5    0  501 -0.44239488627E+02 -0.51580942885E+02 -0.22228501086E+03  0.23248750951E+03  0.47000000000E+01 0.  1.
<mgrwt>
<rscale>  2 0.17738053E+03</rscale>
<asrwt>0</asrwt>
<pdfrwt beam="2">  1        2 0.88251739E-01 0.17738053E+03</pdfrwt>
<pdfrwt beam="1">  1       -2 0.99183726E-02 0.17738053E+03</pdfrwt>
<totfact> 0.35137527E+03</totfact>
</mgrwt>
</event>
<event>
12    1  0.1093377E-001  0.1779794E+03  0.7546771E-02  0.1169773E+00
          2   -1    0    0  503    0  0.00000000000E+00  0.00000000000E+00  0.19244600029E+03  0.19244600029E+03  0.00000000000E+00 0.  1.
         -2   -1    0    0    0  501 -0.00000000000E+00 -0.00000000000E+00 -0.16715070143E+03  0.16715070143E+03  0.00000000000E+00 0. -1.
          6    2    1    2  503    0  0.14998000845E+02 -0.35101003584E+02 -0.94919388411E+01  0.17902761776E+03  0.17465328664E+03 0.  0.
         24    2    3    3    0    0  0.17822612990E+02  0.15324830598E+02  0.53028268634E+02  0.98519173917E+02  0.79633751565E+02 0.  0.
         -6    2    1    2    0  501 -0.14998000845E+02  0.35101003584E+02  0.34787237701E+02  0.18056908396E+03  0.17302607229E+03 0.  0.
        -24    2    5    5    0    0  0.22503868699E+02 -0.29073430165E+02 -0.14295446150E+02  0.91372962853E+02  0.82419476532E+02 0.  0.
          4    1    4    4  502    0  0.44058196704E+02  0.48383133519E+01  0.75242739014E+01  0.44957187085E+02  0.00000000000E+00 0. -1.
         -3    1    4    4    0  502 -0.26235583713E+02  0.10486517246E+02  0.45503994733E+02  0.53561986832E+02  0.00000000000E+00 0.  1.
          5    1    3    3  503    0 -0.28246121454E+01 -0.50425834182E+02 -0.62520207475E+02  0.80508443840E+02  0.47000000000E+01 0. -1.
         13    1    6    6    0    0  0.20989165826E+02  0.10069346276E+02 -0.38742166453E+02  0.45198365877E+02  0.00000000000E+00 0. -1.
        -14    1    6    6    0    0  0.15147028735E+01 -0.39142776441E+02  0.24446720303E+02  0.46174596976E+02  0.00000000000E+00 0.  1.
         -5    1    5    5    0  501 -0.37501869544E+02  0.64174433749E+02  0.49082683851E+02  0.89196121106E+02  0.47000000000E+01 0.  1.
<mgrwt>
<rscale>  2 0.17797936E+03</rscale>
<asrwt>0</asrwt>
<pdfrwt beam="1">  1        2 0.29607077E-01 0.17797936E+03</pdfrwt>
<pdfrwt beam="2">  1       -2 0.25715492E-01 0.17797936E+03</pdfrwt>
<totfact> 0.23611351E+03</totfact>
</mgrwt>
</event>
<event>
12    1  0.1093377E-001  0.2758312E+03  0.7546771E-02  0.1097988E+00
         -1   -1    0    0    0  501 -0.00000000000E+00  0.00000000000E+00  0.87873679664E+02  0.87873679664E+02  0.00000000000E+00 0. -1.
          1   -1    0    0  503    0  0.00000000000E+00 -0.00000000000E+00 -0.92232666845E+03  0.92232666845E+03  0.00000000000E+00 0.  1.
          6    2    1    2  503    0 -0.65870195470E+02 -0.19557082270E+03 -0.30321584129E+03  0.41488760083E+03  0.19392020413E+03 0.  0.
         24    2    3    3    0    0 -0.49435815089E+02 -0.13530139069E+03 -0.31015901417E+03  0.35185752117E+03  0.82793326994E+02 0.  0.
         -6    2    1    2    0  501  0.65870195470E+02  0.19557082270E+03 -0.53123714750E+03  0.59531274729E+03  0.17203932939E+03 0.  0.
        -24    2    5    5    0    0 -0.28412293035E+01  0.83862298737E+02 -0.13701657247E+03  0.17982266798E+03  0.80757000047E+02 0.  0.
          2    1    4    4  502    0 -0.17120874013E+02 -0.12401495793E+03 -0.19507539971E+03  0.23179138398E+03  0.00000000000E+00 0. -1.
         -1    1    4    4    0  502 -0.32314941076E+02 -0.11286432766E+02 -0.11508361446E+03  0.12006613719E+03  0.00000000000E+00 0.  1.
          5    1    3    3  503    0 -0.16434380381E+02 -0.60269432004E+02  0.69431728806E+01  0.63030079662E+02  0.47000000000E+01 0. -1.
         13    1    6    6    0    0  0.11442026096E+02  0.90735390306E+02 -0.13606448666E+03  0.16394320830E+03  0.00000000000E+00 0. -1.
        -14    1    6    6    0    0 -0.14283255400E+02 -0.68730915694E+01 -0.95208580118E+00  0.15879459686E+02  0.00000000000E+00 0.  1.
         -5    1    5    5    0  501  0.68711424774E+02  0.11170852396E+03 -0.39422057504E+03  0.41549007931E+03  0.47000000000E+01 0.  1.
<mgrwt>
<rscale>  2 0.27583119E+03</rscale>
<asrwt>0</asrwt>
<pdfrwt beam="2">  1        1 0.14189641E+00 0.27583119E+03</pdfrwt>
<pdfrwt beam="1">  1       -1 0.13519028E-01 0.27583119E+03</pdfrwt>
<totfact> 0.69786050E+02</totfact>
</mgrwt>
</event>
<event>
12    1  0.1093377E-001  0.2101226E+03  0.7546771E-02  0.1141469E+00
         -2   -1    0    0    0  501 -0.00000000000E+00  0.00000000000E+00  0.11932681680E+03  0.11932681680E+03  0.00000000000E+00 0.  1.
          2   -1    0    0  503    0  0.00000000000E+00 -0.00000000000E+00 -0.37006197053E+03  0.37006197053E+03  0.00000000000E+00 0. -1.
          6    2    1    2  503    0 -0.10681999016E+03 -0.54253983570E+02 -0.12860809143E+03  0.24668809901E+03  0.17309237990E+03 0.  0.
         24    2    3    3    0    0 -0.10431753010E+03 -0.80832940229E+02 -0.47280651410E+02  0.16096210678E+03  0.79102645388E+02 0.  0.
         -6    2    1    2    0  501  0.10681999016E+03  0.54253983570E+02 -0.12212706230E+03  0.24270068833E+03  0.17214702943E+03 0.  0.
        -24    2    5    5    0    0  0.83054422301E+02  0.86548113561E+02 -0.12647589086E+03  0.20209631225E+03  0.10226512323E+03 0.  0.
          2    1    4    4  502    0  0.12083061930E+02  0.60283986167E-01 -0.45639534783E+01  0.12916411696E+02  0.00000000000E+00 0. -1.
         -1    1    4    4    0  502 -0.11640059203E+03 -0.80893224215E+02 -0.42716697932E+02  0.14804569508E+03  0.00000000000E+00 0.  1.
          5    1    3    3  503    0 -0.25024600514E+01  0.26578956659E+02 -0.81327440024E+02  0.85725992232E+02  0.47000000000E+01 0. -1.
         13    1    6    6    0    0  0.49127729712E+02  0.16949662056E+02 -0.11180279789E+03  0.12329108032E+03  0.00000000000E+00 0. -1.
        -14    1    6    6    0    0  0.33926692589E+02  0.69598451505E+02 -0.14673092971E+02  0.78805231928E+02  0.00000000000E+00 0.  1.
         -5    1    5    5    0  501  0.23765567855E+02 -0.32294129991E+02  0.43488285628E+01  0.40604376084E+02  0.47000000000E+01 0.  1.
<mgrwt>
<rscale>  2 0.21012256E+03</rscale>
<asrwt>0</asrwt>
<pdfrwt beam="2">  1        2 0.56932611E-01 0.21012256E+03</pdfrwt>
<pdfrwt beam="1">  1       -2 0.18357972E-01 0.21012256E+03</pdfrwt>
<totfact> 0.20982704E+03</totfact>
</mgrwt>
</event>
<event>
12    1  0.1093377E-001  0.2143240E+03  0.7546771E-02  0.1138187E+00
         -2   -1    0    0    0  501 -0.00000000000E+00  0.00000000000E+00  0.22264691549E+02  0.22264691549E+02  0.00000000000E+00 0.  1.
          2   -1    0    0  503    0  0.00000000000E+00 -0.00000000000E+00 -0.21456166689E+04  0.21456166689E+04  0.00000000000E+00 0. -1.
          6    2    1    2  503    0 -0.43086325603E+02 -0.11717347556E+03 -0.12767634474E+04  0.12947166057E+04  0.17487176328E+03 0.  0.
         24    2    3    3    0    0  0.17064320120E+02 -0.88831529112E+02 -0.48953113274E+03  0.50466713043E+03  0.82861034435E+02 0.  0.
         -6    2    1    2    0  501  0.43086325603E+02  0.11717347556E+03 -0.84658852990E+03  0.87316475472E+03  0.17354680949E+03 0.  0.
        -24    2    5    5    0    0  0.29474772969E+02  0.12949789644E+03 -0.44754030565E+03  0.47366664333E+03  0.80182893462E+02 0.  0.
          4    1    4    4  502    0 -0.19297767211E+02 -0.68360005447E+02 -0.20202523840E+03  0.21414875931E+03  0.00000000000E+00 0. -1.
         -3    1    4    4    0  502  0.36362087331E+02 -0.20471523665E+02 -0.28750589434E+03  0.29051837111E+03  0.00000000000E+00 0.  1.
          5    1    3    3  503    0 -0.60150645723E+02 -0.28341946445E+02 -0.78723231466E+03  0.79004947526E+03  0.47000000000E+01 0. -1.
         13    1    6    6    0    0  0.11114745460E+02  0.79242666614E+01 -0.16461596586E+03  0.16518095467E+03  0.00000000000E+00 0. -1.
        -14    1    6    6    0    0  0.18360027509E+02  0.12157362978E+03 -0.28292433979E+03  0.30848568867E+03  0.00000000000E+00 0.  1.
         -5    1    5    5    0  501  0.13611552634E+02 -0.12324420886E+02 -0.39904822426E+03  0.39949811138E+03  0.47000000000E+01 0.  1.
<mgrwt>
<rscale>  2 0.21432403E+03</rscale>
<asrwt>0</asrwt>
<pdfrwt beam="2">  1        2 0.33009500E+00 0.21432403E+03</pdfrwt>
<pdfrwt beam="1">  1       -2 0.34253358E-02 0.21432403E+03</pdfrwt>
<totfact> 0.21682231E+03</totfact>
</mgrwt>
</event>
<event>
12    1  0.1093377E-001  0.1760454E+03  0.7546771E-02  0.1171686E+00
         -3   -1    0    0    0  501 -0.00000000000E+00  0.00000000000E+00  0.12856176052E+03  0.12856176052E+03  0.00000000000E+00 0. -1.
          3   -1    0    0  503    0  0.00000000000E+00 -0.00000000000E+00 -0.24109185041E+03  0.24109185041E+03  0.00000000000E+00 0.  1.
          6    2    1    2  503    0 -0.82850123469E+01 -0.18204823626E+02 -0.58119078759E+02  0.18532533916E+03  0.17483591446E+03 0.  0.
         24    2    3    3    0    0 -0.22824355798E+01  0.13540620181E+02 -0.10165280211E+03  0.13090954000E+03  0.81335463231E+02 0.  0.
         -6    2    1    2    0  501  0.82850123469E+01  0.18204823626E+02 -0.54411011138E+02  0.18432827177E+03  0.17497513140E+03 0.  0.
        -24    2    5    5    0    0  0.69448173870E+02 -0.14638975453E+02 -0.34371622592E+02  0.11191753666E+03  0.79415225973E+02 0.  0.
          4    1    4    4  502    0  0.22557224719E+02 -0.22320995578E+02 -0.70472460012E+02  0.77287921765E+02  0.00000000000E+00 0. -1.
         -3    1    4    4    0  502 -0.24839660299E+02  0.35861615759E+02 -0.31180342094E+02  0.53621618231E+02  0.00000000000E+00 0.  1.
          5    1    3    3  503    0 -0.60025767671E+01 -0.31745443807E+02  0.43533723346E+02  0.54415799165E+02  0.47000000000E+01 0. -1.
         13    1    6    6    0    0  0.38985691600E+02 -0.46758279832E+02 -0.28644916100E+02  0.67281142237E+02  0.00000000000E+00 0. -1.
        -14    1    6    6    0    0  0.30462482271E+02  0.32119304379E+02 -0.57267064918E+01  0.44636394423E+02  0.00000000000E+00 0.  1.
         -5    1    5    5    0  501 -0.61163161523E+02  0.32843799079E+02 -0.20039388546E+02  0.72410735107E+02  0.47000000000E+01 0.  1.
<mgrwt>
<rscale>  2 0.17604543E+03</rscale>
<asrwt>0</asrwt>
<pdfrwt beam="2">  1        3 0.37091054E-01 0.17604543E+03</pdfrwt>
<pdfrwt beam="1">  1       -3 0.19778732E-01 0.17604543E+03</pdfrwt>
<totfact> 0.39552999E+02</totfact>
</mgrwt>
</event>
<event>
12    1  0.1093377E-001  0.6378625E+03  0.7546771E-02  0.9829825E-01
          2   -1    0    0  503    0  0.00000000000E+00  0.00000000000E+00  0.35112606671E+03  0.35112606671E+03  0.00000000000E+00 0.  1.
         -2   -1    0    0    0  501 -0.00000000000E+00 -0.00000000000E+00 -0.12498573154E+04  0.12498573154E+04  0.00000000000E+00 0. -1.
          6    2    1    2  503    0 -0.12742770164E+03  0.60054245061E+03 -0.66539489789E+03  0.92165205062E+03  0.17263568038E+03 0.  0.
         24    2    3    3    0    0 -0.54011942782E+02  0.28719279000E+03 -0.22673217008E+03  0.37757029001E+03  0.75860782755E+02 0.  0.
         -6    2    1    2    0  501  0.12742770164E+03 -0.60054245061E+03 -0.23333635075E+03  0.67933133144E+03  0.17365526533E+03 0.  0.
        -24    2    5    5    0    0  0.63400617126E+00 -0.32391810978E+03 -0.12154077682E+03  0.35511225813E+03  0.80057552042E+02 0.  0.
          4    1    4    4  502    0 -0.12778359204E+02  0.22411032979E+03 -0.18818897651E+03  0.29292288621E+03  0.00000000000E+00 0. -1.
         -3    1    4    4    0  502 -0.41233583579E+02  0.63082460202E+02 -0.38543193570E+02  0.84647403802E+02  0.00000000000E+00 0.  1.
          5    1    3    3  503    0 -0.73415758862E+02  0.31334966061E+03 -0.43866272781E+03  0.54408176061E+03  0.47000000000E+01 0. -1.
         11    1    6    6    0    0 -0.26624177827E+02 -0.12682224302E+03 -0.78595850176E+02  0.15155868776E+03  0.00000000000E+00 0. -1.
        -12    1    6    6    0    0  0.27258183998E+02 -0.19709586675E+03 -0.42944926642E+02  0.20355357037E+03  0.00000000000E+00 0.  1.
         -5    1    5    5    0  501  0.12679369547E+03 -0.27662434083E+03 -0.11179557393E+03  0.32421907331E+03  0.47000000000E+01 0.  1.
<mgrwt>
<rscale>  2 0.63786255E+03</rscale>
<asrwt>0</asrwt>
<pdfrwt beam="1">  1        2 0.54019395E-01 0.63786255E+03</pdfrwt>
<pdfrwt beam="2">  1       -2 0.19228574E+00 0.63786255E+03</pdfrwt>
<totfact> 0.14169322E+01</totfact>
</mgrwt>
</event>
<event>
12    1  0.1093377E-001  0.2514568E+03  0.7546771E-02  0.1112388E+00
          2   -1    0    0  503    0  0.00000000000E+00  0.00000000000E+00  0.31495081211E+04  0.31495081211E+04  0.00000000000E+00 0.  1.
         -2   -1    0    0    0  501 -0.00000000000E+00 -0.00000000000E+00 -0.24149181113E+02  0.24149181113E+02  0.00000000000E+00 0. -1.
          6    2    1    2  503    0  0.74837091629E+02  0.16355456858E+03  0.22241077303E+04  0.22384935462E+04  0.17845860322E+03 0.  0.
         24    2    3    3    0    0  0.61870429798E+02  0.18823169926E+03  0.21182903941E+04  0.21289650397E+04  0.77966811307E+02 0.  0.
         -6    2    1    2    0  501 -0.74837091629E+02 -0.16355456858E+03  0.90125120967E+03  0.93516375603E+03  0.17299370067E+03 0.  0.
        -24    2    5    5    0    0 -0.73039697021E+02 -0.19042910900E+03  0.74860281069E+03  0.78008604886E+03  0.80808616843E+02 0.  0.
          2    1    4    4  502    0  0.44307648934E+02  0.29641129690E+02  0.55245059930E+03  0.55501660244E+03  0.00000000000E+00 0. -1.
         -1    1    4    4    0  502  0.17562780864E+02  0.15859056957E+03  0.15658397948E+04  0.15739484372E+04  0.00000000000E+00 0.  1.
          5    1    3    3  503    0  0.12966661831E+02 -0.24677130676E+02  0.10581733621E+03  0.10952850652E+03  0.47000000000E+01 0. -1.
         13    1    6    6    0    0 -0.12893200054E+02 -0.11431544516E+03  0.30438516965E+03  0.32539911972E+03  0.00000000000E+00 0. -1.
        -14    1    6    6    0    0 -0.60146496967E+02 -0.76113663834E+02  0.44421764104E+03  0.45468692914E+03  0.00000000000E+00 0.  1.
         -5    1    5    5    0  501 -0.17973946073E+01  0.26874540417E+02  0.15264839898E+03  0.15507770717E+03  0.47000000000E+01 0.  1.
<mgrwt>
<rscale>  2 0.25145684E+03</rscale>
<asrwt>0</asrwt>
<pdfrwt beam="1">  1        2 0.48453938E+00 0.25145684E+03</pdfrwt>
<pdfrwt beam="2">  1       -2 0.37152611E-02 0.25145684E+03</pdfrwt>
<totfact> 0.52300706E+02</totfact>
</mgrwt>
</event>
<event>
12    1  0.1093377E-001  0.2056749E+03  0.7546771E-02  0.1145038E+00
          1   -1    0    0  503    0  0.00000000000E+00  0.00000000000E+00  0.84472179712E+03  0.84472179712E+03  0.00000000000E+00 0.  1.
         -1   -1    0    0    0  501 -0.00000000000E+00 -0.00000000000E+00 -0.50365057230E+02  0.50365057230E+02  0.00000000000E+00 0. -1.
          6    2    1    2  503    0  0.81528957381E+02  0.70974690744E+02  0.36794998175E+03  0.42261143854E+03  0.17756368237E+03 0.  0.
         24    2    3    3    0    0  0.11737814975E+03  0.63750999407E+02  0.22305719740E+03  0.27310105339E+03  0.83593373459E+02 0.  0.
         -6    2    1    2    0  501 -0.81528957381E+02 -0.70974690744E+02  0.42640675814E+03  0.47247541581E+03  0.17241205741E+03 0.  0.
        -24    2    5    5    0    0 -0.37403661738E+01  0.92593546537E+01  0.10098919896E+03  0.12837187792E+03  0.78618030677E+02 0.  0.
          2    1    4    4  502    0  0.81219962191E+02 -0.30890328416E+01  0.10681404111E+03  0.13422169631E+03  0.00000000000E+00 0. -1.
         -1    1    4    4    0  502  0.36158187564E+02  0.66840032249E+02  0.11624315629E+03  0.13887935708E+03  0.00000000000E+00 0.  1.
          5    1    3    3  503    0 -0.35849192374E+02  0.72236913369E+01  0.14489278435E+03  0.14951038514E+03  0.47000000000E+01 0. -1.
         13    1    6    6    0    0 -0.20331715910E+02  0.31164353920E+02  0.92353294881E+02  0.99567699092E+02  0.00000000000E+00 0. -1.
        -14    1    6    6    0    0  0.16591349736E+02 -0.21904999266E+02  0.86359040770E+01  0.28804178831E+02  0.00000000000E+00 0.  1.
         -5    1    5    5    0  501 -0.77788591207E+02 -0.80234045398E+02  0.32541755918E+03  0.34410353789E+03  0.47000000000E+01 0.  1.
<mgrwt>
<rscale>  2 0.20567490E+03</rscale>
<asrwt>0</asrwt>
<pdfrwt beam="1">  1        1 0.12995719E+00 0.20567490E+03</pdfrwt>
<pdfrwt beam="2">  1       -1 0.77484710E-02 0.20567490E+03</pdfrwt>
<totfact> 0.19063524E+03</totfact>
</mgrwt>
</event>
<event>
12    1  0.1093377E-001  0.1977205E+03  0.7546771E-02  0.1151677E+00
         -1   -1    0    0    0  501 -0.00000000000E+00  0.00000000000E+00  0.11080451677E+03  0.11080451677E+03  0.00000000000E+00 0. -1.
          1   -1    0    0  503    0  0.00000000000E+00 -0.00000000000E+00 -0.35311740355E+03  0.35311740355E+03  0.00000000000E+00 0.  1.
          6    2    1    2  503    0  0.21174749423E+02 -0.92848210727E+02 -0.12738366976E+03  0.23451250400E+03  0.17233790925E+03 0.  0.
         24    2    3    3    0    0 -0.51064298896E+02 -0.80211261539E+02 -0.81409438826E+02  0.14782979237E+03  0.78643128641E+02 0.  0.
         -6    2    1    2    0  501 -0.21174749423E+02  0.92848210727E+02 -0.11492921702E+03  0.22940941631E+03  0.17421479592E+03 0.  0.
        -24    2    5    5    0    0 -0.18071535836E+02  0.46121716243E+02  0.11558548994E+02  0.94449273405E+02  0.79581857702E+02 0.  0.
          2    1    4    4  502    0 -0.34844580022E+02 -0.88234340392E+02 -0.40599723676E+02  0.10318808625E+03  0.00000000000E+00 0. -1.
         -1    1    4    4    0  502 -0.16219718875E+02  0.80230788525E+01 -0.40809715150E+02  0.44641706119E+02  0.00000000000E+00 0.  1.
          5    1    3    3  503    0  0.72239048319E+02 -0.12636949188E+02 -0.45974230931E+02  0.86682711636E+02  0.47000000000E+01 0. -1.
         13    1    6    6    0    0  0.27110657321E+02  0.32608265855E+02 -0.84168729818E+01  0.43233441839E+02  0.00000000000E+00 0. -1.
        -14    1    6    6    0    0 -0.45182193158E+02  0.13513450388E+02  0.19975421976E+02  0.51215831567E+02  0.00000000000E+00 0.  1.
         -5    1    5    5    0  501 -0.31032135870E+01  0.46726494484E+02 -0.12648776602E+03  0.13496014291E+03  0.47000000000E+01 0.  1.
<mgrwt>
<rscale>  2 0.19772047E+03</rscale>
<asrwt>0</asrwt>
<pdfrwt beam="2">  1        1 0.54325754E-01 0.19772047E+03</pdfrwt>
<pdfrwt beam="1">  1       -1 0.17046849E-01 0.19772047E+03</pdfrwt>
<totfact> 0.18451175E+03</totfact>
</mgrwt>
</event>
<event>
12    1  0.1093377E-001  0.1795252E+03  0.7546771E-02  0.1168263E+00
          1   -1    0    0  503    0  0.00000000000E+00  0.00000000000E+00  0.80360518999E+03  0.80360518999E+03  0.00000000000E+00 0.  1.
         -1   -1    0    0    0  501 -0.00000000000E+00 -0.00000000000E+00 -0.77927716500E+02  0.77927716500E+02  0.00000000000E+00 0. -1.
          6    2    1    2  503    0  0.27698939874E+02 -0.54099476320E+02  0.66315029083E+03  0.68545077123E+03  0.16242064813E+03 0.  0.
         24    2    3    3    0    0  0.69392427423E+02 -0.19284967345E+02  0.54090222265E+03  0.55159608467E+03  0.80596570688E+02 0.  0.
         -6    2    1    2    0  501 -0.27698939874E+02  0.54099476320E+02  0.62527182652E+02  0.19608213526E+03  0.17562622409E+03 0.  0.
        -24    2    5    5    0    0 -0.72767390811E+01 -0.39096250106E+01 -0.28308713437E+02  0.86285176553E+02  0.81089532845E+02 0.  0.
          2    1    4    4  502    0  0.65316738348E+02 -0.63540940428E+01  0.20137663421E+03  0.21179990468E+03  0.00000000000E+00 0. -1.
         -1    1    4    4    0  502  0.40756890750E+01 -0.12930873302E+02  0.33952558844E+03  0.33979617998E+03  0.00000000000E+00 0.  1.
          5    1    3    3  503    0 -0.41693487549E+02 -0.34814508975E+02  0.12224806819E+03  0.13385468656E+03  0.47000000000E+01 0. -1.
         13    1    6    6    0    0 -0.41225852264E+02 -0.77966916178E+01 -0.30763110692E+02  0.52026226795E+02  0.00000000000E+00 0. -1.
        -14    1    6    6    0    0  0.33949113182E+02  0.38870666072E+01  0.24543972552E+01  0.34258949759E+02  0.00000000000E+00 0.  1.
         -5    1    5    5    0  501 -0.20422200793E+02  0.58009101331E+02  0.90835896089E+02  0.10979695870E+03  0.47000000000E+01 0.  1.
<mgrwt>
<rscale>  2 0.17952522E+03</rscale>
<asrwt>0</asrwt>
<pdfrwt beam="1">  1        1 0.12363156E+00 0.17952522E+03</pdfrwt>
<pdfrwt beam="2">  1       -1 0.11988880E-01 0.17952522E+03</pdfrwt>
<totfact> 0.10520401E+03</totfact>
</mgrwt>
</event>
<event>
12    1  0.1093377E-001  0.1950250E+03  0.7546771E-02  0.1154006E+00
         -2   -1    0    0    0  501 -0.00000000000E+00  0.00000000000E+00  0.82943510087E+02  0.82943510087E+02  0.00000000000E+00 0.  1.
          2   -1    0    0  503    0  0.00000000000E+00 -0.00000000000E+00 -0.46428695303E+03  0.46428695303E+03  0.00000000000E+00 0. -1.
          6    2    1    2  503    0  0.61800211259E+02  0.75318228494E+02 -0.22436909922E+03  0.29992261809E+03  0.17355109478E+03 0.  0.
         24    2    3    3    0    0  0.65866543722E+02 -0.13298703188E+02 -0.90753896470E+02  0.13947135431E+03  0.81857998152E+02 0.  0.
         -6    2    1    2    0  501 -0.61800211259E+02 -0.75318228494E+02 -0.15697434372E+03  0.24730784503E+03  0.16440232350E+03 0.  0.
        -24    2    5    5    0    0 -0.79607325800E+02 -0.73160219469E+02 -0.58640744028E+02  0.14724118145E+03  0.80941241780E+02 0.  0.
          2    1    4    4  502    0 -0.84096939053E+01 -0.28805663408E+02 -0.26939806657E+02  0.40326695608E+02  0.00000000000E+00 0. -1.
         -1    1    4    4    0  502  0.74276237628E+02  0.15506960220E+02 -0.63814089814E+02  0.99144658707E+02  0.00000000000E+00 0.  1.
          5    1    3    3  503    0 -0.40663324636E+01  0.88616931682E+02 -0.13361520275E+03  0.16045126377E+03  0.47000000000E+01 0. -1.
         11    1    6    6    0    0 -0.66984468018E+02 -0.47212496777E+02 -0.77481266588E+02  0.11277980972E+03  0.00000000000E+00 0. -1.
        -12    1    6    6    0    0 -0.12622857781E+02 -0.25947722691E+02  0.18840522559E+02  0.34461371733E+02  0.00000000000E+00 0.  1.
         -5    1    5    5    0  501  0.17807114541E+02 -0.21580090252E+01 -0.98333599695E+02  0.10006666358E+03  0.47000000000E+01 0.  1.
<mgrwt>
<rscale>  2 0.19502500E+03</rscale>
<asrwt>0</asrwt>
<pdfrwt beam="2">  1        2 0.71428763E-01 0.19502500E+03</pdfrwt>
<pdfrwt beam="1">  1       -2 0.12760540E-01 0.19502500E+03</pdfrwt>
<totfact> 0.29843401E+03</totfact>
</mgrwt>
</event>
<event>
12    1  0.1093377E-001  0.3263143E+03  0.7546771E-02  0.1072779E+00
         -1   -1    0    0    0  501 -0.00000000000E+00  0.00000000000E+00  0.75685248575E+02  0.75685248575E+02  0.00000000000E+00 0.  1.
          1   -1    0    0  503    0  0.00000000000E+00 -0.00000000000E+00 -0.17344334210E+04  0.17344334210E+04  0.00000000000E+00 0. -1.
          6    2    1    2  503    0  0.10072517364E+03  0.25772979791E+03 -0.43592566333E+03  0.54448799307E+03  0.17281719044E+03 0.  0.
         24    2    3    3    0    0  0.71932861988E+01  0.16182032108E+03 -0.32086237400E+03  0.36782873838E+03  0.78152146815E+02 0.  0.
         -6    2    1    2    0  501 -0.10072517364E+03 -0.25772979791E+03 -0.12228225091E+04  0.12656306765E+04  0.17307776064E+03 0.  0.
        -24    2    5    5    0    0 -0.82704789649E+02 -0.27393581067E+03 -0.11251724714E+04  0.11649083406E+04  0.95485292057E+02 0.  0.
          2    1    4    4  502    0 -0.23297255359E+02  0.11032676973E+03 -0.25511925731E+03  0.27892757783E+03  0.00000000000E+00 0. -1.
         -1    1    4    4    0  502  0.30490541557E+02  0.51493551351E+02 -0.65743116696E+02  0.88901160555E+02  0.00000000000E+00 0.  1.
          5    1    3    3  503    0  0.93531887444E+02  0.95909476831E+02 -0.11506328933E+03  0.17665925469E+03  0.47000000000E+01 0. -1.
         11    1    6    6    0    0 -0.15291350910E+02 -0.20211494836E+03 -0.78690182999E+03  0.81258769854E+03  0.00000000000E+00 0. -1.
        -12    1    6    6    0    0 -0.67413438739E+02 -0.71820862308E+02 -0.33827064136E+03  0.35232064201E+03  0.00000000000E+00 0.  1.
         -5    1    5    5    0  501 -0.18020383993E+02  0.16206012763E+02 -0.97650037767E+02  0.10072233598E+03  0.47000000000E+01 0.  1.
<mgrwt>
<rscale>  2 0.32631434E+03</rscale>
<asrwt>0</asrwt>
<pdfrwt beam="2">  1        1 0.26683593E+00 0.32631434E+03</pdfrwt>
<pdfrwt beam="1">  1       -1 0.11643884E-01 0.32631434E+03</pdfrwt>
<totfact> 0.23954444E+02</totfact>
</mgrwt>
</event>
<event>
12    1  0.1093377E-001  0.1910796E+03  0.7546771E-02  0.1157491E+00
          2   -1    0    0  503    0  0.00000000000E+00  0.00000000000E+00  0.10989591225E+04  0.10989591225E+04  0.00000000000E+00 0. -1.
         -2   -1    0    0    0  501 -0.00000000000E+00 -0.00000000000E+00 -0.39283173257E+02  0.39283173257E+02  0.00000000000E+00 0.  1.
          6    2    1    2  503    0 -0.81130121546E+02  0.58362018458E+01  0.75357045206E+03  0.77744069692E+03  0.17300130966E+03 0.  0.
         24    2    3    3    0    0 -0.11182687474E+03 -0.26127234888E+02  0.47715636458E+03  0.49745714437E+03  0.81225192573E+02 0.  0.
         -6    2    1    2    0  501  0.81130121546E+02 -0.58362018458E+01  0.30610549714E+03  0.36080159879E+03  0.17280353132E+03 0.  0.
        -24    2    5    5    0    0  0.10084530514E+03  0.25397837852E+02  0.14107445685E+03  0.19162243943E+03  0.77474713184E+02 0.  0.
          2    1    4    4  502    0 -0.11961125843E+03 -0.36925853610E+02  0.39903249933E+03  0.41820725404E+03  0.00000000000E+00 0. -1.
         -1    1    4    4    0  502  0.77843836974E+01  0.10798618722E+02  0.78123865248E+02  0.79249890329E+02  0.00000000000E+00 0.  1.
          5    1    3    3  503    0  0.30696753190E+02  0.31963436734E+02  0.27641408748E+03  0.27998355255E+03  0.47000000000E+01 0. -1.
         11    1    6    6    0    0 -0.36638866937E+01  0.24751785116E+02  0.30969299161E+02  0.39814223874E+02  0.00000000000E+00 0. -1.
        -12    1    6    6    0    0  0.10450919184E+03  0.64605273626E+00  0.11010515769E+03  0.15180821556E+03  0.00000000000E+00 0.  1.
         -5    1    5    5    0  501 -0.19715183598E+02 -0.31234039698E+02  0.16503104029E+03  0.16917915936E+03  0.47000000000E+01 0.  1.
<mgrwt>
<rscale>  2 0.19107956E+03</rscale>
<asrwt>0</asrwt>
<pdfrwt beam="1">  1        2 0.16907061E+00 0.19107956E+03</pdfrwt>
<pdfrwt beam="2">  1       -2 0.60435660E-02 0.19107956E+03</pdfrwt>
<totfact> 0.33244823E+03</totfact>
</mgrwt>
</event>
<event>
12    1  0.1093377E-001  0.1809882E+03  0.7546771E-02  0.1166850E+00
         -2   -1    0    0    0  501 -0.00000000000E+00  0.00000000000E+00  0.16408462395E+04  0.16408462395E+04  0.00000000000E+00 0. -1.
          2   -1    0    0  503    0  0.00000000000E+00 -0.00000000000E+00 -0.20206790615E+02  0.20206790615E+02  0.00000000000E+00 0.  1.
          6    2    1    2  503    0  0.59059818519E+02  0.67943773765E+01  0.89061063973E+03  0.90835887817E+03  0.16850612520E+03 0.  0.
         24    2    3    3    0    0  0.98754606325E+02 -0.55472072116E+01  0.51959296441E+03  0.53499016458E+03  0.80339179465E+02 0.  0.
         -6    2    1    2    0  501 -0.59059818519E+02 -0.67943773765E+01  0.73002880920E+03  0.75269415199E+03  0.17341337447E+03 0.  0.
        -24    2    5    5    0    0 -0.58480784544E+02 -0.62248091776E+02  0.59183281212E+03  0.60371202779E+03  0.83110215418E+02 0.  0.
          4    1    4    4  502    0  0.79390923315E+02  0.23505862794E+02  0.25504332282E+03  0.26814649132E+03  0.00000000000E+00 0. -1.
         -3    1    4    4    0  502  0.19363683010E+02 -0.29053070006E+02  0.26454964159E+03  0.26684367326E+03  0.00000000000E+00 0.  1.
          5    1    3    3  503    0 -0.39694787806E+02  0.12341584588E+02  0.37101767532E+03  0.37336871359E+03  0.47000000000E+01 0. -1.
         13    1    6    6    0    0  0.18136860922E+02  0.22411497527E+01  0.69298642458E+02  0.71667777438E+02  0.00000000000E+00 0. -1.
        -14    1    6    6    0    0 -0.76617645466E+02 -0.64489241529E+02  0.52253416966E+03  0.53204425035E+03  0.00000000000E+00 0.  1.
         -5    1    5    5    0  501 -0.57903397476E+00  0.55453714400E+02  0.13819599708E+03  0.14898212420E+03  0.47000000000E+01 0.  1.
<mgrwt>
<rscale>  2 0.18098823E+03</rscale>
<asrwt>0</asrwt>
<pdfrwt beam="2">  1        2 0.31087383E-02 0.18098823E+03</pdfrwt>
<pdfrwt beam="1">  1       -2 0.25243778E+00 0.18098823E+03</pdfrwt>
<totfact> 0.20663987E+02</totfact>
</mgrwt>
</event>
<event>
12    1  0.1093377E-001  0.2046734E+03  0.7546771E-02  0.1145855E+00
         -3   -1    0    0    0  501 -0.00000000000E+00  0.00000000000E+00  0.74354360705E+03  0.74354360705E+03  0.00000000000E+00 0.  1.
          3   -1    0    0  503    0  0.00000000000E+00 -0.00000000000E+00 -0.16518738946E+03  0.16518738946E+03  0.00000000000E+00 0. -1.
          6    2    1    2  503    0  0.49518715805E+02  0.11093465505E+03 -0.83625225181E+02  0.21310581581E+03  0.15382558155E+03 0.  0.
         24    2    3    3    0    0  0.62922816977E+02  0.79989531604E+02 -0.78502377578E+01  0.13003229830E+03  0.80555361742E+02 0.  0.
         -6    2    1    2    0  501 -0.49518715805E+02 -0.11093465505E+03  0.66198144277E+03  0.69562518070E+03  0.17583048809E+03 0.  0.
        -24    2    5    5    0    0 -0.84120094389E+02 -0.22606010651E+02  0.37511641544E+03  0.39344503786E+03  0.80619170708E+02 0.  0.
          4    1    4    4  502    0  0.68505112766E+02  0.46296747663E+02 -0.31512657371E+02  0.88483822780E+02  0.00000000000E+00 0. -1.
         -3    1    4    4    0  502 -0.55822957888E+01  0.33692783940E+02  0.23662419613E+02  0.41548475518E+02  0.00000000000E+00 0.  1.
          5    1    3    3  503    0 -0.13404101171E+02  0.30945123448E+02 -0.75774987424E+02  0.83073517516E+02  0.47000000000E+01 0. -1.
         11    1    6    6    0    0 -0.45763870923E+02  0.14201888009E+02  0.77490151454E+02  0.91108446794E+02  0.00000000000E+00 0. -1.
        -12    1    6    6    0    0 -0.38356223465E+02 -0.36807898660E+02  0.29762626399E+03  0.30233659106E+03  0.00000000000E+00 0.  1.
         -5    1    5    5    0  501  0.34601378583E+02 -0.88328644401E+02  0.28686502733E+03  0.30218014284E+03  0.47000000000E+01 0.  1.
<mgrwt>
<rscale>  2 0.20467343E+03</rscale>
<asrwt>0</asrwt>
<pdfrwt beam="2">  1        3 0.25413445E-01 0.20467343E+03</pdfrwt>
<pdfrwt beam="1">  1       -3 0.11439132E+00 0.20467343E+03</pdfrwt>
<totfact> 0.23613820E+01</totfact>
</mgrwt>
</event>
<event>
12    1  0.1093377E-001  0.2105784E+03  0.7546771E-02  0.1141109E+00
         -1   -1    0    0    0  501 -0.00000000000E+00  0.00000000000E+00  0.38888851059E+02  0.38888851059E+02  0.00000000000E+00 0.  1.
          1   -1    0    0  503    0  0.00000000000E+00 -0.00000000000E+00 -0.25412028363E+04  0.25412028363E+04  0.00000000000E+00 0. -1.
          6    2    1    2  503    0 -0.94189044560E+02 -0.81219898705E+02 -0.29922325038E+03  0.36716649749E+03  0.17265119533E+03 0.  0.
         24    2    3    3    0    0  0.13524738651E+02 -0.50648142390E+02 -0.18362058226E+03  0.20616041607E+03  0.77701004117E+02 0.  0.
         -6    2    1    2    0  501  0.94189044560E+02  0.81219898705E+02 -0.22030907349E+04  0.22129251899E+04  0.16721501690E+03 0.  0.
        -24    2    5    5    0    0  0.63429103653E+02  0.54836220897E+02 -0.72171829130E+03  0.73099108913E+03  0.80252215344E+02 0.  0.
          2    1    4    4  502    0  0.32939083824E+02 -0.46194423352E+02 -0.17585649708E+03  0.18478207585E+03  0.00000000000E+00 0. -1.
         -1    1    4    4    0  502 -0.19414345172E+02 -0.44537190384E+01 -0.77640851858E+01  0.21378340219E+02  0.00000000000E+00 0.  1.
          5    1    3    3  503    0 -0.10771378321E+03 -0.30571756315E+02 -0.11560266812E+03  0.16100608142E+03  0.47000000000E+01 0. -1.
         11    1    6    6    0    0 -0.51222289283E+01 -0.68868681524E+01 -0.26036113313E+03  0.26050256396E+03  0.00000000000E+00 0. -1.
        -12    1    6    6    0    0  0.68551332581E+02  0.61723089049E+02 -0.46135715817E+03  0.47048852517E+03  0.00000000000E+00 0.  1.
         -5    1    5    5    0  501  0.30759940907E+02  0.26383677808E+02 -0.14813724436E+04  0.14819341007E+04  0.47000000000E+01 0.  1.
<mgrwt>
<rscale>  2 0.21057843E+03</rscale>
<asrwt>0</asrwt>
<pdfrwt beam="2">  1        1 0.39095441E+00 0.21057843E+03</pdfrwt>
<pdfrwt beam="1">  1       -1 0.59828982E-02 0.21057843E+03</pdfrwt>
<totfact> 0.20311481E+02</totfact>
</mgrwt>
</event>
<event>
12    1  0.1093377E-001  0.1853827E+03  0.7546771E-02  0.1162693E+00
          2   -1    0    0  503    0  0.00000000000E+00  0.00000000000E+00  0.78686216073E+03  0.78686216073E+03  0.00000000000E+00 0.  1.
         -2   -1    0    0    0  501 -0.00000000000E+00 -0.00000000000E+00 -0.45230019129E+02  0.45230019129E+02  0.00000000000E+00 0. -1.
          6    2    1    2  503    0 -0.66397715022E+02  0.29289181348E+02  0.44361515841E+03  0.47996791966E+03  0.16825065356E+03 0.  0.
         24    2    3    3    0    0 -0.53148717244E+02  0.83233088223E+02  0.29188992830E+03  0.31832598053E+03  0.79869684615E+02 0.  0.
         -6    2    1    2    0  501  0.66397715022E+02 -0.29289181348E+02  0.29801698319E+03  0.35212426020E+03  0.17294756329E+03 0.  0.
        -24    2    5    5    0    0  0.18968188866E+02 -0.61923804816E+02  0.26752757149E+03  0.28680754851E+03  0.80580509946E+02 0.  0.
          4    1    4    4  502    0 -0.20116627280E+02  0.71122819811E+02  0.10655166878E+03  0.12967803327E+03  0.00000000000E+00 0. -1.
         -3    1    4    4    0  502 -0.33032089964E+02  0.12110268412E+02  0.18533825951E+03  0.18864794727E+03  0.00000000000E+00 0.  1.
          5    1    3    3  503    0 -0.13248997778E+02 -0.53943906876E+02  0.15172523012E+03  0.16164193913E+03  0.47000000000E+01 0. -1.
         13    1    6    6    0    0  0.25180545682E+02  0.34573605470E+01  0.25407419516E+02  0.35938143932E+02  0.00000000000E+00 0. -1.
        -14    1    6    6    0    0 -0.62123568159E+01 -0.65381165363E+02  0.24212015198E+03  0.25086940458E+03  0.00000000000E+00 0.  1.
         -5    1    5    5    0  501  0.47429526156E+02  0.32634623469E+02  0.30489411699E+02  0.65316711690E+02  0.47000000000E+01 0.  1.
<mgrwt>
<rscale>  2 0.18538270E+03</rscale>
<asrwt>0</asrwt>
<pdfrwt beam="1">  1        2 0.12105571E+00 0.18538270E+03</pdfrwt>
<pdfrwt beam="2">  1       -2 0.69584651E-02 0.18538270E+03</pdfrwt>
<totfact> 0.42007240E+03</totfact>
</mgrwt>
</event>
<event>
12    1  0.1093377E-001  0.3823141E+03  0.7546771E-02  0.1050082E+00
         -1   -1    0    0    0  501 -0.00000000000E+00  0.00000000000E+00  0.42293531325E+03  0.42293531325E+03  0.00000000000E+00 0. -1.
          1   -1    0    0  503    0  0.00000000000E+00 -0.00000000000E+00 -0.37788426904E+03  0.37788426904E+03  0.00000000000E+00 0.  1.
          6    2    1    2  503    0 -0.10367649792E+03 -0.32268074887E+03 -0.94483258102E+02  0.39445862142E+03  0.17832228140E+03 0.  0.
         24    2    3    3    0    0 -0.32688848293E+02 -0.25152385039E+03 -0.11806944212E+03  0.29110994617E+03  0.80447495162E+02 0.  0.
         -6    2    1    2    0  501  0.10367649792E+03  0.32268074887E+03  0.13953430231E+03  0.40636096087E+03  0.17546431857E+03 0.  0.
        -24    2    5    5    0    0  0.12395938680E+03  0.16342299058E+03  0.72835413252E+02  0.23244931389E+03  0.81576238434E+02 0.  0.
          4    1    4    4  502    0  0.23744952389E+02 -0.60994262670E+02 -0.14551125516E+02  0.67051160291E+02  0.00000000000E+00 0. -1.
         -3    1    4    4    0  502 -0.56433800682E+02 -0.19052958772E+03 -0.10351831660E+03  0.22405878588E+03  0.00000000000E+00 0.  1.
          5    1    3    3  503    0 -0.70987649628E+02 -0.71156898473E+02  0.23586184017E+02  0.10334867525E+03  0.47000000000E+01 0. -1.
         11    1    6    6    0    0  0.66810975484E+02  0.59554842224E+02  0.70402182648E+02  0.11387252961E+03  0.00000000000E+00 0. -1.
        -12    1    6    6    0    0  0.57148411317E+02  0.10386814836E+03  0.24332306038E+01  0.11857678428E+03  0.00000000000E+00 0.  1.
         -5    1    5    5    0  501 -0.20282888880E+02  0.15925775828E+03  0.66698889061E+02  0.17391164698E+03  0.47000000000E+01 0.  1.
<mgrwt>
<rscale>  2 0.38231412E+03</rscale>
<asrwt>0</asrwt>
<pdfrwt beam="2">  1        1 0.58136042E-01 0.38231412E+03</pdfrwt>
<pdfrwt beam="1">  1       -1 0.65066971E-01 0.38231412E+03</pdfrwt>
<totfact> 0.16132035E+02</totfact>
</mgrwt>
</event>
<event>
12    1  0.1093377E-001  0.1773221E+03  0.7546771E-02  0.1170420E+00
         -2   -1    0    0    0  501 -0.00000000000E+00  0.00000000000E+00  0.54699165617E+02  0.54699165617E+02  0.00000000000E+00 0.  1.
          2   -1    0    0  503    0  0.00000000000E+00 -0.00000000000E+00 -0.67046268438E+03  0.67046268438E+03  0.00000000000E+00 0. -1.
          6    2    1    2  503    0  0.34417490943E+02 -0.29122301493E+02 -0.17023381765E+03  0.24546215270E+03  0.17099544909E+03 0.  0.
         24    2    3    3    0    0 -0.12627385889E+02 -0.61110578906E+02 -0.51295325204E+02  0.11353442509E+03  0.79780333190E+02 0.  0.
         -6    2    1    2    0  501 -0.34417490943E+02  0.29122301493E+02 -0.44552970111E+03  0.47969969730E+03  0.17199538623E+03 0.  0.
        -24    2    5    5    0    0 -0.55295610442E+02 -0.14253704566E+02 -0.14051276808E+03  0.17087160075E+03  0.78692396854E+02 0.  0.
          2    1    4    4  502    0 -0.30634503115E+02 -0.20596833770E+02  0.96628962805E+01  0.38158536489E+02  0.00000000000E+00 0. -1.
         -1    1    4    4    0  502  0.18007117226E+02 -0.40513745135E+02 -0.60958221484E+02  0.75375888600E+02  0.00000000000E+00 0.  1.
          5    1    3    3  503    0  0.47044876833E+02  0.31988277412E+02 -0.11893849244E+03  0.13192772761E+03  0.47000000000E+01 0. -1.
         13    1    6    6    0    0  0.13172380442E+02  0.43530095409E+01 -0.68077320447E+02  0.69476484207E+02  0.00000000000E+00 0. -1.
        -14    1    6    6    0    0 -0.68467990884E+02 -0.18606714107E+02 -0.72435447629E+02  0.10139511654E+03  0.00000000000E+00 0.  1.
         -5    1    5    5    0  501  0.20878119498E+02  0.43376006059E+02 -0.30501693304E+03  0.30882809655E+03  0.47000000000E+01 0.  1.
<mgrwt>
<rscale>  2 0.17732212E+03</rscale>
<asrwt>0</asrwt>
<pdfrwt beam="2">  1        2 0.10314810E+00 0.17732212E+03</pdfrwt>
<pdfrwt beam="1">  1       -2 0.84152564E-02 0.17732212E+03</pdfrwt>
<totfact> 0.37952414E+03</totfact>
</mgrwt>
</event>
<event>
12    1  0.1093377E-001  0.1804985E+03  0.7546771E-02  0.1167321E+00
          2   -1    0    0  503    0  0.00000000000E+00  0.00000000000E+00  0.16524469197E+04  0.16524469197E+04  0.00000000000E+00 0.  1.
         -2   -1    0    0    0  501 -0.00000000000E+00 -0.00000000000E+00 -0.21634476653E+02  0.21634476653E+02  0.00000000000E+00 0. -1.
          6    2    1    2  503    0 -0.15847505774E+01 -0.53332560747E+02  0.10621685687E+04  0.10772952592E+04  0.17180260110E+03 0.  0.
         24    2    3    3    0    0 -0.26191315491E+02 -0.89428864216E+02  0.63762372034E+03  0.65048283622E+03  0.88771643649E+02 0.  0.
         -6    2    1    2    0  501  0.15847505774E+01  0.53332560747E+02  0.56864387439E+03  0.59678613717E+03  0.17306346861E+03 0.  0.
        -24    2    5    5    0    0  0.57077052235E+02  0.66880148002E+02  0.45060071230E+03  0.46556414671E+03  0.77319006006E+02 0.  0.
          2    1    4    4  502    0 -0.28662549454E+02 -0.58867274426E+02  0.17505065775E+03  0.18689470436E+03  0.00000000000E+00 0. -1.
         -1    1    4    4    0  502  0.24712339624E+01 -0.30561589790E+02  0.46257306259E+03  0.46358813186E+03  0.00000000000E+00 0.  1.
          5    1    3    3  503    0  0.24606564914E+02  0.36096303469E+02  0.42454484836E+03  0.42681242300E+03  0.47000000000E+01 0. -1.
         11    1    6    6    0    0  0.34893433833E+02 -0.94609894812E+01  0.17664294950E+03  0.18030472444E+03  0.00000000000E+00 0. -1.
        -12    1    6    6    0    0  0.22183618402E+02  0.76341137484E+02  0.27395776280E+03  0.28525942227E+03  0.00000000000E+00 0.  1.
         -5    1    5    5    0  501 -0.55492301658E+02 -0.13547587255E+02  0.11804316209E+03  0.13122199046E+03  0.47000000000E+01 0.  1.
<mgrwt>
<rscale>  2 0.18049847E+03</rscale>
<asrwt>0</asrwt>
<pdfrwt beam="1">  1        2 0.25422250E+00 0.18049847E+03</pdfrwt>
<pdfrwt beam="2">  1       -2 0.33283823E-02 0.18049847E+03</pdfrwt>
<totfact> 0.40863933E+03</totfact>
</mgrwt>
</event>
<event>
12    1  0.1093377E-001  0.2343069E+03  0.7546771E-02  0.1123645E+00
          1   -1    0    0  503    0  0.00000000000E+00  0.00000000000E+00  0.26392139113E+03  0.26392139113E+03  0.00000000000E+00 0.  1.
         -1   -1    0    0    0  501 -0.00000000000E+00 -0.00000000000E+00 -0.37744667535E+03  0.37744667535E+03  0.00000000000E+00 0. -1.
          6    2    1    2  503    0  0.15022413983E+03  0.49735811434E+02  0.15805554300E+03  0.28286225968E+03  0.17317205361E+03 0.  0.
         24    2    3    3    0    0  0.43066246702E+02  0.71311048069E+01  0.13928794752E+03  0.16593370146E+03  0.78913285930E+02 0.  0.
         -6    2    1    2    0  501 -0.15022413983E+03 -0.49735811434E+02 -0.27158082722E+03  0.35850580681E+03  0.17242193791E+03 0.  0.
        -24    2    5    5    0    0 -0.17952699920E+03 -0.32157817997E+02 -0.22235944779E+03  0.29840191664E+03  0.79598436741E+02 0.  0.
          2    1    4    4  502    0 -0.60596473523E+01  0.33463512763E+02  0.60855856328E+02  0.69713422394E+02  0.00000000000E+00 0. -1.
         -1    1    4    4    0  502  0.49125894055E+02 -0.26332407956E+02  0.78432091189E+02  0.96220279067E+02  0.00000000000E+00 0.  1.
          5    1    3    3  503    0  0.10715789313E+03  0.42604706627E+02  0.18767595481E+02  0.11692855822E+03  0.47000000000E+01 0. -1.
         13    1    6    6    0    0 -0.64016885653E+02 -0.49859365447E+02 -0.10599395207E+03  0.13348721230E+03  0.00000000000E+00 0. -1.
        -14    1    6    6    0    0 -0.11551011354E+03  0.17701547450E+02 -0.11636549572E+03  0.16491470434E+03  0.00000000000E+00 0.  1.
         -5    1    5    5    0  501  0.29302859365E+02 -0.17577993436E+02 -0.49221379430E+02  0.60103890167E+02  0.47000000000E+01 0.  1.
<mgrwt>
<rscale>  2 0.23430692E+03</rscale>
<asrwt>0</asrwt>
<pdfrwt beam="1">  1        1 0.40603291E-01 0.23430692E+03</pdfrwt>
<pdfrwt beam="2">  1       -1 0.58068719E-01 0.23430692E+03</pdfrwt>
<totfact> 0.32193839E+02</totfact>
</mgrwt>
</event>
<event>
12    1  0.1093377E-001  0.2919089E+03  0.7546771E-02  0.1089357E+00
          2   -1    0    0  503    0  0.00000000000E+00  0.00000000000E+00  0.67383923883E+03  0.67383923883E+03  0.00000000000E+00 0. -1.
         -2   -1    0    0    0  501 -0.00000000000E+00 -0.00000000000E+00 -0.13226919770E+03  0.13226919770E+03  0.00000000000E+00 0.  1.
          6    2    1    2  503    0 -0.10522175780E+03  0.20846644907E+03  0.35649464729E+03  0.46164290617E+03  0.17747073157E+03 0.  0.
         24    2    3    3    0    0 -0.12417031438E+03  0.89597695571E+02  0.20493817816E+03  0.26804465801E+03  0.80014172448E+02 0.  0.
         -6    2    1    2    0  501  0.10522175780E+03 -0.20846644907E+03  0.18507539383E+03  0.34446553036E+03  0.17284016172E+03 0.  0.
        -24    2    5    5    0    0  0.11212060533E+03 -0.21946790339E+03  0.13474359740E+03  0.29227352114E+03  0.80813262262E+02 0.  0.
          4    1    4    4  502    0 -0.84435126010E+02  0.96233562635E+02  0.17921995553E+03  0.22024981621E+03  0.00000000000E+00 0. -1.
         -3    1    4    4    0  502 -0.39735188375E+02 -0.66358670644E+01  0.25718222632E+02  0.47794841795E+02  0.00000000000E+00 0.  1.
          5    1    3    3  503    0  0.18948556589E+02  0.11886875349E+03  0.15155646913E+03  0.19359824816E+03  0.47000000000E+01 0. -1.
         13    1    6    6    0    0  0.17419387632E+02 -0.58137601272E+02  0.73745721618E+02  0.95508361959E+02  0.00000000000E+00 0. -1.
        -14    1    6    6    0    0  0.94701217694E+02 -0.16133030212E+03  0.60997875781E+02  0.19676515918E+03  0.00000000000E+00 0.  1.
         -5    1    5    5    0  501 -0.68988475309E+01  0.11001454330E+02  0.50331796434E+02  0.52192009224E+02  0.47000000000E+01 0.  1.
<mgrwt>
<rscale>  2 0.29190891E+03</rscale>
<asrwt>0</asrwt>
<pdfrwt beam="1">  1        2 0.10366757E+00 0.29190891E+03</pdfrwt>
<pdfrwt beam="2">  1       -2 0.20349108E-01 0.29190891E+03</pdfrwt>
<totfact> 0.89832027E+02</totfact>
</mgrwt>
</event>
<event>
12    1  0.1093377E-001  0.2640091E+03  0.7546771E-02  0.1104758E+00
         -2   -1    0    0    0  501 -0.00000000000E+00  0.00000000000E+00  0.36144826482E+02  0.36144826482E+02  0.00000000000E+00 0. -1.
          2   -1    0    0  503    0  0.00000000000E+00 -0.00000000000E+00 -0.19381606064E+04  0.19381606064E+04  0.00000000000E+00 0.  1.
          6    2    1    2  503    0 -0.10980220478E+03 -0.16922263901E+03 -0.10137638708E+04  0.10470883773E+04  0.16728436376E+03 0.  0.
         24    2    3    3    0    0 -0.17161975026E+02 -0.13276625741E+03 -0.50764430114E+03  0.53124887828E+03  0.81247902764E+02 0.  0.
         -6    2    1    2    0  501  0.10980220478E+03  0.16922263901E+03 -0.88825190912E+03  0.92721705561E+03  0.17334124849E+03 0.  0.
        -24    2    5    5    0    0  0.66258067862E+02  0.11544744382E+03 -0.33136146113E+03  0.36602464249E+03  0.80345361705E+02 0.  0.
          4    1    4    4  502    0  0.44759968416E+01 -0.10133729776E+03 -0.23514083695E+03  0.25608689085E+03  0.00000000000E+00 0. -1.
         -3    1    4    4    0  502 -0.21637971868E+02 -0.31428959653E+02 -0.27250346419E+03  0.27516198743E+03  0.00000000000E+00 0.  1.
          5    1    3    3  503    0 -0.92640229751E+02 -0.36456381597E+02 -0.50611956966E+03  0.51583949899E+03  0.47000000000E+01 0. -1.
         13    1    6    6    0    0  0.29613463105E+02  0.11485267870E+03 -0.26116956401E+03  0.28684078540E+03  0.00000000000E+00 0. -1.
        -14    1    6    6    0    0  0.36644604757E+02  0.59476512308E+00 -0.70191897118E+02  0.79183857094E+02  0.00000000000E+00 0.  1.
         -5    1    5    5    0  501  0.43544136915E+02  0.53775195189E+02 -0.55689044799E+03  0.56119241312E+03  0.47000000000E+01 0.  1.
<mgrwt>
<rscale>  2 0.26400912E+03</rscale>
<asrwt>0</asrwt>
<pdfrwt beam="2">  1        2 0.29817865E+00 0.26400912E+03</pdfrwt>
<pdfrwt beam="1">  1       -2 0.55607408E-02 0.26400912E+03</pdfrwt>
<totfact> 0.13331363E+03</totfact>
</mgrwt>
</event>
<event>
12    1  0.1093377E-001  0.2429377E+03  0.7546771E-02  0.1117851E+00
         -1   -1    0    0    0  501 -0.00000000000E+00  0.00000000000E+00  0.29724629708E+03  0.29724629708E+03  0.00000000000E+00 0. -1.
          1   -1    0    0  503    0  0.00000000000E+00 -0.00000000000E+00 -0.34780661292E+03  0.34780661292E+03  0.00000000000E+00 0.  1.
          6    2    1    2  503    0 -0.13154641590E+03 -0.10382997566E+03 -0.23655936116E+03  0.33906190798E+03  0.17583379286E+03 0.  0.
         24    2    3    3    0    0 -0.27419426319E+02  0.13679749906E+02 -0.10728920359E+03  0.13563174994E+03  0.77110556269E+02 0.  0.
         -6    2    1    2    0  501  0.13154641590E+03  0.10382997566E+03  0.18599904532E+03  0.30599100203E+03  0.17592533950E+03 0.  0.
        -24    2    5    5    0    0  0.70723016385E+02  0.10965163007E+03  0.18685522929E+03  0.24470315136E+03  0.89104043407E+02 0.  0.
          4    1    4    4  502    0  0.18706711232E+02  0.18724375230E+02 -0.10840490044E+02  0.28601739409E+02  0.00000000000E+00 0. -1.
         -3    1    4    4    0  502 -0.46126137550E+02 -0.50446253237E+01 -0.96448713545E+02  0.10703001053E+03  0.00000000000E+00 0.  1.
          5    1    3    3  503    0 -0.10412698958E+03 -0.11750972557E+03 -0.12927015757E+03  0.20343015804E+03  0.47000000000E+01 0. -1.
         13    1    6    6    0    0  0.66615580174E+02  0.40689298475E+02  0.53867269338E+02  0.94841642954E+02  0.00000000000E+00 0. -1.
        -14    1    6    6    0    0  0.41074362107E+01  0.68962331594E+02  0.13298795995E+03  0.14986150841E+03  0.00000000000E+00 0.  1.
         -5    1    5    5    0  501  0.60823399512E+02 -0.58216544044E+01 -0.85618396696E+00  0.61287850665E+02  0.47000000000E+01 0.  1.
<mgrwt>
<rscale>  2 0.24293774E+03</rscale>
<asrwt>0</asrwt>
<pdfrwt beam="2">  1        1 0.53508710E-01 0.24293774E+03</pdfrwt>
<pdfrwt beam="1">  1       -1 0.45730200E-01 0.24293774E+03</pdfrwt>
<totfact> 0.35446727E+02</totfact>
</mgrwt>
</event>
<event>
12    1  0.1093377E-001  0.2551244E+03  0.7546771E-02  0.1110108E+00
          2   -1    0    0  503    0  0.00000000000E+00  0.00000000000E+00  0.27482825286E+03  0.27482825286E+03  0.00000000000E+00 0. -1.
         -2   -1    0    0    0  501 -0.00000000000E+00 -0.00000000000E+00 -0.24841479166E+03  0.24841479166E+03  0.00000000000E+00 0.  1.
          6    2    1    2  503    0 -0.11599743012E+03  0.14017467196E+03 -0.42902038134E+02  0.26295616671E+03  0.18493517318E+03 0.  0.
         24    2    3    3    0    0 -0.11497476689E+02  0.39956949306E+02 -0.74065752338E+02  0.11477688582E+03  0.77196166232E+02 0.  0.
         -6    2    1    2    0  501  0.11599743012E+03 -0.14017467196E+03  0.69315499343E+02  0.26028687781E+03  0.17274338731E+03 0.  0.
        -24    2    5    5    0    0  0.33837303556E+02 -0.10359690414E+03 -0.17133135989E+02  0.13545228307E+03  0.78590679977E+02 0.  0.
          4    1    4    4  502    0  0.33232219919E+02  0.17023957445E+02 -0.29209883302E+02  0.47406886107E+02  0.00000000000E+00 0. -1.
         -3    1    4    4    0  502 -0.44729696607E+02  0.22932991861E+02 -0.44855869036E+02  0.67369999712E+02  0.00000000000E+00 0.  1.
          5    1    3    3  503    0 -0.10449995343E+03  0.10021772266E+03  0.31163714204E+02  0.14817928089E+03  0.47000000000E+01 0. -1.
         11    1    6    6    0    0 -0.25224164146E+02 -0.23173731758E+02 -0.25340737416E+00  0.34254116771E+02  0.00000000000E+00 0. -1.
        -12    1    6    6    0    0  0.59061467702E+02 -0.80423172384E+02 -0.16879728615E+02  0.10119816630E+03  0.00000000000E+00 0.  1.
         -5    1    5    5    0  501  0.82160126559E+02 -0.36577767823E+02  0.86448635332E+02  0.12483459475E+03  0.47000000000E+01 0.  1.
<mgrwt>
<rscale>  2 0.25512444E+03</rscale>
<asrwt>0</asrwt>
<pdfrwt beam="1">  1        2 0.42281270E-01 0.25512444E+03</pdfrwt>
<pdfrwt beam="2">  1       -2 0.38217660E-01 0.25512444E+03</pdfrwt>
<totfact> 0.78347390E+02</totfact>
</mgrwt>
</event>
<event>
12    1  0.1093377E-001  0.2845629E+03  0.7546771E-02  0.1093223E+00
          2   -1    0    0  503    0  0.00000000000E+00  0.00000000000E+00  0.16544505232E+04  0.16544505232E+04  0.00000000000E+00 0.  1.
         -2   -1    0    0    0  501 -0.00000000000E+00 -0.00000000000E+00 -0.68654234068E+02  0.68654234068E+02  0.00000000000E+00 0. -1.
          6    2    1    2  503    0 -0.15419049315E+03 -0.16604826049E+03  0.33001363652E+03  0.43534361901E+03  0.17107990337E+03 0.  0.
         24    2    3    3    0    0 -0.34024393448E+02 -0.68314140289E+02  0.21716049182E+03  0.24364131846E+03  0.79861954271E+02 0.  0.
         -6    2    1    2    0  501  0.15419049315E+03  0.16604826049E+03  0.12557826526E+04  0.12877611382E+04  0.17318182816E+03 0.  0.
        -24    2    5    5    0    0  0.27262755208E+02  0.19203029981E+02  0.32902367594E+03  0.34088286560E+03  0.82659146790E+02 0.  0.
          2    1    4    4  502    0 -0.13423439641E+02 -0.71568116413E+02  0.94911527478E+02  0.11962600916E+03  0.00000000000E+00 0. -1.
         -1    1    4    4    0  502 -0.20600953807E+02  0.32539761248E+01  0.12224896434E+03  0.12401530930E+03  0.00000000000E+00 0.  1.
          5    1    3    3  503    0 -0.12016609970E+03 -0.97734120202E+02  0.11285314470E+03  0.19170230056E+03  0.47000000000E+01 0. -1.
         11    1    6    6    0    0  0.32439365631E+02 -0.22764118926E+02  0.92850549189E+02  0.10095415810E+03  0.00000000000E+00 0. -1.
        -12    1    6    6    0    0 -0.51766104228E+01  0.41967148906E+02  0.23617312675E+03  0.23992870750E+03  0.00000000000E+00 0.  1.
         -5    1    5    5    0  501  0.12692773794E+03  0.14684523051E+03  0.92675897665E+03  0.94687827263E+03  0.47000000000E+01 0.  1.
<mgrwt>
<rscale>  2 0.28456294E+03</rscale>
<asrwt>0</asrwt>
<pdfrwt beam="1">  1        2 0.25453082E+00 0.28456294E+03</pdfrwt>
<pdfrwt beam="2">  1       -2 0.10562191E-01 0.28456294E+03</pdfrwt>
<totfact> 0.68674017E+02</totfact>
</mgrwt>
</event>
<event>
12    1  0.1093377E-001  0.2117573E+03  0.7546771E-02  0.1140182E+00
         -3   -1    0    0    0  501 -0.00000000000E+00  0.00000000000E+00  0.78284516392E+02  0.78284516392E+02  0.00000000000E+00 0. -1.
          3   -1    0    0  503    0  0.00000000000E+00 -0.00000000000E+00 -0.57460168702E+03  0.57460168702E+03  0.00000000000E+00 0.  1.
          6    2    1    2  503    0  0.11735550760E+03  0.33267823505E+02 -0.26658246355E+03  0.34052144648E+03  0.17323274055E+03 0.  0.
         24    2    3    3    0    0  0.97698520029E+02  0.33487176835E+02 -0.28187933915E+03  0.31517327733E+03  0.95978336483E+02 0.  0.
         -6    2    1    2    0  501 -0.11735550760E+03 -0.33267823505E+02 -0.22973470708E+03  0.31236475694E+03  0.17295849933E+03 0.  0.
        -24    2    5    5    0    0 -0.10092245943E+03  0.14705625185E+01 -0.67691535241E+02  0.14576079517E+03  0.80477078058E+02 0.  0.
          2    1    4    4  502    0 -0.55820039144E+01  0.37168874692E+02 -0.71219203774E+02  0.80528622239E+02  0.00000000000E+00 0. -1.
         -1    1    4    4    0  502  0.10328052394E+03 -0.36816978568E+01 -0.21066013538E+03  0.23464465509E+03  0.00000000000E+00 0.  1.
          5    1    3    3  503    0  0.19656987570E+02 -0.21935332989E+00  0.15296875602E+02  0.25348169153E+02  0.47000000000E+01 0. -1.
         13    1    6    6    0    0 -0.19531541986E+02  0.35070943314E+02 -0.13425874830E+02  0.42328551974E+02  0.00000000000E+00 0. -1.
        -14    1    6    6    0    0 -0.81390917446E+02 -0.33600380795E+02 -0.54265660411E+02  0.10343224319E+03  0.00000000000E+00 0.  1.
         -5    1    5    5    0  501 -0.16433048167E+02 -0.34738386024E+02 -0.16204317184E+03  0.16660396177E+03  0.47000000000E+01 0.  1.
<mgrwt>
<rscale>  2 0.21175729E+03</rscale>
<asrwt>0</asrwt>
<pdfrwt beam="2">  1        3 0.88400260E-01 0.21175729E+03</pdfrwt>
<pdfrwt beam="1">  1       -3 0.12043772E-01 0.21175729E+03</pdfrwt>
<totfact> 0.15881383E+02</totfact>
</mgrwt>
</event>
<event>
12    1  0.1093377E-001  0.1749993E+03  0.7546771E-02  0.1172732E+00
          2   -1    0    0  503    0  0.00000000000E+00  0.00000000000E+00  0.67944613399E+03  0.67944613399E+03  0.00000000000E+00 0.  1.
         -2   -1    0    0    0  501 -0.00000000000E+00 -0.00000000000E+00 -0.67654314492E+02  0.67654314492E+02  0.00000000000E+00 0. -1.
          6    2    1    2  503    0  0.23693720227E+02  0.33666335303E+02  0.51771636001E+03  0.54544399051E+03  0.16668564081E+03 0.  0.
         24    2    3    3    0    0  0.49299136400E+02  0.48339576443E+02  0.49867088310E+03  0.51000726474E+03  0.81655624019E+02 0.  0.
         -6    2    1    2    0  501 -0.23693720227E+02 -0.33666335303E+02  0.94075459490E+02  0.20165645797E+03  0.17355206842E+03 0.  0.
        -24    2    5    5    0    0  0.26445109334E+02  0.12568469067E+02  0.16248571356E+01  0.86674880141E+02  0.81563376980E+02 0.  0.
          2    1    4    4  502    0  0.25611454826E+02  0.45483997442E+02  0.12349768004E+03  0.13407616349E+03  0.00000000000E+00 0. -1.
         -1    1    4    4    0  502  0.23687681575E+02  0.28555790017E+01  0.37517320306E+03  0.37593110125E+03  0.00000000000E+00 0.  1.
          5    1    3    3  503    0 -0.25605416173E+02 -0.14673241141E+02  0.19045476916E+02  0.35436725779E+02  0.47000000000E+01 0. -1.
         13    1    6    6    0    0  0.51125155284E+02 -0.11071691659E+02 -0.17014546052E+01  0.52337928950E+02  0.00000000000E+00 0. -1.
        -14    1    6    6    0    0 -0.24680045951E+02  0.23640160725E+02  0.33263117409E+01  0.34336951190E+02  0.00000000000E+00 0.  1.
         -5    1    5    5    0  501 -0.50138829561E+02 -0.46234804369E+02  0.92450602354E+02  0.11498157783E+03  0.47000000000E+01 0.  1.
<mgrwt>
<rscale>  2 0.17499931E+03</rscale>
<asrwt>0</asrwt>
<pdfrwt beam="1">  1        2 0.10453017E+00 0.17499931E+03</pdfrwt>
<pdfrwt beam="2">  1       -2 0.10408357E-01 0.17499931E+03</pdfrwt>
<totfact> 0.26731216E+03</totfact>
</mgrwt>
</event>
<event>
12    1  0.1093377E-001  0.1768587E+03  0.7546771E-02  0.1170878E+00
          2   -1    0    0  503    0  0.00000000000E+00  0.00000000000E+00  0.67652074993E+03  0.67652074993E+03  0.00000000000E+00 0. -1.
         -2   -1    0    0    0  501 -0.00000000000E+00 -0.00000000000E+00 -0.46371787043E+02  0.46371787043E+02  0.00000000000E+00 0.  1.
          6    2    1    2  503    0  0.24976717160E+02  0.25934656368E+02  0.29449262474E+03  0.34323224871E+03  0.17258629068E+03 0.  0.
         24    2    3    3    0    0 -0.40876938641E+02 -0.20237400786E+02  0.12623566458E+03  0.15668183332E+03  0.80828691538E+02 0.  0.
         -6    2    1    2    0  501 -0.24976717160E+02 -0.25934656368E+02  0.33565633815E+03  0.37966028826E+03  0.17372482361E+03 0.  0.
        -24    2    5    5    0    0  0.28220278701E+02 -0.24527918113E+02  0.77479939103E+02  0.11601461258E+03  0.77834738202E+02 0.  0.
          4    1    4    4  502    0 -0.10146618765E+02  0.26514385488E+02  0.14859136349E+02  0.32043102896E+02  0.00000000000E+00 0. -1.
         -3    1    4    4    0  502 -0.30730319877E+02 -0.46751786274E+02  0.11137652824E+03  0.12463873042E+03  0.00000000000E+00 0.  1.
          5    1    3    3  503    0  0.65853655801E+02  0.46172057154E+02  0.16825696015E+03  0.18655041540E+03  0.47000000000E+01 0. -1.
         11    1    6    6    0    0  0.24833299914E+02 -0.24328781443E+01  0.87884906899E+02  0.91358461794E+02  0.00000000000E+00 0. -1.
        -12    1    6    6    0    0  0.33869787870E+01 -0.22095039969E+02 -0.10404967797E+02  0.24656150782E+02  0.00000000000E+00 0.  1.
         -5    1    5    5    0  501 -0.53196995861E+02 -0.14067382548E+01  0.25817639905E+03  0.26364567568E+03  0.47000000000E+01 0.  1.
<mgrwt>
<rscale>  2 0.17685868E+03</rscale>
<asrwt>0</asrwt>
<pdfrwt beam="1">  1        2 0.10408011E+00 0.17685868E+03</pdfrwt>
<pdfrwt beam="2">  1       -2 0.71341216E-02 0.17685868E+03</pdfrwt>
<totfact> 0.48506993E+03</totfact>
</mgrwt>
</event>
<event>
12    1  0.1093377E-001  0.2607507E+03  0.7546771E-02  0.1106693E+00
         -2   -1    0    0    0  501 -0.00000000000E+00  0.00000000000E+00  0.74033577563E+02  0.74033577563E+02  0.00000000000E+00 0.  1.
          2   -1    0    0  503    0  0.00000000000E+00 -0.00000000000E+00 -0.17313653594E+04  0.17313653594E+04  0.00000000000E+00 0. -1.
          6    2    1    2  503    0 -0.66157045570E+02 -0.18405079253E+03 -0.21092137390E+03  0.33575984055E+03  0.17319178862E+03 0.  0.
         24    2    3    3    0    0 -0.11050065994E+03 -0.10955400967E+03 -0.14758310475E+03  0.22828913230E+03  0.78247544597E+02 0.  0.
         -6    2    1    2    0  501  0.66157045570E+02  0.18405079253E+03 -0.14464104079E+04  0.14696390964E+04  0.17171067708E+03 0.  0.
        -24    2    5    5    0    0  0.96094414261E+02  0.17831834014E+03 -0.10969645008E+04  0.11188348218E+04  0.86189765302E+02 0.  0.
          4    1    4    4  502    0 -0.12083972083E+03 -0.94683711787E+02 -0.14254368272E+03  0.20948972503E+03  0.00000000000E+00 0. -1.
         -3    1    4    4    0  502  0.10339060895E+02 -0.14870297882E+02 -0.50394220320E+01  0.18799407270E+02  0.00000000000E+00 0.  1.
          5    1    3    3  503    0  0.44343614369E+02 -0.74496782865E+02 -0.63338269148E+02  0.10747070825E+03  0.47000000000E+01 0. -1.
         13    1    6    6    0    0  0.87044866939E+02  0.18395994995E+03 -0.95363300170E+03  0.97510716025E+03  0.00000000000E+00 0. -1.
        -14    1    6    6    0    0  0.90495473219E+01 -0.56416098139E+01 -0.14333149909E+03  0.14372766157E+03  0.00000000000E+00 0.  1.
         -5    1    5    5    0  501 -0.29937368691E+02  0.57324523925E+01 -0.34944590713E+03  0.35080427458E+03  0.47000000000E+01 0.  1.
<mgrwt>
<rscale>  2 0.26075073E+03</rscale>
<asrwt>0</asrwt>
<pdfrwt beam="2">  1        2 0.26636389E+00 0.26075073E+03</pdfrwt>
<pdfrwt beam="1">  1       -2 0.11389781E-01 0.26075073E+03</pdfrwt>
<totfact> 0.55575198E+02</totfact>
</mgrwt>
</event>
<event>
12    1  0.1093377E-001  0.1750686E+03  0.7546771E-02  0.1172663E+00
         -1   -1    0    0    0  501 -0.00000000000E+00  0.00000000000E+00  0.12154114217E+03  0.12154114217E+03  0.00000000000E+00 0. -1.
          1   -1    0    0  503    0  0.00000000000E+00 -0.00000000000E+00 -0.27241560508E+03  0.27241560508E+03  0.00000000000E+00 0.  1.
          6    2    1    2  503    0 -0.10006210646E+02  0.18367329022E+02 -0.12916992153E+03  0.21763079623E+03  0.17389885513E+03 0.  0.
         24    2    3    3    0    0 -0.36541653853E+02 -0.12487523175E+02 -0.14150032458E+03  0.17484901869E+03  0.95176713438E+02 0.  0.
         -6    2    1    2    0  501  0.10006210646E+02 -0.18367329022E+02 -0.21704541380E+02  0.17632595101E+03  0.17373045460E+03 0.  0.
        -24    2    5    5    0    0  0.36622608658E+02  0.41299167134E+02  0.19262822551E+02  0.99067046576E+02  0.79977413773E+02 0.  0.
          4    1    4    4  502    0 -0.68972416997E+02 -0.35183697728E+01 -0.94615717873E+02  0.11713969140E+03  0.00000000000E+00 0. -1.
         -3    1    4    4    0  502  0.32430763145E+02 -0.89691534018E+01 -0.46884606706E+02  0.57709327295E+02  0.00000000000E+00 0.  1.
          5    1    3    3  503    0  0.26535443206E+02  0.30854852196E+02  0.12330403051E+02  0.42781777542E+02  0.47000000000E+01 0. -1.
         11    1    6    6    0    0  0.46109220132E+02  0.52874713580E+01  0.35509096890E+02  0.58437261199E+02  0.00000000000E+00 0. -1.
        -12    1    6    6    0    0 -0.94866114736E+01  0.36011695776E+02 -0.16246274338E+02  0.40629785377E+02  0.00000000000E+00 0.  1.
         -5    1    5    5    0  501 -0.26616398012E+02 -0.59666496156E+02 -0.40967363931E+02  0.77258904432E+02  0.47000000000E+01 0.  1.
<mgrwt>
<rscale>  2 0.17506859E+03</rscale>
<asrwt>0</asrwt>
<pdfrwt beam="2">  1        1 0.41910094E-01 0.17506859E+03</pdfrwt>
<pdfrwt beam="1">  1       -1 0.18698637E-01 0.17506859E+03</pdfrwt>
<totfact> 0.21944633E+03</totfact>
</mgrwt>
</event>
<event>
12    1  0.1093377E-001  0.1871876E+03  0.7546771E-02  0.1161023E+00
          1   -1    0    0  503    0  0.00000000000E+00  0.00000000000E+00  0.24640708788E+03  0.24640708788E+03  0.00000000000E+00 0. -1.
         -1   -1    0    0    0  501 -0.00000000000E+00 -0.00000000000E+00 -0.21160434643E+03  0.21160434643E+03  0.00000000000E+00 0.  1.
          6    2    1    2  503    0 -0.21372912368E+02  0.67077186703E+02 -0.11377106218E+03  0.21876801450E+03  0.17308795227E+03 0.  0.
         24    2    3    3    0    0  0.29084637293E+02  0.80978406571E+02 -0.11512586741E+03  0.16620249606E+03  0.83461882876E+02 0.  0.
         -6    2    1    2    0  501  0.21372912368E+02 -0.67077186703E+02  0.14857380362E+03  0.23924341981E+03  0.17380186547E+03 0.  0.
        -24    2    5    5    0    0  0.13771436757E+02  0.18187635746E+02  0.12491607409E+03  0.15030720365E+03  0.80422554910E+02 0.  0.
          4    1    4    4  502    0 -0.16928938537E+02  0.64567261135E+02 -0.44115621228E+02  0.80010675581E+02  0.00000000000E+00 0. -1.
         -3    1    4    4    0  502  0.46013575830E+02  0.16411145435E+02 -0.71010246180E+02  0.86191820480E+02  0.00000000000E+00 0.  1.
          5    1    3    3  503    0 -0.50457549661E+02 -0.13901219868E+02  0.13548052310E+01  0.52565518440E+02  0.47000000000E+01 0. -1.
         13    1    6    6    0    0  0.46419907666E+02  0.63999484630E+01  0.55045972411E+02  0.72289876517E+02  0.00000000000E+00 0. -1.
        -14    1    6    6    0    0 -0.32648470910E+02  0.11787687283E+02  0.69870101680E+02  0.78017327133E+02  0.00000000000E+00 0.  1.
         -5    1    5    5    0  501  0.76014756109E+01 -0.85264822449E+02  0.23657729529E+02  0.88936216162E+02  0.47000000000E+01 0.  1.
<mgrwt>
<rscale>  2 0.18718759E+03</rscale>
<asrwt>0</asrwt>
<pdfrwt beam="1">  1        1 0.37908783E-01 0.18718759E+03</pdfrwt>
<pdfrwt beam="2">  1       -1 0.32554515E-01 0.18718759E+03</pdfrwt>
<totfact> 0.99530541E+02</totfact>
</mgrwt>
</event>
<event>
12    1  0.1093377E-001  0.1770271E+03  0.7546771E-02  0.1170712E+00
         -2   -1    0    0    0  501 -0.00000000000E+00  0.00000000000E+00  0.12997140474E+03  0.12997140474E+03  0.00000000000E+00 0. -1.
          2   -1    0    0  503    0  0.00000000000E+00 -0.00000000000E+00 -0.28991468542E+03  0.28991468542E+03  0.00000000000E+00 0.  1.
          6    2    1    2  503    0  0.83435670618E+00 -0.41314526443E+02 -0.16566662021E+03  0.24163143366E+03  0.17097582996E+03 0.  0.
         24    2    3    3    0    0  0.17565875489E+02  0.18366106783E+02 -0.15819258835E+03  0.17902414290E+03  0.79867858821E+02 0.  0.
         -6    2    1    2    0  501 -0.83435670618E+00  0.41314526443E+02  0.57233395336E+01  0.17825465651E+03  0.17330429800E+03 0.  0.
        -24    2    5    5    0    0  0.14498271773E+01  0.82935565953E+02  0.40033778746E+02  0.12406217857E+03  0.83116247587E+02 0.  0.
          4    1    4    4  502    0 -0.25588548680E+02  0.29653623418E+02 -0.76720532469E+02  0.86140300137E+02  0.00000000000E+00 0. -1.
         -3    1    4    4    0  502  0.43154424170E+02 -0.11287516635E+02 -0.81472055883E+02  0.92883842766E+02  0.00000000000E+00 0.  1.
          5    1    3    3  503    0 -0.16731518783E+02 -0.59680633226E+02 -0.74740318594E+01  0.62607290752E+02  0.47000000000E+01 0. -1.
         13    1    6    6    0    0 -0.30328296949E+02  0.48541178966E+02  0.50213410572E+02  0.76140910505E+02  0.00000000000E+00 0. -1.
        -14    1    6    6    0    0  0.31778124126E+02  0.34394386988E+02 -0.10179631826E+02  0.47921268069E+02  0.00000000000E+00 0.  1.
         -5    1    5    5    0  501 -0.22841838835E+01 -0.41621039510E+02 -0.34310439213E+02  0.54192477936E+02  0.47000000000E+01 0.  1.
<mgrwt>
<rscale>  2 0.17702706E+03</rscale>
<asrwt>0</asrwt>
<pdfrwt beam="2">  1        2 0.44602259E-01 0.17702706E+03</pdfrwt>
<pdfrwt beam="1">  1       -2 0.19995601E-01 0.17702706E+03</pdfrwt>
<totfact> 0.23462450E+03</totfact>
</mgrwt>
</event>
<event>
12    1  0.1093377E-001  0.4470460E+03  0.7546771E-02  0.1028607E+00
         -1   -1    0    0    0  501 -0.00000000000E+00  0.00000000000E+00  0.51878103252E+03  0.51878103252E+03  0.00000000000E+00 0. -1.
          1   -1    0    0  503    0  0.00000000000E+00 -0.00000000000E+00 -0.38794318262E+03  0.38794318262E+03  0.00000000000E+00 0.  1.
          6    2    1    2  503    0 -0.16571837213E+03  0.37739941042E+03  0.27498514958E+02  0.44783374474E+03  0.17293351541E+03 0.  0.
         24    2    3    3    0    0 -0.19088432152E+03  0.29539206800E+03  0.18744714233E+02  0.36147838447E+03  0.81375426807E+02 0.  0.
         -6    2    1    2    0  501  0.16571837213E+03 -0.37739941042E+03  0.10333933494E+03  0.45889047041E+03  0.17322976602E+03 0.  0.
        -24    2    5    5    0    0  0.17949789461E+03 -0.28168260321E+03  0.41824356105E+02  0.34418316879E+03  0.71750914950E+02 0.  0.
          4    1    4    4  502    0 -0.62883295025E+02  0.69492583596E+02  0.37978765483E+02  0.10112326436E+03  0.00000000000E+00 0. -1.
         -3    1    4    4    0  502 -0.12800102650E+03  0.22589948441E+03 -0.19234051251E+02  0.26035512011E+03  0.00000000000E+00 0.  1.
          5    1    3    3  503    0  0.25165949387E+02  0.82007342417E+02  0.87538007258E+01  0.86355360262E+02  0.47000000000E+01 0. -1.
         11    1    6    6    0    0  0.22457449366E+02 -0.70575424622E+02 -0.13590422012E+02  0.75298918737E+02  0.00000000000E+00 0. -1.
        -12    1    6    6    0    0  0.15704044525E+03 -0.21110717859E+03  0.55414778117E+02  0.26888425006E+03  0.00000000000E+00 0.  1.
         -5    1    5    5    0  501 -0.13779522478E+02 -0.95716807212E+02  0.61514978835E+02  0.11470730161E+03  0.47000000000E+01 0.  1.
<mgrwt>
<rscale>  2 0.44704604E+03</rscale>
<asrwt>0</asrwt>
<pdfrwt beam="2">  1        1 0.59683566E-01 0.44704604E+03</pdfrwt>
<pdfrwt beam="1">  1       -1 0.79812467E-01 0.44704604E+03</pdfrwt>
<totfact> 0.10212786E+02</totfact>
</mgrwt>
</event>
<event>
12    1  0.1093377E-001  0.2596788E+03  0.7546771E-02  0.1107336E+00
         -1   -1    0    0    0  501 -0.00000000000E+00  0.00000000000E+00  0.84241922700E+02  0.84241922700E+02  0.00000000000E+00 0. -1.
          1   -1    0    0  503    0  0.00000000000E+00 -0.00000000000E+00 -0.14063990172E+04  0.14063990172E+04  0.00000000000E+00 0.  1.
          6    2    1    2  503    0 -0.13223143362E+03  0.14178659374E+03 -0.11501876808E+04  0.11791211773E+04  0.17264547342E+03 0.  0.
         24    2    3    3    0    0 -0.14354292430E+03  0.14904936195E+03 -0.79655782796E+03  0.82520471761E+03  0.60317238493E+02 0.  0.
         -6    2    1    2    0  501  0.13223143362E+03 -0.14178659374E+03 -0.17196941369E+03  0.31151976259E+03  0.17286553456E+03 0.  0.
        -24    2    5    5    0    0  0.46910717787E+02 -0.20114533471E+02 -0.12207963976E+03  0.15469248708E+03  0.80131873908E+02 0.  0.
          2    1    4    4  502    0 -0.11842477263E+03  0.10102690787E+03 -0.49777381843E+03  0.52154543158E+03  0.00000000000E+00 0. -1.
         -1    1    4    4    0  502 -0.25118151668E+02  0.48022454080E+02 -0.29878400954E+03  0.30365928603E+03  0.00000000000E+00 0.  1.
          5    1    3    3  503    0  0.11311490680E+02 -0.72627682097E+01 -0.35362985285E+03  0.35391645971E+03  0.47000000000E+01 0. -1.
         11    1    6    6    0    0  0.42687286898E+02 -0.31463902151E+02 -0.28251299835E+02  0.60085918014E+02  0.00000000000E+00 0. -1.
        -12    1    6    6    0    0  0.42234308888E+01  0.11349368680E+02 -0.93828339921E+02  0.94606569065E+02  0.00000000000E+00 0.  1.
         -5    1    5    5    0  501  0.85320715831E+02 -0.12167206027E+03 -0.49889773929E+02  0.15682727551E+03  0.47000000000E+01 0.  1.
<mgrwt>
<rscale>  2 0.25967875E+03</rscale>
<asrwt>0</asrwt>
<pdfrwt beam="2">  1        1 0.21636906E+00 0.25967875E+03</pdfrwt>
<pdfrwt beam="1">  1       -1 0.12960297E-01 0.25967875E+03</pdfrwt>
<totfact> 0.33731497E+02</totfact>
</mgrwt>
</event>
<event>
12    1  0.1093377E-001  0.1846826E+03  0.7546771E-02  0.1163347E+00
          2   -1    0    0  503    0  0.00000000000E+00  0.00000000000E+00  0.29267224690E+04  0.29267224690E+04  0.00000000000E+00 0. -1.
         -2   -1    0    0    0  501 -0.00000000000E+00 -0.00000000000E+00 -0.30589419484E+02  0.30589419484E+02  0.00000000000E+00 0.  1.
          6    2    1    2  503    0  0.94314458377E+01 -0.64971954333E+02  0.28499237311E+03  0.33965532427E+03  0.17272747191E+03 0.  0.
         24    2    3    3    0    0 -0.12257505338E+02 -0.62803935861E+02  0.63296917584E+02  0.11684133030E+03  0.74503797847E+02 0.  0.
         -6    2    1    2    0  501 -0.94314458377E+01  0.64971954333E+02  0.26111406764E+04  0.26176565643E+04  0.17251072195E+03 0.  0.
        -24    2    5    5    0    0 -0.59411824665E+01 -0.21437234827E+02  0.77137575985E+03  0.77585424906E+03  0.80214713252E+02 0.  0.
          2    1    4    4  502    0 -0.27362498251E+02 -0.40195802965E+02  0.73221744506E+02  0.87896716407E+02  0.00000000000E+00 0. -1.
         -1    1    4    4    0  502  0.15104992913E+02 -0.22608132896E+02 -0.99248269220E+01  0.28944613892E+02  0.00000000000E+00 0.  1.
          5    1    3    3  503    0  0.21688951176E+02 -0.21680184717E+01  0.22169545552E+03  0.22281399397E+03  0.47000000000E+01 0. -1.
         11    1    6    6    0    0 -0.32424308750E+02 -0.21071661956E+02  0.66870956708E+03  0.66982672075E+03  0.00000000000E+00 0. -1.
        -12    1    6    6    0    0  0.26483126284E+02 -0.36557287066E+00  0.10266619277E+03  0.10602752831E+03  0.00000000000E+00 0.  1.
         -5    1    5    5    0  501 -0.34902633712E+01  0.86409189160E+02  0.18397649166E+04  0.18418023152E+04  0.47000000000E+01 0.  1.
<mgrwt>
<rscale>  2 0.18468257E+03</rscale>
<asrwt>0</asrwt>
<pdfrwt beam="1">  1        2 0.45026477E+00 0.18468257E+03</pdfrwt>
<pdfrwt beam="2">  1       -2 0.47060668E-02 0.18468257E+03</pdfrwt>
<totfact> 0.50654633E+02</totfact>
</mgrwt>
</event>
<event>
12    1  0.1093377E-001  0.1891044E+03  0.7546771E-02  0.1159272E+00
          2   -1    0    0  503    0  0.00000000000E+00  0.00000000000E+00  0.10613499171E+04  0.10613499171E+04  0.00000000000E+00 0.  1.
         -2   -1    0    0    0  501 -0.00000000000E+00 -0.00000000000E+00 -0.34852116990E+02  0.34852116990E+02  0.00000000000E+00 0. -1.
          6    2    1    2  503    0 -0.68798597480E+02 -0.35255759876E+02  0.41456127516E+03  0.45585206989E+03  0.17310067343E+03 0.  0.
         24    2    3    3    0    0 -0.54447592588E+02 -0.45769792259E+02  0.12529520829E+03  0.16600134338E+03  0.82450849365E+02 0.  0.
         -6    2    1    2    0  501  0.68798597480E+02  0.35255759876E+02  0.61193652498E+03  0.64034996423E+03  0.17206263529E+03 0.  0.
        -24    2    5    5    0    0  0.19504594629E+02  0.41897751497E+02  0.56211013886E+03  0.56978953960E+03  0.80971973168E+02 0.  0.
          2    1    4    4  502    0 -0.37210050958E+02 -0.41520773952E+02  0.20020329924E+02  0.59239987949E+02  0.00000000000E+00 0. -1.
         -1    1    4    4    0  502 -0.17237541629E+02 -0.42490183068E+01  0.10527487837E+03  0.10676135543E+03  0.00000000000E+00 0.  1.
          5    1    3    3  503    0 -0.14351004892E+02  0.10514032383E+02  0.28926606687E+03  0.28985072651E+03  0.47000000000E+01 0. -1.
         11    1    6    6    0    0 -0.76880436714E+01  0.49731911925E+01  0.43317644913E+01  0.10129305491E+02  0.00000000000E+00 0. -1.
        -12    1    6    6    0    0  0.27192638301E+02  0.36924560305E+02  0.55777837437E+03  0.55966023411E+03  0.00000000000E+00 0.  1.
         -5    1    5    5    0  501  0.49294002850E+02 -0.66419916215E+01  0.49826386120E+02  0.70560424626E+02  0.47000000000E+01 0.  1.
<mgrwt>
<rscale>  2 0.18910437E+03</rscale>
<asrwt>0</asrwt>
<pdfrwt beam="1">  1        2 0.16328458E+00 0.18910437E+03</pdfrwt>
<pdfrwt beam="2">  1       -2 0.53618649E-02 0.18910437E+03</pdfrwt>
<totfact> 0.41962034E+03</totfact>
</mgrwt>
</event>
<event>
12    1  0.1093377E-001  0.1801063E+03  0.7546771E-02  0.1167700E+00
         -2   -1    0    0    0  501 -0.00000000000E+00  0.00000000000E+00  0.17777227378E+02  0.17777227378E+02  0.00000000000E+00 0.  1.
          2   -1    0    0  503    0  0.00000000000E+00 -0.00000000000E+00 -0.18252452732E+04  0.18252452732E+04  0.00000000000E+00 0. -1.
          6    2    1    2  503    0  0.13771964787E+02 -0.38731008294E+02 -0.89352559055E+03  0.91092316424E+03  0.17234637265E+03 0.  0.
         24    2    3    3    0    0 -0.43327112759E+02 -0.65879061519E+02 -0.57266713224E+03  0.58386114914E+03  0.82029919450E+02 0.  0.
         -6    2    1    2    0  501 -0.13771964787E+02  0.38731008294E+02 -0.91394245527E+03  0.93209933634E+03  0.17840572646E+03 0.  0.
        -24    2    5    5    0    0 -0.14621281237E+02 -0.42345995468E+02 -0.34388358057E+03  0.35628390366E+03  0.81702740634E+02 0.  0.
          2    1    4    4  502    0 -0.52309578715E+02 -0.80529331608E+02 -0.46272312811E+03  0.47258222413E+03  0.00000000000E+00 0. -1.
         -1    1    4    4    0  502  0.89824659561E+01  0.14650270090E+02 -0.10994400413E+03  0.11127892501E+03  0.00000000000E+00 0.  1.
          5    1    3    3  503    0  0.57099077546E+02  0.27148053225E+02 -0.32085845831E+03  0.32706201510E+03  0.47000000000E+01 0. -1.
         13    1    6    6    0    0 -0.33091594128E+02 -0.51273004620E+02 -0.15971316628E+03  0.17097447203E+03  0.00000000000E+00 0. -1.
        -14    1    6    6    0    0  0.18470312890E+02  0.89270091513E+01 -0.18417041429E+03  0.18530943163E+03  0.00000000000E+00 0.  1.
         -5    1    5    5    0  501  0.84931645084E+00  0.81077003763E+02 -0.57005887470E+03  0.57581543267E+03  0.47000000000E+01 0.  1.
<mgrwt>
<rscale>  2 0.18010634E+03</rscale>
<asrwt>0</asrwt>
<pdfrwt beam="2">  1        2 0.28080695E+00 0.18010634E+03</pdfrwt>
<pdfrwt beam="1">  1       -2 0.27349582E-02 0.18010634E+03</pdfrwt>
<totfact> 0.44470361E+03</totfact>
</mgrwt>
</event>
<event>
12    1  0.1093377E-001  0.1760301E+03  0.7546771E-02  0.1171701E+00
          2   -1    0    0  503    0  0.00000000000E+00  0.00000000000E+00  0.32712270851E+03  0.32712270851E+03  0.00000000000E+00 0.  1.
         -2   -1    0    0    0  501 -0.00000000000E+00 -0.00000000000E+00 -0.96270757564E+02  0.96270757564E+02  0.00000000000E+00 0. -1.
          6    2    1    2  503    0 -0.35230804808E+02 -0.97718370285E+01  0.87779533120E+02  0.19550478509E+03  0.17082205991E+03 0.  0.
         24    2    3    3    0    0  0.26641875384E+02 -0.28006341175E+02  0.95298416981E+02  0.13039449934E+03  0.80167278295E+02 0.  0.
         -6    2    1    2    0  501  0.35230804808E+02  0.97718370285E+01  0.14307241783E+03  0.22788868099E+03  0.17357083791E+03 0.  0.
        -24    2    5    5    0    0  0.78255685787E+02  0.11000188285E+02  0.48904728329E+02  0.12424364746E+03  0.82461233198E+02 0.  0.
          4    1    4    4  502    0  0.44147527536E+02  0.38410448346E+01  0.24066544257E+02  0.50427734089E+02  0.00000000000E+00 0. -1.
         -3    1    4    4    0  502 -0.17505652152E+02 -0.31847386009E+02  0.71231872724E+02  0.79966765251E+02  0.00000000000E+00 0.  1.
          5    1    3    3  503    0 -0.61872680191E+02  0.18234504146E+02 -0.75188838604E+01  0.65110285747E+02  0.47000000000E+01 0. -1.
         11    1    6    6    0    0  0.32617193397E+02  0.33165866035E+02  0.56234289826E+02  0.72980485934E+02  0.00000000000E+00 0. -1.
        -12    1    6    6    0    0  0.45638492390E+02 -0.22165677751E+02 -0.73295614961E+01  0.51263161524E+02  0.00000000000E+00 0.  1.
         -5    1    5    5    0  501 -0.43024880980E+02 -0.12283512561E+01  0.94167689500E+02  0.10364503353E+03  0.47000000000E+01 0.  1.
<mgrwt>
<rscale>  2 0.17603008E+03</rscale>
<asrwt>0</asrwt>
<pdfrwt beam="1">  1        2 0.50326570E-01 0.17603008E+03</pdfrwt>
<pdfrwt beam="2">  1       -2 0.14810886E-01 0.17603008E+03</pdfrwt>
<totfact> 0.34039644E+03</totfact>
</mgrwt>
</event>
<event>
12    1  0.1093377E-001  0.2778486E+03  0.7546771E-02  0.1096870E+00
         -1   -1    0    0    0  501 -0.00000000000E+00  0.00000000000E+00  0.46691872511E+03  0.46691872511E+03  0.00000000000E+00 0.  1.
          1   -1    0    0  503    0  0.00000000000E+00 -0.00000000000E+00 -0.20967459117E+03  0.20967459117E+03  0.00000000000E+00 0. -1.
          6    2    1    2  503    0 -0.20976207392E+03  0.59304307178E+02 -0.27043012133E+02  0.27887749994E+03  0.17182609511E+03 0.  0.
         24    2    3    3    0    0 -0.95262244907E+02 -0.79581799994E+01 -0.65534257813E+02  0.14053690930E+03  0.79483683821E+02 0.  0.
         -6    2    1    2    0  501  0.20976207392E+03 -0.59304307178E+02  0.28428714608E+03  0.39771581635E+03  0.17274710024E+03 0.  0.
        -24    2    5    5    0    0  0.20714475627E+03 -0.51598071388E+02  0.16994678119E+03  0.28298985823E+03  0.75033595189E+02 0.  0.
          4    1    4    4  502    0 -0.94516998995E+02 -0.99010574656E+01 -0.81037743887E+02  0.12489439528E+03  0.00000000000E+00 0. -1.
         -3    1    4    4    0  502 -0.74524591173E+00  0.19428774661E+01  0.15503486074E+02  0.15642514017E+02  0.00000000000E+00 0.  1.
          5    1    3    3  503    0 -0.11449982901E+03  0.67262487178E+02  0.38491245679E+02  0.13834059064E+03  0.47000000000E+01 0. -1.
         11    1    6    6    0    0  0.32913881684E+02  0.41321758714E+01 -0.18936093594E+00  0.33172795217E+02  0.00000000000E+00 0. -1.
        -12    1    6    6    0    0  0.17423087458E+03 -0.55730247259E+02  0.17013614212E+03  0.24981706302E+03  0.00000000000E+00 0.  1.
         -5    1    5    5    0  501  0.26173176526E+01 -0.77062357909E+01  0.11434036489E+03  0.11472595811E+03  0.47000000000E+01 0.  1.
<mgrwt>
<rscale>  2 0.27784861E+03</rscale>
<asrwt>0</asrwt>
<pdfrwt beam="2">  1        1 0.32257630E-01 0.27784861E+03</pdfrwt>
<pdfrwt beam="1">  1       -1 0.71833650E-01 0.27784861E+03</pdfrwt>
<totfact> 0.28256798E+02</totfact>
</mgrwt>
</event>
<event>
12    1  0.1093377E-001  0.1978504E+03  0.7546771E-02  0.1151565E+00
          1   -1    0    0  503    0  0.00000000000E+00  0.00000000000E+00  0.18202929314E+03  0.18202929314E+03  0.00000000000E+00 0.  1.
         -1   -1    0    0    0  501 -0.00000000000E+00 -0.00000000000E+00 -0.22859736803E+03  0.22859736803E+03  0.00000000000E+00 0. -1.
          6    2    1    2  503    0 -0.83010195096E+02  0.48875302406E+02 -0.73294609458E+02  0.21118926480E+03  0.17305871292E+03 0.  0.
         24    2    3    3    0    0 -0.92580112965E+02  0.85001919818E+02 -0.27240532919E+02  0.15169318275E+03  0.80451049526E+02 0.  0.
         -6    2    1    2    0  501  0.83010195096E+02 -0.48875302406E+02  0.26726534562E+02  0.19943739637E+03  0.17257311420E+03 0.  0.
        -24    2    5    5    0    0  0.36306163820E+02  0.39668131549E+02  0.31158628564E+02  0.99123191534E+02  0.77219484419E+02 0.  0.
          2    1    4    4  502    0 -0.94402257151E+02  0.75035965680E+02 -0.47049056806E+02  0.12944418120E+03  0.00000000000E+00 0. -1.
         -1    1    4    4    0  502  0.18221441864E+01  0.99659541376E+01  0.19808523887E+02  0.22249001548E+02  0.00000000000E+00 0.  1.
          5    1    3    3  503    0  0.95699178688E+01 -0.36126617412E+02 -0.46054076539E+02  0.59496082052E+02  0.47000000000E+01 0. -1.
         13    1    6    6    0    0 -0.97105453863E+01 -0.13793620254E+02 -0.77514448679E+01  0.18564577802E+02  0.00000000000E+00 0. -1.
        -14    1    6    6    0    0  0.46016709206E+02  0.53461751803E+02  0.38910073432E+02  0.80558613732E+02  0.00000000000E+00 0.  1.
         -5    1    5    5    0  501  0.46704031276E+02 -0.88543433954E+02 -0.44320940015E+01  0.10031420483E+03  0.47000000000E+01 0.  1.
<mgrwt>
<rscale>  2 0.19785044E+03</rscale>
<asrwt>0</asrwt>
<pdfrwt beam="1">  1        1 0.28004507E-01 0.19785044E+03</pdfrwt>
<pdfrwt beam="2">  1       -1 0.35168826E-01 0.19785044E+03</pdfrwt>
<totfact> 0.12749059E+03</totfact>
</mgrwt>
</event>
<event>
12    1  0.1093377E-001  0.2350664E+03  0.7546771E-02  0.1123124E+00
         -1   -1    0    0    0  501 -0.00000000000E+00  0.00000000000E+00  0.35145094763E+02  0.35145094763E+02  0.00000000000E+00 0.  1.
          1   -1    0    0  503    0  0.00000000000E+00 -0.00000000000E+00 -0.25301348144E+04  0.25301348144E+04  0.00000000000E+00 0. -1.
          6    2    1    2  503    0 -0.43717943081E+01 -0.16062651450E+03 -0.46254307633E+03  0.51943160068E+03  0.17332945674E+03 0.  0.
         24    2    3    3    0    0 -0.39805113283E+02 -0.91696150101E+02 -0.15283219945E+03  0.20013576216E+03  0.81878025882E+02 0.  0.
         -6    2    1    2    0  501  0.43717943081E+01  0.16062651450E+03 -0.20324466433E+04  0.20458483085E+04  0.16981152411E+03 0.  0.
        -24    2    5    5    0    0 -0.52422158898E+02  0.95125148710E+02 -0.90393601353E+03  0.91400277417E+03  0.80646624076E+02 0.  0.
          4    1    4    4  502    0 -0.31452573681E+02  0.51996845117E+01 -0.34725317124E+02  0.47139672884E+02  0.00000000000E+00 0. -1.
         -3    1    4    4    0  502 -0.83525396023E+01 -0.96895834613E+02 -0.11810688232E+03  0.15299608928E+03  0.00000000000E+00 0.  1.
          5    1    3    3  503    0  0.35433318975E+02 -0.68930364395E+02 -0.30971087689E+03  0.31929583851E+03  0.47000000000E+01 0. -1.
         13    1    6    6    0    0 -0.69945250218E+01  0.58924146298E+02 -0.68250085833E+03  0.68507547031E+03  0.00000000000E+00 0. -1.
        -14    1    6    6    0    0 -0.45427633876E+02  0.36201002412E+02 -0.22143515520E+03  0.22892730386E+03  0.00000000000E+00 0.  1.
         -5    1    5    5    0  501  0.56793953206E+02  0.65501365786E+02 -0.11285106298E+04  0.11318455343E+04  0.47000000000E+01 0.  1.
<mgrwt>
<rscale>  2 0.23506642E+03</rscale>
<asrwt>0</asrwt>
<pdfrwt beam="2">  1        1 0.38925150E+00 0.23506642E+03</pdfrwt>
<pdfrwt beam="1">  1       -1 0.54069378E-02 0.23506642E+03</pdfrwt>
<totfact> 0.23886403E+02</totfact>
</mgrwt>
</event>
<event>
12    1  0.1093377E-001  0.2115181E+03  0.7546771E-02  0.1140369E+00
         -2   -1    0    0    0  501 -0.00000000000E+00  0.00000000000E+00  0.37318912314E+02  0.37318912314E+02  0.00000000000E+00 0.  1.
          2   -1    0    0  503    0  0.00000000000E+00 -0.00000000000E+00 -0.28696254586E+04  0.28696254586E+04  0.00000000000E+00 0. -1.
          6    2    1    2  503    0  0.88167553803E+02  0.85495541823E+02 -0.30481030304E+03  0.37054414572E+03  0.17120349842E+03 0.  0.
         24    2    3    3    0    0  0.35869860328E+02 -0.15953138150E+02 -0.99914843460E+02  0.13595701315E+03  0.83427717117E+02 0.  0.
         -6    2    1    2    0  501 -0.88167553803E+02 -0.85495541823E+02 -0.25274962433E+04  0.25364002252E+04  0.17322193146E+03 0.  0.
        -24    2    5    5    0    0  0.97213967226E+01 -0.71701825137E+02 -0.15940298255E+04  0.15977021074E+04  0.80531249792E+02 0.  0.
          4    1    4    4  502    0  0.58780507139E+02 -0.28137403392E+02 -0.61543575878E+02  0.89635223105E+02  0.00000000000E+00 0. -1.
         -3    1    4    4    0  502 -0.22910646812E+02  0.12184265242E+02 -0.38371267582E+02  0.46321790042E+02  0.00000000000E+00 0.  1.
          5    1    3    3  503    0  0.52297693475E+02  0.10144867997E+03 -0.20489545958E+03  0.23458713257E+03  0.47000000000E+01 0. -1.
         13    1    6    6    0    0 -0.28348420111E+02 -0.57186707982E+02 -0.75905947606E+03  0.76173830197E+03  0.00000000000E+00 0. -1.
        -14    1    6    6    0    0  0.38069816834E+02 -0.14515117155E+02 -0.83497034945E+03  0.83596380546E+03  0.00000000000E+00 0.  1.
         -5    1    5    5    0  501 -0.97888950526E+02 -0.13793716686E+02 -0.93346641777E+03  0.93869811780E+03  0.47000000000E+01 0.  1.
<mgrwt>
<rscale>  2 0.21151807E+03</rscale>
<asrwt>0</asrwt>
<pdfrwt beam="2">  1        2 0.44148090E+00 0.21151807E+03</pdfrwt>
<pdfrwt beam="1">  1       -2 0.57413703E-02 0.21151807E+03</pdfrwt>
<totfact> 0.40042277E+02</totfact>
</mgrwt>
</event>
<event>
12    1  0.1093377E-001  0.1978448E+03  0.7546771E-02  0.1151570E+00
         -2   -1    0    0    0  501 -0.00000000000E+00  0.00000000000E+00  0.20160149586E+03  0.20160149586E+03  0.00000000000E+00 0. -1.
          2   -1    0    0  503    0  0.00000000000E+00 -0.00000000000E+00 -0.20044631335E+03  0.20044631335E+03  0.00000000000E+00 0.  1.
          6    2    1    2  503    0 -0.80528571351E+02 -0.47023045354E+02  0.35971975061E+02  0.19747032224E+03  0.17030715657E+03 0.  0.
         24    2    3    3    0    0 -0.96896205745E+02 -0.78442498594E+02  0.24823352339E+01  0.14849351678E+03  0.80635366092E+02 0.  0.
         -6    2    1    2    0  501  0.80528571351E+02  0.47023045354E+02 -0.34816792554E+02  0.20457748697E+03  0.17872806588E+03 0.  0.
        -24    2    5    5    0    0  0.45421221242E+02 -0.34064654558E+02  0.20182055570E+02  0.10039157428E+03  0.80297352318E+02 0.  0.
          2    1    4    4  502    0 -0.10385324265E+03 -0.86444283143E+02  0.10005456618E+02  0.13549250629E+03  0.00000000000E+00 0. -1.
         -1    1    4    4    0  502  0.69570369091E+01  0.80017845494E+01 -0.75231213838E+01  0.13001010495E+02  0.00000000000E+00 0.  1.
          5    1    3    3  503    0  0.16367634394E+02  0.31419453240E+02  0.33489639827E+02  0.48976805462E+02  0.47000000000E+01 0. -1.
         13    1    6    6    0    0  0.12339792115E+02 -0.10716553478E+02  0.48369126227E+02  0.51055727983E+02  0.00000000000E+00 0. -1.
        -14    1    6    6    0    0  0.33081429128E+02 -0.23348101080E+02 -0.28187070658E+02  0.49335846293E+02  0.00000000000E+00 0.  1.
         -5    1    5    5    0  501  0.35107350109E+02  0.81087699912E+02 -0.54998848124E+02  0.10418591269E+03  0.47000000000E+01 0.  1.
<mgrwt>
<rscale>  2 0.19784480E+03</rscale>
<asrwt>0</asrwt>
<pdfrwt beam="2">  1        2 0.30837894E-01 0.19784480E+03</pdfrwt>
<pdfrwt beam="1">  1       -2 0.31015615E-01 0.19784480E+03</pdfrwt>
<totfact> 0.16198421E+03</totfact>
</mgrwt>
</event>
<event>
12    1  0.1093377E-001  0.1901509E+03  0.7546771E-02  0.1158325E+00
          2   -1    0    0  503    0  0.00000000000E+00  0.00000000000E+00  0.25997017560E+04  0.25997017560E+04  0.00000000000E+00 0.  1.
         -2   -1    0    0    0  501 -0.00000000000E+00 -0.00000000000E+00 -0.17204926885E+02  0.17204926885E+02  0.00000000000E+00 0. -1.
          6    2    1    2  503    0 -0.12436120169E+02  0.80940304282E+02  0.18683368261E+04  0.18780689966E+04  0.17249542043E+03 0.  0.
         24    2    3    3    0    0 -0.68155148639E+02  0.83347758707E+02  0.13281732974E+04  0.13350136276E+04  0.81394747095E+02 0.  0.
         -6    2    1    2    0  501  0.12436120169E+02 -0.80940304282E+02  0.71416000297E+03  0.73883768630E+03  0.17073554671E+03 0.  0.
        -24    2    5    5    0    0  0.43471159984E+01 -0.70362153876E+02  0.22911910245E+03  0.25359125980E+03  0.82723840715E+02 0.  0.
          2    1    4    4  502    0 -0.11598275379E+02  0.45303865626E+02  0.22885298323E+03  0.23358220858E+03  0.00000000000E+00 0. -1.
         -1    1    4    4    0  502 -0.56556873260E+02  0.38043893081E+02  0.10993203141E+04  0.11014314190E+04  0.00000000000E+00 0.  1.
          5    1    3    3  503    0  0.55719028469E+02 -0.24074544247E+01  0.54016352880E+03  0.54305536901E+03  0.47000000000E+01 0. -1.
         11    1    6    6    0    0 -0.92512203790E+01  0.17474805209E+02  0.39377289827E+02  0.44062737656E+02  0.00000000000E+00 0. -1.
        -12    1    6    6    0    0  0.13598336377E+02 -0.87836959085E+02  0.18974181262E+03  0.20952852214E+03  0.00000000000E+00 0.  1.
         -5    1    5    5    0  501  0.80890041709E+01 -0.10578150407E+02  0.48504090052E+03  0.48524642650E+03  0.47000000000E+01 0.  1.
<mgrwt>
<rscale>  2 0.19015093E+03</rscale>
<asrwt>0</asrwt>
<pdfrwt beam="1">  1        2 0.39995381E+00 0.19015093E+03</pdfrwt>
<pdfrwt beam="2">  1       -2 0.26469139E-02 0.19015093E+03</pdfrwt>
<totfact> 0.18212214E+03</totfact>
</mgrwt>
</event>
<event>
12    1  0.1093377E-001  0.2102535E+03  0.7546771E-02  0.1141365E+00
          2   -1    0    0  503    0  0.00000000000E+00  0.00000000000E+00  0.29733855907E+03  0.29733855907E+03  0.00000000000E+00 0. -1.
         -2   -1    0    0    0  501 -0.00000000000E+00 -0.00000000000E+00 -0.16377196243E+03  0.16377196243E+03  0.00000000000E+00 0.  1.
          6    2    1    2  503    0  0.11055983666E+03 -0.51205328270E+02  0.13565746183E+03  0.24727537988E+03  0.16702306254E+03 0.  0.
         24    2    3    3    0    0 -0.51459691042E+01 -0.38425067448E+02  0.62644895399E+02  0.10978322225E+03  0.81394140830E+02 0.  0.
         -6    2    1    2    0  501 -0.11055983666E+03  0.51205328270E+02 -0.20908651921E+01  0.21383514162E+03  0.17571463499E+03 0.  0.
        -24    2    5    5    0    0 -0.45956087172E+02  0.21535946457E+02  0.69661961203E+02  0.11271899671E+03  0.72643130737E+02 0.  0.
          2    1    4    4  502    0  0.35488896689E+02 -0.27281422741E+02  0.17587813675E+02  0.48094376021E+02  0.00000000000E+00 0. -1.
         -1    1    4    4    0  502 -0.40634865794E+02 -0.11143644707E+02  0.45057081725E+02  0.61688846228E+02  0.00000000000E+00 0.  1.
          5    1    3    3  503    0  0.11570580576E+03 -0.12780260822E+02  0.73012566432E+02  0.13749215763E+03  0.47000000000E+01 0. -1.
         13    1    6    6    0    0 -0.77134224446E+01  0.43107904112E+02  0.42869226500E+02  0.61282614692E+02  0.00000000000E+00 0. -1.
        -14    1    6    6    0    0 -0.38242664727E+02 -0.21571957655E+02  0.26792734702E+02  0.51436382020E+02  0.00000000000E+00 0.  1.
         -5    1    5    5    0  501 -0.64603749487E+02  0.29669381812E+02 -0.71752826395E+02  0.10111614491E+03  0.47000000000E+01 0.  1.
<mgrwt>
<rscale>  2 0.21025353E+03</rscale>
<asrwt>0</asrwt>
<pdfrwt beam="1">  1        2 0.45744394E-01 0.21025353E+03</pdfrwt>
<pdfrwt beam="2">  1       -2 0.25195686E-01 0.21025353E+03</pdfrwt>
<totfact> 0.15375965E+03</totfact>
</mgrwt>
</event>
<event>
12    1  0.1093377E-001  0.1855232E+03  0.7546771E-02  0.1162562E+00
          1   -1    0    0  503    0  0.00000000000E+00  0.00000000000E+00  0.55268907484E+02  0.55268907484E+02  0.00000000000E+00 0. -1.
         -1   -1    0    0    0  501 -0.00000000000E+00 -0.00000000000E+00 -0.92012010425E+03  0.92012010425E+03  0.00000000000E+00 0.  1.
          6    2    1    2  503    0 -0.57631805753E+02  0.32028095302E+02 -0.70889113974E+03  0.73264042732E+03  0.17288182039E+03 0.  0.
         24    2    3    3    0    0 -0.62073649410E+02 -0.24750741153E+02 -0.60620843119E+03  0.61512704562E+03  0.80167843102E+02 0.  0.
         -6    2    1    2    0  501  0.57631805753E+02 -0.32028095302E+02 -0.15596005702E+03  0.24274858441E+03  0.17394284096E+03 0.  0.
        -24    2    5    5    0    0  0.92768511789E+02 -0.63473138579E+02 -0.13687712196E+03  0.19166407337E+03  0.73245712517E+02 0.  0.
          2    1    4    4  502    0 -0.53235259732E+02  0.15079598655E+02 -0.46057748769E+03  0.46388900541E+03  0.00000000000E+00 0. -1.
         -1    1    4    4    0  502 -0.88383896779E+01 -0.39830339808E+02 -0.14563094350E+03  0.15123804021E+03  0.00000000000E+00 0.  1.
          5    1    3    3  503    0  0.44418436576E+01  0.56778836455E+02 -0.10268270855E+03  0.11751338170E+03  0.47000000000E+01 0. -1.
         13    1    6    6    0    0  0.36701838314E+02  0.11105731969E+02 -0.57776409982E+02  0.69343173915E+02  0.00000000000E+00 0. -1.
        -14    1    6    6    0    0  0.56066673475E+02 -0.74578870548E+02 -0.79100711981E+02  0.12232089945E+03  0.00000000000E+00 0.  1.
         -5    1    5    5    0  501 -0.35136706036E+02  0.31445043277E+02 -0.19082935059E+02  0.51084511040E+02  0.47000000000E+01 0.  1.
<mgrwt>
<rscale>  2 0.18552318E+03</rscale>
<asrwt>0</asrwt>
<pdfrwt beam="1">  1        1 0.85029097E-02 0.18552318E+03</pdfrwt>
<pdfrwt beam="2">  1       -1 0.14155692E+00 0.18552318E+03</pdfrwt>
<totfact> 0.35245613E+02</totfact>
</mgrwt>
</event>
<event>
12    1  0.1093377E-001  0.1979119E+03  0.7546771E-02  0.1151513E+00
         -3   -1    0    0    0  501 -0.00000000000E+00  0.00000000000E+00  0.13672116940E+04  0.13672116940E+04  0.00000000000E+00 0. -1.
          3   -1    0    0  503    0  0.00000000000E+00 -0.00000000000E+00 -0.29035002044E+02  0.29035002044E+02  0.00000000000E+00 0.  1.
          6    2    1    2  503    0  0.82806965135E+01 -0.92834501770E+02  0.58001028688E+03  0.61197171741E+03  0.17149529254E+03 0.  0.
         24    2    3    3    0    0  0.16898571401E+02 -0.95930046646E+02  0.23241056520E+03  0.26421964095E+03  0.79430550059E+02 0.  0.
         -6    2    1    2    0  501 -0.82806965135E+01  0.92834501770E+02  0.75816640510E+03  0.78427497866E+03  0.17771924398E+03 0.  0.
        -24    2    5    5    0    0  0.11402397969E+01  0.11102306146E+03  0.35137889192E+03  0.37694495446E+03  0.79328132945E+02 0.  0.
          4    1    4    4  502    0  0.37637485656E+02 -0.50483560748E+02  0.18470962748E+03  0.19514819168E+03  0.00000000000E+00 0. -1.
         -3    1    4    4    0  502 -0.20738914255E+02 -0.45446485898E+02  0.47700937720E+02  0.69071449270E+02  0.00000000000E+00 0.  1.
          5    1    3    3  503    0 -0.86178748878E+01  0.30955448759E+01  0.34759972168E+03  0.34775207645E+03  0.47000000000E+01 0. -1.
         13    1    6    6    0    0 -0.35137194498E+02  0.25926705219E+02  0.10161152578E+03  0.11059710056E+03  0.00000000000E+00 0. -1.
        -14    1    6    6    0    0  0.36277434295E+02  0.85096356245E+02  0.24976736614E+03  0.26634785389E+03  0.00000000000E+00 0.  1.
         -5    1    5    5    0  501 -0.94209363105E+01 -0.18188559694E+02  0.40678751318E+03  0.40733002421E+03  0.47000000000E+01 0.  1.
<mgrwt>
<rscale>  2 0.19791191E+03</rscale>
<asrwt>0</asrwt>
<pdfrwt beam="2">  1        3 0.44669244E-02 0.19791191E+03</pdfrwt>
<pdfrwt beam="1">  1       -3 0.21034021E+00 0.19791191E+03</pdfrwt>
<totfact> 0.92454132E+01</totfact>
</mgrwt>
</event>
<event>
12    1  0.1093377E-001  0.1749367E+03  0.7546771E-02  0.1172795E+00
         -2   -1    0    0    0  501 -0.00000000000E+00  0.00000000000E+00  0.10160715779E+03  0.10160715779E+03  0.00000000000E+00 0. -1.
          2   -1    0    0  503    0  0.00000000000E+00 -0.00000000000E+00 -0.30762058772E+03  0.30762058772E+03  0.00000000000E+00 0.  1.
          6    2    1    2  503    0 -0.25682935711E+02 -0.63241172149E+01 -0.73541996834E+02  0.18996313786E+03  0.17314144739E+03 0.  0.
         24    2    3    3    0    0  0.79948928813E+01 -0.31734732396E+02 -0.10656174977E+03  0.13618312683E+03  0.78226759919E+02 0.  0.
         -6    2    1    2    0  501  0.25682935711E+02  0.63241172149E+01 -0.13247143309E+03  0.21926460765E+03  0.17270981425E+03 0.  0.
        -24    2    5    5    0    0 -0.24024563817E+02 -0.13569592683E+02 -0.14295492831E+03  0.16450523517E+03  0.76580332699E+02 0.  0.
          4    1    4    4  502    0  0.31370097594E+02  0.54249421449E+01 -0.16197153668E+02  0.35719193822E+02  0.00000000000E+00 0. -1.
         -3    1    4    4    0  502 -0.23375204713E+02 -0.37159674541E+02 -0.90364596101E+02  0.10046393301E+03  0.00000000000E+00 0.  1.
          5    1    3    3  503    0 -0.33677828592E+02  0.25410615181E+02  0.33019752934E+02  0.53780011030E+02  0.47000000000E+01 0. -1.
         11    1    6    6    0    0 -0.22062540394E+02 -0.18628107112E+02 -0.87230964664E+01  0.30163794111E+02  0.00000000000E+00 0. -1.
        -12    1    6    6    0    0 -0.19620234233E+01  0.50585144292E+01 -0.13423183185E+03  0.13434144106E+03  0.00000000000E+00 0.  1.
         -5    1    5    5    0  501  0.49707499528E+02  0.19893709898E+02  0.10483495219E+02  0.54759372484E+02  0.47000000000E+01 0.  1.
<mgrwt>
<rscale>  2 0.17493667E+03</rscale>
<asrwt>0</asrwt>
<pdfrwt beam="2">  1        2 0.47326244E-01 0.17493667E+03</pdfrwt>
<pdfrwt beam="1">  1       -2 0.15631870E-01 0.17493667E+03</pdfrwt>
<totfact> 0.33252904E+03</totfact>
</mgrwt>
</event>
<event>
12    1  0.1093377E-001  0.1748050E+03  0.7546771E-02  0.1172928E+00
          2   -1    0    0  503    0  0.00000000000E+00  0.00000000000E+00  0.25532013866E+04  0.25532013866E+04  0.00000000000E+00 0. -1.
         -2   -1    0    0    0  501 -0.00000000000E+00 -0.00000000000E+00 -0.12360213285E+02  0.12360213285E+02  0.00000000000E+00 0.  1.
          6    2    1    2  503    0 -0.31362530020E+02 -0.32614371601E+02  0.15263402576E+04  0.15368057755E+04  0.17323424659E+03 0.  0.
         24    2    3    3    0    0 -0.12561881335E+02 -0.23863519584E+02  0.34313875774E+03  0.35341322820E+03  0.80183753783E+02 0.  0.
         -6    2    1    2    0  501  0.31362530020E+02  0.32614371601E+02  0.10145009157E+04  0.10287558243E+04  0.16455738405E+03 0.  0.
        -24    2    5    5    0    0  0.30502409444E+02  0.82145726233E+02  0.79664802734E+03  0.80529203340E+03  0.78542105042E+02 0.  0.
          4    1    4    4  502    0 -0.46429813433E+02 -0.12718738904E+02  0.17263638216E+03  0.17922280641E+03  0.00000000000E+00 0. -1.
         -3    1    4    4    0  502  0.33867932098E+02 -0.11144780680E+02  0.17050237559E+03  0.17419042178E+03  0.00000000000E+00 0.  1.
          5    1    3    3  503    0 -0.18800648686E+02 -0.87508520170E+01  0.11832014999E+04  0.11833925473E+04  0.47000000000E+01 0. -1.
         13    1    6    6    0    0 -0.18286461288E+02 -0.24264339673E+01  0.85081533098E+02  0.87058311048E+02  0.00000000000E+00 0. -1.
        -14    1    6    6    0    0  0.48788870732E+02  0.84572160201E+02  0.71156649424E+03  0.71823372235E+03  0.00000000000E+00 0.  1.
         -5    1    5    5    0  501  0.86012057650E+00 -0.49531354632E+02  0.21785288836E+03  0.22346379095E+03  0.47000000000E+01 0.  1.
<mgrwt>
<rscale>  2 0.17480504E+03</rscale>
<asrwt>0</asrwt>
<pdfrwt beam="1">  1        2 0.39279979E+00 0.17480504E+03</pdfrwt>
<pdfrwt beam="2">  1       -2 0.19015733E-02 0.17480504E+03</pdfrwt>
<totfact> 0.31419643E+03</totfact>
</mgrwt>
</event>
<event>
12    1  0.1093377E-001  0.1740816E+03  0.7546771E-02  0.1173657E+00
         -2   -1    0    0    0  501 -0.00000000000E+00  0.00000000000E+00  0.45737758655E+02  0.45737758655E+02  0.00000000000E+00 0.  1.
          2   -1    0    0  503    0  0.00000000000E+00 -0.00000000000E+00 -0.66261174857E+03  0.66261174857E+03  0.00000000000E+00 0. -1.
          6    2    1    2  503    0  0.90404518047E+01  0.12876284165E+02 -0.30952283221E+03  0.35474965177E+03  0.17261345054E+03 0.  0.
         24    2    3    3    0    0  0.66393101402E+02  0.28634590871E+01 -0.13542734692E+03  0.17111710814E+03  0.80772861114E+02 0.  0.
         -6    2    1    2    0  501 -0.90404518047E+01 -0.12876284165E+02 -0.30735115770E+03  0.35359985545E+03  0.17412809989E+03 0.  0.
        -24    2    5    5    0    0  0.27066124969E+02  0.51378467940E+02 -0.20071265538E+03  0.22388394188E+03  0.80412233628E+02 0.  0.
          4    1    4    4  502    0  0.49831870552E+02  0.35642010405E+02 -0.53509888876E+02  0.81344185016E+02  0.00000000000E+00 0. -1.
         -3    1    4    4    0  502  0.16561230850E+02 -0.32778551317E+02 -0.81917458045E+02  0.89772923124E+02  0.00000000000E+00 0.  1.
          5    1    3    3  503    0 -0.57352649597E+02  0.10012825078E+02 -0.17409548529E+03  0.18363254363E+03  0.47000000000E+01 0. -1.
         11    1    6    6    0    0  0.49191133910E+02  0.92811947291E+01 -0.82999199031E+02  0.96926648919E+02  0.00000000000E+00 0. -1.
        -12    1    6    6    0    0 -0.22125008941E+02  0.42097273211E+02 -0.11771345634E+03  0.12695729296E+03  0.00000000000E+00 0.  1.
         -5    1    5    5    0  501 -0.36106576773E+02 -0.64254752105E+02 -0.10663850233E+03  0.12971591357E+03  0.47000000000E+01 0.  1.
<mgrwt>
<rscale>  2 0.17408156E+03</rscale>
<asrwt>0</asrwt>
<pdfrwt beam="2">  1        2 0.10194027E+00 0.17408156E+03</pdfrwt>
<pdfrwt beam="1">  1       -2 0.70365782E-02 0.17408156E+03</pdfrwt>
<totfact> 0.50747550E+03</totfact>
</mgrwt>
</event>
<event>
12    1  0.1093377E-001  0.2489040E+03  0.7546771E-02  0.1113999E+00
          2   -1    0    0  503    0  0.00000000000E+00  0.00000000000E+00  0.25208150943E+03  0.25208150943E+03  0.00000000000E+00 0. -1.
         -2   -1    0    0    0  501 -0.00000000000E+00 -0.00000000000E+00 -0.32585780362E+03  0.32585780362E+03  0.00000000000E+00 0.  1.
          6    2    1    2  503    0 -0.17580432170E+03 -0.37182239435E+02  0.10644503348E+03  0.27010935744E+03  0.17128584696E+03 0.  0.
         24    2    3    3    0    0 -0.40010919486E+02  0.36121238380E+02  0.49201061460E+02  0.10545149921E+03  0.76116073841E+02 0.  0.
         -6    2    1    2    0  501  0.17580432170E+03  0.37182239435E+02 -0.18022132767E+03  0.30782995561E+03  0.17317585331E+03 0.  0.
        -24    2    5    5    0    0  0.15338421028E+03  0.81258749234E+02 -0.10567334785E+03  0.21824819738E+03  0.79597229377E+02 0.  0.
          4    1    4    4  502    0 -0.13323179006E+02  0.20697791381E+02  0.65933733408E+02  0.70378710332E+02  0.00000000000E+00 0. -1.
         -3    1    4    4    0  502 -0.26687740480E+02  0.15423447000E+02 -0.16732671948E+02  0.35072788880E+02  0.00000000000E+00 0.  1.
          5    1    3    3  503    0 -0.13579340221E+03 -0.73303477815E+02  0.57243972024E+02  0.16465785823E+03  0.47000000000E+01 0. -1.
         11    1    6    6    0    0  0.71783587207E+02  0.37499647198E+02 -0.45190783647E+01  0.81114295914E+02  0.00000000000E+00 0. -1.
        -12    1    6    6    0    0  0.81600623075E+02  0.43759102036E+02 -0.10115426949E+03  0.13713390147E+03  0.00000000000E+00 0.  1.
         -5    1    5    5    0  501  0.22420111415E+02 -0.44076509799E+02 -0.74547979822E+02  0.89581758229E+02  0.47000000000E+01 0.  1.
<mgrwt>
<rscale>  2 0.24890396E+03</rscale>
<asrwt>0</asrwt>
<pdfrwt beam="1">  1        2 0.38781771E-01 0.24890396E+03</pdfrwt>
<pdfrwt beam="2">  1       -2 0.50131970E-01 0.24890396E+03</pdfrwt>
<totfact> 0.50690977E+02</totfact>
</mgrwt>
</event>
<event>
12    1  0.1093377E-001  0.1889355E+03  0.7546771E-02  0.1159425E+00
          2   -1    0    0  503    0  0.00000000000E+00  0.00000000000E+00  0.30809099317E+03  0.30809099317E+03  0.00000000000E+00 0. -1.
         -2   -1    0    0    0  501 -0.00000000000E+00 -0.00000000000E+00 -0.15001802920E+03  0.15001802920E+03  0.00000000000E+00 0.  1.
          6    2    1    2  503    0 -0.19660931773E+02  0.89340702956E+02  0.19032447564E+03  0.27339368850E+03  0.17364443394E+03 0.  0.
         24    2    3    3    0    0 -0.26656214892E+02  0.10695690489E+03  0.20693279380E+03  0.24775795584E+03  0.80078025916E+02 0.  0.
         -6    2    1    2    0  501  0.19660931773E+02 -0.89340702956E+02 -0.32251511676E+02  0.18471533388E+03  0.15719822238E+03 0.  0.
        -24    2    5    5    0    0  0.64396166014E+02 -0.34411604827E+02 -0.68853934460E+01  0.10932317939E+03  0.81074805982E+02 0.  0.
          4    1    4    4  502    0 -0.40897113398E+02  0.40495133611E+02  0.14420557963E+03  0.15526647715E+03  0.00000000000E+00 0. -1.
         -3    1    4    4    0  502  0.14240898506E+02  0.66461771282E+02  0.62727214169E+02  0.92491478687E+02  0.00000000000E+00 0.  1.
          5    1    3    3  503    0  0.69952831196E+01 -0.17616201938E+02 -0.16608318162E+02  0.25635732656E+02  0.47000000000E+01 0. -1.
         11    1    6    6    0    0  0.30162819506E+02 -0.43443684261E+02  0.27808516615E+02  0.59753351195E+02  0.00000000000E+00 0. -1.
        -12    1    6    6    0    0  0.34233346508E+02  0.90320794333E+01 -0.34693910061E+02  0.49569828196E+02  0.00000000000E+00 0.  1.
         -5    1    5    5    0  501 -0.44735234241E+02 -0.54929098128E+02 -0.25366118230E+02  0.75392154485E+02  0.47000000000E+01 0.  1.
<mgrwt>
<rscale>  2 0.18893551E+03</rscale>
<asrwt>0</asrwt>
<pdfrwt beam="1">  1        2 0.47398614E-01 0.18893551E+03</pdfrwt>
<pdfrwt beam="2">  1       -2 0.23079697E-01 0.18893551E+03</pdfrwt>
<totfact> 0.17213484E+03</totfact>
</mgrwt>
</event>
<event>
12    1  0.1093377E-001  0.3119415E+03  0.7546771E-02  0.1079419E+00
          1   -1    0    0  503    0  0.00000000000E+00  0.00000000000E+00  0.67021570639E+03  0.67021570639E+03  0.00000000000E+00 0. -1.
         -1   -1    0    0    0  501 -0.00000000000E+00 -0.00000000000E+00 -0.14827700572E+03  0.14827700572E+03  0.00000000000E+00 0.  1.
          6    2    1    2  503    0 -0.20443441878E+03  0.16043326271E+03  0.20171350952E+03  0.37128171855E+03  0.17213224927E+03 0.  0.
         24    2    3    3    0    0 -0.12006064924E+03  0.50633749168E+02  0.38641662078E+02  0.15729717801E+03  0.79188939322E+02 0.  0.
         -6    2    1    2    0  501  0.20443441878E+03 -0.16043326271E+03  0.32022519115E+03  0.44721099356E+03  0.17297756023E+03 0.  0.
        -24    2    5    5    0    0  0.18600265275E+03 -0.89225890743E+02  0.29592345904E+03  0.36960375159E+03  0.80485981219E+02 0.  0.
          2    1    4    4  502    0 -0.95284049922E+02  0.30151579916E+02  0.61955287193E+02  0.11758667251E+03  0.00000000000E+00 0. -1.
         -1    1    4    4    0  502 -0.24776599322E+02  0.20482169252E+02 -0.23313625115E+02  0.39710505502E+02  0.00000000000E+00 0.  1.
          5    1    3    3  503    0 -0.84373769540E+02  0.10979951354E+03  0.16307184744E+03  0.21398454054E+03  0.47000000000E+01 0. -1.
         13    1    6    6    0    0  0.88431164882E+02 -0.50457442916E+02  0.21204275966E+03  0.23521937929E+03  0.00000000000E+00 0. -1.
        -14    1    6    6    0    0  0.97571487865E+02 -0.38768447827E+02  0.83880699377E+02  0.13438437230E+03  0.00000000000E+00 0.  1.
         -5    1    5    5    0  501  0.18431766036E+02 -0.71207371970E+02  0.24301732116E+02  0.77607241968E+02  0.47000000000E+01 0.  1.
<mgrwt>
<rscale>  2 0.31194155E+03</rscale>
<asrwt>0</asrwt>
<pdfrwt beam="1">  1        1 0.10311011E+00 0.31194155E+03</pdfrwt>
<pdfrwt beam="2">  1       -1 0.22811848E-01 0.31194155E+03</pdfrwt>
<totfact> 0.48887456E+02</totfact>
</mgrwt>
</event>
<event>
12    1  0.1093377E-001  0.1800782E+03  0.7546771E-02  0.1167727E+00
          2   -1    0    0  503    0  0.00000000000E+00  0.00000000000E+00  0.34032160373E+03  0.34032160373E+03  0.00000000000E+00 0.  1.
         -2   -1    0    0    0  501 -0.00000000000E+00 -0.00000000000E+00 -0.11212958710E+03  0.11212958710E+03  0.00000000000E+00 0. -1.
          6    2    1    2  503    0  0.28140504735E+02  0.28589884762E+02  0.25754992906E+02  0.18066973589E+03  0.17426693401E+03 0.  0.
         24    2    3    3    0    0 -0.47827285278E+02  0.87334340580E+01  0.37772706355E+02  0.10109650427E+03  0.80187304118E+02 0.  0.
         -6    2    1    2    0  501 -0.28140504735E+02 -0.28589884762E+02  0.20243702373E+03  0.27178145494E+03  0.17684779093E+03 0.  0.
        -24    2    5    5    0    0 -0.50044255537E+02 -0.33245784124E+02  0.51071460181E+02  0.11869626452E+03  0.88717526406E+02 0.  0.
          4    1    4    4  502    0 -0.23351755464E+02  0.40044271355E+02  0.12805910780E+00  0.46355846996E+02  0.00000000000E+00 0. -1.
         -3    1    4    4    0  502 -0.24475529815E+02 -0.31310837297E+02  0.37644647247E+02  0.54740657270E+02  0.00000000000E+00 0.  1.
          5    1    3    3  503    0  0.75967790013E+02  0.19856450704E+02 -0.12017713449E+02  0.79573231621E+02  0.47000000000E+01 0. -1.
         11    1    6    6    0    0 -0.13388568971E+02 -0.45596631274E+02 -0.78971632064E+01  0.48173351029E+02  0.00000000000E+00 0. -1.
        -12    1    6    6    0    0 -0.36655686566E+02  0.12350847150E+02  0.58968623388E+02  0.70522913490E+02  0.00000000000E+00 0.  1.
         -5    1    5    5    0  501  0.21903750802E+02  0.46558993617E+01  0.15136556355E+03  0.15308519042E+03  0.47000000000E+01 0.  1.
<mgrwt>
<rscale>  2 0.18007820E+03</rscale>
<asrwt>0</asrwt>
<pdfrwt beam="1">  1        2 0.52357169E-01 0.18007820E+03</pdfrwt>
<pdfrwt beam="2">  1       -2 0.17250706E-01 0.18007820E+03</pdfrwt>
<totfact> 0.25369818E+03</totfact>
</mgrwt>
</event>
<event>
12    1  0.1093377E-001  0.1850722E+03  0.7546771E-02  0.1162982E+00
         -2   -1    0    0    0  501 -0.00000000000E+00  0.00000000000E+00  0.35963952650E+02  0.35963952650E+02  0.00000000000E+00 0. -1.
          2   -1    0    0  503    0  0.00000000000E+00 -0.00000000000E+00 -0.11111196480E+04  0.11111196480E+04  0.00000000000E+00 0.  1.
          6    2    1    2  503    0 -0.38506853498E+02  0.51328494189E+02 -0.75386100646E+03  0.77619901281E+03  0.17338136676E+03 0.  0.
         24    2    3    3    0    0 -0.78317163780E+02  0.38218711051E+01 -0.56554045278E+03  0.57788496646E+03  0.89257189542E+02 0.  0.
         -6    2    1    2    0  501  0.38506853498E+02 -0.51328494189E+02 -0.32129468887E+03  0.37088458782E+03  0.17380364871E+03 0.  0.
        -24    2    5    5    0    0  0.26515925044E+02 -0.95981547007E+02 -0.17040082298E+03  0.21299625306E+03  0.80096265193E+02 0.  0.
          2    1    4    4  502    0 -0.47333315216E+02 -0.36050118165E+02 -0.19371287873E+03  0.20264435136E+03  0.00000000000E+00 0. -1.
         -1    1    4    4    0  502 -0.30983848564E+02  0.39871989270E+02 -0.37182757405E+03  0.37524061511E+03  0.00000000000E+00 0.  1.
          5    1    3    3  503    0  0.39810310282E+02  0.47506623084E+02 -0.18832055368E+03  0.19831404635E+03  0.47000000000E+01 0. -1.
         11    1    6    6    0    0  0.42525340615E+02 -0.31558955481E+02 -0.38959904286E+02  0.65743793680E+02  0.00000000000E+00 0. -1.
        -12    1    6    6    0    0 -0.16009415571E+02 -0.64422591526E+02 -0.13144091869E+03  0.14725245938E+03  0.00000000000E+00 0.  1.
         -5    1    5    5    0  501  0.11990928454E+02  0.44653052819E+02 -0.15089386589E+03  0.15788833477E+03  0.47000000000E+01 0.  1.
<mgrwt>
<rscale>  2 0.18507219E+03</rscale>
<asrwt>0</asrwt>
<pdfrwt beam="2">  1        2 0.17094148E+00 0.18507219E+03</pdfrwt>
<pdfrwt beam="1">  1       -2 0.55329160E-02 0.18507219E+03</pdfrwt>
<totfact> 0.37398580E+03</totfact>
</mgrwt>
</event>
<event>
12    1  0.1093377E-001  0.1833006E+03  0.7546771E-02  0.1164646E+00
          2   -1    0    0  503    0  0.00000000000E+00  0.00000000000E+00  0.69141698462E+03  0.69141698462E+03  0.00000000000E+00 0.  1.
         -2   -1    0    0    0  501 -0.00000000000E+00 -0.00000000000E+00 -0.50720446254E+02  0.50720446254E+02  0.00000000000E+00 0. -1.
          6    2    1    2  503    0 -0.44773150518E+02  0.42749542148E+02  0.39650070877E+03  0.43686663645E+03  0.17264845098E+03 0.  0.
         24    2    3    3    0    0 -0.19368463841E+02  0.12046899640E+02  0.74995526620E+02  0.11286706467E+03  0.81205788538E+02 0.  0.
         -6    2    1    2    0  501  0.44773150518E+02 -0.42749542148E+02  0.24419582960E+03  0.30527079442E+03  0.17241373604E+03 0.  0.
        -24    2    5    5    0    0 -0.21536018463E+02  0.26545008829E+02  0.12017076772E+03  0.14841752968E+03  0.80114368989E+02 0.  0.
          4    1    4    4  502    0  0.55394407791E+01  0.26894931848E+01 -0.16483969784E+02  0.17596591646E+02  0.00000000000E+00 0. -1.
         -3    1    4    4    0  502 -0.24907904620E+02  0.93574064551E+01  0.91479496404E+02  0.95270473025E+02  0.00000000000E+00 0.  1.
          5    1    3    3  503    0 -0.25404686677E+02  0.30702642508E+02  0.32150518215E+03  0.32399957178E+03  0.47000000000E+01 0. -1.
         11    1    6    6    0    0  0.18552856669E+02  0.39405671848E+02  0.47607683490E+02  0.64525243058E+02  0.00000000000E+00 0. -1.
        -12    1    6    6    0    0 -0.40088875132E+02 -0.12860663019E+02  0.72563084226E+02  0.83892286624E+02  0.00000000000E+00 0.  1.
         -5    1    5    5    0  501  0.66309168981E+02 -0.69294550978E+02  0.12402506188E+03  0.15685326474E+03  0.47000000000E+01 0.  1.
<mgrwt>
<rscale>  2 0.18330064E+03</rscale>
<asrwt>0</asrwt>
<pdfrwt beam="1">  1        2 0.10637184E+00 0.18330064E+03</pdfrwt>
<pdfrwt beam="2">  1       -2 0.78031461E-02 0.18330064E+03</pdfrwt>
<totfact> 0.41198031E+03</totfact>
</mgrwt>
</event>
<event>
12    1  0.1093377E-001  0.2415139E+03  0.7546771E-02  0.1118788E+00
          3   -1    0    0  503    0  0.00000000000E+00  0.00000000000E+00  0.17161564306E+03  0.17161564306E+03  0.00000000000E+00 0. -1.
         -3   -1    0    0    0  501 -0.00000000000E+00 -0.00000000000E+00 -0.36523767432E+03  0.36523767432E+03  0.00000000000E+00 0.  1.
          6    2    1    2  503    0 -0.78996900457E+02 -0.14933620754E+03 -0.16754010260E+03  0.29394234963E+03  0.17259955320E+03 0.  0.
         24    2    3    3    0    0 -0.11707926485E+03 -0.92361746860E+02 -0.82958901045E+02  0.18498169020E+03  0.71398878876E+02 0.  0.
         -6    2    1    2    0  501  0.78996900457E+02  0.14933620754E+03 -0.26081928661E+02  0.24291096776E+03  0.17257942545E+03 0.  0.
        -24    2    5    5    0    0  0.31292733642E+02  0.15047819381E+03 -0.61521669125E+02  0.18328667012E+03  0.78652181665E+02 0.  0.
          2    1    4    4  502    0 -0.79061279853E+02 -0.57568972583E+02 -0.13854567047E+02  0.98776624787E+02  0.00000000000E+00 0. -1.
         -1    1    4    4    0  502 -0.38017984999E+02 -0.34792774277E+02 -0.69104333998E+02  0.86205065412E+02  0.00000000000E+00 0.  1.
          5    1    3    3  503    0  0.38082364395E+02 -0.56974460678E+02 -0.84581201555E+02  0.10896065943E+03  0.47000000000E+01 0. -1.
         13    1    6    6    0    0 -0.13332465130E+02  0.36502866544E+02  0.11790377141E+02  0.40610674527E+02  0.00000000000E+00 0. -1.
        -14    1    6    6    0    0  0.44625198772E+02  0.11397532727E+03 -0.73312046266E+02  0.14267599560E+03  0.00000000000E+00 0.  1.
         -5    1    5    5    0  501  0.47704166815E+02 -0.11419862755E+01  0.35439740464E+02  0.59624297634E+02  0.47000000000E+01 0.  1.
<mgrwt>
<rscale>  2 0.24151386E+03</rscale>
<asrwt>0</asrwt>
<pdfrwt beam="1">  1        3 0.26402407E-01 0.24151386E+03</pdfrwt>
<pdfrwt beam="2">  1       -3 0.56190411E-01 0.24151386E+03</pdfrwt>
<totfact> 0.10638072E+02</totfact>
</mgrwt>
</event>
<event>
12    1  0.1093377E-001  0.2363507E+03  0.7546771E-02  0.1122248E+00
         -4   -1    0    0    0  501 -0.00000000000E+00  0.00000000000E+00  0.12817363079E+03  0.12817363079E+03  0.00000000000E+00 0. -1.
          4   -1    0    0  503    0  0.00000000000E+00 -0.00000000000E+00 -0.43739827178E+03  0.43739827178E+03  0.00000000000E+00 0.  1.
          6    2    1    2  503    0 -0.12989344337E+03  0.94598273871E+02 -0.17172876952E+03  0.29237001732E+03  0.17369028959E+03 0.  0.
         24    2    3    3    0    0 -0.11547709471E+03  0.96708151684E+01 -0.63843918971E+02  0.15423336278E+03  0.79267901044E+02 0.  0.
         -6    2    1    2    0  501  0.12989344337E+03 -0.94598273871E+02 -0.13749587147E+03  0.27320188525E+03  0.17295379551E+03 0.  0.
        -24    2    5    5    0    0  0.94313120481E+01 -0.79382492155E+02 -0.86279162041E+02  0.14133875006E+03  0.78371032649E+02 0.  0.
          2    1    4    4  502    0 -0.50547617205E+02 -0.35070916336E+02 -0.26559438052E+02  0.67010704573E+02  0.00000000000E+00 0. -1.
         -1    1    4    4    0  502 -0.64929477503E+02  0.44741731505E+02 -0.37284480919E+02  0.87222658204E+02  0.00000000000E+00 0.  1.
          5    1    3    3  503    0 -0.14416348663E+02  0.84927458702E+02 -0.10788485055E+03  0.13813665454E+03  0.47000000000E+01 0. -1.
         13    1    6    6    0    0  0.35574884476E+02 -0.92938886495E+01 -0.33961395069E+02  0.50053222940E+02  0.00000000000E+00 0. -1.
        -14    1    6    6    0    0 -0.26143572428E+02 -0.70088603505E+02 -0.52317766972E+02  0.91285527120E+02  0.00000000000E+00 0.  1.
         -5    1    5    5    0  501  0.12046213132E+03 -0.15215781716E+02 -0.51216709431E+02  0.13186313519E+03  0.47000000000E+01 0.  1.
<mgrwt>
<rscale>  2 0.23635071E+03</rscale>
<asrwt>0</asrwt>
<pdfrwt beam="2">  1        4 0.67292042E-01 0.23635071E+03</pdfrwt>
<pdfrwt beam="1">  1       -4 0.19719020E-01 0.23635071E+03</pdfrwt>
<totfact> 0.87240235E+01</totfact>
</mgrwt>
</event>
<event>
12    1  0.1093377E-001  0.1731168E+03  0.7546771E-02  0.1174636E+00
         -3   -1    0    0    0  501 -0.00000000000E+00  0.00000000000E+00  0.17563716754E+03  0.17563716754E+03  0.00000000000E+00 0. -1.
          3   -1    0    0  503    0  0.00000000000E+00 -0.00000000000E+00 -0.19010310443E+03  0.19010310443E+03  0.00000000000E+00 0.  1.
          6    2    1    2  503    0 -0.22497637601E+02  0.35388865840E+01  0.51310838007E+02  0.17997298938E+03  0.17099358875E+03 0.  0.
         24    2    3    3    0    0 -0.68108932403E+01 -0.19810359597E+02 -0.31881298484E+02  0.92028217959E+02  0.83749251301E+02 0.  0.
         -6    2    1    2    0  501  0.22497637601E+02 -0.35388865840E+01 -0.65776774901E+02  0.18576728260E+03  0.17223307392E+03 0.  0.
        -24    2    5    5    0    0 -0.52465481923E+02  0.19895595712E+01 -0.49991621428E+02  0.10881733733E+03  0.81150881391E+02 0.  0.
          2    1    4    4  502    0  0.35285415941E+02 -0.10334278713E+02 -0.32204575209E+02  0.48877321520E+02  0.00000000000E+00 0. -1.
         -1    1    4    4    0  502 -0.42096309181E+02 -0.94760808846E+01  0.32327672452E+00  0.43150896438E+02  0.00000000000E+00 0.  1.
          5    1    3    3  503    0 -0.15686744361E+02  0.23349246181E+02  0.83192136491E+02  0.87944771418E+02  0.47000000000E+01 0. -1.
         13    1    6    6    0    0  0.21094271707E+02 -0.75798107726E+01 -0.13235057773E+02  0.26030531774E+02  0.00000000000E+00 0. -1.
        -14    1    6    6    0    0 -0.73559753630E+02  0.95693703438E+01 -0.36756563656E+02  0.82786805559E+02  0.00000000000E+00 0.  1.
         -5    1    5    5    0  501  0.74963119524E+02 -0.55284461552E+01 -0.15785153473E+02  0.76949945262E+02  0.47000000000E+01 0.  1.
<mgrwt>
<rscale>  2 0.17311682E+03</rscale>
<asrwt>0</asrwt>
<pdfrwt beam="2">  1        3 0.29246631E-01 0.17311682E+03</pdfrwt>
<pdfrwt beam="1">  1       -3 0.27021103E-01 0.17311682E+03</pdfrwt>
<totfact> 0.35209320E+02</totfact>
</mgrwt>
</event>
<event>
12    1  0.1093377E-001  0.3400218E+03  0.7546771E-02  0.1066787E+00
          1   -1    0    0  503    0  0.00000000000E+00  0.00000000000E+00  0.24510416332E+04  0.24510416332E+04  0.00000000000E+00 0.  1.
         -1   -1    0    0    0  501 -0.00000000000E+00 -0.00000000000E+00 -0.47171085257E+02  0.47171085257E+02  0.00000000000E+00 0. -1.
          6    2    1    2  503    0 -0.28283344846E+03 -0.83414577347E+02  0.12003502826E+04  0.12471616089E+04  0.16618822660E+03 0.  0.
         24    2    3    3    0    0 -0.65675760848E+02 -0.29172174341E+02  0.27713506201E+03  0.29718890772E+03  0.79706229126E+02 0.  0.
         -6    2    1    2    0  501  0.28283344846E+03  0.83414577347E+02  0.12035202654E+04  0.12510511096E+04  0.17238067812E+03 0.  0.
        -24    2    5    5    0    0  0.92434001639E+02  0.62921925018E+02  0.34304442816E+03  0.36951117590E+03  0.79723372436E+02 0.  0.
          4    1    4    4  502    0 -0.66142461226E+01 -0.34788567318E+02  0.43256269586E+02  0.55902571732E+02  0.00000000000E+00 0. -1.
         -3    1    4    4    0  502 -0.59061514725E+02  0.56163929763E+01  0.23387879242E+03  0.24128633599E+03  0.00000000000E+00 0.  1.
          5    1    3    3  503    0 -0.21715768761E+03 -0.54242403005E+02  0.92321522055E+03  0.94997270120E+03  0.47000000000E+01 0. -1.
         11    1    6    6    0    0  0.12420255313E+02  0.87279067304E+00  0.65972476797E+00  0.12468349624E+02  0.00000000000E+00 0. -1.
        -12    1    6    6    0    0  0.80013746327E+02  0.62049134345E+02  0.34238470340E+03  0.35704282627E+03  0.00000000000E+00 0.  1.
         -5    1    5    5    0  501  0.19039944682E+03  0.20492652328E+02  0.86047583727E+03  0.88153993368E+03  0.47000000000E+01 0.  1.
<mgrwt>
<rscale>  2 0.34002178E+03</rscale>
<asrwt>0</asrwt>
<pdfrwt beam="1">  1        1 0.37708323E+00 0.34002178E+03</pdfrwt>
<pdfrwt beam="2">  1       -1 0.72570919E-02 0.34002178E+03</pdfrwt>
<totfact> 0.16831184E+02</totfact>
</mgrwt>
</event>
<event>
12    1  0.1093377E-001  0.2084018E+03  0.7546771E-02  0.1142838E+00
         -1   -1    0    0    0  501 -0.00000000000E+00  0.00000000000E+00  0.55420187297E+03  0.55420187297E+03  0.00000000000E+00 0.  1.
          1   -1    0    0  503    0  0.00000000000E+00 -0.00000000000E+00 -0.83484846965E+02  0.83484846965E+02  0.00000000000E+00 0. -1.
          6    2    1    2  503    0 -0.51578068305E+02 -0.10257925605E+03  0.15637670706E+03  0.26051685074E+03  0.17387511066E+03 0.  0.
         24    2    3    3    0    0  0.35022487753E+02 -0.56013719380E+02  0.10883000822E+03  0.15119720893E+03  0.81562944352E+02 0.  0.
         -6    2    1    2    0  501  0.51578068305E+02  0.10257925605E+03  0.31434031894E+03  0.37716986919E+03  0.17396687390E+03 0.  0.
        -24    2    5    5    0    0 -0.34322617596E+02  0.35050533559E+02  0.18441338020E+03  0.20734008497E+03  0.81086583706E+02 0.  0.
          2    1    4    4  502    0  0.89432336650E+01  0.19925828895E+02  0.10453831531E+02  0.24213687848E+02  0.00000000000E+00 0. -1.
         -1    1    4    4    0  502  0.26079254088E+02 -0.75939548275E+02  0.98376176694E+02  0.12698352108E+03  0.00000000000E+00 0.  1.
          5    1    3    3  503    0 -0.86600556058E+02 -0.46565536666E+02  0.47546698840E+02  0.10931964181E+03  0.47000000000E+01 0. -1.
         13    1    6    6    0    0 -0.27528106261E+02  0.32675458012E+01  0.93054597550E+01  0.29241495706E+02  0.00000000000E+00 0. -1.
        -14    1    6    6    0    0 -0.67945113347E+01  0.31782987757E+02  0.17510792045E+03  0.17809858926E+03  0.00000000000E+00 0.  1.
         -5    1    5    5    0  501  0.85900685901E+02  0.67528722487E+02  0.12992693874E+03  0.16982978422E+03  0.47000000000E+01 0.  1.
<mgrwt>
<rscale>  2 0.20840180E+03</rscale>
<asrwt>0</asrwt>
<pdfrwt beam="2">  1        1 0.12843823E-01 0.20840180E+03</pdfrwt>
<pdfrwt beam="1">  1       -1 0.85261824E-01 0.20840180E+03</pdfrwt>
<totfact> 0.65296165E+02</totfact>
</mgrwt>
</event>
<event>
12    1  0.1093377E-001  0.2114310E+03  0.7546771E-02  0.1140438E+00
          2   -1    0    0  503    0  0.00000000000E+00  0.00000000000E+00  0.40307056563E+03  0.40307056563E+03  0.00000000000E+00 0.  1.
         -2   -1    0    0    0  501 -0.00000000000E+00 -0.00000000000E+00 -0.12084554205E+03  0.12084554205E+03  0.00000000000E+00 0. -1.
          6    2    1    2  503    0  0.58758671522E+02  0.10648293005E+03  0.65657007828E+02  0.22087396196E+03  0.17228832962E+03 0.  0.
         24    2    3    3    0    0 -0.26040227186E+02  0.30111762284E+02  0.12392143292E+02  0.94847598518E+02  0.85192077505E+02 0.  0.
         -6    2    1    2    0  501 -0.58758671522E+02 -0.10648293005E+03  0.21656801576E+03  0.30304214572E+03  0.17361348093E+03 0.  0.
        -24    2    5    5    0    0 -0.16573267156E+02 -0.12242692321E+03  0.21110995290E+03  0.25737268426E+03  0.80064109810E+02 0.  0.
          4    1    4    4  502    0 -0.43569657912E+02 -0.10109157733E+02 -0.96361488728E+01  0.45753311637E+02  0.00000000000E+00 0. -1.
         -3    1    4    4    0  502  0.17529430726E+02  0.40220920017E+02  0.22028292165E+02  0.49094286881E+02  0.00000000000E+00 0.  1.
          5    1    3    3  503    0  0.84798898708E+02  0.76371167770E+02  0.53264864536E+02  0.12602636344E+03  0.47000000000E+01 0. -1.
         13    1    6    6    0    0 -0.39762925232E+01 -0.90460228503E+02  0.76780541675E+02  0.11871863975E+03  0.00000000000E+00 0. -1.
        -14    1    6    6    0    0 -0.12596974632E+02 -0.31966694706E+02  0.13432941123E+03  0.13865404452E+03  0.00000000000E+00 0.  1.
         -5    1    5    5    0  501 -0.42185404366E+02  0.15943993155E+02  0.54580628560E+01  0.45669461453E+02  0.47000000000E+01 0.  1.
<mgrwt>
<rscale>  2 0.21143099E+03</rscale>
<asrwt>0</asrwt>
<pdfrwt beam="1">  1        2 0.62010856E-01 0.21143099E+03</pdfrwt>
<pdfrwt beam="2">  1       -2 0.18591622E-01 0.21143099E+03</pdfrwt>
<totfact> 0.18727673E+03</totfact>
</mgrwt>
</event>
<event>
12    1  0.1093377E-001  0.2845099E+03  0.7546771E-02  0.1093251E+00
         -3   -1    0    0    0  501 -0.00000000000E+00  0.00000000000E+00  0.18626778065E+03  0.18626778065E+03  0.00000000000E+00 0. -1.
          3   -1    0    0  503    0  0.00000000000E+00 -0.00000000000E+00 -0.75351376483E+03  0.75351376483E+03  0.00000000000E+00 0.  1.
          6    2    1    2  503    0 -0.19354699314E+03  0.11725770768E+03 -0.58904495293E+03  0.65393858752E+03  0.17161559110E+03 0.  0.
         24    2    3    3    0    0 -0.53983821653E+02  0.61031931064E+02 -0.37491070523E+03  0.39218530133E+03  0.81314968318E+02 0.  0.
         -6    2    1    2    0  501  0.19354699314E+03 -0.11725770768E+03  0.21798968751E+02  0.28584295797E+03  0.17326624892E+03 0.  0.
        -24    2    5    5    0    0  0.12765692874E+03 -0.63204409085E+02 -0.54250897967E+02  0.17152352872E+03  0.78651587331E+02 0.  0.
          4    1    4    4  502    0  0.16341820681E+02  0.21740116458E+02 -0.44988008210E+02  0.52570035662E+02  0.00000000000E+00 0. -1.
         -3    1    4    4    0  502 -0.70325642335E+02  0.39291814606E+02 -0.32992269702E+03  0.33961526567E+03  0.00000000000E+00 0.  1.
          5    1    3    3  503    0 -0.13956317149E+03  0.56225776620E+02 -0.21413424770E+03  0.26175328619E+03  0.47000000000E+01 0. -1.
         11    1    6    6    0    0  0.31962056192E+02 -0.47308567635E+02  0.58750325484E+01  0.57395031276E+02  0.00000000000E+00 0. -1.
        -12    1    6    6    0    0  0.95694872552E+02 -0.15895841450E+02 -0.60125930516E+02  0.11412849744E+03  0.00000000000E+00 0.  1.
         -5    1    5    5    0  501  0.65890064399E+02 -0.54053298599E+02  0.76049866719E+02  0.11431942925E+03  0.47000000000E+01 0.  1.
<mgrwt>
<rscale>  2 0.28450986E+03</rscale>
<asrwt>0</asrwt>
<pdfrwt beam="2">  1        3 0.11592519E+00 0.28450986E+03</pdfrwt>
<pdfrwt beam="1">  1       -3 0.28656582E-01 0.28450986E+03</pdfrwt>
<totfact> 0.18684226E+01</totfact>
</mgrwt>
</event>
<event>
12    1  0.1093377E-001  0.2945918E+03  0.7546771E-02  0.1087976E+00
         -2   -1    0    0    0  501 -0.00000000000E+00  0.00000000000E+00  0.18174568197E+03  0.18174568197E+03  0.00000000000E+00 0. -1.
          2   -1    0    0  503    0  0.00000000000E+00 -0.00000000000E+00 -0.63360269001E+03  0.63360269001E+03  0.00000000000E+00 0.  1.
          6    2    1    2  503    0  0.22341988721E+03  0.82841927673E+02 -0.23393373250E+02  0.29519987278E+03  0.17267450302E+03 0.  0.
         24    2    3    3    0    0  0.62374943111E+02  0.75922755906E+02 -0.33084812590E+02  0.13364690018E+03  0.84332619500E+02 0.  0.
         -6    2    1    2    0  501 -0.22341988721E+03 -0.82841927673E+02 -0.42846363479E+03  0.52014849919E+03  0.17376462211E+03 0.  0.
        -24    2    5    5    0    0 -0.20753428823E+03 -0.30343285382E+02 -0.26378684443E+03  0.34651383969E+03  0.80604876077E+02 0.  0.
          2    1    4    4  502    0  0.21679465779E+02  0.26503759122E+02 -0.56010133929E+02  0.65647418737E+02  0.00000000000E+00 0. -1.
         -1    1    4    4    0  502  0.40695477331E+02  0.49418996784E+02  0.22925321339E+02  0.67999481445E+02  0.00000000000E+00 0.  1.
          5    1    3    3  503    0  0.16104494410E+03  0.69191717675E+01  0.96914393398E+01  0.16155297260E+03  0.47000000000E+01 0. -1.
         13    1    6    6    0    0 -0.75411741773E+02  0.91993450990E+01 -0.14832458465E+03  0.16664855583E+03  0.00000000000E+00 0. -1.
        -14    1    6    6    0    0 -0.13212254645E+03 -0.39542630481E+02 -0.11546225977E+03  0.17986528386E+03  0.00000000000E+00 0.  1.
         -5    1    5    5    0  501 -0.15885598988E+02 -0.52498642291E+02 -0.16467679036E+03  0.17363465950E+03  0.47000000000E+01 0.  1.
<mgrwt>
<rscale>  2 0.29459182E+03</rscale>
<asrwt>0</asrwt>
<pdfrwt beam="2">  1        2 0.97477337E-01 0.29459182E+03</pdfrwt>
<pdfrwt beam="1">  1       -2 0.27960874E-01 0.29459182E+03</pdfrwt>
<totfact> 0.55225030E+02</totfact>
</mgrwt>
</event>
<event>
12    1  0.1093377E-001  0.2715129E+03  0.7546771E-02  0.1100417E+00
          2   -1    0    0  503    0  0.00000000000E+00  0.00000000000E+00  0.14225153785E+03  0.14225153785E+03  0.00000000000E+00 0.  1.
         -2   -1    0    0    0  501 -0.00000000000E+00 -0.00000000000E+00 -0.58505921956E+03  0.58505921956E+03  0.00000000000E+00 0. -1.
          6    2    1    2  503    0 -0.17316590671E+03  0.11841558375E+03 -0.98603932454E+02  0.28899908531E+03  0.17259505814E+03 0.  0.
         24    2    3    3    0    0 -0.11819877913E+03  0.99068814696E+02 -0.13455153224E+03  0.22036962722E+03  0.81688899739E+02 0.  0.
         -6    2    1    2    0  501  0.17316590671E+03 -0.11841558375E+03 -0.34420374925E+03  0.43831167210E+03  0.17214011496E+03 0.  0.
        -24    2    5    5    0    0  0.96277653238E+02 -0.22592613677E+02 -0.26559283947E+03  0.29238151671E+03  0.71885897304E+02 0.  0.
          4    1    4    4  502    0 -0.95258513346E+02  0.91445128218E+02 -0.65882832662E+02  0.14757013072E+03  0.00000000000E+00 0. -1.
         -3    1    4    4    0  502 -0.22940265780E+02  0.76236864785E+01 -0.68668699578E+02  0.72799496505E+02  0.00000000000E+00 0.  1.
          5    1    3    3  503    0 -0.54967127582E+02  0.19346769051E+02  0.35947599787E+02  0.68629458090E+02  0.47000000000E+01 0. -1.
         13    1    6    6    0    0  0.34913529323E+02 -0.42034565719E+02 -0.89153506171E+02  0.10456675814E+03  0.00000000000E+00 0. -1.
        -14    1    6    6    0    0  0.61364123915E+02  0.19441952042E+02 -0.17643933330E+03  0.18781475857E+03  0.00000000000E+00 0.  1.
         -5    1    5    5    0  501  0.76888253470E+02 -0.95822970070E+02 -0.78610909782E+02  0.14593015539E+03  0.47000000000E+01 0.  1.
<mgrwt>
<rscale>  2 0.27151294E+03</rscale>
<asrwt>0</asrwt>
<pdfrwt beam="1">  1        2 0.21884852E-01 0.27151294E+03</pdfrwt>
<pdfrwt beam="2">  1       -2 0.90009111E-01 0.27151294E+03</pdfrwt>
<totfact> 0.27462617E+02</totfact>
</mgrwt>
</event>
<event>
12    1  0.1093377E-001  0.3641400E+03  0.7546771E-02  0.1056957E+00
          2   -1    0    0  503    0  0.00000000000E+00  0.00000000000E+00  0.13759002537E+04  0.13759002537E+04  0.00000000000E+00 0. -1.
         -2   -1    0    0    0  501 -0.00000000000E+00 -0.00000000000E+00 -0.10392506038E+03  0.10392506038E+03  0.00000000000E+00 0.  1.
          6    2    1    2  503    0 -0.70974498373E+02 -0.31118620748E+03  0.43542770255E+03  0.56719143130E+03  0.17388099507E+03 0.  0.
         24    2    3    3    0    0 -0.15474776771E+01 -0.24433007253E+03  0.25384775674E+03  0.36156258920E+03  0.81174153998E+02 0.  0.
         -6    2    1    2    0  501  0.70974498373E+02  0.31118620748E+03  0.83654749073E+03  0.91263388274E+03  0.17667672320E+03 0.  0.
        -24    2    5    5    0    0  0.44754665380E+02  0.32272326416E+03  0.76249260476E+03  0.83309270185E+03  0.80592755672E+02 0.  0.
          2    1    4    4  502    0  0.36753299665E+02 -0.13879404603E+03  0.12217976821E+03  0.18852715457E+03  0.00000000000E+00 0. -1.
         -1    1    4    4    0  502 -0.38300777342E+02 -0.10553602649E+03  0.13166798854E+03  0.17303543463E+03  0.00000000000E+00 0.  1.
          5    1    3    3  503    0 -0.69427020696E+02 -0.66856134952E+02  0.18157994580E+03  0.20562884210E+03  0.47000000000E+01 0. -1.
         11    1    6    6    0    0  0.60487186414E+02  0.23369384162E+03  0.49477229701E+03  0.55051897081E+03  0.00000000000E+00 0. -1.
        -12    1    6    6    0    0 -0.15732521034E+02  0.89029422544E+02  0.26772030775E+03  0.28257373105E+03  0.00000000000E+00 0.  1.
         -5    1    5    5    0  501  0.26219832993E+02 -0.11537056686E+02  0.74054885977E+02  0.79541180883E+02  0.47000000000E+01 0.  1.
<mgrwt>
<rscale>  2 0.36414003E+03</rscale>
<asrwt>0</asrwt>
<pdfrwt beam="1">  1        2 0.21167695E+00 0.36414003E+03</pdfrwt>
<pdfrwt beam="2">  1       -2 0.15988472E-01 0.36414003E+03</pdfrwt>
<totfact> 0.48744433E+02</totfact>
</mgrwt>
</event>
<event>
12    1  0.1093377E-001  0.1922092E+03  0.7546771E-02  0.1156484E+00
          2   -1    0    0  503    0  0.00000000000E+00  0.00000000000E+00  0.76586833336E+02  0.76586833336E+02  0.00000000000E+00 0. -1.
         -2   -1    0    0    0  501 -0.00000000000E+00 -0.00000000000E+00 -0.48245232521E+03  0.48245232521E+03  0.00000000000E+00 0.  1.
          6    2    1    2  503    0  0.26365178146E+02  0.83386782581E+02 -0.20297956313E+03  0.28082361721E+03  0.17324180443E+03 0.  0.
         24    2    3    3    0    0  0.76963895869E+02  0.34901206610E+02 -0.16262801210E+03  0.19982103093E+03  0.79618079556E+02 0.  0.
         -6    2    1    2    0  501 -0.26365178146E+02 -0.83386782581E+02 -0.20288592874E+03  0.27821554134E+03  0.16909378828E+03 0.  0.
        -24    2    5    5    0    0 -0.50566118934E+02 -0.88883056894E+02 -0.21415789842E+03  0.25055615112E+03  0.80359499905E+02 0.  0.
          4    1    4    4  502    0  0.77728985281E+02  0.27228099282E+01 -0.82063915056E+02  0.11306500343E+03  0.00000000000E+00 0. -1.
         -3    1    4    4    0  502 -0.76508941185E+00  0.32178396681E+02 -0.80564097042E+02  0.86756027497E+02  0.00000000000E+00 0.  1.
          5    1    3    3  503    0 -0.50598717724E+02  0.48485575972E+02 -0.40351551036E+02  0.81002586277E+02  0.47000000000E+01 0. -1.
         13    1    6    6    0    0  0.21184232384E+02 -0.21351219439E+02 -0.67190273533E+02  0.73615074072E+02  0.00000000000E+00 0. -1.
        -14    1    6    6    0    0 -0.71750351318E+02 -0.67531837456E+02 -0.14696762488E+03  0.17694107705E+03  0.00000000000E+00 0.  1.
         -5    1    5    5    0  501  0.24200940789E+02  0.54962743129E+01  0.11271969681E+02  0.27659390212E+02  0.47000000000E+01 0.  1.
<mgrwt>
<rscale>  2 0.19220919E+03</rscale>
<asrwt>0</asrwt>
<pdfrwt beam="1">  1        2 0.11782590E-01 0.19220919E+03</pdfrwt>
<pdfrwt beam="2">  1       -2 0.74223435E-01 0.19220919E+03</pdfrwt>
<totfact> 0.86973299E+02</totfact>
</mgrwt>
</event>
<event>
12    1  0.1093377E-001  0.2144961E+03  0.7546771E-02  0.1138054E+00
          1   -1    0    0  503    0  0.00000000000E+00  0.00000000000E+00  0.14966470028E+04  0.14966470028E+04  0.00000000000E+00 0.  1.
         -1   -1    0    0    0  501 -0.00000000000E+00 -0.00000000000E+00 -0.34427660047E+02  0.34427660047E+02  0.00000000000E+00 0. -1.
          6    2    1    2  503    0 -0.12692265054E+03  0.25050274177E+01  0.48156301017E+03  0.52730161560E+03  0.17328712204E+03 0.  0.
         24    2    3    3    0    0 -0.10168752564E+03  0.38275693976E+02  0.45714506482E+03  0.47695602820E+03  0.81853899918E+02 0.  0.
         -6    2    1    2    0  501  0.12692265054E+03 -0.25050274177E+01  0.98065633258E+03  0.10037730472E+04  0.17250464739E+03 0.  0.
        -24    2    5    5    0    0  0.33725702915E+02  0.52526486205E+02  0.36734738015E+03  0.38096962749E+03  0.79355557918E+02 0.  0.
          4    1    4    4  502    0 -0.78275211676E+02  0.40183878811E+02  0.19704389952E+03  0.21579631882E+03  0.00000000000E+00 0. -1.
         -3    1    4    4    0  502 -0.23412313964E+02 -0.19081848346E+01  0.26010116530E+03  0.26115970938E+03  0.00000000000E+00 0.  1.
          5    1    3    3  503    0 -0.25235124901E+02 -0.35770666559E+02  0.24417945355E+02  0.50345587395E+02  0.47000000000E+01 0. -1.
         11    1    6    6    0    0  0.10414442910E+02  0.56226490422E+02  0.34030290445E+03  0.34507382634E+03  0.00000000000E+00 0. -1.
        -12    1    6    6    0    0  0.23311260004E+02 -0.37000042165E+01  0.27044475706E+02  0.35895801153E+02  0.00000000000E+00 0.  1.
         -5    1    5    5    0  501  0.93196947626E+02 -0.55031513623E+02  0.61330895242E+03  0.62280341975E+03  0.47000000000E+01 0.  1.
<mgrwt>
<rscale>  2 0.21449610E+03</rscale>
<asrwt>0</asrwt>
<pdfrwt beam="1">  1        1 0.23025333E+00 0.21449610E+03</pdfrwt>
<pdfrwt beam="2">  1       -1 0.52965643E-02 0.21449610E+03</pdfrwt>
<totfact> 0.11646749E+03</totfact>
</mgrwt>
</event>
<event>
12    1  0.1093377E-001  0.1773890E+03  0.7546771E-02  0.1170354E+00
         -2   -1    0    0    0  501 -0.00000000000E+00  0.00000000000E+00  0.46128212833E+02  0.46128212833E+02  0.00000000000E+00 0. -1.
          2   -1    0    0  503    0  0.00000000000E+00 -0.00000000000E+00 -0.12004568565E+04  0.12004568565E+04  0.00000000000E+00 0.  1.
          6    2    1    2  503    0 -0.29496984334E+01 -0.30423281780E+02 -0.98992516805E+03  0.10060060237E+04  0.17652763095E+03 0.  0.
         24    2    3    3    0    0 -0.54017576699E+02 -0.66077419432E+02 -0.57570718340E+03  0.58710534982E+03  0.77264525023E+02 0.  0.
         -6    2    1    2    0  501  0.29496984334E+01  0.30423281780E+02 -0.16440347563E+03  0.24057904569E+03  0.17296097141E+03 0.  0.
        -24    2    5    5    0    0 -0.30542565127E+02  0.66873885747E+02 -0.97729292625E+02  0.15740504178E+03  0.99097768195E+02 0.  0.
          2    1    4    4  502    0 -0.49313894825E+02 -0.68105133741E+02 -0.30579825975E+03  0.31714782852E+03  0.00000000000E+00 0. -1.
         -1    1    4    4    0  502 -0.47036818745E+01  0.20277143088E+01 -0.26990892364E+03  0.26995752131E+03  0.00000000000E+00 0.  1.
          5    1    3    3  503    0  0.51067878266E+02  0.35654137652E+02 -0.41421798465E+03  0.41890067383E+03  0.47000000000E+01 0. -1.
         11    1    6    6    0    0  0.30502116453E+02  0.23027240674E+02 -0.57905581811E+01  0.38654410941E+02  0.00000000000E+00 0. -1.
        -12    1    6    6    0    0 -0.61044681580E+02  0.43846645073E+02 -0.91938734444E+02  0.11875063084E+03  0.00000000000E+00 0.  1.
         -5    1    5    5    0  501  0.33492263560E+02 -0.36450603967E+02 -0.66674183001E+02  0.83174003912E+02  0.47000000000E+01 0.  1.
<mgrwt>
<rscale>  2 0.17738900E+03</rscale>
<asrwt>0</asrwt>
<pdfrwt beam="2">  1        2 0.18468562E+00 0.17738900E+03</pdfrwt>
<pdfrwt beam="1">  1       -2 0.70966501E-02 0.17738900E+03</pdfrwt>
<totfact> 0.22713300E+03</totfact>
</mgrwt>
</event>
<event>
12    1  0.1093377E-001  0.2467202E+03  0.7546771E-02  0.1115395E+00
         -1   -1    0    0    0  501 -0.00000000000E+00  0.00000000000E+00  0.59920958973E+02  0.59920958973E+02  0.00000000000E+00 0.  1.
          1   -1    0    0  503    0  0.00000000000E+00 -0.00000000000E+00 -0.17572276631E+04  0.17572276631E+04  0.00000000000E+00 0. -1.
          6    2    1    2  503    0  0.16424349144E+03 -0.62644616874E+02 -0.14390093632E+04  0.14600236187E+04  0.17326496239E+03 0.  0.
         24    2    3    3    0    0  0.10831482432E+03 -0.10857229568E+02 -0.50440295154E+03  0.52230234665E+03  0.80792469877E+02 0.  0.
         -6    2    1    2    0  501 -0.16424349144E+03  0.62644616874E+02 -0.25829734091E+03  0.35712500339E+03  0.17297537172E+03 0.  0.
        -24    2    5    5    0    0 -0.79689217314E+02  0.10199392030E+03 -0.17054078859E+03  0.22898018130E+03  0.81207337845E+02 0.  0.
          2    1    4    4  502    0  0.49511299321E+01 -0.83806776603E+01 -0.27637093000E+01  0.10118672578E+02  0.00000000000E+00 0. -1.
         -1    1    4    4    0  502  0.10336369439E+03 -0.24765519076E+01 -0.50163924224E+03  0.51218367407E+03  0.00000000000E+00 0.  1.
          5    1    3    3  503    0  0.55928667119E+02 -0.51787387306E+02 -0.93460641166E+03  0.93772127202E+03  0.47000000000E+01 0. -1.
         13    1    6    6    0    0  0.13919294120E+02  0.45634899085E+00 -0.96333934207E+01  0.16933908940E+02  0.00000000000E+00 0. -1.
        -14    1    6    6    0    0 -0.93608511434E+02  0.10153757131E+03 -0.16090739517E+03  0.21204627236E+03  0.00000000000E+00 0.  1.
         -5    1    5    5    0  501 -0.84554274123E+02 -0.39349303429E+02 -0.87756552326E+02  0.12814482209E+03  0.47000000000E+01 0.  1.
<mgrwt>
<rscale>  2 0.24672022E+03</rscale>
<asrwt>0</asrwt>
<pdfrwt beam="2">  1        1 0.27034276E+00 0.24672022E+03</pdfrwt>
<pdfrwt beam="1">  1       -1 0.92186078E-02 0.24672022E+03</pdfrwt>
<totfact> 0.33769464E+02</totfact>
</mgrwt>
</event>
<event>
12    1  0.1093377E-001  0.2198364E+03  0.7546771E-02  0.1134005E+00
         -1   -1    0    0    0  501 -0.00000000000E+00  0.00000000000E+00  0.96359944358E+02  0.96359944358E+02  0.00000000000E+00 0.  1.
          1   -1    0    0  503    0  0.00000000000E+00 -0.00000000000E+00 -0.55830994945E+03  0.55830994945E+03  0.00000000000E+00 0. -1.
          6    2    1    2  503    0 -0.35309126124E+01  0.13876083721E+03 -0.12822808874E+03  0.25597649694E+03  0.17266872027E+03 0.  0.
         24    2    3    3    0    0 -0.58649263884E+02  0.45387869277E+02 -0.46090541185E+02  0.11986914775E+03  0.82124781661E+02 0.  0.
         -6    2    1    2    0  501  0.35309126124E+01 -0.13876083721E+03 -0.33372191636E+03  0.39869339687E+03  0.16828270844E+03 0.  0.
        -24    2    5    5    0    0  0.41733111203E+02 -0.13714241051E+03 -0.31638975879E+03  0.35644980602E+03  0.80026816818E+02 0.  0.
          4    1    4    4  502    0 -0.29386664431E+02  0.17454402523E+02 -0.66341733213E+02  0.74628799933E+02  0.00000000000E+00 0. -1.
         -3    1    4    4    0  502 -0.29262599453E+02  0.27933466754E+02  0.20251192028E+02  0.45240347812E+02  0.00000000000E+00 0.  1.
          5    1    3    3  503    0  0.55118351272E+02  0.93372967935E+02 -0.82137547553E+02  0.13610734920E+03  0.47000000000E+01 0. -1.
         11    1    6    6    0    0  0.64556302738E+02 -0.85715683734E+02 -0.19265043116E+03  0.22051957574E+03  0.00000000000E+00 0. -1.
        -12    1    6    6    0    0 -0.22823191534E+02 -0.51426726776E+02 -0.12373932764E+03  0.13593023027E+03  0.00000000000E+00 0.  1.
         -5    1    5    5    0  501 -0.38202198591E+02 -0.16184267024E+01 -0.17332157567E+02  0.42243590852E+02  0.47000000000E+01 0.  1.
<mgrwt>
<rscale>  2 0.21983638E+03</rscale>
<asrwt>0</asrwt>
<pdfrwt beam="2">  1        1 0.85893841E-01 0.21983638E+03</pdfrwt>
<pdfrwt beam="1">  1       -1 0.14824606E-01 0.21983638E+03</pdfrwt>
<totfact> 0.12717240E+03</totfact>
</mgrwt>
</event>
<event>
12    1  0.1093377E-001  0.1993241E+03  0.7546771E-02  0.1150311E+00
          2   -1    0    0  503    0  0.00000000000E+00  0.00000000000E+00  0.53713603004E+03  0.53713603004E+03  0.00000000000E+00 0.  1.
         -2   -1    0    0    0  501 -0.00000000000E+00 -0.00000000000E+00 -0.99059440840E+02  0.99059440840E+02  0.00000000000E+00 0. -1.
          6    2    1    2  503    0  0.88126692491E+02  0.42752997184E+02  0.59259898259E+02  0.20832005746E+03  0.17404418434E+03 0.  0.
         24    2    3    3    0    0  0.22741886486E+02 -0.14343427467E+02  0.81420231320E+02  0.11860748908E+03  0.81948490443E+02 0.  0.
         -6    2    1    2    0  501 -0.88126692491E+02 -0.42752997184E+02  0.37881669094E+03  0.42787541342E+03  0.17315066091E+03 0.  0.
        -24    2    5    5    0    0 -0.83682764354E+02 -0.89145464226E+02  0.23711398732E+03  0.27863146644E+03  0.80391120564E+02 0.  0.
          2    1    4    4  502    0  0.22266805357E+02  0.68364087524E+01  0.92017404663E+02  0.94919702204E+02  0.00000000000E+00 0. -1.
         -1    1    4    4    0  502  0.47508112934E+00 -0.21179836220E+02 -0.10597173343E+02  0.23687786879E+02  0.00000000000E+00 0.  1.
          5    1    3    3  503    0  0.65384806004E+02  0.57096424651E+02 -0.22160333061E+02  0.89712568381E+02  0.47000000000E+01 0. -1.
         11    1    6    6    0    0  0.10672287934E+02 -0.10160427176E+02  0.43843847747E+01  0.15373836216E+02  0.00000000000E+00 0. -1.
        -12    1    6    6    0    0 -0.94355052288E+02 -0.78985037050E+02  0.23272960255E+03  0.26325763022E+03  0.00000000000E+00 0.  1.
         -5    1    5    5    0  501 -0.44439281368E+01  0.46392467042E+02  0.14170270362E+03  0.14924394698E+03  0.47000000000E+01 0.  1.
<mgrwt>
<rscale>  2 0.19932409E+03</rscale>
<asrwt>0</asrwt>
<pdfrwt beam="1">  1        2 0.82636311E-01 0.19932409E+03</pdfrwt>
<pdfrwt beam="2">  1       -2 0.15239914E-01 0.19932409E+03</pdfrwt>
<totfact> 0.18989466E+03</totfact>
</mgrwt>
</event>
<event>
12    1  0.1093377E-001  0.1960549E+03  0.7546771E-02  0.1153111E+00
          2   -1    0    0  503    0  0.00000000000E+00  0.00000000000E+00  0.14424438771E+03  0.14424438771E+03  0.00000000000E+00 0.  1.
         -2   -1    0    0    0  501 -0.00000000000E+00 -0.00000000000E+00 -0.32328849832E+03  0.32328849832E+03  0.00000000000E+00 0. -1.
          6    2    1    2  503    0 -0.29996000459E+02  0.90267039691E+02 -0.18753234542E+03  0.27132941399E+03  0.17147411414E+03 0.  0.
         24    2    3    3    0    0  0.35219312799E+02  0.74572019940E+02 -0.66488384540E+02  0.13286244611E+03  0.80189389301E+02 0.  0.
         -6    2    1    2    0  501  0.29996000459E+02 -0.90267039691E+02  0.84882347990E+01  0.19620347204E+03  0.17139385582E+03 0.  0.
        -24    2    5    5    0    0  0.52728130754E+02 -0.10277779020E+03 -0.34182202975E+02  0.14604248236E+03  0.82561817581E+02 0.  0.
          2    1    4    4  502    0  0.37452329670E+02 -0.27467963705E+01 -0.18846903155E+02  0.42016992355E+02  0.00000000000E+00 0. -1.
         -1    1    4    4    0  502 -0.22330168711E+01  0.77318816310E+02 -0.47641481385E+02  0.90845453758E+02  0.00000000000E+00 0.  1.
          5    1    3    3  503    0 -0.65215313259E+02  0.15695019751E+02 -0.12104396088E+03  0.13846696788E+03  0.47000000000E+01 0. -1.
         11    1    6    6    0    0  0.29197953028E+02  0.65251874280E+01 -0.36392775378E+01  0.30138727130E+02  0.00000000000E+00 0. -1.
        -12    1    6    6    0    0  0.23530177726E+02 -0.10930297763E+03 -0.30542925437E+02  0.11590375523E+03  0.00000000000E+00 0.  1.
         -5    1    5    5    0  501 -0.22732130295E+02  0.12510750508E+02  0.42670437774E+02  0.50160989682E+02  0.47000000000E+01 0.  1.
<mgrwt>
<rscale>  2 0.19605486E+03</rscale>
<asrwt>0</asrwt>
<pdfrwt beam="1">  1        2 0.22191445E-01 0.19605486E+03</pdfrwt>
<pdfrwt beam="2">  1       -2 0.49736691E-01 0.19605486E+03</pdfrwt>
<totfact> 0.95053523E+02</totfact>
</mgrwt>
</event>
<event>
12    1  0.1093377E-001  0.2431461E+03  0.7546771E-02  0.1117715E+00
         -2   -1    0    0    0  501 -0.00000000000E+00  0.00000000000E+00  0.83941649285E+02  0.83941649285E+02  0.00000000000E+00 0. -1.
          2   -1    0    0  503    0  0.00000000000E+00 -0.00000000000E+00 -0.74012846019E+03  0.74012846019E+03  0.00000000000E+00 0.  1.
          6    2    1    2  503    0  0.16672464423E+03 -0.95201158839E+01 -0.23470400248E+03  0.33638088653E+03  0.17371929209E+03 0.  0.
         24    2    3    3    0    0  0.81979780718E+02  0.23202530317E+02 -0.21283030147E+03  0.24282335203E+03  0.80046244186E+02 0.  0.
         -6    2    1    2    0  501 -0.16672464423E+03  0.95201158839E+01 -0.42148280842E+03  0.48768922294E+03  0.17973669848E+03 0.  0.
        -24    2    5    5    0    0 -0.15382372002E+03  0.65752196473E+02 -0.29629304370E+03  0.34976515716E+03  0.81000056985E+02 0.  0.
          2    1    4    4  502    0 -0.15903353202E+02  0.10366496074E+01 -0.21430225275E+02  0.26706662854E+02  0.00000000000E+00 0. -1.
         -1    1    4    4    0  502  0.97883133919E+02  0.22165880709E+02 -0.19140007620E+03  0.21611668918E+03  0.00000000000E+00 0.  1.
          5    1    3    3  503    0  0.84744863508E+02 -0.32722646201E+02 -0.21873701009E+02  0.93557534498E+02  0.47000000000E+01 0. -1.
         13    1    6    6    0    0 -0.10347383982E+03  0.48460938462E+02 -0.12037417245E+03  0.16596758562E+03  0.00000000000E+00 0. -1.
        -14    1    6    6    0    0 -0.50349880201E+02  0.17291258010E+02 -0.17591887125E+03  0.18379757153E+03  0.00000000000E+00 0.  1.
         -5    1    5    5    0  501 -0.12900924205E+02 -0.56232080589E+02 -0.12518976472E+03  0.13792406579E+03  0.47000000000E+01 0.  1.
<mgrwt>
<rscale>  2 0.24314607E+03</rscale>
<asrwt>0</asrwt>
<pdfrwt beam="2">  1        2 0.11386592E+00 0.24314607E+03</pdfrwt>
<pdfrwt beam="1">  1       -2 0.12914099E-01 0.24314607E+03</pdfrwt>
<totfact> 0.17139119E+03</totfact>
</mgrwt>
</event>
<event>
12    1  0.1093377E-001  0.1899084E+03  0.7546771E-02  0.1158544E+00
          2   -1    0    0  503    0  0.00000000000E+00  0.00000000000E+00  0.91336792237E+02  0.91336792237E+02  0.00000000000E+00 0.  1.
         -2   -1    0    0    0  501 -0.00000000000E+00 -0.00000000000E+00 -0.44170739376E+03  0.44170739376E+03  0.00000000000E+00 0. -1.
          6    2    1    2  503    0 -0.18166675710E+02 -0.79331699980E+02 -0.87247278994E+02  0.20771638595E+03  0.17003076949E+03 0.  0.
         24    2    3    3    0    0 -0.58149319208E+02 -0.69891619170E+02 -0.11657756363E+02  0.12155611182E+03  0.79836102626E+02 0.  0.
         -6    2    1    2    0  501  0.18166675710E+02  0.79331699980E+02 -0.26312332252E+03  0.32532780004E+03  0.17314949580E+03 0.  0.
        -24    2    5    5    0    0  0.63253443974E+02  0.24643230456E+02 -0.94323138710E+02  0.14219059075E+03  0.81933037415E+02 0.  0.
          2    1    4    4  502    0 -0.51371700515E+02 -0.28061696687E+01 -0.16302387324E+02  0.53969380527E+02  0.00000000000E+00 0. -1.
         -1    1    4    4    0  502 -0.67776186936E+01 -0.67085449501E+02  0.46446309613E+01  0.67586731292E+02  0.00000000000E+00 0.  1.
          5    1    3    3  503    0  0.39982643498E+02 -0.94400808103E+01 -0.75589522631E+02  0.86160274131E+02  0.47000000000E+01 0. -1.
         13    1    6    6    0    0  0.57985570372E+02  0.10593441796E+02 -0.10725278947E+03  0.12238344753E+03  0.00000000000E+00 0. -1.
        -14    1    6    6    0    0  0.52678736023E+01  0.14049788660E+02  0.12929650761E+02  0.19807143219E+02  0.00000000000E+00 0.  1.
         -5    1    5    5    0  501 -0.45086768264E+02  0.54688469524E+02 -0.16880018381E+03  0.18313720929E+03  0.47000000000E+01 0.  1.
<mgrwt>
<rscale>  2 0.18990835E+03</rscale>
<asrwt>0</asrwt>
<pdfrwt beam="1">  1        2 0.14051814E-01 0.18990835E+03</pdfrwt>
<pdfrwt beam="2">  1       -2 0.67954984E-01 0.18990835E+03</pdfrwt>
<totfact> 0.84978098E+02</totfact>
</mgrwt>
</event>
<event>
12    1  0.1093377E-001  0.1843660E+03  0.7546771E-02  0.1163643E+00
          2   -1    0    0  503    0  0.00000000000E+00  0.00000000000E+00  0.19228887552E+04  0.19228887552E+04  0.00000000000E+00 0. -1.
         -2   -1    0    0    0  501 -0.00000000000E+00 -0.00000000000E+00 -0.22817613700E+02  0.22817613700E+02  0.00000000000E+00 0.  1.
          6    2    1    2  503    0  0.16729124541E+02  0.59358598725E+02  0.14130469150E+04  0.14250641851E+04  0.17407768637E+03 0.  0.
         24    2    3    3    0    0 -0.17978750082E+02  0.69075038080E+02  0.58278782008E+03  0.59400985450E+03  0.90063686755E+02 0.  0.
         -6    2    1    2    0  501 -0.16729124541E+02 -0.59358598725E+02  0.48702422649E+03  0.52064218376E+03  0.17341389642E+03 0.  0.
        -24    2    5    5    0    0  0.49559649405E+02 -0.56634266623E+02  0.24702937273E+03  0.27160153775E+03  0.84144431243E+02 0.  0.
          4    1    4    4  502    0 -0.47014459568E+01  0.85516770380E+02  0.53424199754E+03  0.54106352081E+03  0.00000000000E+00 0. -1.
         -3    1    4    4    0  502 -0.13277304126E+02 -0.16441732300E+02  0.48545822539E+02  0.52946333696E+02  0.00000000000E+00 0.  1.
          5    1    3    3  503    0  0.34707874623E+02 -0.97164393546E+01  0.83025909489E+03  0.83105433060E+03  0.47000000000E+01 0. -1.
         13    1    6    6    0    0  0.52985996320E+02 -0.63332954301E+02  0.25017196493E+03  0.26344751079E+03  0.00000000000E+00 0. -1.
        -14    1    6    6    0    0 -0.34263469148E+01  0.66986876778E+01 -0.31425922005E+01  0.81540269514E+01  0.00000000000E+00 0.  1.
         -5    1    5    5    0  501 -0.66288773946E+02 -0.27243321023E+01  0.23999485376E+03  0.24904064602E+03  0.47000000000E+01 0.  1.
<mgrwt>
<rscale>  2 0.18436600E+03</rscale>
<asrwt>0</asrwt>
<pdfrwt beam="1">  1        2 0.29582891E+00 0.18436600E+03</pdfrwt>
<pdfrwt beam="2">  1       -2 0.35104036E-02 0.18436600E+03</pdfrwt>
<totfact> 0.27347811E+03</totfact>
</mgrwt>
</event>
<event>
12    1  0.1093377E-001  0.1846342E+03  0.7546771E-02  0.1163392E+00
          1   -1    0    0  503    0  0.00000000000E+00  0.00000000000E+00  0.74278555601E+03  0.74278555601E+03  0.00000000000E+00 0.  1.
         -1   -1    0    0    0  501 -0.00000000000E+00 -0.00000000000E+00 -0.50874116356E+02  0.50874116356E+02  0.00000000000E+00 0. -1.
          6    2    1    2  503    0 -0.46339301653E+02  0.48020788099E+02  0.22189445821E+03  0.28869828343E+03  0.17220981767E+03 0.  0.
         24    2    3    3    0    0 -0.73395415266E+02 -0.95894136538E+00  0.72372851442E+02  0.12898025667E+03  0.77525933940E+02 0.  0.
         -6    2    1    2    0  501  0.46339301653E+02 -0.48020788099E+02  0.47001698144E+03  0.50496138894E+03  0.17209507403E+03 0.  0.
        -24    2    5    5    0    0  0.88876262318E+02 -0.12820846843E+02  0.38159194677E+03  0.40060859480E+03  0.82531619826E+02 0.  0.
          4    1    4    4  502    0 -0.70848544613E+02  0.23315081962E+02  0.30640669052E+02  0.80634731479E+02  0.00000000000E+00 0. -1.
         -3    1    4    4    0  502 -0.25468706529E+01 -0.24274023327E+02  0.41732182390E+02  0.48345525188E+02  0.00000000000E+00 0.  1.
          5    1    3    3  503    0  0.27056113613E+02  0.48979729465E+02  0.14952160677E+03  0.15971802676E+03  0.47000000000E+01 0. -1.
         13    1    6    6    0    0  0.47717966978E+02  0.21514277305E+02  0.89860488068E+02  0.10399411434E+03  0.00000000000E+00 0. -1.
        -14    1    6    6    0    0  0.41158295340E+02 -0.34335124148E+02  0.29173145870E+03  0.29661448047E+03  0.00000000000E+00 0.  1.
         -5    1    5    5    0  501 -0.42536960665E+02 -0.35199941256E+02  0.88425034672E+02  0.10435279414E+03  0.47000000000E+01 0.  1.
<mgrwt>
<rscale>  2 0.18463420E+03</rscale>
<asrwt>0</asrwt>
<pdfrwt beam="1">  1        1 0.11427469E+00 0.18463420E+03</pdfrwt>
<pdfrwt beam="2">  1       -1 0.78267877E-02 0.18463420E+03</pdfrwt>
<totfact> 0.22791756E+03</totfact>
</mgrwt>
</event>
<event>
12    1  0.1093377E-001  0.1987243E+03  0.7546771E-02  0.1150820E+00
         -2   -1    0    0    0  501 -0.00000000000E+00  0.00000000000E+00  0.39181910943E+02  0.39181910943E+02  0.00000000000E+00 0.  1.
          2   -1    0    0  503    0  0.00000000000E+00 -0.00000000000E+00 -0.14537979023E+04  0.14537979023E+04  0.00000000000E+00 0. -1.
          6    2    1    2  503    0  0.10055093996E+03  0.21345711283E+02 -0.11265277983E+04  0.11443408561E+04  0.17287273826E+03 0.  0.
         24    2    3    3    0    0  0.43814882431E+02  0.21280948256E+02 -0.27899649849E+03  0.29489964059E+03  0.82183509101E+02 0.  0.
         -6    2    1    2    0  501 -0.10055093996E+03 -0.21345711283E+02 -0.28808819297E+03  0.34863895708E+03  0.16729669616E+03 0.  0.
        -24    2    5    5    0    0 -0.77647232988E+02 -0.64748598862E+02 -0.13188865473E+03  0.18484403594E+03  0.80939647459E+02 0.  0.
          2    1    4    4  502    0  0.55961919968E+02 -0.14219573615E+02 -0.17981766671E+03  0.18886059944E+03  0.00000000000E+00 0. -1.
         -1    1    4    4    0  502 -0.12147037537E+02  0.35500521871E+02 -0.99178831787E+02  0.10603904115E+03  0.00000000000E+00 0.  1.
          5    1    3    3  503    0  0.56736057531E+02  0.64763026352E-01 -0.84753129985E+03  0.84944121553E+03  0.47000000000E+01 0. -1.
         13    1    6    6    0    0 -0.20186508980E+02  0.19070738241E+02 -0.31575408587E+02  0.42049906412E+02  0.00000000000E+00 0. -1.
        -14    1    6    6    0    0 -0.57460724008E+02 -0.83819337103E+02 -0.10031324614E+03  0.14279412953E+03  0.00000000000E+00 0.  1.
         -5    1    5    5    0  501 -0.22903706974E+02  0.43402887580E+02 -0.15619953824E+03  0.16379492114E+03  0.47000000000E+01 0.  1.
<mgrwt>
<rscale>  2 0.19872425E+03</rscale>
<asrwt>0</asrwt>
<pdfrwt beam="2">  1        2 0.22366124E+00 0.19872425E+03</pdfrwt>
<pdfrwt beam="1">  1       -2 0.60279856E-02 0.19872425E+03</pdfrwt>
<totfact> 0.21251971E+03</totfact>
</mgrwt>
</event>
<event>
12    1  0.1093377E-001  0.1897576E+03  0.7546771E-02  0.1158680E+00
          2   -1    0    0  503    0  0.00000000000E+00  0.00000000000E+00  0.27130045760E+03  0.27130045760E+03  0.00000000000E+00 0.  1.
         -2   -1    0    0    0  501 -0.00000000000E+00 -0.00000000000E+00 -0.23717624883E+03  0.23717624883E+03  0.00000000000E+00 0. -1.
          6    2    1    2  503    0  0.12973477670E+02 -0.59019031387E+02  0.18592219936E+03  0.27092542165E+03  0.18756855464E+03 0.  0.
         24    2    3    3    0    0 -0.27929200688E+02  0.16420911002E+02  0.15502609321E+03  0.17959703953E+03  0.84689553449E+02 0.  0.
         -6    2    1    2    0  501 -0.12973477670E+02  0.59019031387E+02 -0.15179799059E+03  0.23755128479E+03  0.17244252888E+03 0.  0.
        -24    2    5    5    0    0 -0.32522768060E+01  0.96348317905E+02 -0.62251165674E+02  0.13993621817E+03  0.80083468077E+02 0.  0.
          4    1    4    4  502    0  0.13551757592E+02  0.15744109991E+02  0.12891393957E+03  0.13057691584E+03  0.00000000000E+00 0. -1.
         -3    1    4    4    0  502 -0.41480958280E+02  0.67680101061E+00  0.26112153636E+02  0.49020123694E+02  0.00000000000E+00 0.  1.
          5    1    3    3  503    0  0.40902678358E+02 -0.75439942388E+02  0.30896106153E+02  0.91328382115E+02  0.47000000000E+01 0. -1.
         11    1    6    6    0    0 -0.34421477930E+02  0.76579348343E+02 -0.25252687817E+02  0.87675155988E+02  0.00000000000E+00 0. -1.
        -12    1    6    6    0    0  0.31169201124E+02  0.19768969562E+02 -0.36998477857E+02  0.52261062178E+02  0.00000000000E+00 0.  1.
         -5    1    5    5    0  501 -0.97212008641E+01 -0.37329286519E+02 -0.89546824918E+02  0.97615066620E+02  0.47000000000E+01 0.  1.
<mgrwt>
<rscale>  2 0.18975762E+03</rscale>
<asrwt>0</asrwt>
<pdfrwt beam="1">  1        2 0.41738532E-01 0.18975762E+03</pdfrwt>
<pdfrwt beam="2">  1       -2 0.36488654E-01 0.18975762E+03</pdfrwt>
<totfact> 0.86406343E+02</totfact>
</mgrwt>
</event>
<event>
12    1  0.1093377E-001  0.1830685E+03  0.7546771E-02  0.1164866E+00
         -2   -1    0    0    0  501 -0.00000000000E+00  0.00000000000E+00  0.78714579728E+02  0.78714579728E+02  0.00000000000E+00 0. -1.
          2   -1    0    0  503    0  0.00000000000E+00 -0.00000000000E+00 -0.43570470958E+03  0.43570470958E+03  0.00000000000E+00 0.  1.
          6    2    1    2  503    0  0.31102309690E+02  0.70800358749E+02 -0.21148349654E+03  0.27627965066E+03  0.16007851697E+03 0.  0.
         24    2    3    3    0    0  0.55539004426E+02  0.64595771431E+02 -0.80267112840E+02  0.14258044235E+03  0.81419766869E+02 0.  0.
         -6    2    1    2    0  501 -0.31102309690E+02 -0.70800358749E+02 -0.14550663331E+03  0.23813963864E+03  0.17192516595E+03 0.  0.
        -24    2    5    5    0    0 -0.22547746154E+02 -0.97219820697E+02 -0.16109863493E+03  0.20594695249E+03  0.80630531880E+02 0.  0.
          4    1    4    4  502    0  0.51168146965E+02  0.61244794283E+02 -0.20282736296E+02  0.82343751932E+02  0.00000000000E+00 0. -1.
         -3    1    4    4    0  502  0.43708574602E+01  0.33509771482E+01 -0.59984376544E+02  0.60236690415E+02  0.00000000000E+00 0.  1.
          5    1    3    3  503    0 -0.24436694736E+02  0.62045873178E+01 -0.13121638370E+03  0.13369920832E+03  0.47000000000E+01 0. -1.
         13    1    6    6    0    0  0.29098903488E+02 -0.19809364257E+02 -0.46602119668E+02  0.58403036342E+02  0.00000000000E+00 0. -1.
        -14    1    6    6    0    0 -0.51646649642E+02 -0.77410456440E+02 -0.11449651526E+03  0.14754391615E+03  0.00000000000E+00 0.  1.
         -5    1    5    5    0  501 -0.85545635355E+01  0.26419461948E+02  0.15592001621E+02  0.32192686149E+02  0.47000000000E+01 0.  1.
<mgrwt>
<rscale>  2 0.18306855E+03</rscale>
<asrwt>0</asrwt>
<pdfrwt beam="2">  1        2 0.67031495E-01 0.18306855E+03</pdfrwt>
<pdfrwt beam="1">  1       -2 0.12109935E-01 0.18306855E+03</pdfrwt>
<totfact> 0.34732536E+03</totfact>
</mgrwt>
</event>
<event>
12    1  0.1093377E-001  0.3211083E+03  0.7546771E-02  0.1075140E+00
          2   -1    0    0  503    0  0.00000000000E+00  0.00000000000E+00  0.16431967254E+04  0.16431967254E+04  0.00000000000E+00 0.  1.
         -2   -1    0    0    0  501 -0.00000000000E+00 -0.00000000000E+00 -0.68356276236E+02  0.68356276236E+02  0.00000000000E+00 0. -1.
          6    2    1    2  503    0 -0.58668788044E+02  0.26487555736E+03  0.10335009142E+04  0.10823683245E+04  0.17261507044E+03 0.  0.
         24    2    3    3    0    0 -0.97313261571E+02  0.19405572626E+03  0.64927754808E+03  0.68973805450E+03  0.83962810854E+02 0.  0.
         -6    2    1    2    0  501  0.58668788044E+02 -0.26487555736E+03  0.54133953490E+03  0.62918467713E+03  0.17094963676E+03 0.  0.
        -24    2    5    5    0    0  0.89488129588E+02 -0.19878145056E+03  0.31427174599E+03  0.39064718840E+03  0.79475185152E+02 0.  0.
          4    1    4    4  502    0 -0.37980186448E+02  0.84360258028E+02  0.40539982396E+03  0.41582227570E+03  0.00000000000E+00 0. -1.
         -3    1    4    4    0  502 -0.59333075123E+02  0.10969546823E+03  0.24387772412E+03  0.27391577880E+03  0.00000000000E+00 0.  1.
          5    1    3    3  503    0  0.38644473527E+02  0.70819831099E+02  0.38422336615E+03  0.39263026998E+03  0.47000000000E+01 0. -1.
         13    1    6    6    0    0  0.25960779448E+02 -0.14570778377E+03  0.18164681838E+03  0.23430810261E+03  0.00000000000E+00 0. -1.
        -14    1    6    6    0    0  0.63527350140E+02 -0.53073666781E+02  0.13262492761E+03  0.15633908579E+03  0.00000000000E+00 0.  1.
         -5    1    5    5    0  501 -0.30819341544E+02 -0.66094106800E+02  0.22706778891E+03  0.23853748873E+03  0.47000000000E+01 0.  1.
<mgrwt>
<rscale>  2 0.32110833E+03</rscale>
<asrwt>0</asrwt>
<pdfrwt beam="1">  1        2 0.25279947E+00 0.32110833E+03</pdfrwt>
<pdfrwt beam="2">  1       -2 0.10516351E-01 0.32110833E+03</pdfrwt>
<totfact> 0.69828613E+02</totfact>
</mgrwt>
</event>
<event>
12    1  0.1093377E-001  0.1852519E+03  0.7546771E-02  0.1162815E+00
         -2   -1    0    0    0  501 -0.00000000000E+00  0.00000000000E+00  0.60312437223E+03  0.60312437223E+03  0.00000000000E+00 0. -1.
          2   -1    0    0  503    0  0.00000000000E+00 -0.00000000000E+00 -0.60172224872E+02  0.60172224872E+02  0.00000000000E+00 0.  1.
          6    2    1    2  503    0  0.23697482170E+02 -0.64243326833E+02  0.19294541358E+03  0.26687532591E+03  0.17118916804E+03 0.  0.
         24    2    3    3    0    0 -0.39300890910E+02 -0.18509940114E+02  0.52256835779E+02  0.10601605949E+03  0.81372293036E+02 0.  0.
         -6    2    1    2    0  501 -0.23697482170E+02  0.64243326833E+02  0.35000673377E+03  0.39642127118E+03  0.17307898445E+03 0.  0.
        -24    2    5    5    0    0 -0.11597350386E+01 -0.27154219984E+01  0.29821334565E+03  0.30869402830E+03  0.79699969146E+02 0.  0.
          2    1    4    4  502    0 -0.19369590705E+02 -0.43588643465E+02  0.56230576485E+02  0.73736209660E+02  0.00000000000E+00 0. -1.
         -1    1    4    4    0  502 -0.19931300205E+02  0.25078703351E+02 -0.39737407053E+01  0.32279849827E+02  0.00000000000E+00 0.  1.
          5    1    3    3  503    0  0.62998373080E+02 -0.45733386719E+02  0.14068857780E+03  0.16085926643E+03  0.47000000000E+01 0. -1.
         11    1    6    6    0    0 -0.29455538501E+02 -0.57277669686E+01  0.25619856754E+03  0.25794988287E+03  0.00000000000E+00 0. -1.
        -12    1    6    6    0    0  0.28295803462E+02  0.30123449702E+01  0.42014778112E+02  0.50744145432E+02  0.00000000000E+00 0.  1.
         -5    1    5    5    0  501 -0.22537747131E+02  0.66958748831E+02  0.51793388119E+02  0.87727242882E+02  0.47000000000E+01 0.  1.
<mgrwt>
<rscale>  2 0.18525190E+03</rscale>
<asrwt>0</asrwt>
<pdfrwt beam="2">  1        2 0.92572658E-02 0.18525190E+03</pdfrwt>
<pdfrwt beam="1">  1       -2 0.92788361E-01 0.18525190E+03</pdfrwt>
<totfact> 0.71280023E+02</totfact>
</mgrwt>
</event>
<event>
12    1  0.1093377E-001  0.1844371E+03  0.7546771E-02  0.1163577E+00
          1   -1    0    0  503    0  0.00000000000E+00  0.00000000000E+00  0.84063102302E+02  0.84063102302E+02  0.00000000000E+00 0.  1.
         -1   -1    0    0    0  501 -0.00000000000E+00 -0.00000000000E+00 -0.43500973705E+03  0.43500973705E+03  0.00000000000E+00 0. -1.
          6    2    1    2  503    0  0.36088876807E+02  0.59349178258E+02 -0.24261042285E+03  0.30382011043E+03  0.16918070290E+03 0.  0.
         24    2    3    3    0    0  0.15816295674E+02 -0.83407630031E-01 -0.34987598799E+02  0.86858047202E+02  0.77910372405E+02 0.  0.
         -6    2    1    2    0  501 -0.36088876807E+02 -0.59349178258E+02 -0.10833621190E+03  0.21525272893E+03  0.17254643002E+03 0.  0.
        -24    2    5    5    0    0 -0.16440327826E+01  0.20408914605E+02 -0.97201152854E+02  0.12753796280E+03  0.79991507048E+02 0.  0.
          2    1    4    4  502    0 -0.88955566351E+01 -0.29881120480E+02 -0.36642534074E+02  0.48111200280E+02  0.00000000000E+00 0. -1.
         -1    1    4    4    0  502  0.24711852309E+02  0.29797712850E+02  0.16549352753E+01  0.38746846922E+02  0.00000000000E+00 0.  1.
          5    1    3    3  503    0  0.20272581133E+02  0.59432585888E+02 -0.20762282405E+03  0.21696206323E+03  0.47000000000E+01 0. -1.
         11    1    6    6    0    0 -0.20174386090E+02 -0.24924276258E+02 -0.26871905270E+02  0.41836881982E+02  0.00000000000E+00 0. -1.
        -12    1    6    6    0    0  0.18530353308E+02  0.45333190864E+02 -0.70329247584E+02  0.85701080817E+02  0.00000000000E+00 0.  1.
         -5    1    5    5    0  501 -0.34444844024E+02 -0.79758092863E+02 -0.11135059046E+02  0.87714766128E+02  0.47000000000E+01 0.  1.
<mgrwt>
<rscale>  2 0.18443715E+03</rscale>
<asrwt>0</asrwt>
<pdfrwt beam="1">  1        1 0.12932785E-01 0.18443715E+03</pdfrwt>
<pdfrwt beam="2">  1       -1 0.66924575E-01 0.18443715E+03</pdfrwt>
<totfact> 0.10567556E+03</totfact>
</mgrwt>
</event>
<event>
12    1  0.1093377E-001  0.2474689E+03  0.7546771E-02  0.1114915E+00
         -1   -1    0    0    0  501 -0.00000000000E+00  0.00000000000E+00  0.29175484280E+03  0.29175484280E+03  0.00000000000E+00 0. -1.
          1   -1    0    0  503    0  0.00000000000E+00 -0.00000000000E+00 -0.45126127185E+03  0.45126127185E+03  0.00000000000E+00 0.  1.
          6    2    1    2  503    0 -0.15014568629E+03 -0.89985649481E+02  0.19191332164E+03  0.31331894590E+03  0.17520529277E+03 0.  0.
         24    2    3    3    0    0 -0.21966282319E+02 -0.81970176970E+02  0.11340940115E+03  0.16272292028E+03  0.80096373470E+02 0.  0.
         -6    2    1    2    0  501  0.15014568629E+03  0.89985649481E+02 -0.35141975068E+03  0.42969716875E+03  0.17465014012E+03 0.  0.
        -24    2    5    5    0    0  0.78611825534E+02  0.82004979519E+01 -0.92486188645E+02  0.14885097634E+03  0.85766256690E+02 0.  0.
          2    1    4    4  502    0 -0.32580843646E+02 -0.90240402438E+02  0.11430996667E+03  0.14923675849E+03  0.00000000000E+00 0. -1.
         -1    1    4    4    0  502  0.10614561327E+02  0.82702254681E+01 -0.90056552071E+00  0.13486161786E+02  0.00000000000E+00 0.  1.
          5    1    3    3  503    0 -0.12817940397E+03 -0.80154725103E+01  0.78503920487E+02  0.15059602562E+03  0.47000000000E+01 0. -1.
         13    1    6    6    0    0  0.49144085252E+02 -0.35283289411E+02 -0.67624324026E+02  0.90736436050E+02  0.00000000000E+00 0. -1.
        -14    1    6    6    0    0  0.29467740282E+02  0.43483787363E+02 -0.24861864618E+02  0.58114540289E+02  0.00000000000E+00 0.  1.
         -5    1    5    5    0  501  0.71533860754E+02  0.81785151529E+02 -0.25893356203E+03  0.28084619241E+03  0.47000000000E+01 0.  1.
<mgrwt>
<rscale>  2 0.24746889E+03</rscale>
<asrwt>0</asrwt>
<pdfrwt beam="2">  1        1 0.69424811E-01 0.24746889E+03</pdfrwt>
<pdfrwt beam="1">  1       -1 0.44885360E-01 0.24746889E+03</pdfrwt>
<totfact> 0.26227022E+02</totfact>
</mgrwt>
</event>
<event>
12    1  0.1093377E-001  0.2498633E+03  0.7546771E-02  0.1113391E+00
         -2   -1    0    0    0  501 -0.00000000000E+00  0.00000000000E+00  0.62717754757E+02  0.62717754757E+02  0.00000000000E+00 0. -1.
          2   -1    0    0  503    0  0.00000000000E+00 -0.00000000000E+00 -0.12290429444E+04  0.12290429444E+04  0.00000000000E+00 0.  1.
          6    2    1    2  503    0 -0.11284691753E+03  0.14007347134E+03 -0.30267072695E+03  0.39284827572E+03  0.17425611787E+03 0.  0.
         24    2    3    3    0    0 -0.14477558378E+02  0.60210841065E+02 -0.58384763632E+02  0.11761693229E+03  0.81178920036E+02 0.  0.
         -6    2    1    2    0  501  0.11284691753E+03 -0.14007347134E+03 -0.86365446269E+03  0.89891242343E+03  0.17259637862E+03 0.  0.
        -24    2    5    5    0    0  0.39356443345E+02 -0.13984458190E+03 -0.70234112741E+03  0.72158508678E+03  0.79350749798E+02 0.  0.
          2    1    4    4  502    0  0.25376911390E+02  0.55688260750E+02 -0.28009688381E+02  0.67303140047E+02  0.00000000000E+00 0. -1.
         -1    1    4    4    0  502 -0.39854469768E+02  0.45225803156E+01 -0.30375075251E+02  0.50313792241E+02  0.00000000000E+00 0.  1.
          5    1    3    3  503    0 -0.98369359148E+02  0.79862630270E+02 -0.24428596332E+03  0.27523134343E+03  0.47000000000E+01 0. -1.
         11    1    6    6    0    0 -0.23285407296E+02 -0.37972041507E+02 -0.23506498789E+03  0.23924806094E+03  0.00000000000E+00 0. -1.
        -12    1    6    6    0    0  0.62641850640E+02 -0.10187254039E+03 -0.46727613952E+03  0.48233702584E+03  0.00000000000E+00 0.  1.
         -5    1    5    5    0  501  0.73490474181E+02 -0.22888943872E+00 -0.16131333528E+03  0.17732733665E+03  0.47000000000E+01 0.  1.
<mgrwt>
<rscale>  2 0.24986335E+03</rscale>
<asrwt>0</asrwt>
<pdfrwt beam="2">  1        2 0.18908353E+00 0.24986335E+03</pdfrwt>
<pdfrwt beam="1">  1       -2 0.96488853E-02 0.24986335E+03</pdfrwt>
<totfact> 0.13535223E+03</totfact>
</mgrwt>
</event>
<event>
12    1  0.1093377E-001  0.1843664E+03  0.7546771E-02  0.1163643E+00
          2   -1    0    0  503    0  0.00000000000E+00  0.00000000000E+00  0.73293324291E+03  0.73293324291E+03  0.00000000000E+00 0.  1.
         -2   -1    0    0    0  501 -0.00000000000E+00 -0.00000000000E+00 -0.50360567105E+02  0.50360567105E+02  0.00000000000E+00 0. -1.
          6    2    1    2  503    0  0.15284037398E+02  0.59470060057E+02  0.23115448978E+03  0.29568297163E+03  0.17385549092E+03 0.  0.
         24    2    3    3    0    0  0.39542704974E+02 -0.35686986507E+01  0.20292589628E+03  0.22232554840E+03  0.81690690793E+02 0.  0.
         -6    2    1    2    0  501 -0.15284037398E+02 -0.59470060057E+02  0.45141818603E+03  0.48761083839E+03  0.17382652616E+03 0.  0.
        -24    2    5    5    0    0 -0.24747269507E+02 -0.49389793978E+02  0.11062310446E+03  0.14650302237E+03  0.78574074776E+02 0.  0.
          2    1    4    4  502    0  0.15846551365E+02  0.24374316603E+02  0.17182564244E+03  0.17426781659E+03  0.00000000000E+00 0. -1.
         -1    1    4    4    0  502  0.23696153609E+02 -0.27943015253E+02  0.31100253842E+02  0.48057731807E+02  0.00000000000E+00 0.  1.
          5    1    3    3  503    0 -0.24258667576E+02  0.63038758707E+02  0.28228593498E+02  0.73357423229E+02  0.47000000000E+01 0. -1.
         11    1    6    6    0    0 -0.25597859320E+01 -0.66395270133E+02  0.89485044547E+02  0.11145607923E+03  0.00000000000E+00 0. -1.
        -12    1    6    6    0    0 -0.22187483575E+02  0.17005476156E+02  0.21138059911E+02  0.35046943140E+02  0.00000000000E+00 0.  1.
         -5    1    5    5    0  501  0.94632321084E+01 -0.10080266079E+02  0.34079508157E+03  0.34110781602E+03  0.47000000000E+01 0.  1.
<mgrwt>
<rscale>  2 0.18436644E+03</rscale>
<asrwt>0</asrwt>
<pdfrwt beam="1">  1        2 0.11275895E+00 0.18436644E+03</pdfrwt>
<pdfrwt beam="2">  1       -2 0.77477801E-02 0.18436644E+03</pdfrwt>
<totfact> 0.38829614E+03</totfact>
</mgrwt>
</event>
<event>
12    1  0.1093377E-001  0.1915242E+03  0.7546771E-02  0.1157094E+00
         -1   -1    0    0    0  501 -0.00000000000E+00  0.00000000000E+00  0.21692511506E+03  0.21692511506E+03  0.00000000000E+00 0.  1.
          1   -1    0    0  503    0  0.00000000000E+00 -0.00000000000E+00 -0.82139662576E+03  0.82139662576E+03  0.00000000000E+00 0. -1.
          6    2    1    2  503    0  0.48842214337E+02 -0.64142509728E+02  0.16033879601E+03  0.24994851548E+03  0.17397099594E+03 0.  0.
         24    2    3    3    0    0 -0.34543986344E+02 -0.26659928500E+02  0.44257746135E+02  0.10211380203E+03  0.81021242226E+02 0.  0.
         -6    2    1    2    0  501 -0.48842214337E+02  0.64142509728E+02 -0.76481030671E+03  0.78837322534E+03  0.17348692666E+03 0.  0.
        -24    2    5    5    0    0 -0.78921833531E+01  0.91303303695E+01 -0.62920051639E+03  0.63633589391E+03  0.94257257379E+02 0.  0.
          4    1    4    4  502    0 -0.16695352440E+02 -0.55534225691E+02  0.30075633964E+02  0.65324794485E+02  0.00000000000E+00 0. -1.
         -3    1    4    4    0  502 -0.17848633903E+02  0.28874297191E+02  0.14182112170E+02  0.36789007544E+02  0.00000000000E+00 0.  1.
          5    1    3    3  503    0  0.83386200681E+02 -0.37482581228E+02  0.11608104988E+03  0.14783471345E+03  0.47000000000E+01 0. -1.
         11    1    6    6    0    0 -0.22233021500E+02 -0.25003570748E+02 -0.51909491973E+03  0.52017210756E+03  0.00000000000E+00 0. -1.
        -12    1    6    6    0    0  0.14340838147E+02  0.34133901117E+02 -0.11010559666E+03  0.11616378635E+03  0.00000000000E+00 0.  1.
         -5    1    5    5    0  501 -0.40950030984E+02  0.55012179359E+02 -0.13560979032E+03  0.15203733142E+03  0.47000000000E+01 0.  1.
<mgrwt>
<rscale>  2 0.19152425E+03</rscale>
<asrwt>0</asrwt>
<pdfrwt beam="2">  1        1 0.12636871E+00 0.19152425E+03</pdfrwt>
<pdfrwt beam="1">  1       -1 0.33373095E-01 0.19152425E+03</pdfrwt>
<totfact> 0.19267419E+02</totfact>
</mgrwt>
</event>
<event>
12    1  0.1093377E-001  0.2019589E+03  0.7546771E-02  0.1148097E+00
         -1   -1    0    0    0  501 -0.00000000000E+00  0.00000000000E+00  0.25061419360E+03  0.25061419360E+03  0.00000000000E+00 0. -1.
          1   -1    0    0  503    0  0.00000000000E+00 -0.00000000000E+00 -0.19778331524E+03  0.19778331524E+03  0.00000000000E+00 0.  1.
          6    2    1    2  503    0 -0.12069044017E+02 -0.10221183181E+03  0.12081451696E+03  0.23567005383E+03  0.17421626324E+03 0.  0.
         24    2    3    3    0    0  0.10281999251E+02 -0.65466641579E+02  0.15054959099E+03  0.18317202750E+03  0.80592875884E+02 0.  0.
         -6    2    1    2    0  501  0.12069044017E+02  0.10221183181E+03 -0.67983638596E+02  0.21272745502E+03  0.17331553484E+03 0.  0.
        -24    2    5    5    0    0 -0.46003881683E+02  0.14987428448E+02 -0.15454698510E+02  0.95416156383E+02  0.80773851285E+02 0.  0.
          2    1    4    4  502    0  0.43548611465E+02 -0.21280240416E+02  0.79829787246E+02  0.93392318337E+02  0.00000000000E+00 0. -1.
         -1    1    4    4    0  502 -0.33266612213E+02 -0.44186401163E+02  0.70719803744E+02  0.89779709163E+02  0.00000000000E+00 0.  1.
          5    1    3    3  503    0 -0.22351043268E+02 -0.36745190233E+02 -0.29735074030E+02  0.52498026325E+02  0.47000000000E+01 0. -1.
         13    1    6    6    0    0  0.64996625729E+00  0.40487110355E+02 -0.18461362743E+01  0.40534390093E+02  0.00000000000E+00 0. -1.
        -14    1    6    6    0    0 -0.46653847941E+02 -0.25499681907E+02 -0.13608562236E+02  0.54881766290E+02  0.00000000000E+00 0.  1.
         -5    1    5    5    0  501  0.58072925700E+02  0.87224403364E+02 -0.52528940086E+02  0.11731129864E+03  0.47000000000E+01 0.  1.
<mgrwt>
<rscale>  2 0.20195893E+03</rscale>
<asrwt>0</asrwt>
<pdfrwt beam="2">  1        1 0.30428202E-01 0.20195893E+03</pdfrwt>
<pdfrwt beam="1">  1       -1 0.38556030E-01 0.20195893E+03</pdfrwt>
<totfact> 0.97839873E+02</totfact>
</mgrwt>
</event>
<event>
12    1  0.1093377E-001  0.1792292E+03  0.7546771E-02  0.1168551E+00
          2   -1    0    0  503    0  0.00000000000E+00  0.00000000000E+00  0.36486108801E+03  0.36486108801E+03  0.00000000000E+00 0.  1.
         -2   -1    0    0    0  501 -0.00000000000E+00 -0.00000000000E+00 -0.90622115814E+02  0.90622115814E+02  0.00000000000E+00 0. -1.
          6    2    1    2  503    0  0.45520212729E+02 -0.79102989416E+00  0.17572652534E+03  0.25117739008E+03  0.17360171107E+03 0.  0.
         24    2    3    3    0    0  0.45609049814E+02 -0.20198594865E+00  0.20433067627E+03  0.22218355771E+03  0.74392753880E+02 0.  0.
         -6    2    1    2    0  501 -0.45520212729E+02  0.79102989416E+00  0.98512446857E+02  0.20430581374E+03  0.17309953162E+03 0.  0.
        -24    2    5    5    0    0 -0.51182921886E+02 -0.42361072153E+02  0.93486847923E+01  0.10497587540E+03  0.80736513307E+02 0.  0.
          4    1    4    4  502    0  0.47958786366E+02 -0.30210919226E+02  0.12203970682E+03  0.13456015336E+03  0.00000000000E+00 0. -1.
         -3    1    4    4    0  502 -0.23497365517E+01  0.30008933278E+02  0.82290969448E+02  0.87623404357E+02  0.00000000000E+00 0.  1.
          5    1    3    3  503    0 -0.88837085276E-01 -0.58904394552E+00 -0.28604150933E+02  0.28993832368E+02  0.47000000000E+01 0. -1.
         13    1    6    6    0    0  0.36832752079E+01 -0.47463295708E+02 -0.54591178695E+01  0.47917981214E+02  0.00000000000E+00 0. -1.
        -14    1    6    6    0    0 -0.54866197094E+02  0.51022235552E+01  0.14807802662E+02  0.57057894182E+02  0.00000000000E+00 0.  1.
         -5    1    5    5    0  501  0.56627091575E+01  0.43152102047E+02  0.89163762064E+02  0.99329938345E+02  0.47000000000E+01 0.  1.
<mgrwt>
<rscale>  2 0.17922918E+03</rscale>
<asrwt>0</asrwt>
<pdfrwt beam="1">  1        2 0.56132474E-01 0.17922918E+03</pdfrwt>
<pdfrwt beam="2">  1       -2 0.13941864E-01 0.17922918E+03</pdfrwt>
<totfact> 0.33455783E+03</totfact>
</mgrwt>
</event>
<event>
12    1  0.1093377E-001  0.1920824E+03  0.7546771E-02  0.1156596E+00
         -2   -1    0    0    0  501 -0.00000000000E+00  0.00000000000E+00  0.38852918832E+02  0.38852918832E+02  0.00000000000E+00 0. -1.
          2   -1    0    0  503    0  0.00000000000E+00 -0.00000000000E+00 -0.10075845387E+04  0.10075845387E+04  0.00000000000E+00 0.  1.
          6    2    1    2  503    0  0.93813372194E+02 -0.32834505445E+02 -0.59000039856E+03  0.61820806523E+03  0.15556891743E+03 0.  0.
         24    2    3    3    0    0  0.80919818390E+02  0.30440851053E+02 -0.41861641541E+03  0.43500169485E+03  0.80697638440E+02 0.  0.
         -6    2    1    2    0  501 -0.93813372194E+02  0.32834505445E+02 -0.37873122134E+03  0.42822939233E+03  0.17338979464E+03 0.  0.
        -24    2    5    5    0    0 -0.10291274521E+02 -0.39597120627E+02 -0.17518132971E+03  0.19654657113E+03  0.79172053474E+02 0.  0.
          2    1    4    4  502    0  0.67717138542E+02 -0.15965129159E+02 -0.26543966108E+03  0.27440610394E+03  0.00000000000E+00 0. -1.
         -1    1    4    4    0  502  0.13202679848E+02  0.46405980212E+02 -0.15317675433E+03  0.16059559091E+03  0.00000000000E+00 0.  1.
          5    1    3    3  503    0  0.12893553804E+02 -0.63275356499E+02 -0.17138398315E+03  0.18320637038E+03  0.47000000000E+01 0. -1.
         13    1    6    6    0    0  0.33364409050E+02 -0.12919964161E+02 -0.94111570927E+02  0.10068315176E+03  0.00000000000E+00 0. -1.
        -14    1    6    6    0    0 -0.43655683571E+02 -0.26677156466E+02 -0.81069758782E+02  0.95863419374E+02  0.00000000000E+00 0.  1.
         -5    1    5    5    0  501 -0.83522097673E+02  0.72431626072E+02 -0.20354989164E+03  0.23168282120E+03  0.47000000000E+01 0.  1.
<mgrwt>
<rscale>  2 0.19208243E+03</rscale>
<asrwt>0</asrwt>
<pdfrwt beam="2">  1        2 0.15501301E+00 0.19208243E+03</pdfrwt>
<pdfrwt beam="1">  1       -2 0.59773718E-02 0.19208243E+03</pdfrwt>
<totfact> 0.38300314E+03</totfact>
</mgrwt>
</event>
<event>
12    1  0.1093377E-001  0.2059395E+03  0.7546771E-02  0.1144822E+00
         -1   -1    0    0    0  501 -0.00000000000E+00  0.00000000000E+00  0.34338732217E+02  0.34338732217E+02  0.00000000000E+00 0. -1.
          1   -1    0    0  503    0  0.00000000000E+00 -0.00000000000E+00 -0.12846669627E+04  0.12846669627E+04  0.00000000000E+00 0.  1.
          6    2    1    2  503    0 -0.11047950884E+03  0.17228990150E+02 -0.49627327519E+03  0.53739554593E+03  0.17321734654E+03 0.  0.
         24    2    3    3    0    0 -0.12499110388E+03  0.18250339488E+02 -0.49960594700E+03  0.52174862143E+03  0.81606805765E+02 0.  0.
         -6    2    1    2    0  501  0.11047950884E+03 -0.17228990150E+02 -0.75405495528E+03  0.78161014897E+03  0.17266438377E+03 0.  0.
        -24    2    5    5    0    0  0.14274542474E+03 -0.24746019147E+02 -0.68802271254E+03  0.70758351772E+03  0.79439032144E+02 0.  0.
          2    1    4    4  502    0 -0.12152593470E+03  0.39479458849E+02 -0.40278509416E+03  0.42256716928E+03  0.00000000000E+00 0. -1.
         -1    1    4    4    0  502 -0.34651691820E+01 -0.21229119361E+02 -0.96820852836E+02  0.99181452148E+02  0.00000000000E+00 0.  1.
          5    1    3    3  503    0  0.14511595043E+02 -0.10213493381E+01  0.33326718016E+01  0.15646924506E+02  0.47000000000E+01 0. -1.
         11    1    6    6    0    0  0.15134170119E+02  0.20833902327E+02 -0.63375038232E+02  0.68406798363E+02  0.00000000000E+00 0. -1.
        -12    1    6    6    0    0  0.12761125462E+03 -0.45579921474E+02 -0.62464767431E+03  0.63917671936E+03  0.00000000000E+00 0.  1.
         -5    1    5    5    0  501 -0.32265915899E+02  0.75170289966E+01 -0.66032242733E+02  0.74026631249E+02  0.47000000000E+01 0.  1.
<mgrwt>
<rscale>  2 0.20593948E+03</rscale>
<asrwt>0</asrwt>
<pdfrwt beam="2">  1        1 0.19764105E+00 0.20593948E+03</pdfrwt>
<pdfrwt beam="1">  1       -1 0.52828825E-02 0.20593948E+03</pdfrwt>
<totfact> 0.16209488E+03</totfact>
</mgrwt>
</event>
<event>
12    1  0.1093377E-001  0.1962345E+03  0.7546771E-02  0.1152955E+00
         -2   -1    0    0    0  501 -0.00000000000E+00  0.00000000000E+00  0.61837133365E+02  0.61837133365E+02  0.00000000000E+00 0. -1.
          2   -1    0    0  503    0  0.00000000000E+00 -0.00000000000E+00 -0.65814340171E+03  0.65814340171E+03  0.00000000000E+00 0.  1.
          6    2    1    2  503    0 -0.46781272771E+02 -0.50621558114E+02 -0.36635819222E+03  0.41135635320E+03  0.17391001892E+03 0.  0.
         24    2    3    3    0    0  0.33395961701E+02 -0.32732689258E+02 -0.27119707768E+03  0.28555441252E+03  0.76202023371E+02 0.  0.
         -6    2    1    2    0  501  0.46781272771E+02  0.50621558114E+02 -0.22994807612E+03  0.30862418188E+03  0.19396323956E+03 0.  0.
        -24    2    5    5    0    0  0.34663873692E+02 -0.46628074392E+02 -0.16498185916E+03  0.19095081306E+03  0.76599201659E+02 0.  0.
          2    1    4    4  502    0  0.47995484081E+02 -0.41739391096E+02 -0.14690019865E+03  0.16007939163E+03  0.00000000000E+00 0. -1.
         -1    1    4    4    0  502 -0.14599522379E+02  0.90067018381E+01 -0.12429687903E+03  0.12547502090E+03  0.00000000000E+00 0.  1.
          5    1    3    3  503    0 -0.80177234472E+02 -0.17888868856E+02 -0.95161114544E+02  0.12580194068E+03  0.47000000000E+01 0. -1.
         11    1    6    6    0    0  0.30794852467E+02 -0.22610666808E+02 -0.18473068371E+02  0.42436063048E+02  0.00000000000E+00 0. -1.
        -12    1    6    6    0    0  0.38690212252E+01 -0.24017407584E+02 -0.14650879079E+03  0.14851475001E+03  0.00000000000E+00 0.  1.
         -5    1    5    5    0  501  0.12117399079E+02  0.97249632506E+02 -0.64966216966E+02  0.11767336882E+03  0.47000000000E+01 0.  1.
<mgrwt>
<rscale>  2 0.19623454E+03</rscale>
<asrwt>0</asrwt>
<pdfrwt beam="2">  1        2 0.10125283E+00 0.19623454E+03</pdfrwt>
<pdfrwt beam="1">  1       -2 0.95134052E-02 0.19623454E+03</pdfrwt>
<totfact> 0.32107887E+03</totfact>
</mgrwt>
</event>
<event>
12    1  0.1093377E-001  0.1805219E+03  0.7546771E-02  0.1167299E+00
          1   -1    0    0  503    0  0.00000000000E+00  0.00000000000E+00  0.17077882528E+04  0.17077882528E+04  0.00000000000E+00 0.  1.
         -1   -1    0    0    0  501 -0.00000000000E+00 -0.00000000000E+00 -0.20588432978E+02  0.20588432978E+02  0.00000000000E+00 0. -1.
          6    2    1    2  503    0  0.56061619005E+01 -0.47501539641E+02  0.61107316110E+03  0.63726029930E+03  0.17436299929E+03 0.  0.
         24    2    3    3    0    0  0.52019516160E+01  0.29741545103E+01  0.12394227110E+03  0.14749856837E+03  0.79738542814E+02 0.  0.
         -6    2    1    2    0  501 -0.56061619005E+01  0.47501539641E+02  0.10761266588E+04  0.10911163865E+04  0.17377732281E+03 0.  0.
        -24    2    5    5    0    0 -0.21771031955E+02  0.73937527755E+02  0.10268728719E+04  0.10327366811E+04  0.78335314436E+02 0.  0.
          4    1    4    4  502    0  0.11354203415E+02  0.35547627847E+02  0.30004629982E+02  0.47883500302E+02  0.00000000000E+00 0. -1.
         -3    1    4    4    0  502 -0.61522517994E+01 -0.32573473337E+02  0.93937641123E+02  0.99615068073E+02  0.00000000000E+00 0.  1.
          5    1    3    3  503    0  0.40421028455E+00 -0.50475694152E+02  0.48713089000E+03  0.48976173092E+03  0.47000000000E+01 0. -1.
         13    1    6    6    0    0  0.26135822337E+02  0.30325859844E+02  0.25199007541E+03  0.25515042052E+03  0.00000000000E+00 0. -1.
        -14    1    6    6    0    0 -0.47906854291E+02  0.43611667912E+02  0.77488279650E+03  0.77758626054E+03  0.00000000000E+00 0.  1.
         -5    1    5    5    0  501  0.16164870054E+02 -0.26435988114E+02  0.49253786854E+02  0.58379705471E+02  0.47000000000E+01 0.  1.
<mgrwt>
<rscale>  2 0.18052194E+03</rscale>
<asrwt>0</asrwt>
<pdfrwt beam="1">  1        1 0.26273654E+00 0.18052194E+03</pdfrwt>
<pdfrwt beam="2">  1       -1 0.31674526E-02 0.18052194E+03</pdfrwt>
<totfact> 0.18221275E+03</totfact>
</mgrwt>
</event>
<event>
12    1  0.1093377E-001  0.1931257E+03  0.7546771E-02  0.1155672E+00
          2   -1    0    0  503    0  0.00000000000E+00  0.00000000000E+00  0.76248163837E+03  0.76248163837E+03  0.00000000000E+00 0.  1.
         -2   -1    0    0    0  501 -0.00000000000E+00 -0.00000000000E+00 -0.49115306226E+02  0.49115306226E+02  0.00000000000E+00 0. -1.
          6    2    1    2  503    0 -0.67427017793E+02 -0.54026461403E+02  0.38373526121E+03  0.42989670036E+03  0.17347380503E+03 0.  0.
         24    2    3    3    0    0 -0.91167676580E+02 -0.22346384473E+02  0.36598009519E+03  0.38625518258E+03  0.80254157803E+02 0.  0.
         -6    2    1    2    0  501  0.67427017793E+02  0.54026461403E+02  0.32963107093E+03  0.38170024423E+03  0.17196852113E+03 0.  0.
        -24    2    5    5    0    0  0.56726242897E+01  0.87549267118E+02  0.24018436455E+03  0.26785742757E+03  0.79762269872E+02 0.  0.
          2    1    4    4  502    0 -0.10249437975E+03 -0.50677560492E+01  0.29564360756E+03  0.31294715644E+03  0.00000000000E+00 0. -1.
         -1    1    4    4    0  502  0.11326703172E+02 -0.17278628424E+02  0.70336487626E+02  0.73308026140E+02  0.00000000000E+00 0.  1.
          5    1    3    3  503    0  0.23740658786E+02 -0.31680076930E+02  0.17755166015E+02  0.43641517780E+02  0.47000000000E+01 0. -1.
         11    1    6    6    0    0 -0.72502047806E+01  0.17133362747E+02  0.14967157787E+01  0.18664344256E+02  0.00000000000E+00 0. -1.
        -12    1    6    6    0    0  0.12922829070E+02  0.70415904371E+02  0.23868764877E+03  0.24919308332E+03  0.00000000000E+00 0.  1.
         -5    1    5    5    0  501  0.61754393504E+02 -0.33522805715E+02  0.89446706389E+02  0.11384281665E+03  0.47000000000E+01 0.  1.
<mgrwt>
<rscale>  2 0.19312566E+03</rscale>
<asrwt>0</asrwt>
<pdfrwt beam="1">  1        2 0.11730486E+00 0.19312566E+03</pdfrwt>
<pdfrwt beam="2">  1       -2 0.75562015E-02 0.19312566E+03</pdfrwt>
<totfact> 0.38511414E+03</totfact>
</mgrwt>
</event>
<event>
12    1  0.1093377E-001  0.2551023E+03  0.7546771E-02  0.1110122E+00
          1   -1    0    0  503    0  0.00000000000E+00  0.00000000000E+00  0.39974500601E+02  0.39974500601E+02  0.00000000000E+00 0.  1.
         -1   -1    0    0    0  501 -0.00000000000E+00 -0.00000000000E+00 -0.18013252264E+04  0.18013252264E+04  0.00000000000E+00 0. -1.
          6    2    1    2  503    0  0.17464036020E+03 -0.66774147594E+02 -0.11671329678E+04  0.11947451438E+04  0.17394985476E+03 0.  0.
         24    2    3    3    0    0  0.84910328574E+02 -0.10459110270E+03 -0.74572094677E+03  0.76220406816E+03  0.81891687026E+02 0.  0.
         -6    2    1    2    0  501 -0.17464036020E+03  0.66774147594E+02 -0.59421775799E+03  0.64655458316E+03  0.17314746000E+03 0.  0.
        -24    2    5    5    0    0 -0.49160467456E+02  0.26821224106E+02 -0.40190618112E+03  0.41342956911E+03  0.79115741614E+02 0.  0.
          4    1    4    4  502    0  0.68834929067E+02 -0.87498017687E+02 -0.71464355740E+03  0.72326313655E+03  0.00000000000E+00 0. -1.
         -3    1    4    4    0  502  0.16075399506E+02 -0.17093085014E+02 -0.31077389375E+02  0.38940931614E+02  0.00000000000E+00 0.  1.
          5    1    3    3  503    0  0.89730031629E+02  0.37816955108E+02 -0.42141202103E+03  0.43254107567E+03  0.47000000000E+01 0. -1.
         13    1    6    6    0    0  0.20269313458E+02  0.27885599589E+01 -0.13716149246E+03  0.13867911216E+03  0.00000000000E+00 0. -1.
        -14    1    6    6    0    0 -0.69429780915E+02  0.24032664147E+02 -0.26474468866E+03  0.27475045696E+03  0.00000000000E+00 0.  1.
         -5    1    5    5    0  501 -0.12547989275E+03  0.39952923488E+02 -0.19231157687E+03  0.23312501405E+03  0.47000000000E+01 0.  1.
<mgrwt>
<rscale>  2 0.25510231E+03</rscale>
<asrwt>0</asrwt>
<pdfrwt beam="1">  1        1 0.61499253E-02 0.25510231E+03</pdfrwt>
<pdfrwt beam="2">  1       -1 0.27712686E+00 0.25510231E+03</pdfrwt>
<totfact> 0.67190203E+01</totfact>
</mgrwt>
</event>
<event>
12    1  0.1093377E-001  0.2346418E+03  0.7546771E-02  0.1123415E+00
         -2   -1    0    0    0  501 -0.00000000000E+00  0.00000000000E+00  0.27098958235E+02  0.27098958235E+02  0.00000000000E+00 0. -1.
          2   -1    0    0  503    0  0.00000000000E+00 -0.00000000000E+00 -0.22050845261E+04  0.22050845261E+04  0.00000000000E+00 0.  1.
          6    2    1    2  503    0  0.58004476073E+02 -0.14721675310E+03 -0.77186673942E+03  0.80645948713E+03  0.17193414238E+03 0.  0.
         24    2    3    3    0    0 -0.33829461930E+02 -0.76312875143E+02 -0.44122167957E+03  0.45601822574E+03  0.79422693717E+02 0.  0.
         -6    2    1    2    0  501 -0.58004476073E+02  0.14721675310E+03 -0.14061188284E+04  0.14257239972E+04  0.17458941797E+03 0.  0.
        -24    2    5    5    0    0 -0.34491371205E+02  0.17586106516E+03 -0.11167530259E+04  0.11339569319E+04  0.81266436061E+02 0.  0.
          2    1    4    4  502    0 -0.20003335238E+02  0.36721697875E+01 -0.26378249917E+02  0.33308111929E+02  0.00000000000E+00 0. -1.
         -1    1    4    4    0  502 -0.13826126693E+02 -0.79985044930E+02 -0.41484342965E+03  0.42271011381E+03  0.00000000000E+00 0.  1.
          5    1    3    3  503    0  0.91833938003E+02 -0.70903877958E+02 -0.33064505985E+03  0.35044126139E+03  0.47000000000E+01 0. -1.
         13    1    6    6    0    0 -0.27224253983E+02  0.10919382059E+03 -0.90155947863E+03  0.90855596634E+03  0.00000000000E+00 0. -1.
        -14    1    6    6    0    0 -0.72671172220E+01  0.66667244568E+02 -0.21519354723E+03  0.22540096552E+03  0.00000000000E+00 0.  1.
         -5    1    5    5    0  501 -0.23513104868E+02 -0.28644312055E+02 -0.28936580256E+03  0.29176706531E+03  0.47000000000E+01 0.  1.
<mgrwt>
<rscale>  2 0.23464180E+03</rscale>
<asrwt>0</asrwt>
<pdfrwt beam="2">  1        2 0.33924394E+00 0.23464180E+03</pdfrwt>
<pdfrwt beam="1">  1       -2 0.41690684E-02 0.23464180E+03</pdfrwt>
<totfact> 0.14990932E+03</totfact>
</mgrwt>
</event>
<event>
12    1  0.1093377E-001  0.1856622E+03  0.7546771E-02  0.1162433E+00
         -3   -1    0    0    0  501 -0.00000000000E+00  0.00000000000E+00  0.11959400757E+03  0.11959400757E+03  0.00000000000E+00 0.  1.
          3   -1    0    0  503    0  0.00000000000E+00 -0.00000000000E+00 -0.29473820210E+03  0.29473820210E+03  0.00000000000E+00 0. -1.
          6    2    1    2  503    0 -0.63961892841E+02 -0.16049657876E+02 -0.56281692209E+02  0.19290914821E+03  0.17232990261E+03 0.  0.
         24    2    3    3    0    0 -0.92675528476E+02  0.55474941848E+01 -0.82746648668E+02  0.14803829165E+03  0.80304418670E+02 0.  0.
         -6    2    1    2    0  501  0.63961892841E+02  0.16049657876E+02 -0.11886250232E+03  0.22142306145E+03  0.17478890820E+03 0.  0.
        -24    2    5    5    0    0  0.98243874745E+02  0.24692832490E+02 -0.41560486676E+02  0.13628992822E+03  0.81154639921E+02 0.  0.
          4    1    4    4  502    0 -0.56267718020E+02  0.30294081286E+02 -0.82064211538E+02  0.10401116415E+03  0.00000000000E+00 0. -1.
         -3    1    4    4    0  502 -0.36407810457E+02 -0.24746587101E+02 -0.68243713036E+00  0.44027127499E+02  0.00000000000E+00 0.  1.
          5    1    3    3  503    0  0.28713635635E+02 -0.21597152061E+02  0.26464956459E+02  0.44870856565E+02  0.47000000000E+01 0. -1.
         11    1    6    6    0    0  0.40731749691E+02 -0.21635749503E+02 -0.42085574210E+02  0.62436981397E+02  0.00000000000E+00 0. -1.
        -12    1    6    6    0    0  0.57512125055E+02  0.46328581993E+02  0.52508753376E+00  0.73852946825E+02  0.00000000000E+00 0.  1.
         -5    1    5    5    0  501 -0.34281981904E+02 -0.86431746137E+01 -0.77302015644E+02  0.85133133229E+02  0.47000000000E+01 0.  1.
<mgrwt>
<rscale>  2 0.18566220E+03</rscale>
<asrwt>0</asrwt>
<pdfrwt beam="2">  1        3 0.45344338E-01 0.18566220E+03</pdfrwt>
<pdfrwt beam="1">  1       -3 0.18399078E-01 0.18566220E+03</pdfrwt>
<totfact> 0.30592211E+02</totfact>
</mgrwt>
</event>
<event>
12    1  0.1093377E-001  0.1790714E+03  0.7546771E-02  0.1168705E+00
          1   -1    0    0  503    0  0.00000000000E+00  0.00000000000E+00  0.25942609778E+02  0.25942609778E+02  0.00000000000E+00 0. -1.
         -1   -1    0    0    0  501 -0.00000000000E+00 -0.00000000000E+00 -0.12893810549E+04  0.12893810549E+04  0.00000000000E+00 0.  1.
          6    2    1    2  503    0 -0.11733722074E+02 -0.50334344251E+02 -0.76890999388E+03  0.78972289746E+03  0.17253535764E+03 0.  0.
         24    2    3    3    0    0 -0.52054201839E+02  0.44799524078E+01 -0.59816915196E+03  0.60586188118E+03  0.80824345398E+02 0.  0.
         -6    2    1    2    0  501  0.11733722074E+02  0.50334344251E+02 -0.49452845128E+03  0.52560076726E+03  0.17037180216E+03 0.  0.
        -24    2    5    5    0    0 -0.23387403961E+02  0.85476727276E+02 -0.25230566928E+03  0.27829034149E+03  0.77033251528E+02 0.  0.
          4    1    4    4  502    0 -0.30865486747E+02  0.42271072254E+02 -0.35983552354E+03  0.36362222955E+03  0.00000000000E+00 0. -1.
         -3    1    4    4    0  502 -0.21188715092E+02 -0.37791119846E+02 -0.23833362842E+03  0.24223965163E+03  0.00000000000E+00 0.  1.
          5    1    3    3  503    0  0.40320479765E+02 -0.54814296659E+02 -0.17074084192E+03  0.18386101628E+03  0.47000000000E+01 0. -1.
         13    1    6    6    0    0  0.14683271475E+02  0.34234298039E+01 -0.65908390909E+01  0.16454710351E+02  0.00000000000E+00 0. -1.
        -14    1    6    6    0    0 -0.38070675436E+02  0.82053297472E+02 -0.24571483019E+03  0.26183563113E+03  0.00000000000E+00 0.  1.
         -5    1    5    5    0  501  0.35121126035E+02 -0.35142383025E+02 -0.24222278199E+03  0.24731042577E+03  0.47000000000E+01 0.  1.
<mgrwt>
<rscale>  2 0.17907144E+03</rscale>
<asrwt>0</asrwt>
<pdfrwt beam="1">  1        1 0.39911701E-02 0.17907144E+03</pdfrwt>
<pdfrwt beam="2">  1       -1 0.19836635E+00 0.17907144E+03</pdfrwt>
<totfact> 0.39044615E+02</totfact>
</mgrwt>
</event>
<event>
12    1  0.1093377E-001  0.1888436E+03  0.7546771E-02  0.1159508E+00
         -1   -1    0    0    0  501 -0.00000000000E+00  0.00000000000E+00  0.38067158264E+03  0.38067158264E+03  0.00000000000E+00 0. -1.
          1   -1    0    0  503    0  0.00000000000E+00 -0.00000000000E+00 -0.98753032928E+02  0.98753032928E+02  0.00000000000E+00 0.  1.
          6    2    1    2  503    0  0.44776856427E+02 -0.60673431537E+02  0.86504506370E+02  0.20754366572E+03  0.17293094400E+03 0.  0.
         24    2    3    3    0    0  0.61345869129E+02 -0.98462300001E+01  0.10499755821E+03  0.15078082960E+03  0.88600832048E+02 0.  0.
         -6    2    1    2    0  501 -0.44776856427E+02  0.60673431537E+02  0.19541404334E+03  0.27188094985E+03  0.17333888886E+03 0.  0.
        -24    2    5    5    0    0  0.21669995898E+01  0.85814630457E+02  0.71375133652E+02  0.13681227614E+03  0.79084401187E+02 0.  0.
          4    1    4    4  502    0  0.88031146628E+01  0.42228618286E+01  0.94969925980E+02  0.95470488793E+02  0.00000000000E+00 0. -1.
         -3    1    4    4    0  502  0.52542754466E+02 -0.14069091829E+02  0.10027632230E+02  0.55310340804E+02  0.00000000000E+00 0.  1.
          5    1    3    3  503    0 -0.16569012701E+02 -0.50827201537E+02 -0.18493051840E+02  0.56762836120E+02  0.47000000000E+01 0. -1.
         13    1    6    6    0    0  0.22934983407E+02  0.78361822599E+02  0.78858323033E+02  0.11351309976E+03  0.00000000000E+00 0. -1.
        -14    1    6    6    0    0 -0.20767983817E+02  0.74528078584E+01 -0.74831893814E+01  0.23299176383E+02  0.00000000000E+00 0.  1.
         -5    1    5    5    0  501 -0.46943856017E+02 -0.25141198920E+02  0.12403890969E+03  0.13506867371E+03  0.47000000000E+01 0.  1.
<mgrwt>
<rscale>  2 0.18884359E+03</rscale>
<asrwt>0</asrwt>
<pdfrwt beam="2">  1        1 0.15192775E-01 0.18884359E+03</pdfrwt>
<pdfrwt beam="1">  1       -1 0.58564858E-01 0.18884359E+03</pdfrwt>
<totfact> 0.11079838E+03</totfact>
</mgrwt>
</event>
<event>
12    1  0.1093377E-001  0.1809958E+03  0.7546771E-02  0.1166843E+00
         -2   -1    0    0    0  501 -0.00000000000E+00  0.00000000000E+00  0.23430264459E+03  0.23430264459E+03  0.00000000000E+00 0.  1.
          2   -1    0    0  503    0  0.00000000000E+00 -0.00000000000E+00 -0.31263496089E+03  0.31263496089E+03  0.00000000000E+00 0. -1.
          6    2    1    2  503    0  0.44795787209E+02  0.23228334165E+02  0.16396606102E+03  0.24558310152E+03  0.17572698291E+03 0.  0.
         24    2    3    3    0    0  0.83585827115E+02 -0.22253769896E+02  0.13707028508E+03  0.17986581498E+03  0.77984790689E+02 0.  0.
         -6    2    1    2    0  501 -0.44795787209E+02 -0.23228334165E+02 -0.24229837732E+03  0.30135450396E+03  0.17192968139E+03 0.  0.
        -24    2    5    5    0    0 -0.93759582764E+02 -0.11587543476E+02 -0.13941896513E+03  0.18672804655E+03  0.80651007492E+02 0.  0.
          2    1    4    4  502    0  0.14211861129E+02 -0.41645662357E+02  0.59552045571E+02  0.74045825822E+02  0.00000000000E+00 0. -1.
         -1    1    4    4    0  502  0.69373965986E+02  0.19391892460E+02  0.77518239508E+02  0.10581998916E+03  0.00000000000E+00 0.  1.
          5    1    3    3  503    0 -0.38790039906E+02  0.45482104061E+02  0.26895775945E+02  0.65717286534E+02  0.47000000000E+01 0. -1.
         13    1    6    6    0    0 -0.14429154262E+02 -0.37393118881E+02 -0.36159513040E+02  0.53981072754E+02  0.00000000000E+00 0. -1.
        -14    1    6    6    0    0 -0.79330428502E+02  0.25805575404E+02 -0.10325945209E+03  0.13274697380E+03  0.00000000000E+00 0.  1.
         -5    1    5    5    0  501  0.48963795555E+02 -0.11640790689E+02 -0.10287941220E+03  0.11462645741E+03  0.47000000000E+01 0.  1.
<mgrwt>
<rscale>  2 0.18099575E+03</rscale>
<asrwt>0</asrwt>
<pdfrwt beam="2">  1        2 0.48097686E-01 0.18099575E+03</pdfrwt>
<pdfrwt beam="1">  1       -2 0.36046561E-01 0.18099575E+03</pdfrwt>
<totfact> 0.75902411E+02</totfact>
</mgrwt>
</event>
<event>
12    1  0.1093377E-001  0.2571264E+03  0.7546771E-02  0.1108882E+00
          2   -1    0    0  503    0  0.00000000000E+00  0.00000000000E+00  0.12827576027E+04  0.12827576027E+04  0.00000000000E+00 0. -1.
         -2   -1    0    0    0  501 -0.00000000000E+00 -0.00000000000E+00 -0.86317053149E+02  0.86317053149E+02  0.00000000000E+00 0.  1.
          6    2    1    2  503    0 -0.94922046824E+02  0.16483321781E+03  0.16361283661E+03  0.30470349367E+03  0.17290134206E+03 0.  0.
         24    2    3    3    0    0 -0.10323022709E+03  0.18209694997E+03  0.11408681585E+03  0.25139327852E+03  0.79793483220E+02 0.  0.
         -6    2    1    2    0  501  0.94922046824E+02 -0.16483321781E+03  0.10328277129E+04  0.10643711622E+04  0.17312625908E+03 0.  0.
        -24    2    5    5    0    0  0.12680876819E+03 -0.16625411655E+03  0.92183262062E+03  0.94878231119E+03  0.81802192057E+02 0.  0.
          2    1    4    4  502    0 -0.95627541493E+02  0.18018713894E+03  0.12402576312E+03  0.23873504487E+03  0.00000000000E+00 0. -1.
         -1    1    4    4    0  502 -0.76026855935E+01  0.19098110295E+01 -0.99389472713E+01  0.12658233655E+02  0.00000000000E+00 0.  1.
          5    1    3    3  503    0  0.83081802624E+01 -0.17263732155E+02  0.49526020758E+02  0.53310215150E+02  0.47000000000E+01 0. -1.
         13    1    6    6    0    0  0.10100197382E+03 -0.15975191555E+03  0.68966468731E+03  0.71509401771E+03  0.00000000000E+00 0. -1.
        -14    1    6    6    0    0  0.25806794369E+02 -0.65022010059E+01  0.23216793331E+03  0.23368829348E+03  0.00000000000E+00 0.  1.
         -5    1    5    5    0  501 -0.31886721369E+02  0.14208987428E+01  0.11099509233E+03  0.11558885100E+03  0.47000000000E+01 0.  1.
<mgrwt>
<rscale>  2 0.25712635E+03</rscale>
<asrwt>0</asrwt>
<pdfrwt beam="1">  1        2 0.19734731E+00 0.25712635E+03</pdfrwt>
<pdfrwt beam="2">  1       -2 0.13279548E-01 0.25712635E+03</pdfrwt>
<totfact> 0.75453900E+02</totfact>
</mgrwt>
</event>
<event>
12    1  0.1093377E-001  0.1784228E+03  0.7546771E-02  0.1169338E+00
          1   -1    0    0  503    0  0.00000000000E+00  0.00000000000E+00  0.58801305601E+03  0.58801305601E+03  0.00000000000E+00 0. -1.
         -1   -1    0    0    0  501 -0.00000000000E+00 -0.00000000000E+00 -0.59219833847E+02  0.59219833847E+02  0.00000000000E+00 0.  1.
          6    2    1    2  503    0  0.45775117450E+02  0.35831017578E+02  0.16512317391E+03  0.24059922150E+03  0.16505483824E+03 0.  0.
         24    2    3    3    0    0 -0.24727793394E+02 -0.16226370849E+02  0.96673182133E+02  0.12929727407E+03  0.80605967904E+02 0.  0.
         -6    2    1    2    0  501 -0.45775117450E+02 -0.35831017578E+02  0.36367004825E+03  0.40663366835E+03  0.17238275159E+03 0.  0.
        -24    2    5    5    0    0 -0.84025719857E+02 -0.31931947379E+02  0.34167103334E+03  0.36208753508E+03  0.79298910281E+02 0.  0.
          2    1    4    4  502    0 -0.11382620499E+02  0.12565720318E+02  0.96072500729E+02  0.97557094938E+02  0.00000000000E+00 0. -1.
         -1    1    4    4    0  502 -0.13345172895E+02 -0.28792091167E+02  0.60068140479E+00  0.31740179135E+02  0.00000000000E+00 0.  1.
          5    1    3    3  503    0  0.70502910844E+02  0.52057388428E+02  0.68449991778E+02  0.11130194743E+03  0.47000000000E+01 0. -1.
         11    1    6    6    0    0  0.86782713488E+01  0.79689614563E+01  0.10173118491E+02  0.15566280228E+02  0.00000000000E+00 0. -1.
        -12    1    6    6    0    0 -0.92703991205E+02 -0.39900908836E+02  0.33149791485E+03  0.34652125485E+03  0.00000000000E+00 0.  1.
         -5    1    5    5    0  501  0.38250602406E+02 -0.38990701990E+01  0.21999014905E+02  0.44546133274E+02  0.47000000000E+01 0.  1.
<mgrwt>
<rscale>  2 0.17842276E+03</rscale>
<asrwt>0</asrwt>
<pdfrwt beam="1">  1        1 0.90463543E-01 0.17842276E+03</pdfrwt>
<pdfrwt beam="2">  1       -1 0.91107440E-02 0.17842276E+03</pdfrwt>
<totfact> 0.25168787E+03</totfact>
</mgrwt>
</event>
<event>
12    1  0.1093377E-001  0.2192709E+03  0.7546771E-02  0.1134428E+00
         -3   -1    0    0    0  501 -0.00000000000E+00  0.00000000000E+00  0.31861824729E+02  0.31861824729E+02  0.00000000000E+00 0.  1.
          3   -1    0    0  503    0  0.00000000000E+00 -0.00000000000E+00 -0.21229981880E+04  0.21229981880E+04  0.00000000000E+00 0. -1.
          6    2    1    2  503    0  0.10410721152E+03  0.84554354826E+02 -0.46656121148E+03  0.51557040544E+03  0.17362525307E+03 0.  0.
         24    2    3    3    0    0  0.64778748780E+02  0.51732039025E+02 -0.14102712655E+03  0.18599710124E+03  0.88508649806E+02 0.  0.
         -6    2    1    2    0  501 -0.10410721152E+03 -0.84554354826E+02 -0.16245751518E+04  0.16392896073E+04  0.17331544164E+03 0.  0.
        -24    2    5    5    0    0 -0.54478854979E+02 -0.11220615119E+03 -0.86782432962E+03  0.88039469197E+03  0.80109803264E+02 0.  0.
          2    1    4    4  502    0 -0.11533765507E+02 -0.69861884567E+01  0.19449210241E+01  0.13624143779E+02  0.00000000000E+00 0. -1.
         -1    1    4    4    0  502  0.76312514287E+02  0.58718227482E+02 -0.14297204757E+03  0.17237295746E+03  0.00000000000E+00 0.  1.
          5    1    3    3  503    0  0.39328462744E+02  0.32822315801E+02 -0.32553408493E+03  0.32957330421E+03  0.47000000000E+01 0. -1.
         11    1    6    6    0    0 -0.21336120606E+02 -0.27593189493E+02 -0.51071520165E+03  0.51190490459E+03  0.00000000000E+00 0. -1.
        -12    1    6    6    0    0 -0.33142734372E+02 -0.84612961696E+02 -0.35710912797E+03  0.36848978739E+03  0.00000000000E+00 0.  1.
         -5    1    5    5    0  501 -0.49628356545E+02  0.27651796364E+02 -0.75675082218E+03  0.75889491531E+03  0.47000000000E+01 0.  1.
<mgrwt>
<rscale>  2 0.21927085E+03</rscale>
<asrwt>0</asrwt>
<pdfrwt beam="2">  1        3 0.32661511E+00 0.21927085E+03</pdfrwt>
<pdfrwt beam="1">  1       -3 0.49018191E-02 0.21927085E+03</pdfrwt>
<totfact> 0.18910019E+01</totfact>
</mgrwt>
</event>
<event>
12    1  0.1093377E-001  0.1961060E+03  0.7546771E-02  0.1153067E+00
         -2   -1    0    0    0  501 -0.00000000000E+00  0.00000000000E+00  0.86934575881E+02  0.86934575881E+02  0.00000000000E+00 0.  1.
          2   -1    0    0  503    0  0.00000000000E+00 -0.00000000000E+00 -0.47352400340E+03  0.47352400340E+03  0.00000000000E+00 0. -1.
          6    2    1    2  503    0 -0.64924621392E+02 -0.63884478023E+02 -0.26628608054E+03  0.33144220228E+03  0.17506919708E+03 0.  0.
         24    2    3    3    0    0  0.12121073857E+02 -0.10517080610E+02 -0.20282408981E+03  0.21815657861E+03  0.78721991626E+02 0.  0.
         -6    2    1    2    0  501  0.64924621392E+02  0.63884478023E+02 -0.12030334697E+03  0.22901637700E+03  0.17227644252E+03 0.  0.
        -24    2    5    5    0    0 -0.24122442732E+01  0.51849093880E+02 -0.63264239761E+01  0.96005351423E+02  0.80516187211E+02 0.  0.
          4    1    4    4  502    0  0.22193521207E+02  0.19348924797E+02 -0.17044658398E+03  0.17297101279E+03  0.00000000000E+00 0. -1.
         -3    1    4    4    0  502 -0.10072447350E+02 -0.29866005406E+02 -0.32377505833E+02  0.45185565820E+02  0.00000000000E+00 0.  1.
          5    1    3    3  503    0 -0.77045695249E+02 -0.53367397413E+02 -0.63461990732E+02  0.11328562367E+03  0.47000000000E+01 0. -1.
         11    1    6    6    0    0  0.12536984040E+02  0.17908068986E+02 -0.40211359132E+02  0.45769294367E+02  0.00000000000E+00 0. -1.
        -12    1    6    6    0    0 -0.14949228313E+02  0.33941024894E+02  0.33884935156E+02  0.50236057056E+02  0.00000000000E+00 0.  1.
         -5    1    5    5    0  501  0.67336865666E+02  0.12035384143E+02 -0.11397692300E+03  0.13301102558E+03  0.47000000000E+01 0.  1.
<mgrwt>
<rscale>  2 0.19610602E+03</rscale>
<asrwt>0</asrwt>
<pdfrwt beam="2">  1        2 0.72849847E-01 0.19610602E+03</pdfrwt>
<pdfrwt beam="1">  1       -2 0.13374550E-01 0.19610602E+03</pdfrwt>
<totfact> 0.27061292E+03</totfact>
</mgrwt>
</event>
<event>
12    1  0.1093377E-001  0.1980939E+03  0.7546771E-02  0.1151357E+00
         -1   -1    0    0    0  501 -0.00000000000E+00  0.00000000000E+00  0.30212585660E+02  0.30212585660E+02  0.00000000000E+00 0.  1.
          1   -1    0    0  503    0  0.00000000000E+00 -0.00000000000E+00 -0.14134340897E+04  0.14134340897E+04  0.00000000000E+00 0. -1.
          6    2    1    2  503    0 -0.84982866909E+02 -0.35688502725E+02 -0.50665974229E+03  0.54627371299E+03  0.18225015269E+03 0.  0.
         24    2    3    3    0    0 -0.35318968482E+02  0.53501777436E+02 -0.23289426457E+03  0.25405626712E+03  0.78708186801E+02 0.  0.
         -6    2    1    2    0  501  0.84982866909E+02  0.35688502725E+02 -0.87656176180E+03  0.89737296242E+03  0.16858812097E+03 0.  0.
        -24    2    5    5    0    0  0.62118308211E+02  0.74510374286E+02 -0.78733050394E+03  0.79730182204E+03  0.79939933142E+02 0.  0.
          2    1    4    4  502    0 -0.46397275159E+02  0.68580881125E+02 -0.18969432918E+03  0.20697821847E+03  0.00000000000E+00 0. -1.
         -1    1    4    4    0  502  0.11078306677E+02 -0.15079103689E+02 -0.43199935389E+02  0.47078048648E+02  0.00000000000E+00 0.  1.
          5    1    3    3  503    0 -0.49663898427E+02 -0.89190280161E+02 -0.27376547772E+03  0.29221744587E+03  0.47000000000E+01 0. -1.
         13    1    6    6    0    0  0.67011705421E+02  0.56367839026E+02 -0.75376565696E+03  0.75883500681E+03  0.00000000000E+00 0. -1.
        -14    1    6    6    0    0 -0.48933972103E+01  0.18142535260E+02 -0.33564846977E+02  0.38466815238E+02  0.00000000000E+00 0.  1.
         -5    1    5    5    0  501  0.22864558699E+02 -0.38821871561E+02 -0.89231257861E+02  0.10007114037E+03  0.47000000000E+01 0.  1.
<mgrwt>
<rscale>  2 0.19809386E+03</rscale>
<asrwt>0</asrwt>
<pdfrwt beam="2">  1        1 0.21745144E+00 0.19809386E+03</pdfrwt>
<pdfrwt beam="1">  1       -1 0.46480892E-02 0.19809386E+03</pdfrwt>
<totfact> 0.16080016E+03</totfact>
</mgrwt>
</event>
<event>
12    1  0.1093377E-001  0.2069865E+03  0.7546771E-02  0.1143975E+00
         -3   -1    0    0    0  501 -0.00000000000E+00  0.00000000000E+00  0.12676916586E+03  0.12676916586E+03  0.00000000000E+00 0. -1.
          3   -1    0    0  503    0  0.00000000000E+00 -0.00000000000E+00 -0.34019225344E+03  0.34019225344E+03  0.00000000000E+00 0.  1.
          6    2    1    2  503    0 -0.54631597726E+02  0.97642352178E+02 -0.12628751709E+03  0.24373169695E+03  0.17589190633E+03 0.  0.
         24    2    3    3    0    0 -0.97636249843E+02  0.46010889387E+02 -0.11393419050E+03  0.17524883244E+03  0.77982781950E+02 0.  0.
         -6    2    1    2    0  501  0.54631597726E+02 -0.97642352178E+02 -0.87135570491E+02  0.22322972235E+03  0.17239565217E+03 0.  0.
        -24    2    5    5    0    0 -0.35921648349E+02 -0.64269508130E+02 -0.55742532941E+02  0.12163616989E+03  0.79165607132E+02 0.  0.
          4    1    4    4  502    0 -0.44979385614E+02 -0.19476062514E+02 -0.45465784814E+02  0.66855065104E+02  0.00000000000E+00 0. -1.
         -3    1    4    4    0  502 -0.52656864228E+02  0.65486951902E+02 -0.68468405681E+02  0.10839376733E+03  0.00000000000E+00 0.  1.
          5    1    3    3  503    0  0.43004652116E+02  0.51631462790E+02 -0.12353326599E+02  0.68482864511E+02  0.47000000000E+01 0. -1.
         11    1    6    6    0    0  0.11544855420E+02  0.10916635143E+02  0.13862794939E+01  0.15949243880E+02  0.00000000000E+00 0. -1.
        -12    1    6    6    0    0 -0.47466503769E+02 -0.75186143273E+02 -0.57128812435E+02  0.10568692601E+03  0.00000000000E+00 0.  1.
         -5    1    5    5    0  501  0.90553246075E+02 -0.33372844048E+02 -0.31393037549E+02  0.10159355246E+03  0.47000000000E+01 0.  1.
<mgrwt>
<rscale>  2 0.20698654E+03</rscale>
<asrwt>0</asrwt>
<pdfrwt beam="2">  1        3 0.52337269E-01 0.20698654E+03</pdfrwt>
<pdfrwt beam="1">  1       -3 0.19502949E-01 0.20698654E+03</pdfrwt>
<totfact> 0.20961092E+02</totfact>
</mgrwt>
</event>
<event>
12    1  0.1093377E-001  0.2834859E+03  0.7546771E-02  0.1093800E+00
         -2   -1    0    0    0  501 -0.00000000000E+00  0.00000000000E+00  0.96211767784E+02  0.96211767784E+02  0.00000000000E+00 0.  1.
          2   -1    0    0  503    0  0.00000000000E+00 -0.00000000000E+00 -0.95984284804E+03  0.95984284804E+03  0.00000000000E+00 0. -1.
          6    2    1    2  503    0  0.18719438113E+03 -0.12546711672E+03 -0.62146854847E+03  0.68289733399E+03  0.17129471189E+03 0.  0.
         24    2    3    3    0    0  0.11051314062E+03 -0.14878300026E+03 -0.45755768740E+03  0.50038020206E+03  0.81680927357E+02 0.  0.
         -6    2    1    2    0  501 -0.18719438113E+03  0.12546711672E+03 -0.24216253178E+03  0.37315728183E+03  0.17268448535E+03 0.  0.
        -24    2    5    5    0    0 -0.10649654324E+03  0.75596297984E+02 -0.23214941260E+03  0.27765025509E+03  0.78358154573E+02 0.  0.
          2    1    4    4  502    0  0.11779586491E+03 -0.11634785881E+03 -0.33933047469E+03  0.37756835287E+03  0.00000000000E+00 0. -1.
         -1    1    4    4    0  502 -0.72827242874E+01 -0.32435141452E+02 -0.11822721271E+03  0.12281184918E+03  0.00000000000E+00 0.  1.
          5    1    3    3  503    0  0.76681240511E+02  0.23315883542E+02 -0.16391086107E+03  0.18251713193E+03  0.47000000000E+01 0. -1.
         11    1    6    6    0    0 -0.69364647852E+02  0.87338381081E+02 -0.18957861750E+03  0.21995340278E+03  0.00000000000E+00 0. -1.
        -12    1    6    6    0    0 -0.37131895389E+02 -0.11742083097E+02 -0.42570795102E+02  0.57696852308E+02  0.00000000000E+00 0.  1.
         -5    1    5    5    0  501 -0.80697837893E+02  0.49870818733E+02 -0.10013119180E+02  0.95507026744E+02  0.47000000000E+01 0.  1.
<mgrwt>
<rscale>  2 0.28348595E+03</rscale>
<asrwt>0</asrwt>
<pdfrwt beam="2">  1        2 0.14766813E+00 0.28348595E+03</pdfrwt>
<pdfrwt beam="1">  1       -2 0.14801811E-01 0.28348595E+03</pdfrwt>
<totfact> 0.97499000E+02</totfact>
</mgrwt>
</event>
<event>
12    1  0.1093377E-001  0.1993241E+03  0.7546771E-02  0.1150310E+00
          2   -1    0    0  503    0  0.00000000000E+00  0.00000000000E+00  0.90623448886E+03  0.90623448886E+03  0.00000000000E+00 0. -1.
         -2   -1    0    0    0  501 -0.00000000000E+00 -0.00000000000E+00 -0.45519595046E+02  0.45519595046E+02  0.00000000000E+00 0.  1.
          6    2    1    2  503    0  0.86011782113E+02  0.47889533887E+02  0.52191093147E+03  0.55870663310E+03  0.17340890221E+03 0.  0.
         24    2    3    3    0    0  0.10765512528E+03  0.81558086785E+02  0.44094327172E+03  0.46826406744E+03  0.81233739706E+02 0.  0.
         -6    2    1    2    0  501 -0.86011782113E+02 -0.47889533887E+02  0.33880396235E+03  0.39304745081E+03  0.17322453511E+03 0.  0.
        -24    2    5    5    0    0  0.21626000367E+02 -0.30925995430E+02  0.12507228744E+03  0.15309542912E+03  0.79818746206E+02 0.  0.
          2    1    4    4  502    0  0.59568433837E+02  0.16218671300E+02  0.29401099659E+03  0.30042288482E+03  0.00000000000E+00 0. -1.
         -1    1    4    4    0  502  0.48086691439E+02  0.65339415484E+02  0.14693227512E+03  0.16784118262E+03  0.00000000000E+00 0.  1.
          5    1    3    3  503    0 -0.21643343162E+02 -0.33668552897E+02  0.80967659750E+02  0.90442565659E+02  0.47000000000E+01 0. -1.
         13    1    6    6    0    0  0.28210676826E+02  0.37561723641E+01  0.11182545128E+03  0.11539013247E+03  0.00000000000E+00 0. -1.
        -14    1    6    6    0    0 -0.65846764590E+01 -0.34682167794E+02  0.13246836161E+02  0.37705296647E+02  0.00000000000E+00 0.  1.
         -5    1    5    5    0  501 -0.10763778248E+03 -0.16963538458E+02  0.21373167491E+03  0.23995202169E+03  0.47000000000E+01 0.  1.
<mgrwt>
<rscale>  2 0.19932414E+03</rscale>
<asrwt>0</asrwt>
<pdfrwt beam="1">  1        2 0.13942068E+00 0.19932414E+03</pdfrwt>
<pdfrwt beam="2">  1       -2 0.70030153E-02 0.19932414E+03</pdfrwt>
<totfact> 0.34737016E+03</totfact>
</mgrwt>
</event>
<event>
12    1  0.1093377E-001  0.2199493E+03  0.7546771E-02  0.1133921E+00
         -2   -1    0    0    0  501 -0.00000000000E+00  0.00000000000E+00  0.91468126276E+02  0.91468126276E+02  0.00000000000E+00 0. -1.
          2   -1    0    0  503    0  0.00000000000E+00 -0.00000000000E+00 -0.53603821191E+03  0.53603821191E+03  0.00000000000E+00 0.  1.
          6    2    1    2  503    0  0.73686115337E+02 -0.11724647151E+03 -0.18380022779E+03  0.28476188821E+03  0.16772128836E+03 0.  0.
         24    2    3    3    0    0  0.30829329622E+02 -0.29978673329E+02 -0.15987815398E+03  0.18452851904E+03  0.81489764992E+02 0.  0.
         -6    2    1    2    0  501 -0.73686115337E+02  0.11724647151E+03 -0.26076985785E+03  0.34274444998E+03  0.17405878476E+03 0.  0.
        -24    2    5    5    0    0 -0.69277104994E+00  0.10922448830E+03 -0.10830722068E+03  0.17345379384E+03  0.80157942638E+02 0.  0.
          2    1    4    4  502    0 -0.20868933569E+02 -0.29243883656E+02 -0.38830573972E+02  0.52901139823E+02  0.00000000000E+00 0. -1.
         -1    1    4    4    0  502  0.51698263192E+02 -0.73478967308E+00 -0.12104758001E+03  0.13162737922E+03  0.00000000000E+00 0.  1.
          5    1    3    3  503    0  0.42856785715E+02 -0.87267798176E+02 -0.23922073803E+02  0.10023336917E+03  0.47000000000E+01 0. -1.
         13    1    6    6    0    0 -0.64407742226E+00 -0.32182879472E+01  0.98275749987E+01  0.10361150679E+02  0.00000000000E+00 0. -1.
        -14    1    6    6    0    0 -0.48693627678E-01  0.11244277625E+03 -0.11813479568E+03  0.16309264316E+03  0.00000000000E+00 0.  1.
         -5    1    5    5    0  501 -0.72993344287E+02  0.80219832047E+01 -0.15246263717E+03  0.16929065614E+03  0.47000000000E+01 0.  1.
<mgrwt>
<rscale>  2 0.21994932E+03</rscale>
<asrwt>0</asrwt>
<pdfrwt beam="2">  1        2 0.82467419E-01 0.21994932E+03</pdfrwt>
<pdfrwt beam="1">  1       -2 0.14072019E-01 0.21994932E+03</pdfrwt>
<totfact> 0.21748200E+03</totfact>
</mgrwt>
</event>
<event>
12    1  0.1093377E-001  0.2573075E+03  0.7546771E-02  0.1108772E+00
          4   -1    0    0  503    0  0.00000000000E+00  0.00000000000E+00  0.17976387654E+03  0.17976387654E+03  0.00000000000E+00 0. -1.
         -4   -1    0    0    0  501 -0.00000000000E+00 -0.00000000000E+00 -0.77523822175E+03  0.77523822175E+03  0.00000000000E+00 0.  1.
          6    2    1    2  503    0  0.16756063814E+03  0.91465712186E+02 -0.64379022573E+03  0.69337155346E+03  0.17278805644E+03 0.  0.
         24    2    3    3    0    0  0.52829244992E+00 -0.80276171367E+01 -0.20484078703E+03  0.21327007792E+03  0.58818843701E+02 0.  0.
         -6    2    1    2    0  501 -0.16756063814E+03 -0.91465712186E+02  0.48315880517E+02  0.26163054482E+03  0.17226019191E+03 0.  0.
        -24    2    5    5    0    0 -0.52756990287E+02 -0.22810538549E+02  0.76704977808E+02  0.12480422692E+03  0.79930099103E+02 0.  0.
          4    1    4    4  502    0 -0.12206711434E+02 -0.10454262964E+02 -0.12159458909E+02  0.20153110408E+02  0.00000000000E+00 0. -1.
         -3    1    4    4    0  502  0.12735003884E+02  0.24266458273E+01 -0.19268132812E+03  0.19311696751E+03  0.00000000000E+00 0.  1.
          5    1    3    3  503    0  0.16703234569E+03  0.99493329323E+02 -0.43894943870E+03  0.48010147554E+03  0.47000000000E+01 0. -1.
         13    1    6    6    0    0 -0.14348751558E+02  0.29914403211E+02  0.27579719983E+02  0.43143935206E+02  0.00000000000E+00 0. -1.
        -14    1    6    6    0    0 -0.38408238729E+02 -0.52724941760E+02  0.49125257825E+02  0.81660291710E+02  0.00000000000E+00 0.  1.
         -5    1    5    5    0  501 -0.11480364785E+03 -0.68655173637E+02 -0.28389097292E+02  0.13682631791E+03  0.47000000000E+01 0.  1.
<mgrwt>
<rscale>  2 0.25730745E+03</rscale>
<asrwt>0</asrwt>
<pdfrwt beam="1">  1        4 0.27655980E-01 0.25730745E+03</pdfrwt>
<pdfrwt beam="2">  1       -4 0.11926742E+00 0.25730745E+03</pdfrwt>
<totfact> 0.12646692E+01</totfact>
</mgrwt>
</event>
<event>
12    1  0.1093377E-001  0.1996070E+03  0.7546771E-02  0.1150071E+00
         -2   -1    0    0    0  501 -0.00000000000E+00  0.00000000000E+00  0.37203948057E+02  0.37203948057E+02  0.00000000000E+00 0. -1.
          2   -1    0    0  503    0  0.00000000000E+00 -0.00000000000E+00 -0.11209335926E+04  0.11209335926E+04  0.00000000000E+00 0.  1.
          6    2    1    2  503    0 -0.17199685231E+02 -0.96876229568E+02 -0.66514718994E+03  0.69456183602E+03  0.17411067385E+03 0.  0.
         24    2    3    3    0    0 -0.78666656254E+02 -0.63414138061E+02 -0.39096484088E+03  0.41154955602E+03  0.79433837541E+02 0.  0.
         -6    2    1    2    0  501  0.17199685231E+02  0.96876229568E+02 -0.41858245458E+03  0.46357570461E+03  0.17323489717E+03 0.  0.
        -24    2    5    5    0    0  0.14244884254E+02  0.70708748026E+02 -0.42273085411E+03  0.43650603232E+03  0.81446285720E+02 0.  0.
          2    1    4    4  502    0 -0.69554040660E+02 -0.60026029936E+02 -0.19731602191E+03  0.21765684309E+03  0.00000000000E+00 0. -1.
         -1    1    4    4    0  502 -0.91126155940E+01 -0.33881081248E+01 -0.19364881897E+03  0.19389271294E+03  0.00000000000E+00 0.  1.
          5    1    3    3  503    0  0.61466971023E+02 -0.33462091507E+02 -0.27418234906E+03  0.28301228000E+03  0.47000000000E+01 0. -1.
         11    1    6    6    0    0  0.44773797937E+02  0.62787241800E+02 -0.28982822549E+03  0.29991220549E+03  0.00000000000E+00 0. -1.
        -12    1    6    6    0    0 -0.30528913683E+02  0.79215062258E+01 -0.13290262862E+03  0.13659382683E+03  0.00000000000E+00 0.  1.
         -5    1    5    5    0  501  0.29548009770E+01  0.26167481542E+02  0.41483995364E+01  0.27069672288E+02  0.47000000000E+01 0.  1.
<mgrwt>
<rscale>  2 0.19960704E+03</rscale>
<asrwt>0</asrwt>
<pdfrwt beam="2">  1        2 0.17245131E+00 0.19960704E+03</pdfrwt>
<pdfrwt beam="1">  1       -2 0.57236846E-02 0.19960704E+03</pdfrwt>
<totfact> 0.35109883E+03</totfact>
</mgrwt>
</event>
<event>
12    1  0.1093377E-001  0.1892679E+03  0.7546771E-02  0.1159123E+00
         -2   -1    0    0    0  501 -0.00000000000E+00  0.00000000000E+00  0.19140030873E+02  0.19140030873E+02  0.00000000000E+00 0.  1.
          2   -1    0    0  503    0  0.00000000000E+00 -0.00000000000E+00 -0.23717051132E+04  0.23717051132E+04  0.00000000000E+00 0. -1.
          6    2    1    2  503    0 -0.34946280340E+02  0.69386475699E+02 -0.17251195127E+04  0.17354687172E+04  0.17256479899E+03 0.  0.
         24    2    3    3    0    0  0.27250984420E+02  0.65395568192E+02 -0.14182957124E+04  0.14223435641E+04  0.80494037355E+02 0.  0.
         -6    2    1    2    0  501  0.34946280340E+02 -0.69386475699E+02 -0.62744556959E+03  0.65537642681E+03  0.17261110191E+03 0.  0.
        -24    2    5    5    0    0 -0.29645821777E+02 -0.54045825835E+02 -0.51473644398E+03  0.52448367609E+03  0.79559372110E+02 0.  0.
          2    1    4    4  502    0  0.35917841856E+02  0.81187016464E+02 -0.11268434483E+04  0.11303351627E+04  0.00000000000E+00 0. -1.
         -1    1    4    4    0  502 -0.86668574363E+01 -0.15791448272E+02 -0.29145226406E+03  0.29200840139E+03  0.00000000000E+00 0.  1.
          5    1    3    3  503    0 -0.62197264760E+02  0.39909075075E+01 -0.30682380036E+03  0.31312515318E+03  0.47000000000E+01 0. -1.
         13    1    6    6    0    0 -0.98674591189E+01 -0.68845070229E+02 -0.44711052500E+03  0.45248738326E+03  0.00000000000E+00 0. -1.
        -14    1    6    6    0    0 -0.19778362658E+02  0.14799244394E+02 -0.67625918982E+02  0.71996292837E+02  0.00000000000E+00 0.  1.
         -5    1    5    5    0  501  0.64592102118E+02 -0.15340649864E+02 -0.11270912561E+03  0.13089275072E+03  0.47000000000E+01 0.  1.
<mgrwt>
<rscale>  2 0.18926787E+03</rscale>
<asrwt>0</asrwt>
<pdfrwt beam="2">  1        2 0.36487762E+00 0.18926787E+03</pdfrwt>
<pdfrwt beam="1">  1       -2 0.29446208E-02 0.18926787E+03</pdfrwt>
<totfact> 0.20661246E+03</totfact>
</mgrwt>
</event>
<event>
12    1  0.1093377E-001  0.1957733E+03  0.7546771E-02  0.1153355E+00
          2   -1    0    0  503    0  0.00000000000E+00  0.00000000000E+00  0.70286825249E+03  0.70286825249E+03  0.00000000000E+00 0. -1.
         -2   -1    0    0    0  501 -0.00000000000E+00 -0.00000000000E+00 -0.58847906729E+02  0.58847906729E+02  0.00000000000E+00 0.  1.
          6    2    1    2  503    0 -0.17292181689E+02  0.90308983508E+02  0.42634463789E+03  0.46946805199E+03  0.17371174263E+03 0.  0.
         24    2    3    3    0    0  0.10047008968E+02  0.99770669980E+02  0.21011636963E+03  0.25126239474E+03  0.94492186176E+02 0.  0.
         -6    2    1    2    0  501  0.17292181689E+02 -0.90308983508E+02  0.21767570787E+03  0.29224810724E+03  0.17196368900E+03 0.  0.
        -24    2    5    5    0    0  0.57185615437E+02 -0.34390068727E+01  0.99885582204E+02  0.14047695516E+03  0.80465048429E+02 0.  0.
          2    1    4    4  502    0 -0.30651865377E+02  0.37429672754E+02  0.14322872830E+03  0.15117865545E+03  0.00000000000E+00 0. -1.
         -1    1    4    4    0  502  0.40698874346E+02  0.62340997225E+02  0.66887641330E+02  0.10008373929E+03  0.00000000000E+00 0.  1.
          5    1    3    3  503    0 -0.27339190658E+02 -0.94616864721E+01  0.21622826826E+03  0.21820565724E+03  0.47000000000E+01 0. -1.
         13    1    6    6    0    0  0.36197489577E+01 -0.26623716018E+02  0.69838943553E+02  0.74829157911E+02  0.00000000000E+00 0. -1.
        -14    1    6    6    0    0  0.53565866479E+02  0.23184709145E+02  0.30046638651E+02  0.65647797252E+02  0.00000000000E+00 0.  1.
         -5    1    5    5    0  501 -0.39893433748E+02 -0.86869976635E+02  0.11779012567E+03  0.15177115207E+03  0.47000000000E+01 0.  1.
<mgrwt>
<rscale>  2 0.19577329E+03</rscale>
<asrwt>0</asrwt>
<pdfrwt beam="1">  1        2 0.10813357E+00 0.19577329E+03</pdfrwt>
<pdfrwt beam="2">  1       -2 0.90535246E-02 0.19577329E+03</pdfrwt>
<totfact> 0.32090965E+03</totfact>
</mgrwt>
</event>
<event>
12    1  0.1093377E-001  0.2414203E+03  0.7546771E-02  0.1118850E+00
          1   -1    0    0  503    0  0.00000000000E+00  0.00000000000E+00  0.20178849807E+04  0.20178849807E+04  0.00000000000E+00 0. -1.
         -1   -1    0    0    0  501 -0.00000000000E+00 -0.00000000000E+00 -0.38190523383E+02  0.38190523383E+02  0.00000000000E+00 0.  1.
          6    2    1    2  503    0  0.97217486847E+02 -0.13686672869E+03  0.14988789265E+04  0.15182759172E+04  0.17418376307E+03 0.  0.
         24    2    3    3    0    0 -0.53448394803E+00 -0.35562418378E+02  0.82871148754E+03  0.83346609155E+03  0.81474075091E+02 0.  0.
         -6    2    1    2    0  501 -0.97217486847E+02  0.13686672869E+03  0.48081553079E+03  0.53779958685E+03  0.17280358731E+03 0.  0.
        -24    2    5    5    0    0 -0.75086683389E+02  0.14651751704E+02  0.30394122886E+03  0.32162169310E+03  0.72163418848E+02 0.  0.
          4    1    4    4  502    0  0.30706645341E+02 -0.46416115622E+02  0.49433305621E+03  0.49745605265E+03  0.00000000000E+00 0. -1.
         -3    1    4    4    0  502 -0.31241129289E+02  0.10853697245E+02  0.33437843133E+03  0.33601003890E+03  0.00000000000E+00 0.  1.
          5    1    3    3  503    0  0.97751970795E+02 -0.10130431031E+03  0.67016743894E+03  0.68480982564E+03  0.47000000000E+01 0. -1.
         11    1    6    6    0    0 -0.80874102335E+02 -0.30465433578E+01  0.19543799554E+03  0.21153229530E+03  0.00000000000E+00 0. -1.
        -12    1    6    6    0    0  0.57874189466E+01  0.17698295062E+02  0.10850323332E+03  0.11008939780E+03  0.00000000000E+00 0.  1.
         -5    1    5    5    0  501 -0.22130803459E+02  0.12221497698E+03  0.17687430193E+03  0.21617789374E+03  0.47000000000E+01 0.  1.
<mgrwt>
<rscale>  2 0.24142034E+03</rscale>
<asrwt>0</asrwt>
<pdfrwt beam="1">  1        1 0.31044376E+00 0.24142034E+03</pdfrwt>
<pdfrwt beam="2">  1       -1 0.58754667E-02 0.24142034E+03</pdfrwt>
<totfact> 0.45530115E+02</totfact>
</mgrwt>
</event>
<event>
12    1  0.1093377E-001  0.1936053E+03  0.7546771E-02  0.1155249E+00
         -1   -1    0    0    0  501 -0.00000000000E+00  0.00000000000E+00  0.15109234085E+02  0.15109234085E+02  0.00000000000E+00 0. -1.
          1   -1    0    0  503    0  0.00000000000E+00 -0.00000000000E+00 -0.32953346381E+04  0.32953346381E+04  0.00000000000E+00 0.  1.
          6    2    1    2  503    0 -0.74399521506E+02  0.31473587971E+02 -0.83619630392E+03  0.85898596952E+03  0.17918359749E+03 0.  0.
         24    2    3    3    0    0 -0.69962065599E+02  0.88069657462E+02 -0.56509262230E+03  0.58196232020E+03  0.81850566074E+02 0.  0.
         -6    2    1    2    0  501  0.74399521506E+02 -0.31473587971E+02 -0.24440291001E+04  0.24514579026E+04  0.17274759293E+03 0.  0.
        -24    2    5    5    0    0  0.62000024014E+02 -0.84794187233E+02 -0.14698656877E+04  0.14757462250E+04  0.79295167581E+02 0.  0.
          4    1    4    4  502    0 -0.82370617192E+02  0.45343521536E+02 -0.35775749718E+03  0.36990725907E+03  0.00000000000E+00 0. -1.
         -3    1    4    4    0  502  0.12408551592E+02  0.42726135926E+02 -0.20733512512E+03  0.21205506113E+03  0.00000000000E+00 0.  1.
          5    1    3    3  503    0 -0.44374559063E+01 -0.56596069492E+02 -0.27110368162E+03  0.27702364932E+03  0.47000000000E+01 0. -1.
         11    1    6    6    0    0  0.17806783495E+02  0.27271902902E+01 -0.64611952041E+02  0.67076251027E+02  0.00000000000E+00 0. -1.
        -12    1    6    6    0    0  0.44193240519E+02 -0.87521377523E+02 -0.14052537356E+04  0.14086699740E+04  0.00000000000E+00 0.  1.
         -5    1    5    5    0  501  0.12399497492E+02  0.53320599262E+02 -0.97416341238E+03  0.97571167763E+03  0.47000000000E+01 0.  1.
<mgrwt>
<rscale>  2 0.19360531E+03</rscale>
<asrwt>0</asrwt>
<pdfrwt beam="2">  1        1 0.50697417E+00 0.19360531E+03</pdfrwt>
<pdfrwt beam="1">  1       -1 0.23244993E-02 0.19360531E+03</pdfrwt>
<totfact> 0.24995022E+02</totfact>
</mgrwt>
</event>
<event>
12    1  0.1093377E-001  0.5408640E+03  0.7546771E-02  0.1003631E+00
          2   -1    0    0  503    0  0.00000000000E+00  0.00000000000E+00  0.27211342827E+04  0.27211342827E+04  0.00000000000E+00 0.  1.
         -2   -1    0    0    0  501 -0.00000000000E+00 -0.00000000000E+00 -0.12887687995E+03  0.12887687995E+03  0.00000000000E+00 0. -1.
          6    2    1    2  503    0 -0.34383023490E+03  0.38075963420E+03  0.18774564799E+04  0.19539527317E+04  0.17289104740E+03 0.  0.
         24    2    3    3    0    0 -0.32080857552E+03  0.32013904558E+03  0.17662033347E+04  0.18250954273E+04  0.78050937022E+02 0.  0.
         -6    2    1    2    0  501  0.34383023490E+03 -0.38075963420E+03  0.71480092283E+03  0.89605843094E+03  0.16965619036E+03 0.  0.
        -24    2    5    5    0    0  0.33703297250E+03 -0.30218626862E+03  0.62730363368E+03  0.77816932134E+03  0.84438607051E+02 0.  0.
          2    1    4    4  502    0 -0.77947322704E+02  0.36218695888E+02  0.30458776354E+03  0.31648267685E+03  0.00000000000E+00 0. -1.
         -1    1    4    4    0  502 -0.24286125281E+03  0.28392034969E+03  0.14616155712E+04  0.15086127505E+04  0.00000000000E+00 0.  1.
          5    1    3    3  503    0 -0.23021659381E+02  0.60620588617E+02  0.11125314519E+03  0.12885730433E+03  0.47000000000E+01 0. -1.
         13    1    6    6    0    0  0.26284822308E+03 -0.22434252815E+03  0.41382877238E+03  0.53914099377E+03  0.00000000000E+00 0. -1.
        -14    1    6    6    0    0  0.74184749418E+02 -0.77843740467E+02  0.21347486130E+03  0.23902832757E+03  0.00000000000E+00 0.  1.
         -5    1    5    5    0  501  0.67972624009E+01 -0.78573365575E+02  0.87497289151E+02  0.11788910960E+03  0.47000000000E+01 0.  1.
<mgrwt>
<rscale>  2 0.54086401E+03</rscale>
<asrwt>0</asrwt>
<pdfrwt beam="1">  1        2 0.41863600E+00 0.54086401E+03</pdfrwt>
<pdfrwt beam="2">  1       -2 0.19827214E-01 0.54086401E+03</pdfrwt>
<totfact> 0.60450604E+01</totfact>
</mgrwt>
</event>
<event>
12    1  0.1093377E-001  0.1911049E+03  0.7546771E-02  0.1157469E+00
          1   -1    0    0  503    0  0.00000000000E+00  0.00000000000E+00  0.96147616460E+02  0.96147616460E+02  0.00000000000E+00 0. -1.
         -1   -1    0    0    0  501 -0.00000000000E+00 -0.00000000000E+00 -0.38942811105E+03  0.38942811105E+03  0.00000000000E+00 0.  1.
          6    2    1    2  503    0  0.29133756300E+02 -0.75032768404E+02 -0.10873048277E+03  0.22007741568E+03  0.17358876381E+03 0.  0.
         24    2    3    3    0    0  0.66420481436E+02 -0.15961851152E+02 -0.17250414526E+02  0.10488034097E+03  0.77690720645E+02 0.  0.
         -6    2    1    2    0  501 -0.29133756300E+02  0.75032768404E+02 -0.18455001182E+03  0.26549831183E+03  0.17306633015E+03 0.  0.
        -24    2    5    5    0    0  0.44805150934E+02  0.12196403559E+02 -0.76150043395E+02  0.11993728028E+03  0.80186459472E+02 0.  0.
          2    1    4    4  502    0  0.19510804981E+02 -0.49163672065E+01  0.30823662942E+02  0.36809514730E+02  0.00000000000E+00 0. -1.
         -1    1    4    4    0  502  0.46909676455E+02 -0.11045483946E+02 -0.48074077467E+02  0.68070826241E+02  0.00000000000E+00 0.  1.
          5    1    3    3  503    0 -0.37286725136E+02 -0.59070917252E+02 -0.91480068245E+02  0.11519707471E+03  0.47000000000E+01 0. -1.
         13    1    6    6    0    0 -0.22029542955E+01  0.58305455853E+01  0.15517692044E+02  0.16722650383E+02  0.00000000000E+00 0. -1.
        -14    1    6    6    0    0  0.47008105230E+02  0.63658579739E+01 -0.91667735439E+02  0.10321462990E+03  0.00000000000E+00 0.  1.
         -5    1    5    5    0  501 -0.73938907234E+02  0.62836364845E+02 -0.10839996843E+03  0.14556103155E+03  0.47000000000E+01 0.  1.
<mgrwt>
<rscale>  2 0.19110491E+03</rscale>
<asrwt>0</asrwt>
<pdfrwt beam="1">  1        1 0.14791941E-01 0.19110491E+03</pdfrwt>
<pdfrwt beam="2">  1       -1 0.59912017E-01 0.19110491E+03</pdfrwt>
<totfact> 0.10988939E+03</totfact>
</mgrwt>
</event>
<event>
12    1  0.1093377E-001  0.1801806E+03  0.7546771E-02  0.1167628E+00
          2   -1    0    0  503    0  0.00000000000E+00  0.00000000000E+00  0.22998905224E+04  0.22998905224E+04  0.00000000000E+00 0. -1.
         -2   -1    0    0    0  501 -0.00000000000E+00 -0.00000000000E+00 -0.15691560801E+02  0.15691560801E+02  0.00000000000E+00 0.  1.
          6    2    1    2  503    0 -0.36286812435E+02  0.27269325222E+02  0.78104673133E+03  0.80178919373E+03  0.17541825960E+03 0.  0.
         24    2    3    3    0    0  0.38126387755E+01 -0.46108231862E+02  0.31918404136E+03  0.33239440652E+03  0.80418181818E+02 0.  0.
         -6    2    1    2    0  501  0.36286812435E+02 -0.27269325222E+02  0.15031522303E+04  0.15137928895E+04  0.17332609731E+03 0.  0.
        -24    2    5    5    0    0  0.16062002462E+02 -0.57882912778E+02  0.14067292054E+04  0.14105178954E+04  0.84055079170E+02 0.  0.
          4    1    4    4  502    0  0.40579850341E+02 -0.12854480742E+02  0.12825901175E+03  0.13513821082E+03  0.00000000000E+00 0. -1.
         -3    1    4    4    0  502 -0.36767211566E+02 -0.33253751119E+02  0.19092502962E+03  0.19725619571E+03  0.00000000000E+00 0.  1.
          5    1    3    3  503    0 -0.40099451211E+02  0.73377557083E+02  0.46186268997E+03  0.46939478720E+03  0.47000000000E+01 0. -1.
         11    1    6    6    0    0 -0.15673178979E+02  0.15842361557E+02  0.38235269003E+03  0.38300157772E+03  0.00000000000E+00 0. -1.
        -12    1    6    6    0    0  0.31735181440E+02 -0.73725274335E+02  0.10243765154E+04  0.10275163177E+04  0.00000000000E+00 0.  1.
         -5    1    5    5    0  501  0.20224809973E+02  0.30613587556E+02  0.96423024881E+02  0.10327499411E+03  0.47000000000E+01 0.  1.
<mgrwt>
<rscale>  2 0.18018060E+03</rscale>
<asrwt>0</asrwt>
<pdfrwt beam="1">  1        2 0.35382904E+00 0.18018060E+03</pdfrwt>
<pdfrwt beam="2">  1       -2 0.24140881E-02 0.18018060E+03</pdfrwt>
<totfact> 0.30259012E+03</totfact>
</mgrwt>
</event>
<event>
12    1  0.1093377E-001  0.1887880E+03  0.7546771E-02  0.1159559E+00
         -1   -1    0    0    0  501 -0.00000000000E+00  0.00000000000E+00  0.84755622350E+03  0.84755622350E+03  0.00000000000E+00 0.  1.
          1   -1    0    0  503    0  0.00000000000E+00 -0.00000000000E+00 -0.46826939692E+02  0.46826939692E+02  0.00000000000E+00 0. -1.
          6    2    1    2  503    0  0.11572173401E+01 -0.73062288361E+02  0.54433105823E+03  0.57634082308E+03  0.17473696305E+03 0.  0.
         24    2    3    3    0    0  0.65269690499E+02 -0.30101857196E+02  0.25942606255E+03  0.28113080559E+03  0.81033287087E+02 0.  0.
         -6    2    1    2    0  501 -0.11572173401E+01  0.73062288361E+02  0.25639822557E+03  0.31804234011E+03  0.17341119599E+03 0.  0.
        -24    2    5    5    0    0  0.52263582802E+02  0.88730658320E+02  0.18842255400E+03  0.23005335427E+03  0.82564369667E+02 0.  0.
          2    1    4    4  502    0  0.47279636858E+02 -0.29501319901E+01  0.48836241247E+02  0.68037091350E+02  0.00000000000E+00 0. -1.
         -1    1    4    4    0  502  0.17990053642E+02 -0.27151725206E+02  0.21058982131E+03  0.21309371424E+03  0.00000000000E+00 0.  1.
          5    1    3    3  503    0 -0.64112473159E+02 -0.42960431165E+02  0.28490499568E+03  0.29521001748E+03  0.47000000000E+01 0. -1.
         13    1    6    6    0    0 -0.59626406849E+01 -0.10576333209E+02  0.42515531374E+01  0.12864198855E+02  0.00000000000E+00 0. -1.
        -14    1    6    6    0    0  0.58226223487E+02  0.99306991530E+02  0.18417100087E+03  0.21718915541E+03  0.00000000000E+00 0.  1.
         -5    1    5    5    0  501 -0.53420800142E+02 -0.15668369959E+02  0.67975671567E+02  0.87988985844E+02  0.47000000000E+01 0.  1.
<mgrwt>
<rscale>  2 0.18878801E+03</rscale>
<asrwt>0</asrwt>
<pdfrwt beam="2">  1        1 0.72041452E-02 0.18878801E+03</pdfrwt>
<pdfrwt beam="1">  1       -1 0.13039325E+00 0.18878801E+03</pdfrwt>
<totfact> 0.54145832E+02</totfact>
</mgrwt>
</event>
<event>
12    1  0.1093377E-001  0.2652037E+03  0.7546771E-02  0.1104056E+00
          2   -1    0    0  503    0  0.00000000000E+00  0.00000000000E+00  0.92616335619E+02  0.92616335619E+02  0.00000000000E+00 0.  1.
         -2   -1    0    0    0  501 -0.00000000000E+00 -0.00000000000E+00 -0.82309288734E+03  0.82309288734E+03  0.00000000000E+00 0. -1.
          6    2    1    2  503    0 -0.19576519122E+03  0.47641615011E+02 -0.23746397480E+03  0.35573868161E+03  0.17195097178E+03 0.  0.
         24    2    3    3    0    0 -0.14188127653E+03 -0.32702489686E+02 -0.12963087266E+03  0.21079483270E+03  0.80190703226E+02 0.  0.
         -6    2    1    2    0  501  0.19576519122E+03 -0.47641615011E+02 -0.49301257693E+03  0.55997054135E+03  0.17295049174E+03 0.  0.
        -24    2    5    5    0    0  0.15308300263E+03 -0.28985868337E+01 -0.45460783298E+03  0.48702726098E+03  0.84169255831E+02 0.  0.
          2    1    4    4  502    0 -0.78971728561E+02 -0.10410353958E+02 -0.11901812963E+03  0.14321391190E+03  0.00000000000E+00 0. -1.
         -1    1    4    4    0  502 -0.62909547971E+02 -0.22292135727E+02 -0.10612743028E+02  0.67580920797E+02  0.00000000000E+00 0.  1.
          5    1    3    3  503    0 -0.53883914692E+02  0.80344104696E+02 -0.10783310214E+03  0.14494384892E+03  0.47000000000E+01 0. -1.
         11    1    6    6    0    0  0.14178242122E+03 -0.70420192210E+01 -0.29935335291E+03  0.33130691948E+03  0.00000000000E+00 0. -1.
        -12    1    6    6    0    0  0.11300581418E+02  0.41434323873E+01 -0.15525448007E+03  0.15572034149E+03  0.00000000000E+00 0.  1.
         -5    1    5    5    0  501  0.42682188589E+02 -0.44743028177E+02 -0.38404743945E+02  0.72943280367E+02  0.47000000000E+01 0.  1.
<mgrwt>
<rscale>  2 0.26520375E+03</rscale>
<asrwt>0</asrwt>
<pdfrwt beam="1">  1        2 0.14248667E-01 0.26520375E+03</pdfrwt>
<pdfrwt beam="2">  1       -2 0.12662967E+00 0.26520375E+03</pdfrwt>
<totfact> 0.20220872E+02</totfact>
</mgrwt>
</event>
<event>
12    1  0.1093377E-001  0.1965738E+03  0.7546771E-02  0.1152662E+00
          2   -1    0    0  503    0  0.00000000000E+00  0.00000000000E+00  0.98772886288E+03  0.98772886288E+03  0.00000000000E+00 0. -1.
         -2   -1    0    0    0  501 -0.00000000000E+00 -0.00000000000E+00 -0.41615926318E+02  0.41615926318E+02  0.00000000000E+00 0.  1.
          6    2    1    2  503    0  0.65177079414E+02  0.59665449537E+02  0.59821293978E+03  0.62956552233E+03  0.17517422195E+03 0.  0.
         24    2    3    3    0    0  0.13128223211E+02  0.94106122971E+02  0.29479178072E+03  0.31975633398E+03  0.79458206097E+02 0.  0.
         -6    2    1    2    0  501 -0.65177079414E+02 -0.59665449537E+02  0.34789999678E+03  0.39977926687E+03  0.17601430882E+03 0.  0.
        -24    2    5    5    0    0 -0.99099751248E+02 -0.14053564312E+02  0.29205818722E+03  0.31995703041E+03  0.84001507255E+02 0.  0.
          2    1    4    4  502    0 -0.27544214633E+02  0.64169549639E+02  0.13231369028E+03  0.14961058618E+03  0.00000000000E+00 0. -1.
         -1    1    4    4    0  502  0.40672437845E+02  0.29936573332E+02  0.16247809044E+03  0.17014574781E+03  0.00000000000E+00 0.  1.
          5    1    3    3  503    0  0.52048856202E+02 -0.34440673434E+02  0.30342115905E+03  0.30980918834E+03  0.47000000000E+01 0. -1.
         11    1    6    6    0    0 -0.58489868605E+02 -0.25488752515E+02  0.25789574019E+03  0.26567076250E+03  0.00000000000E+00 0. -1.
        -12    1    6    6    0    0 -0.40609882644E+02  0.11435188202E+02  0.34162447021E+02  0.54286267913E+02  0.00000000000E+00 0.  1.
         -5    1    5    5    0  501  0.33922671834E+02 -0.45611885225E+02  0.55841809570E+02  0.79822236464E+02  0.47000000000E+01 0.  1.
<mgrwt>
<rscale>  2 0.19657380E+03</rscale>
<asrwt>0</asrwt>
<pdfrwt beam="1">  1        2 0.15195827E+00 0.19657380E+03</pdfrwt>
<pdfrwt beam="2">  1       -2 0.64024510E-02 0.19657380E+03</pdfrwt>
<totfact> 0.35463369E+03</totfact>
</mgrwt>
</event>
<event>
12    1  0.1093377E-001  0.2080704E+03  0.7546771E-02  0.1143103E+00
         -2   -1    0    0    0  501 -0.00000000000E+00  0.00000000000E+00  0.28229003729E+02  0.28229003729E+02  0.00000000000E+00 0. -1.
          2   -1    0    0  503    0  0.00000000000E+00 -0.00000000000E+00 -0.17690579171E+04  0.17690579171E+04  0.00000000000E+00 0.  1.
          6    2    1    2  503    0 -0.11432845191E+03  0.16764328131E+02 -0.54207839611E+03  0.58058821119E+03  0.17286308403E+03 0.  0.
         24    2    3    3    0    0  0.87199054706E+01  0.28407885391E+02 -0.27150764320E+03  0.28308679436E+03  0.74422363053E+02 0.  0.
         -6    2    1    2    0  501  0.11432845191E+03 -0.16764328131E+02 -0.11987505173E+04  0.12166987097E+04  0.17320770712E+03 0.  0.
        -24    2    5    5    0    0 -0.65829728298E+01  0.15333131301E+02 -0.41278822981E+03  0.42082897983E+03  0.80152773824E+02 0.  0.
          4    1    4    4  502    0 -0.23206002545E+02  0.39186232910E+02 -0.17648809748E+03  0.18226938293E+03  0.00000000000E+00 0. -1.
         -3    1    4    4    0  502  0.31925908015E+02 -0.10778347519E+02 -0.95019545718E+02  0.10081741142E+03  0.00000000000E+00 0.  1.
          5    1    3    3  503    0 -0.12304835738E+03 -0.11643557260E+02 -0.27057075292E+03  0.29750141683E+03  0.47000000000E+01 0. -1.
         13    1    6    6    0    0  0.23156466460E+02  0.32794698442E+02 -0.13310473390E+03  0.13902727924E+03  0.00000000000E+00 0. -1.
        -14    1    6    6    0    0 -0.29739439290E+02 -0.17461567141E+02 -0.27968349591E+03  0.28180170060E+03  0.00000000000E+00 0.  1.
         -5    1    5    5    0  501  0.12091142474E+03 -0.32097459432E+02 -0.78596228748E+03  0.79586972984E+03  0.47000000000E+01 0.  1.
<mgrwt>
<rscale>  2 0.20807036E+03</rscale>
<asrwt>0</asrwt>
<pdfrwt beam="2">  1        2 0.27216283E+00 0.20807036E+03</pdfrwt>
<pdfrwt beam="1">  1       -2 0.43429224E-02 0.20807036E+03</pdfrwt>
<totfact> 0.23878580E+03</totfact>
</mgrwt>
</event>
<event>
12    1  0.1093377E-001  0.1950979E+03  0.7546771E-02  0.1153942E+00
         -2   -1    0    0    0  501 -0.00000000000E+00  0.00000000000E+00  0.16041967358E+03  0.16041967358E+03  0.00000000000E+00 0.  1.
          2   -1    0    0  503    0  0.00000000000E+00 -0.00000000000E+00 -0.61577057856E+03  0.61577057856E+03  0.00000000000E+00 0. -1.
          6    2    1    2  503    0  0.17202023989E+02  0.90814438176E+02  0.77306629901E+02  0.20837116005E+03  0.16999721616E+03 0.  0.
         24    2    3    3    0    0  0.17103020740E+02  0.93553598667E+02 -0.59807509943E+01  0.12490625354E+03  0.80752793449E+02 0.  0.
         -6    2    1    2    0  501 -0.17202023989E+02 -0.90814438176E+02 -0.53265753488E+03  0.56781909209E+03  0.17364129714E+03 0.  0.
        -24    2    5    5    0    0 -0.36842564655E+02 -0.27583401531E+02 -0.45812473764E+03  0.46801356771E+03  0.83905933730E+02 0.  0.
          4    1    4    4  502    0  0.37299202078E+02  0.22437243991E+02 -0.22728573502E+02  0.49104464635E+02  0.00000000000E+00 0. -1.
         -3    1    4    4    0  502 -0.20196181338E+02  0.71116354676E+02  0.16747822508E+02  0.75801788909E+02  0.00000000000E+00 0.  1.
          5    1    3    3  503    0  0.99003248539E-01 -0.27391604909E+01  0.83287380895E+02  0.83464906507E+02  0.47000000000E+01 0. -1.
         11    1    6    6    0    0 -0.45823633777E+02  0.75380840070E+01 -0.13300957528E+03  0.14088355205E+03  0.00000000000E+00 0. -1.
        -12    1    6    6    0    0  0.89810691213E+01 -0.35121485538E+02 -0.32511516236E+03  0.32713001566E+03  0.00000000000E+00 0.  1.
         -5    1    5    5    0  501  0.19640540667E+02 -0.63231036645E+02 -0.74532797242E+02  0.99805524385E+02  0.47000000000E+01 0.  1.
<mgrwt>
<rscale>  2 0.19509792E+03</rscale>
<asrwt>0</asrwt>
<pdfrwt beam="2">  1        2 0.94733936E-01 0.19509792E+03</pdfrwt>
<pdfrwt beam="1">  1       -2 0.24679950E-01 0.19509792E+03</pdfrwt>
<totfact> 0.71534717E+02</totfact>
</mgrwt>
</event>
<event>
12    1  0.1093377E-001  0.3327981E+03  0.7546771E-02  0.1069905E+00
         -1   -1    0    0    0  501 -0.00000000000E+00  0.00000000000E+00  0.34719048555E+02  0.34719048555E+02  0.00000000000E+00 0.  1.
          1   -1    0    0  503    0  0.00000000000E+00 -0.00000000000E+00 -0.35716687666E+04  0.35716687666E+04  0.00000000000E+00 0. -1.
          6    2    1    2  503    0 -0.28327357479E+03 -0.24185826233E+02 -0.23581598964E+04  0.23815347366E+04  0.17309168732E+03 0.  0.
         24    2    3    3    0    0 -0.59295174663E+02  0.25218866699E+02 -0.79739090399E+03  0.80399580360E+03  0.80156655819E+02 0.  0.
         -6    2    1    2    0  501  0.28327357479E+03  0.24185826233E+02 -0.11787898217E+04  0.12248530786E+04  0.17288941001E+03 0.  0.
        -24    2    5    5    0    0  0.15005771049E+03 -0.51557457523E+02 -0.70087862024E+03  0.72295197480E+03  0.79077364968E+02 0.  0.
          2    1    4    4  502    0 -0.66091046858E+02 -0.55458562637E+01 -0.64376480775E+03  0.64717224191E+03  0.00000000000E+00 0. -1.
         -1    1    4    4    0  502  0.67958721948E+01  0.30764722963E+02 -0.15362609624E+03  0.15682356170E+03  0.00000000000E+00 0.  1.
          5    1    3    3  503    0 -0.22397840013E+03 -0.49404692932E+02 -0.15607689924E+04  0.15775389329E+04  0.47000000000E+01 0. -1.
         11    1    6    6    0    0  0.14453775678E+03 -0.20879913530E+02 -0.58531751946E+03  0.60326091578E+03  0.00000000000E+00 0. -1.
        -12    1    6    6    0    0  0.55199537057E+01 -0.30677543993E+02 -0.11556110078E+03  0.11969105902E+03  0.00000000000E+00 0.  1.
         -5    1    5    5    0  501  0.13321586430E+03  0.75743283756E+02 -0.47791120142E+03  0.50190110378E+03  0.47000000000E+01 0.  1.
<mgrwt>
<rscale>  2 0.33279815E+03</rscale>
<asrwt>0</asrwt>
<pdfrwt beam="2">  1        1 0.54948766E+00 0.33279815E+03</pdfrwt>
<pdfrwt beam="1">  1       -1 0.53413906E-02 0.33279815E+03</pdfrwt>
<totfact> 0.43134286E+01</totfact>
</mgrwt>
</event>
<event>
12    1  0.1093377E-001  0.1833002E+03  0.7546771E-02  0.1164647E+00
          1   -1    0    0  503    0  0.00000000000E+00  0.00000000000E+00  0.49310466898E+03  0.49310466898E+03  0.00000000000E+00 0. -1.
         -1   -1    0    0    0  501 -0.00000000000E+00 -0.00000000000E+00 -0.69588494440E+02  0.69588494440E+02  0.00000000000E+00 0.  1.
          6    2    1    2  503    0  0.63793600087E+02  0.20791606491E+02  0.25471581463E+03  0.31510267368E+03  0.17293823877E+03 0.  0.
         24    2    3    3    0    0  0.26795310579E+00  0.13441324117E+02  0.42248484446E+02  0.93170272104E+02  0.81945251071E+02 0.  0.
         -6    2    1    2    0  501 -0.63793600087E+02 -0.20791606491E+02  0.16880035992E+03  0.24759048974E+03  0.16824260694E+03 0.  0.
        -24    2    5    5    0    0 -0.65612352663E+02  0.31170315250E+02  0.16129908270E+03  0.19484858674E+03  0.81682362250E+02 0.  0.
          2    1    4    4  502    0  0.95874278477E+01  0.36570443656E+02  0.53746066249E+02  0.65711153994E+02  0.00000000000E+00 0. -1.
         -1    1    4    4    0  502 -0.93194747419E+01 -0.23129119539E+02 -0.11497581802E+02  0.27459118111E+02  0.00000000000E+00 0.  1.
          5    1    3    3  503    0  0.63525646982E+02  0.73502823742E+01  0.21246733018E+03  0.22193240158E+03  0.47000000000E+01 0. -1.
         13    1    6    6    0    0  0.10232987785E+02 -0.20637069966E+01 -0.30000720992E+01  0.10861554133E+02  0.00000000000E+00 0. -1.
        -14    1    6    6    0    0 -0.75845340449E+02  0.33234022246E+02  0.16429915480E+03  0.18398703261E+03  0.00000000000E+00 0.  1.
         -5    1    5    5    0  501  0.18187525759E+01 -0.51961921741E+02  0.75012772202E+01  0.52741902998E+02  0.47000000000E+01 0.  1.
<mgrwt>
<rscale>  2 0.18330022E+03</rscale>
<asrwt>0</asrwt>
<pdfrwt beam="1">  1        1 0.75862254E-01 0.18330022E+03</pdfrwt>
<pdfrwt beam="2">  1       -1 0.10705923E-01 0.18330022E+03</pdfrwt>
<totfact> 0.24884272E+03</totfact>
</mgrwt>
</event>
<event>
12    1  0.1093377E-001  0.2276112E+03  0.7546771E-02  0.1128333E+00
         -2   -1    0    0    0  501 -0.00000000000E+00  0.00000000000E+00  0.69773307960E+02  0.69773307960E+02  0.00000000000E+00 0.  1.
          2   -1    0    0  503    0  0.00000000000E+00 -0.00000000000E+00 -0.91372244546E+03  0.91372244546E+03  0.00000000000E+00 0. -1.
          6    2    1    2  503    0 -0.14490861057E+03  0.27483353314E+02 -0.20910823563E+03  0.30908566748E+03  0.17336047850E+03 0.  0.
         24    2    3    3    0    0 -0.11665340483E+03 -0.41127591569E+02 -0.10058535649E+03  0.17753672713E+03  0.78117730975E+02 0.  0.
         -6    2    1    2    0  501  0.14490861057E+03 -0.27483353314E+02 -0.63484090187E+03  0.67441008594E+03  0.17335556873E+03 0.  0.
        -24    2    5    5    0    0  0.17164288388E+03 -0.44163740692E+02 -0.55514155126E+03  0.58857866291E+03  0.82649772621E+02 0.  0.
          2    1    4    4  502    0 -0.28086668042E+02 -0.33724437324E+02 -0.71734846727E+02  0.84095700422E+02  0.00000000000E+00 0. -1.
         -1    1    4    4    0  502 -0.88566736791E+02 -0.74031542452E+01 -0.28850509759E+02  0.93441026706E+02  0.00000000000E+00 0.  1.
          5    1    3    3  503    0 -0.28255205738E+02  0.68610944883E+02 -0.10852287914E+03  0.13154894035E+03  0.47000000000E+01 0. -1.
         13    1    6    6    0    0  0.64150551879E+02 -0.42168846790E+02 -0.33372089930E+03  0.34243706513E+03  0.00000000000E+00 0. -1.
        -14    1    6    6    0    0  0.10749233201E+03 -0.19948939024E+01 -0.22142065197E+03  0.24614159778E+03  0.00000000000E+00 0.  1.
         -5    1    5    5    0  501 -0.26734273314E+02  0.16680387378E+02 -0.79699350605E+02  0.85831423031E+02  0.47000000000E+01 0.  1.
<mgrwt>
<rscale>  2 0.22761117E+03</rscale>
<asrwt>0</asrwt>
<pdfrwt beam="2">  1        2 0.14057268E+00 0.22761117E+03</pdfrwt>
<pdfrwt beam="1">  1       -2 0.10734355E-01 0.22761117E+03</pdfrwt>
<totfact> 0.17600444E+03</totfact>
</mgrwt>
</event>
<event>
12    1  0.1093377E-001  0.1927314E+03  0.7546771E-02  0.1156021E+00
          2   -1    0    0  503    0  0.00000000000E+00  0.00000000000E+00  0.11136105953E+04  0.11136105953E+04  0.00000000000E+00 0. -1.
         -2   -1    0    0    0  501 -0.00000000000E+00 -0.00000000000E+00 -0.34279338756E+02  0.34279338756E+02  0.00000000000E+00 0.  1.
          6    2    1    2  503    0 -0.65963869266E+02 -0.46864456064E+02  0.63107776892E+03  0.65955906737E+03  0.17381456681E+03 0.  0.
         24    2    3    3    0    0  0.91727567407E+01  0.25193463855E+02  0.22995393875E+03  0.24511935702E+03  0.80534682895E+02 0.  0.
         -6    2    1    2    0  501  0.65963869266E+02  0.46864456064E+02  0.44825348759E+03  0.48833086666E+03  0.17603504451E+03 0.  0.
        -24    2    5    5    0    0  0.45678212719E+02 -0.13918361475E+02  0.11306773267E+03  0.14704266136E+03  0.80975380119E+02 0.  0.
          2    1    4    4  502    0  0.74474189846E+01 -0.28539595941E+02  0.59870118818E+02  0.66741319385E+02  0.00000000000E+00 0. -1.
         -1    1    4    4    0  502  0.17253377561E+01  0.53733059797E+02  0.17008381993E+03  0.17837803763E+03  0.00000000000E+00 0.  1.
          5    1    3    3  503    0 -0.75136626007E+02 -0.72057919919E+02  0.40112383017E+03  0.41443971035E+03  0.47000000000E+01 0. -1.
         13    1    6    6    0    0  0.38028279496E+02 -0.77111038038E+01  0.12539572484E+03  0.13126194792E+03  0.00000000000E+00 0. -1.
        -14    1    6    6    0    0  0.76499332228E+01 -0.62072576712E+01 -0.12327992164E+02  0.15780713447E+02  0.00000000000E+00 0.  1.
         -5    1    5    5    0  501  0.20285656548E+02  0.60782817539E+02  0.33518575492E+03  0.34128820529E+03  0.47000000000E+01 0.  1.
<mgrwt>
<rscale>  2 0.19273142E+03</rscale>
<asrwt>0</asrwt>
<pdfrwt beam="1">  1        2 0.17132468E+00 0.19273142E+03</pdfrwt>
<pdfrwt beam="2">  1       -2 0.52737453E-02 0.19273142E+03</pdfrwt>
<totfact> 0.40130967E+03</totfact>
</mgrwt>
</event>
<event>
12    1  0.1093377E-001  0.1699072E+03  0.7546771E-02  0.1177945E+00
         -1   -1    0    0    0  501 -0.00000000000E+00  0.00000000000E+00  0.31785000259E+02  0.31785000259E+02  0.00000000000E+00 0.  1.
          1   -1    0    0  503    0  0.00000000000E+00 -0.00000000000E+00 -0.14963129770E+04  0.14963129770E+04  0.00000000000E+00 0. -1.
          6    2    1    2  503    0  0.24538833533E+02 -0.31328864812E+02 -0.23640568482E+03  0.28731546740E+03  0.15836312029E+03 0.  0.
         24    2    3    3    0    0  0.15754426283E+02 -0.26547410550E+02 -0.48845735643E+02  0.99430256030E+02  0.80916642104E+02 0.  0.
         -6    2    1    2    0  501 -0.24538833533E+02  0.31328864812E+02 -0.12281222919E+04  0.12407825098E+04  0.17225916736E+03 0.  0.
        -24    2    5    5    0    0 -0.76502465807E+02  0.10211783990E+01 -0.66374574851E+03  0.67318956797E+03  0.82292804512E+02 0.  0.
          2    1    4    4  502    0 -0.29985996899E+02 -0.26932170838E+02 -0.28523326203E+02  0.49376937671E+02  0.00000000000E+00 0. -1.
         -1    1    4    4    0  502  0.45740423182E+02  0.38476028779E+00 -0.20322409441E+02  0.50053318360E+02  0.00000000000E+00 0.  1.
          5    1    3    3  503    0  0.87844072507E+01 -0.47814542622E+01 -0.18755994918E+03  0.18788521137E+03  0.47000000000E+01 0. -1.
         11    1    6    6    0    0 -0.52226027923E+02 -0.31117982733E+02 -0.53097532217E+03  0.53444427174E+03  0.00000000000E+00 0. -1.
        -12    1    6    6    0    0 -0.24276437884E+02  0.32139161132E+02 -0.13277042634E+03  0.13874529622E+03  0.00000000000E+00 0.  1.
         -5    1    5    5    0  501  0.51963632274E+02  0.30307686413E+02 -0.56437654340E+03  0.56759294188E+03  0.47000000000E+01 0.  1.
<mgrwt>
<rscale>  2 0.16990718E+03</rscale>
<asrwt>0</asrwt>
<pdfrwt beam="2">  1        1 0.23020196E+00 0.16990718E+03</pdfrwt>
<pdfrwt beam="1">  1       -1 0.48900007E-02 0.16990718E+03</pdfrwt>
<totfact> 0.13158782E+03</totfact>
</mgrwt>
</event>
<event>
12    1  0.1098693E-001  0.2179799E+03  0.7546771E-02  0.1135398E+00
          2   -1    0    0  503    0  0.00000000000E+00  0.00000000000E+00  0.13211113792E+04  0.13211113792E+04  0.00000000000E+00 0.  1.
         -2   -1    0    0    0  501 -0.00000000000E+00 -0.00000000000E+00 -0.43569672224E+02  0.43569672224E+02  0.00000000000E+00 0. -1.
          6    2    1    2  503    0  0.25206134645E+02  0.12911255239E+03  0.35112264773E+03  0.41271363307E+03  0.17245297553E+03 0.  0.
         24    2    3    3    0    0 -0.14740377212E+02  0.14984900165E+03  0.25998666313E+03  0.31096108113E+03  0.80198048347E+02 0.  0.
         -6    2    1    2    0  501 -0.25206134645E+02 -0.12911255239E+03  0.92641905921E+03  0.95196741831E+03  0.17516932339E+03 0.  0.
        -24    2    5    5    0    0 -0.13760243144E+02 -0.12432850646E+03  0.42398526248E+03  0.44935851904E+03  0.80701016283E+02 0.  0.
          2    1    4    4  502    0  0.98165244609E+01  0.12133837782E+03  0.14158258063E+03  0.18672169993E+03  0.00000000000E+00 0. -1.
         -1    1    4    4    0  502 -0.24556901673E+02  0.28510623827E+02  0.11840408249E+03  0.12423938120E+03  0.00000000000E+00 0.  1.
          5    1    3    3  503    0  0.39946511857E+02 -0.20736449259E+02  0.91135984601E+02  0.10175255194E+03  0.47000000000E+01 0. -1.
         13    1    6    6    0    0 -0.45215409106E+02 -0.46436229945E+02  0.17926033248E+03  0.19061747946E+03  0.00000000000E+00 0. -1.
        -14    1    6    6    0    0  0.31455165961E+02 -0.77892276514E+02  0.24472492999E+03  0.25874103959E+03  0.00000000000E+00 0.  1.
         -5    1    5    5    0  501 -0.11445891501E+02 -0.47840459284E+01  0.50243379673E+03  0.50260889927E+03  0.47000000000E+01 0.  1.
<mgrwt>
<rscale>  2 0.21797985E+03</rscale>
<asrwt>0</asrwt>
<pdfrwt beam="1">  1        2 0.20324787E+00 0.21797985E+03</pdfrwt>
<pdfrwt beam="2">  1       -2 0.67030275E-02 0.21797985E+03</pdfrwt>
<totfact> 0.21290153E+03</totfact>
</mgrwt>
</event>
<event>
12    1  0.1093377E-001  0.1816629E+03  0.7546771E-02  0.1166203E+00
         -1   -1    0    0    0  501 -0.00000000000E+00  0.00000000000E+00  0.15712793587E+03  0.15712793587E+03  0.00000000000E+00 0.  1.
          1   -1    0    0  503    0  0.00000000000E+00 -0.00000000000E+00 -0.32942542983E+03  0.32942542983E+03  0.00000000000E+00 0. -1.
          6    2    1    2  503    0 -0.36494265520E+02 -0.42175956397E+02  0.60284375838E+02  0.19148722034E+03  0.17298123271E+03 0.  0.
         24    2    3    3    0    0 -0.78423543062E+01  0.15559235108E+02  0.89335037120E+02  0.12063303715E+03  0.79170628879E+02 0.  0.
         -6    2    1    2    0  501  0.36494265520E+02  0.42175956397E+02 -0.23258186979E+03  0.29506614536E+03  0.17279774671E+03 0.  0.
        -24    2    5    5    0    0  0.89791362969E+02  0.22895109407E+02 -0.16307491292E+03  0.20525724429E+03  0.83369264195E+02 0.  0.
          4    1    4    4  502    0 -0.32900096120E+02  0.35965926325E+02  0.53035137781E+02  0.72032562224E+02  0.00000000000E+00 0. -1.
         -3    1    4    4    0  502  0.25057741813E+02 -0.20406691217E+02  0.36299899339E+02  0.48600474928E+02  0.00000000000E+00 0.  1.
          5    1    3    3  503    0 -0.28651911214E+02 -0.57735191505E+02 -0.29050661282E+02  0.70854183188E+02  0.47000000000E+01 0. -1.
         11    1    6    6    0    0  0.22156929510E+02 -0.92137186086E+01 -0.11220264298E+03  0.11473994609E+03  0.00000000000E+00 0. -1.
        -12    1    6    6    0    0  0.67634433458E+02  0.32108828015E+02 -0.50872269937E+02  0.90517298205E+02  0.00000000000E+00 0.  1.
         -5    1    5    5    0  501 -0.53297097448E+02  0.19280846991E+02 -0.69506956874E+02  0.89808901067E+02  0.47000000000E+01 0.  1.
<mgrwt>
<rscale>  2 0.18166291E+03</rscale>
<asrwt>0</asrwt>
<pdfrwt beam="2">  1        1 0.50680835E-01 0.18166291E+03</pdfrwt>
<pdfrwt beam="1">  1       -1 0.24173529E-01 0.18166291E+03</pdfrwt>
<totfact> 0.11408988E+03</totfact>
</mgrwt>
</event>
<event>
12    1  0.1093377E-001  0.2322178E+03  0.7546771E-02  0.1125088E+00
         -2   -1    0    0    0  501 -0.00000000000E+00  0.00000000000E+00  0.12141094568E+03  0.12141094568E+03  0.00000000000E+00 0.  1.
          2   -1    0    0  503    0  0.00000000000E+00 -0.00000000000E+00 -0.57568747396E+03  0.57568747396E+03  0.00000000000E+00 0. -1.
          6    2    1    2  503    0  0.17577464979E+02  0.15314111216E+03 -0.60160347512E+02  0.23940500793E+03  0.17301538342E+03 0.  0.
         24    2    3    3    0    0 -0.37642229243E+02  0.45651431029E+02  0.34133732166E+01  0.10277794565E+03  0.83968234573E+02 0.  0.
         -6    2    1    2    0  501 -0.17577464979E+02 -0.15314111216E+03 -0.39411618077E+03  0.45769341170E+03  0.17434026403E+03 0.  0.
        -24    2    5    5    0    0 -0.76062770106E+02 -0.12094732476E+03 -0.23402487618E+03  0.28417601583E+03  0.74663009209E+02 0.  0.
          2    1    4    4  502    0 -0.13152526886E+01 -0.20685576933E+02 -0.14196010815E+02  0.25122693043E+02  0.00000000000E+00 0. -1.
         -1    1    4    4    0  502 -0.36326976555E+02  0.66337007963E+02  0.17609384031E+02  0.77655252604E+02  0.00000000000E+00 0.  1.
          5    1    3    3  503    0  0.55219694223E+02  0.10748968114E+03 -0.63573720728E+02  0.13662706228E+03  0.47000000000E+01 0. -1.
         11    1    6    6    0    0 -0.35167140862E+02 -0.74120553419E+02 -0.19293610943E+03  0.20965430250E+03  0.00000000000E+00 0. -1.
        -12    1    6    6    0    0 -0.40895629244E+02 -0.46826771337E+02 -0.41088766744E+02  0.74521713330E+02  0.00000000000E+00 0.  1.
         -5    1    5    5    0  501  0.58485305126E+02 -0.32193787408E+02 -0.16009130459E+03  0.17351739587E+03  0.47000000000E+01 0.  1.
<mgrwt>
<rscale>  2 0.23221779E+03</rscale>
<asrwt>0</asrwt>
<pdfrwt beam="2">  1        2 0.88567303E-01 0.23221779E+03</pdfrwt>
<pdfrwt beam="1">  1       -2 0.18678607E-01 0.23221779E+03</pdfrwt>
<totfact> 0.12513389E+03</totfact>
</mgrwt>
</event>
<event>
12    1  0.1093377E-001  0.1890723E+03  0.7546771E-02  0.1159301E+00
          2   -1    0    0  503    0  0.00000000000E+00  0.00000000000E+00  0.28543237012E+02  0.28543237012E+02  0.00000000000E+00 0. -1.
         -2   -1    0    0    0  501 -0.00000000000E+00 -0.00000000000E+00 -0.12536322267E+04  0.12536322267E+04  0.00000000000E+00 0.  1.
          6    2    1    2  503    0  0.49938163980E+02  0.59039181677E+02 -0.63478171406E+03  0.66256604602E+03  0.17339693090E+03 0.  0.
         24    2    3    3    0    0  0.48258268553E+02 -0.32788152395E+02 -0.31617997642E+03  0.33095748377E+03  0.78480285140E+02 0.  0.
         -6    2    1    2    0  501 -0.49938163980E+02 -0.59039181677E+02 -0.59030727565E+03  0.61960941770E+03  0.17167907745E+03 0.  0.
        -24    2    5    5    0    0 -0.83976236890E+02 -0.19057345593E+02 -0.33831716960E+03  0.36216380953E+03  0.96379079177E+02 0.  0.
          2    1    4    4  502    0  0.21231459685E+02 -0.20235556497E+02 -0.25830598440E+02  0.39082891946E+02  0.00000000000E+00 0. -1.
         -1    1    4    4    0  502  0.27026808869E+02 -0.12552595899E+02 -0.29034937798E+03  0.29187459183E+03  0.00000000000E+00 0.  1.
          5    1    3    3  503    0  0.16798954262E+01  0.91827334072E+02 -0.31860173764E+03  0.33160856225E+03  0.47000000000E+01 0. -1.
         11    1    6    6    0    0  0.14607818331E+02 -0.65689054762E+01 -0.94179957732E+01  0.18580568342E+02  0.00000000000E+00 0. -1.
        -12    1    6    6    0    0 -0.98584055220E+02 -0.12488440117E+02 -0.32889917383E+03  0.34358324119E+03  0.00000000000E+00 0.  1.
         -5    1    5    5    0  501  0.34038072910E+02 -0.39981836084E+02 -0.25199010604E+03  0.25744560817E+03  0.47000000000E+01 0.  1.
<mgrwt>
<rscale>  2 0.18907225E+03</rscale>
<asrwt>0</asrwt>
<pdfrwt beam="1">  1        2 0.43912667E-02 0.18907225E+03</pdfrwt>
<pdfrwt beam="2">  1       -2 0.19286652E+00 0.18907225E+03</pdfrwt>
<totfact> 0.29773626E+02</totfact>
</mgrwt>
</event>
<event>
12    1  0.1093377E-001  0.1925209E+03  0.7546771E-02  0.1156207E+00
          1   -1    0    0  503    0  0.00000000000E+00  0.00000000000E+00  0.24540212324E+03  0.24540212324E+03  0.00000000000E+00 0. -1.
         -1   -1    0    0    0  501 -0.00000000000E+00 -0.00000000000E+00 -0.15165500308E+03  0.15165500308E+03  0.00000000000E+00 0.  1.
          6    2    1    2  503    0  0.78452772966E+02 -0.24460095319E+02  0.34168558726E+02  0.19548633261E+03  0.17405252650E+03 0.  0.
         24    2    3    3    0    0  0.28909001015E+02  0.20457012962E+02 -0.39446308184E+02  0.95920421849E+02  0.79940580304E+02 0.  0.
         -6    2    1    2    0  501 -0.78452772966E+02  0.24460095319E+02  0.59578561431E+02  0.20157079372E+03  0.17414949339E+03 0.  0.
        -24    2    5    5    0    0 -0.11777833975E+03 -0.72818034375E+00  0.58377757428E+02  0.15461888892E+03  0.81404979496E+02 0.  0.
          4    1    4    4  502    0 -0.13509233301E+02  0.21329649073E+02  0.13051409542E+02  0.28421692508E+02  0.00000000000E+00 0. -1.
         -3    1    4    4    0  502  0.42418234316E+02 -0.87263611161E+00 -0.52497717726E+02  0.67498729341E+02  0.00000000000E+00 0.  1.
          5    1    3    3  503    0  0.49543771950E+02 -0.44917108280E+02  0.73614866909E+02  0.99565910760E+02  0.47000000000E+01 0. -1.
         13    1    6    6    0    0 -0.20151681374E+02 -0.22430258893E+02  0.44350883224E+02  0.53630286396E+02  0.00000000000E+00 0. -1.
        -14    1    6    6    0    0 -0.97626658379E+02  0.21702078550E+02  0.14026874204E+02  0.10098860252E+03  0.00000000000E+00 0.  1.
         -5    1    5    5    0  501  0.39325566787E+02  0.25188275662E+02  0.12008040036E+01  0.46951904799E+02  0.47000000000E+01 0.  1.
<mgrwt>
<rscale>  2 0.19252089E+03</rscale>
<asrwt>0</asrwt>
<pdfrwt beam="1">  1        1 0.37754173E-01 0.19252089E+03</pdfrwt>
<pdfrwt beam="2">  1       -1 0.23331539E-01 0.19252089E+03</pdfrwt>
<totfact> 0.17496594E+03</totfact>
</mgrwt>
</event>
<event>
12    1  0.1093377E-001  0.2215054E+03  0.7546771E-02  0.1132766E+00
          1   -1    0    0  503    0  0.00000000000E+00  0.00000000000E+00  0.68987647134E+03  0.68987647134E+03  0.00000000000E+00 0. -1.
         -1   -1    0    0    0  501 -0.00000000000E+00 -0.00000000000E+00 -0.99737689593E+02  0.99737689593E+02  0.00000000000E+00 0.  1.
          6    2    1    2  503    0 -0.37414977088E+01 -0.13789048119E+03  0.83633315875E+02  0.23680974012E+03  0.17336821475E+03 0.  0.
         24    2    3    3    0    0 -0.88119046924E+01  0.37634643451E+01  0.27160058555E+02  0.84156970402E+02  0.79075366319E+02 0.  0.
         -6    2    1    2    0  501  0.37414977088E+01  0.13789048119E+03  0.50650546587E+03  0.55280442081E+03  0.17325460196E+03 0.  0.
        -24    2    5    5    0    0  0.34684712896E+02  0.19175124817E+02  0.30464792465E+03  0.31654317695E+03  0.76279159385E+02 0.  0.
          4    1    4    4  502    0 -0.34825254456E+02 -0.23422295545E+02  0.15924938044E+02  0.44888817408E+02  0.00000000000E+00 0. -1.
         -3    1    4    4    0  502  0.26013349764E+02  0.27185759890E+02  0.11235120511E+02  0.39268152995E+02  0.00000000000E+00 0.  1.
          5    1    3    3  503    0  0.50704069836E+01 -0.14165394553E+03  0.56473257320E+02  0.15265276972E+03  0.47000000000E+01 0. -1.
         11    1    6    6    0    0 -0.27828894131E+01 -0.49472225072E+01  0.22659177759E+03  0.22666286232E+03  0.00000000000E+00 0. -1.
        -12    1    6    6    0    0  0.37467602309E+02  0.24122347324E+02  0.78056147064E+02  0.89880314628E+02  0.00000000000E+00 0.  1.
         -5    1    5    5    0  501 -0.30943215187E+02  0.11871535637E+03  0.20185754122E+03  0.23626124386E+03  0.47000000000E+01 0.  1.
<mgrwt>
<rscale>  2 0.22150537E+03</rscale>
<asrwt>0</asrwt>
<pdfrwt beam="1">  1        1 0.10613484E+00 0.22150537E+03</pdfrwt>
<pdfrwt beam="2">  1       -1 0.15344260E-01 0.22150537E+03</pdfrwt>
<totfact> 0.89533672E+02</totfact>
</mgrwt>
</event>
<event>
12    1  0.1093377E-001  0.3028735E+03  0.7546771E-02  0.1083813E+00
         -1   -1    0    0    0  501 -0.00000000000E+00  0.00000000000E+00  0.31461233629E+03  0.31461233629E+03  0.00000000000E+00 0. -1.
          1   -1    0    0  503    0  0.00000000000E+00 -0.00000000000E+00 -0.30238944323E+03  0.30238944323E+03  0.00000000000E+00 0.  1.
          6    2    1    2  503    0  0.16461544364E+03 -0.18561767009E+03  0.64455302499E+02  0.30948048041E+03  0.17341141254E+03 0.  0.
         24    2    3    3    0    0  0.16987409608E+03 -0.11447396700E+03  0.82601670760E+02  0.23572100239E+03  0.82339888977E+02 0.  0.
         -6    2    1    2    0  501 -0.16461544364E+03  0.18561767009E+03 -0.52232409436E+02  0.30752129911E+03  0.17403724049E+03 0.  0.
        -24    2    5    5    0    0 -0.55194577300E+02  0.33052894440E+02  0.11398275120E+02  0.10922886159E+03  0.87533355555E+02 0.  0.
          4    1    4    4  502    0  0.11713453948E+03 -0.70327432459E+02  0.94227393978E+02  0.16596761694E+03  0.00000000000E+00 0. -1.
         -3    1    4    4    0  502  0.52739556599E+02 -0.44146534538E+02 -0.11625723218E+02  0.69753385455E+02  0.00000000000E+00 0.  1.
          5    1    3    3  503    0 -0.52586524462E+01 -0.71143703097E+02 -0.18146368261E+02  0.73759478014E+02  0.47000000000E+01 0. -1.
         11    1    6    6    0    0  0.11999332215E+02  0.38457979763E+02 -0.26355766186E+01  0.40372595225E+02  0.00000000000E+00 0. -1.
        -12    1    6    6    0    0 -0.67193909515E+02 -0.54050853235E+01  0.14033851739E+02  0.68856266367E+02  0.00000000000E+00 0.  1.
         -5    1    5    5    0  501 -0.10942086634E+03  0.15256477565E+03 -0.63630684556E+02  0.19829243752E+03  0.47000000000E+01 0.  1.
<mgrwt>
<rscale>  2 0.30287347E+03</rscale>
<asrwt>0</asrwt>
<pdfrwt beam="2">  1        1 0.46521452E-01 0.30287347E+03</pdfrwt>
<pdfrwt beam="1">  1       -1 0.48401898E-01 0.30287347E+03</pdfrwt>
<totfact> 0.38013016E+02</totfact>
</mgrwt>
</event>
<event>
12    1  0.1093377E-001  0.2448508E+03  0.7546771E-02  0.1116603E+00
         -2   -1    0    0    0  501 -0.00000000000E+00  0.00000000000E+00  0.14306047151E+03  0.14306047151E+03  0.00000000000E+00 0.  1.
          2   -1    0    0  503    0  0.00000000000E+00 -0.00000000000E+00 -0.68066296953E+03  0.68066296953E+03  0.00000000000E+00 0. -1.
          6    2    1    2  503    0 -0.17697770039E+03 -0.14898200901E+02 -0.14303494636E+02  0.24648927089E+03  0.17032119034E+03 0.  0.
         24    2    3    3    0    0 -0.15572422587E+03 -0.19565902034E+01  0.46106296255E+02  0.18098638315E+03  0.79852473742E+02 0.  0.
         -6    2    1    2    0  501  0.17697770039E+03  0.14898200901E+02 -0.52329900338E+03  0.57723417014E+03  0.16677642943E+03 0.  0.
        -24    2    5    5    0    0  0.11043127371E+03  0.82872084243E+01 -0.17332102540E+03  0.22089331198E+03  0.80560122852E+02 0.  0.
          4    1    4    4  502    0 -0.57611488600E+01  0.99079077110E+01 -0.14777443011E+02  0.18701077331E+02  0.00000000000E+00 0. -1.
         -3    1    4    4    0  502 -0.14996307701E+03 -0.11864497914E+02  0.60883739267E+02  0.16228530582E+03  0.00000000000E+00 0.  1.
          5    1    3    3  503    0 -0.21253474521E+02 -0.12941610697E+02 -0.60409790892E+02  0.65502887740E+02  0.47000000000E+01 0. -1.
         13    1    6    6    0    0  0.49555679829E+02 -0.10767483551E+02 -0.19431603688E+02  0.54307378203E+02  0.00000000000E+00 0. -1.
        -14    1    6    6    0    0  0.60875593881E+02  0.19054691976E+02 -0.15388942171E+03  0.16658593378E+03  0.00000000000E+00 0.  1.
         -5    1    5    5    0  501  0.66546426679E+02  0.66109924763E+01 -0.34997797798E+03  0.35634085817E+03  0.47000000000E+01 0.  1.
<mgrwt>
<rscale>  2 0.24485083E+03</rscale>
<asrwt>0</asrwt>
<pdfrwt beam="2">  1        2 0.10471738E+00 0.24485083E+03</pdfrwt>
<pdfrwt beam="1">  1       -2 0.22009303E-01 0.24485083E+03</pdfrwt>
<totfact> 0.77543785E+02</totfact>
</mgrwt>
</event>
<event>
12    1  0.1093377E-001  0.2125663E+03  0.7546771E-02  0.1139550E+00
         -2   -1    0    0    0  501 -0.00000000000E+00  0.00000000000E+00  0.44427982645E+02  0.44427982645E+02  0.00000000000E+00 0. -1.
          2   -1    0    0  503    0  0.00000000000E+00 -0.00000000000E+00 -0.10194943566E+04  0.10194943566E+04  0.00000000000E+00 0.  1.
          6    2    1    2  503    0 -0.12523334539E+03 -0.11552067608E+01 -0.51713807740E+03  0.55974930722E+03  0.17378944312E+03 0.  0.
         24    2    3    3    0    0 -0.91782415010E+02 -0.37347213020E+02 -0.48290272137E+03  0.49955814788E+03  0.80897952890E+02 0.  0.
         -6    2    1    2    0  501  0.12523334539E+03  0.11552067608E+01 -0.45792829657E+03  0.50417303204E+03  0.16972741716E+03 0.  0.
        -24    2    5    5    0    0  0.13252018370E+03  0.33107142671E+02 -0.27148034102E+03  0.31480842513E+03  0.82128478554E+02 0.  0.
          2    1    4    4  502    0 -0.46229188193E+02 -0.57580102278E+02 -0.22265572887E+03  0.23458085944E+03  0.00000000000E+00 0. -1.
         -1    1    4    4    0  502 -0.45553226817E+02  0.20232889259E+02 -0.26024699250E+03  0.26497728844E+03  0.00000000000E+00 0.  1.
          5    1    3    3  503    0 -0.33450930380E+02  0.36192006259E+02 -0.34235356028E+02  0.60191159340E+02  0.47000000000E+01 0. -1.
         13    1    6    6    0    0  0.40841133889E+02  0.35951354638E+02 -0.16768996144E+03  0.17629640179E+03  0.00000000000E+00 0. -1.
        -14    1    6    6    0    0  0.91679049807E+02 -0.28442119663E+01 -0.10379037958E+03  0.13851202333E+03  0.00000000000E+00 0.  1.
         -5    1    5    5    0  501 -0.72868383056E+01 -0.31951935911E+02 -0.18644795555E+03  0.18936460691E+03  0.47000000000E+01 0.  1.
<mgrwt>
<rscale>  2 0.21256628E+03</rscale>
<asrwt>0</asrwt>
<pdfrwt beam="2">  1        2 0.15684529E+00 0.21256628E+03</pdfrwt>
<pdfrwt beam="1">  1       -2 0.68350742E-02 0.21256628E+03</pdfrwt>
<totfact> 0.30720919E+03</totfact>
</mgrwt>
</event>
<event>
12    1  0.1093377E-001  0.4448460E+03  0.7546771E-02  0.1029270E+00
         -2   -1    0    0    0  501 -0.00000000000E+00  0.00000000000E+00  0.16353054419E+03  0.16353054419E+03  0.00000000000E+00 0.  1.
          2   -1    0    0  503    0  0.00000000000E+00 -0.00000000000E+00 -0.12173185374E+04  0.12173185374E+04  0.00000000000E+00 0. -1.
          6    2    1    2  503    0 -0.40776187878E+03  0.39796480402E+01 -0.47179097180E+03  0.64728215680E+03  0.17349893964E+03 0.  0.
         24    2    3    3    0    0 -0.15760743203E+03 -0.62274916977E+01 -0.11664596576E+03  0.21273469306E+03  0.82285381553E+02 0.  0.
         -6    2    1    2    0  501  0.40776187878E+03 -0.39796480402E+01 -0.58199702138E+03  0.73356692476E+03  0.18197338491E+03 0.  0.
        -24    2    5    5    0    0  0.23957457270E+03  0.73988070744E+01 -0.46158310017E+03  0.52635196007E+03  0.80849918230E+02 0.  0.
          4    1    4    4  502    0 -0.14673620995E+03  0.11782878629E+02 -0.12181270628E+03  0.19107246518E+03  0.00000000000E+00 0. -1.
         -3    1    4    4    0  502 -0.10871222085E+02 -0.18010370326E+02  0.51667405227E+01  0.21662227876E+02  0.00000000000E+00 0.  1.
          5    1    3    3  503    0 -0.25015444675E+03  0.10207139738E+02 -0.35514500605E+03  0.43454746375E+03  0.47000000000E+01 0. -1.
         13    1    6    6    0    0  0.18071562258E+03  0.39837759824E+02 -0.32074560287E+03  0.37030112762E+03  0.00000000000E+00 0. -1.
        -14    1    6    6    0    0  0.58858950121E+02 -0.32438952750E+02 -0.14083749730E+03  0.15605083246E+03  0.00000000000E+00 0.  1.
         -5    1    5    5    0  501  0.16818730608E+03 -0.11378455115E+02 -0.12041392121E+03  0.20721496468E+03  0.47000000000E+01 0.  1.
<mgrwt>
<rscale>  2 0.44484599E+03</rscale>
<asrwt>0</asrwt>
<pdfrwt beam="2">  1        2 0.18727977E+00 0.44484599E+03</pdfrwt>
<pdfrwt beam="1">  1       -2 0.25158546E-01 0.44484599E+03</pdfrwt>
<totfact> 0.27097489E+02</totfact>
</mgrwt>
</event>
<event>
12    1  0.1093377E-001  0.1978356E+03  0.7546771E-02  0.1151578E+00
         -3   -1    0    0    0  501 -0.00000000000E+00  0.00000000000E+00  0.66122795284E+03  0.66122795284E+03  0.00000000000E+00 0. -1.
          3   -1    0    0  503    0  0.00000000000E+00 -0.00000000000E+00 -0.59673383473E+02  0.59673383473E+02  0.00000000000E+00 0.  1.
          6    2    1    2  503    0 -0.64483797931E+02 -0.70134110543E+02  0.33307013779E+03  0.38735905946E+03  0.17330427172E+03 0.  0.
         24    2    3    3    0    0 -0.38773181652E+01 -0.10019872806E+03  0.18553662160E+03  0.22498524687E+03  0.78356267456E+02 0.  0.
         -6    2    1    2    0  501  0.64483797931E+02  0.70134110543E+02  0.26848443158E+03  0.33354227686E+03  0.17346356043E+03 0.  0.
        -24    2    5    5    0    0  0.84517631161E+02 -0.83850750146E+01  0.16707756243E+03  0.20364978252E+03  0.79654143611E+02 0.  0.
          4    1    4    4  502    0  0.17397864829E+02 -0.92285608453E+02  0.17766832336E+03  0.20096107174E+03  0.00000000000E+00 0. -1.
         -3    1    4    4    0  502 -0.21275182994E+02 -0.79131196110E+01  0.78682982436E+01  0.24024175129E+02  0.00000000000E+00 0.  1.
          5    1    3    3  503    0 -0.60606479765E+02  0.30064617521E+02  0.14753351619E+03  0.16237381259E+03  0.47000000000E+01 0. -1.
         13    1    6    6    0    0  0.19336798966E+02  0.30894191767E+02  0.80586467268E+02  0.88445133195E+02  0.00000000000E+00 0. -1.
        -14    1    6    6    0    0  0.65180832195E+02 -0.39279266782E+02  0.86491095159E+02  0.11520464933E+03  0.00000000000E+00 0.  1.
         -5    1    5    5    0  501 -0.20033833230E+02  0.78519185557E+02  0.10140686915E+03  0.12989249434E+03  0.47000000000E+01 0.  1.
<mgrwt>
<rscale>  2 0.19783562E+03</rscale>
<asrwt>0</asrwt>
<pdfrwt beam="2">  1        3 0.91805210E-02 0.19783562E+03</pdfrwt>
<pdfrwt beam="1">  1       -3 0.10172737E+00 0.19783562E+03</pdfrwt>
<totfact> 0.18050345E+02</totfact>
</mgrwt>
</event>
<event>
12    1  0.1093377E-001  0.2288687E+03  0.7546771E-02  0.1127439E+00
         -2   -1    0    0    0  501 -0.00000000000E+00  0.00000000000E+00  0.50307714092E+03  0.50307714092E+03  0.00000000000E+00 0. -1.
          2   -1    0    0  503    0  0.00000000000E+00 -0.00000000000E+00 -0.15591136042E+03  0.15591136042E+03  0.00000000000E+00 0.  1.
          6    2    1    2  503    0 -0.12727186368E+03  0.78917712773E+02  0.36314339390E+03  0.42889001331E+03  0.17218416394E+03 0.  0.
         24    2    3    3    0    0 -0.74898415832E+02 -0.27074066806E+02  0.18478167300E+03  0.21485209877E+03  0.75328479891E+02 0.  0.
         -6    2    1    2    0  501  0.12727186368E+03 -0.78917712773E+02 -0.15977613395E+02  0.23009848804E+03  0.17396521892E+03 0.  0.
        -24    2    5    5    0    0  0.10142794169E+03  0.13416136828E+02 -0.30685353552E+02  0.13298074657E+03  0.79212801706E+02 0.  0.
          4    1    4    4  502    0 -0.72166757060E+02 -0.26244269227E+02  0.19216283668E+03  0.20693805424E+03  0.00000000000E+00 0. -1.
         -3    1    4    4    0  502 -0.27316587719E+01 -0.82979757896E+00 -0.73811636771E+01  0.79140445346E+01  0.00000000000E+00 0.  1.
          5    1    3    3  503    0 -0.52373447849E+02  0.10599177958E+03  0.17836172089E+03  0.21403791453E+03  0.47000000000E+01 0. -1.
         13    1    6    6    0    0  0.18734847741E+02  0.11548824990E+02 -0.44004300626E+02  0.49201101127E+02  0.00000000000E+00 0. -1.
        -14    1    6    6    0    0  0.82693093948E+02  0.18673118390E+01  0.13318947073E+02  0.83779645448E+02  0.00000000000E+00 0.  1.
         -5    1    5    5    0  501  0.25843921992E+02 -0.92333849602E+02  0.14707740158E+02  0.97117741462E+02  0.47000000000E+01 0.  1.
<mgrwt>
<rscale>  2 0.22886867E+03</rscale>
<asrwt>0</asrwt>
<pdfrwt beam="2">  1        2 0.23986363E-01 0.22886867E+03</pdfrwt>
<pdfrwt beam="1">  1       -2 0.77396482E-01 0.22886867E+03</pdfrwt>
<totfact> 0.34669537E+02</totfact>
</mgrwt>
</event>
<event>
12    1  0.1093377E-001  0.2087377E+03  0.7546771E-02  0.1142570E+00
         -1   -1    0    0    0  501 -0.00000000000E+00  0.00000000000E+00  0.26459481606E+02  0.26459481606E+02  0.00000000000E+00 0. -1.
          1   -1    0    0  503    0  0.00000000000E+00 -0.00000000000E+00 -0.18649874130E+04  0.18649874130E+04  0.00000000000E+00 0.  1.
          6    2    1    2  503    0  0.85819939877E+02  0.93691041619E+02 -0.12645989340E+04  0.12826956904E+04  0.17307425261E+03 0.  0.
         24    2    3    3    0    0  0.58246287906E+01  0.17815266949E+02 -0.82000097800E+03  0.82460638092E+03  0.84986878333E+02 0.  0.
         -6    2    1    2    0  501 -0.85819939877E+02 -0.93691041619E+02 -0.57392899740E+03  0.60875120422E+03  0.15824178090E+03 0.  0.
        -24    2    5    5    0    0 -0.11468216151E+03 -0.94298903934E+02 -0.43453207250E+03  0.46631879918E+03  0.81183859124E+02 0.  0.
          2    1    4    4  502    0 -0.14883256546E+02 -0.28292579409E+02 -0.45509995568E+03  0.45622138380E+03  0.00000000000E+00 0. -1.
         -1    1    4    4    0  502  0.20707885337E+02  0.46107846358E+02 -0.36490102232E+03  0.36838499712E+03  0.00000000000E+00 0.  1.
          5    1    3    3  503    0  0.79995311086E+02  0.75875774670E+02 -0.44459795600E+03  0.45808930948E+03  0.47000000000E+01 0. -1.
         13    1    6    6    0    0 -0.81934294127E+01 -0.15124407935E+02 -0.68349288847E+01  0.18509355845E+02  0.00000000000E+00 0. -1.
        -14    1    6    6    0    0 -0.10648873210E+03 -0.79174496000E+02 -0.42769714362E+03  0.44780944333E+03  0.00000000000E+00 0.  1.
         -5    1    5    5    0  501  0.28862221637E+02  0.60786231575E+00 -0.13939692490E+03  0.14243240504E+03  0.47000000000E+01 0.  1.
<mgrwt>
<rscale>  2 0.20873770E+03</rscale>
<asrwt>0</asrwt>
<pdfrwt beam="2">  1        1 0.28692122E+00 0.20873770E+03</pdfrwt>
<pdfrwt beam="1">  1       -1 0.40706884E-02 0.20873770E+03</pdfrwt>
<totfact> 0.99457232E+02</totfact>
</mgrwt>
</event>
<event>
12    1  0.1093377E-001  0.1912870E+03  0.7546771E-02  0.1157306E+00
          4   -1    0    0  503    0  0.00000000000E+00  0.00000000000E+00  0.53322564238E+02  0.53322564238E+02  0.00000000000E+00 0.  1.
         -4   -1    0    0    0  501 -0.00000000000E+00 -0.00000000000E+00 -0.87294971085E+03  0.87294971085E+03  0.00000000000E+00 0. -1.
          6    2    1    2  503    0  0.80919178522E+02  0.12604159087E+02 -0.62614970678E+03  0.65509290929E+03  0.17428851433E+03 0.  0.
         24    2    3    3    0    0  0.44382370509E+01  0.20902737712E+02 -0.13628133327E+03  0.15919845058E+03  0.79466486508E+02 0.  0.
         -6    2    1    2    0  501 -0.80919178522E+02 -0.12604159087E+02 -0.19347743983E+03  0.27117936579E+03  0.17145830522E+03 0.  0.
        -24    2    5    5    0    0 -0.20084078257E+02 -0.57831059346E+01 -0.19267068789E+03  0.20977759840E+03  0.80298395406E+02 0.  0.
          4    1    4    4  502    0 -0.14050245890E+02  0.37254496251E+02 -0.12655255832E+03  0.13266822121E+03  0.00000000000E+00 0. -1.
         -3    1    4    4    0  502  0.18488482941E+02 -0.16351758539E+02 -0.97287749506E+01  0.26530229377E+02  0.00000000000E+00 0.  1.
          5    1    3    3  503    0  0.76480941471E+02 -0.82985786251E+01 -0.48986837351E+03  0.49589445871E+03  0.47000000000E+01 0. -1.
         13    1    6    6    0    0  0.22343580369E+02  0.20004877752E+02 -0.45834295427E+02  0.54774203370E+02  0.00000000000E+00 0. -1.
        -14    1    6    6    0    0 -0.42427658626E+02 -0.25787983687E+02 -0.14683639246E+03  0.15500339503E+03  0.00000000000E+00 0.  1.
         -5    1    5    5    0  501 -0.60835100265E+02 -0.68210531526E+01 -0.80675194166E+00  0.61401767393E+02  0.47000000000E+01 0.  1.
<mgrwt>
<rscale>  2 0.19128702E+03</rscale>
<asrwt>0</asrwt>
<pdfrwt beam="1">  1        4 0.82034711E-02 0.19128702E+03</pdfrwt>
<pdfrwt beam="2">  1       -4 0.13429996E+00 0.19128702E+03</pdfrwt>
<totfact> 0.78683037E+01</totfact>
</mgrwt>
</event>
<event>
12    1  0.1093377E-001  0.1805851E+03  0.7546771E-02  0.1167238E+00
         -2   -1    0    0    0  501 -0.00000000000E+00  0.00000000000E+00  0.25645640297E+03  0.25645640297E+03  0.00000000000E+00 0.  1.
          2   -1    0    0  503    0  0.00000000000E+00 -0.00000000000E+00 -0.18962469392E+03  0.18962469392E+03  0.00000000000E+00 0. -1.
          6    2    1    2  503    0  0.50926848552E+02  0.93228203309E+01  0.16148528742E+03  0.24260362462E+03  0.17348937069E+03 0.  0.
         24    2    3    3    0    0  0.64386741206E+01 -0.39764982049E+02  0.15021380957E+03  0.17523934462E+03  0.80758460834E+02 0.  0.
         -6    2    1    2    0  501 -0.50926848552E+02 -0.93228203309E+01 -0.94653578377E+02  0.20347747227E+03  0.17252050006E+03 0.  0.
        -24    2    5    5    0    0  0.15226404290E+02 -0.53177648484E+02 -0.70993359250E+02  0.12052329949E+03  0.80162977586E+02 0.  0.
          4    1    4    4  502    0  0.35357526808E+02 -0.41574804254E+02  0.63073592471E+02  0.83408015909E+02  0.00000000000E+00 0. -1.
         -3    1    4    4    0  502 -0.28918852688E+02  0.18098222051E+01  0.87140217095E+02  0.91831328709E+02  0.00000000000E+00 0.  1.
          5    1    3    3  503    0  0.44488174432E+02  0.49087802379E+02  0.11271477854E+02  0.67364279999E+02  0.47000000000E+01 0. -1.
         11    1    6    6    0    0  0.11940798271E+02 -0.64522929166E+02 -0.20617602432E+02  0.68781367983E+02  0.00000000000E+00 0. -1.
        -12    1    6    6    0    0  0.32856060186E+01  0.11345280682E+02 -0.50375756818E+02  0.51741931503E+02  0.00000000000E+00 0.  1.
         -5    1    5    5    0  501 -0.66153252842E+02  0.43854828153E+02 -0.23660219127E+02  0.82954172788E+02  0.47000000000E+01 0.  1.
<mgrwt>
<rscale>  2 0.18058508E+03</rscale>
<asrwt>0</asrwt>
<pdfrwt beam="2">  1        2 0.29173030E-01 0.18058508E+03</pdfrwt>
<pdfrwt beam="1">  1       -2 0.39454832E-01 0.18058508E+03</pdfrwt>
<totfact> 0.10976498E+03</totfact>
</mgrwt>
</event>
<event>
12    1  0.1093377E-001  0.1937001E+03  0.7546771E-02  0.1155166E+00
         -2   -1    0    0    0  501 -0.00000000000E+00  0.00000000000E+00  0.65293044870E+02  0.65293044870E+02  0.00000000000E+00 0. -1.
          2   -1    0    0  503    0  0.00000000000E+00 -0.00000000000E+00 -0.79705076757E+03  0.79705076757E+03  0.00000000000E+00 0.  1.
          6    2    1    2  503    0  0.72668680434E+02  0.49165175007E+02 -0.59382867662E+03  0.62466357153E+03  0.17284134016E+03 0.  0.
         24    2    3    3    0    0  0.77391290349E+02  0.67299642049E+02 -0.59109588191E+03  0.60515152125E+03  0.79343357718E+02 0.  0.
         -6    2    1    2    0  501 -0.72668680434E+02 -0.49165175007E+02 -0.13792904608E+03  0.23768024091E+03  0.17253846997E+03 0.  0.
        -24    2    5    5    0    0  0.14324443906E+02  0.17209292682E+02 -0.50693545429E+02  0.97660612941E+02  0.80413993334E+02 0.  0.
          2    1    4    4  502    0 -0.12703871644E+00 -0.93483889172E+01 -0.16724193345E+03  0.16750305317E+03  0.00000000000E+00 0. -1.
         -1    1    4    4    0  502  0.77518329066E+02  0.76648030967E+02 -0.42385394846E+03  0.43764846808E+03  0.00000000000E+00 0.  1.
          5    1    3    3  503    0 -0.47226099155E+01 -0.18134467042E+02 -0.27327947114E+01  0.19512050283E+02  0.47000000000E+01 0. -1.
         13    1    6    6    0    0  0.75496207862E+01 -0.25099135356E+02  0.57132002224E+01  0.26825436183E+02  0.00000000000E+00 0. -1.
        -14    1    6    6    0    0  0.67748231199E+01  0.42308428038E+02 -0.56406745651E+02  0.70835176758E+02  0.00000000000E+00 0.  1.
         -5    1    5    5    0  501 -0.86993124340E+02 -0.66374467690E+02 -0.87235500651E+02  0.14001962797E+03  0.47000000000E+01 0.  1.
<mgrwt>
<rscale>  2 0.19370013E+03</rscale>
<asrwt>0</asrwt>
<pdfrwt beam="2">  1        2 0.12262319E+00 0.19370013E+03</pdfrwt>
<pdfrwt beam="1">  1       -2 0.10045084E-01 0.19370013E+03</pdfrwt>
<totfact> 0.23319781E+03</totfact>
</mgrwt>
</event>
<event>
12    1  0.1093377E-001  0.1987959E+03  0.7546771E-02  0.1150759E+00
          1   -1    0    0  503    0  0.00000000000E+00  0.00000000000E+00  0.75791378616E+03  0.75791378616E+03  0.00000000000E+00 0.  1.
         -1   -1    0    0    0  501 -0.00000000000E+00 -0.00000000000E+00 -0.72575010678E+02  0.72575010678E+02  0.00000000000E+00 0. -1.
          6    2    1    2  503    0 -0.70918876542E+02 -0.67309384816E+02  0.56339942146E+03  0.59755225081E+03  0.17346395597E+03 0.  0.
         24    2    3    3    0    0 -0.41928519443E+02 -0.13589251630E+02  0.11599443027E+03  0.14597766156E+03  0.76890190013E+02 0.  0.
         -6    2    1    2    0  501  0.70918876542E+02  0.67309384816E+02  0.12193935403E+03  0.23293654603E+03  0.17271418031E+03 0.  0.
        -24    2    5    5    0    0  0.30382951962E+02  0.10415439167E+03  0.64519397799E+02  0.15343901723E+03  0.87232552650E+02 0.  0.
          2    1    4    4  502    0 -0.62654677180E+01 -0.94298873650E+01 -0.99146633697E+01  0.15049232910E+02  0.00000000000E+00 0. -1.
         -1    1    4    4    0  502 -0.35663051725E+02 -0.41593642647E+01  0.12590909364E+03  0.13092842865E+03  0.00000000000E+00 0.  1.
          5    1    3    3  503    0 -0.28990357099E+02 -0.53720133186E+02  0.44740499119E+03  0.45157458925E+03  0.47000000000E+01 0. -1.
         13    1    6    6    0    0 -0.24924394238E+02  0.16174359599E+02 -0.24435709494E+01  0.29812855877E+02  0.00000000000E+00 0. -1.
        -14    1    6    6    0    0  0.55307346200E+02  0.87980032071E+02  0.66962968748E+02  0.12362616135E+03  0.00000000000E+00 0.  1.
         -5    1    5    5    0  501  0.40535924581E+02 -0.36845006853E+02  0.57419956228E+02  0.79497528797E+02  0.47000000000E+01 0.  1.
<mgrwt>
<rscale>  2 0.19879586E+03</rscale>
<asrwt>0</asrwt>
<pdfrwt beam="1">  1        1 0.11660212E+00 0.19879586E+03</pdfrwt>
<pdfrwt beam="2">  1       -1 0.11165387E-01 0.19879586E+03</pdfrwt>
<totfact> 0.12838449E+03</totfact>
</mgrwt>
</event>
<event>
12    1  0.1093377E-001  0.1877727E+03  0.7546771E-02  0.1160486E+00
         -2   -1    0    0    0  501 -0.00000000000E+00  0.00000000000E+00  0.11562127767E+03  0.11562127767E+03  0.00000000000E+00 0. -1.
          2   -1    0    0  503    0  0.00000000000E+00 -0.00000000000E+00 -0.30521389823E+03  0.30521389823E+03  0.00000000000E+00 0.  1.
          6    2    1    2  503    0  0.54804333598E+02 -0.48392859985E+02 -0.88675905259E+02  0.20779714862E+03  0.17312092572E+03 0.  0.
         24    2    3    3    0    0  0.86475592082E+02 -0.78437473019E+02 -0.79292412207E+02  0.16289851470E+03  0.81352161975E+02 0.  0.
         -6    2    1    2    0  501 -0.54804333598E+02  0.48392859985E+02 -0.10091671530E+03  0.21303802728E+03  0.17278782874E+03 0.  0.
        -24    2    5    5    0    0 -0.87406965903E+02  0.54963413255E+02 -0.12044223597E+03  0.17418651816E+03  0.71928133698E+02 0.  0.
          2    1    4    4  502    0  0.89231044161E+02 -0.30540316548E+02 -0.53403990791E+02  0.10838300794E+03  0.00000000000E+00 0. -1.
         -1    1    4    4    0  502 -0.27554520786E+01 -0.47897156472E+02 -0.25888421416E+02  0.54515506763E+02  0.00000000000E+00 0.  1.
          5    1    3    3  503    0 -0.31671258484E+02  0.30044613034E+02 -0.93834930513E+01  0.44898633923E+02  0.47000000000E+01 0. -1.
         11    1    6    6    0    0 -0.41003648330E+02 -0.96095125366E+01 -0.64235019363E+02  0.76810022914E+02  0.00000000000E+00 0. -1.
        -12    1    6    6    0    0 -0.46403317573E+02  0.64572925792E+02 -0.56207216606E+02  0.97376495242E+02  0.00000000000E+00 0.  1.
         -5    1    5    5    0  501  0.32602632305E+02 -0.65705532697E+01  0.19525520670E+02  0.38851509120E+02  0.47000000000E+01 0.  1.
<mgrwt>
<rscale>  2 0.18777268E+03</rscale>
<asrwt>0</asrwt>
<pdfrwt beam="2">  1        2 0.46955984E-01 0.18777268E+03</pdfrwt>
<pdfrwt beam="1">  1       -2 0.17787889E-01 0.18777268E+03</pdfrwt>
<totfact> 0.27121117E+03</totfact>
</mgrwt>
</event>
<event>
12    1  0.1093377E-001  0.3401994E+03  0.7546771E-02  0.1066711E+00
         -1   -1    0    0    0  501 -0.00000000000E+00  0.00000000000E+00  0.12362911762E+03  0.12362911762E+03  0.00000000000E+00 0.  1.
          1   -1    0    0  503    0  0.00000000000E+00 -0.00000000000E+00 -0.95165061402E+03  0.95165061402E+03  0.00000000000E+00 0. -1.
          6    2    1    2  503    0  0.20388076001E+02  0.28869644066E+03 -0.34932056359E+03  0.48980377124E+03  0.18472024709E+03 0.  0.
         24    2    3    3    0    0  0.16341190511E+02  0.10648797191E+03 -0.24022394689E+03  0.27734091534E+03  0.87199288923E+02 0.  0.
         -6    2    1    2    0  501 -0.20388076001E+02 -0.28869644066E+03 -0.47870093281E+03  0.58547596039E+03  0.17281842677E+03 0.  0.
        -24    2    5    5    0    0 -0.33592560926E+02 -0.17087525160E+03 -0.39892529726E+03  0.44249892363E+03  0.79605859487E+02 0.  0.
          2    1    4    4  502    0  0.40979158456E+02  0.91991954827E+02 -0.13574723015E+03  0.16902402691E+03  0.00000000000E+00 0. -1.
         -1    1    4    4    0  502 -0.24637967945E+02  0.14496017083E+02 -0.10447671674E+03  0.10831688842E+03  0.00000000000E+00 0.  1.
          5    1    3    3  503    0  0.40468854899E+01  0.18220846875E+03 -0.10909661670E+03  0.21246285591E+03  0.47000000000E+01 0. -1.
         11    1    6    6    0    0 -0.17564524586E+02 -0.13389900484E+02 -0.13632476513E+02  0.25954698510E+02  0.00000000000E+00 0. -1.
        -12    1    6    6    0    0 -0.16028036340E+02 -0.15748535112E+03 -0.38529282074E+03  0.41654422512E+03  0.00000000000E+00 0.  1.
         -5    1    5    5    0  501  0.13204484925E+02 -0.11782118905E+03 -0.79775635552E+02  0.14297703676E+03  0.47000000000E+01 0.  1.
<mgrwt>
<rscale>  2 0.34019941E+03</rscale>
<asrwt>0</asrwt>
<pdfrwt beam="2">  1        1 0.14640778E+00 0.34019941E+03</pdfrwt>
<pdfrwt beam="1">  1       -1 0.19019865E-01 0.34019941E+03</pdfrwt>
<totfact> 0.38080612E+02</totfact>
</mgrwt>
</event>
<event>
12    1  0.1093377E-001  0.2419828E+03  0.7546771E-02  0.1118479E+00
          2   -1    0    0  503    0  0.00000000000E+00  0.00000000000E+00  0.22925566510E+04  0.22925566510E+04  0.00000000000E+00 0. -1.
         -2   -1    0    0    0  501 -0.00000000000E+00 -0.00000000000E+00 -0.26341066782E+02  0.26341066782E+02  0.00000000000E+00 0.  1.
          6    2    1    2  503    0 -0.15835752470E+03 -0.59763721515E+02  0.13332302568E+04  0.13549395237E+04  0.17236411261E+03 0.  0.
         24    2    3    3    0    0 -0.15163520177E+03 -0.95449127527E+02  0.95771010343E+03  0.97763843255E+03  0.80402066061E+02 0.  0.
         -6    2    1    2    0  501  0.15835752470E+03  0.59763721515E+02  0.93298532741E+03  0.96395819403E+03  0.17350784028E+03 0.  0.
        -24    2    5    5    0    0  0.15738878953E+03 -0.37322574319E+01  0.60239247287E+03  0.62728861824E+03  0.76348925269E+02 0.  0.
          4    1    4    4  502    0 -0.11500465723E+03 -0.35344901620E+02  0.48411307189E+03  0.49883945276E+03  0.00000000000E+00 0. -1.
         -3    1    4    4    0  502 -0.36630544540E+02 -0.60104225906E+02  0.47359703154E+03  0.47879897979E+03  0.00000000000E+00 0.  1.
          5    1    3    3  503    0 -0.67223229294E+01  0.35685406012E+02  0.37552015335E+03  0.37730109117E+03  0.47000000000E+01 0. -1.
         13    1    6    6    0    0  0.81168869045E+02  0.72817761638E+01  0.44096372444E+03  0.44843106030E+03  0.00000000000E+00 0. -1.
        -14    1    6    6    0    0  0.76219920481E+02 -0.11014033596E+02  0.16142874843E+03  0.17885755794E+03  0.00000000000E+00 0.  1.
         -5    1    5    5    0  501  0.96873517387E+00  0.63495978947E+02  0.33059285454E+03  0.33666957579E+03  0.47000000000E+01 0.  1.
<mgrwt>
<rscale>  2 0.24198275E+03</rscale>
<asrwt>0</asrwt>
<pdfrwt beam="1">  1        2 0.35270087E+00 0.24198275E+03</pdfrwt>
<pdfrwt beam="2">  1       -2 0.40524736E-02 0.24198275E+03</pdfrwt>
<totfact> 0.14045333E+03</totfact>
</mgrwt>
</event>
<event>
12    1  0.1093377E-001  0.1808367E+03  0.7546771E-02  0.1166996E+00
         -1   -1    0    0    0  501 -0.00000000000E+00  0.00000000000E+00  0.73223929809E+02  0.73223929809E+02  0.00000000000E+00 0. -1.
          1   -1    0    0  503    0  0.00000000000E+00 -0.00000000000E+00 -0.12102082927E+04  0.12102082927E+04  0.00000000000E+00 0.  1.
          6    2    1    2  503    0  0.15355251854E+02 -0.42111722367E+02 -0.58362202219E+02  0.18970002053E+03  0.17484498912E+03 0.  0.
         24    2    3    3    0    0 -0.59064802449E+02 -0.29164749017E+02 -0.32033263101E+02  0.10956718309E+03  0.81483766428E+02 0.  0.
         -6    2    1    2    0  501 -0.15355251854E+02  0.42111722367E+02 -0.10786221607E+04  0.10937322020E+04  0.17554253967E+03 0.  0.
        -24    2    5    5    0    0 -0.66100686449E+01  0.42886787258E+02 -0.26009923620E+03  0.27514870176E+03  0.78563514919E+02 0.  0.
          4    1    4    4  502    0 -0.76250864879E+02 -0.37969857570E+02 -0.22901521695E+02  0.88206486012E+02  0.00000000000E+00 0. -1.
         -3    1    4    4    0  502  0.17186062430E+02  0.88051085522E+01 -0.91317414062E+01  0.21360697076E+02  0.00000000000E+00 0.  1.
          5    1    3    3  503    0  0.74420054302E+02 -0.12946973349E+02 -0.26328939118E+02  0.80132837441E+02  0.47000000000E+01 0. -1.
         13    1    6    6    0    0 -0.95991757493E+01  0.41369684636E+02 -0.26545484562E+03  0.26883056010E+03  0.00000000000E+00 0. -1.
        -14    1    6    6    0    0  0.29891071044E+01  0.15171026217E+01  0.53556094211E+01  0.63181416506E+01  0.00000000000E+00 0.  1.
         -5    1    5    5    0  501 -0.87451832088E+01 -0.77506489150E+00 -0.81852292450E+03  0.81858350025E+03  0.47000000000E+01 0.  1.
<mgrwt>
<rscale>  2 0.18083675E+03</rscale>
<asrwt>0</asrwt>
<pdfrwt beam="2">  1        1 0.18618588E+00 0.18083675E+03</pdfrwt>
<pdfrwt beam="1">  1       -1 0.11265221E-01 0.18083675E+03</pdfrwt>
<totfact> 0.57733001E+02</totfact>
</mgrwt>
</event>
<event>
12    1  0.1093377E-001  0.1845229E+03  0.7546771E-02  0.1163496E+00
         -2   -1    0    0    0  501 -0.00000000000E+00  0.00000000000E+00  0.23960162307E+02  0.23960162307E+02  0.00000000000E+00 0. -1.
          2   -1    0    0  503    0  0.00000000000E+00 -0.00000000000E+00 -0.19712881657E+04  0.19712881657E+04  0.00000000000E+00 0.  1.
          6    2    1    2  503    0 -0.61889805797E+02 -0.31143102576E+02 -0.43780312217E+03  0.47419867404E+03  0.16850094297E+03 0.  0.
         24    2    3    3    0    0 -0.77876931374E+02  0.27872071942E+01 -0.41627870018E+03  0.43069873327E+03  0.78363624521E+02 0.  0.
         -6    2    1    2    0  501  0.61889805797E+02  0.31143102576E+02 -0.15095248812E+04  0.15210496539E+04  0.17356970328E+03 0.  0.
        -24    2    5    5    0    0 -0.30950329434E+02  0.38369211001E+02 -0.79919029855E+03  0.80462183716E+03  0.79253064873E+02 0.  0.
          4    1    4    4  502    0 -0.32623939903E+02  0.38348435949E+02 -0.14843936069E+03  0.15674555112E+03  0.00000000000E+00 0. -1.
         -3    1    4    4    0  502 -0.45252991472E+02 -0.35561228754E+02 -0.26783933949E+03  0.27395318215E+03  0.00000000000E+00 0.  1.
          5    1    3    3  503    0  0.15987125578E+02 -0.33930309770E+02 -0.21524421984E+02  0.43499940771E+02  0.47000000000E+01 0. -1.
         13    1    6    6    0    0  0.27911501611E+01  0.48762104478E+02 -0.27963972440E+03  0.28387305052E+03  0.00000000000E+00 0. -1.
        -14    1    6    6    0    0 -0.33741479595E+02 -0.10392893478E+02 -0.51955057415E+03  0.52074878664E+03  0.00000000000E+00 0.  1.
         -5    1    5    5    0  501  0.92840135231E+02 -0.72261084251E+01 -0.71033458266E+03  0.71642781679E+03  0.47000000000E+01 0.  1.
<mgrwt>
<rscale>  2 0.18452293E+03</rscale>
<asrwt>0</asrwt>
<pdfrwt beam="2">  1        2 0.30327509E+00 0.18452293E+03</pdfrwt>
<pdfrwt beam="1">  1       -2 0.36861790E-02 0.18452293E+03</pdfrwt>
<totfact> 0.24000689E+03</totfact>
</mgrwt>
</event>
<event>
12    1  0.1093377E-001  0.2168303E+03  0.7546771E-02  0.1136269E+00
         -1   -1    0    0    0  501 -0.00000000000E+00  0.00000000000E+00  0.33873122795E+03  0.33873122795E+03  0.00000000000E+00 0.  1.
          1   -1    0    0  503    0  0.00000000000E+00 -0.00000000000E+00 -0.15396753149E+03  0.15396753149E+03  0.00000000000E+00 0. -1.
          6    2    1    2  503    0  0.12233256250E+03 -0.43896703553E+02  0.16967003317E+03  0.27524973665E+03  0.17344255804E+03 0.  0.
         24    2    3    3    0    0  0.14028974507E+03  0.17986904411E+01  0.10146706541E+03  0.19108166522E+03  0.80821962114E+02 0.  0.
         -6    2    1    2    0  501 -0.12233256250E+03  0.43896703553E+02  0.15093663292E+02  0.21744902279E+03  0.17367809997E+03 0.  0.
        -24    2    5    5    0    0 -0.29327517676E+02  0.49670732413E+02 -0.42874409876E+02  0.10760520057E+03  0.80083576442E+02 0.  0.
          2    1    4    4  502    0  0.16663372477E+02  0.24179844679E+02  0.44065336767E+02  0.52953628538E+02  0.00000000000E+00 0. -1.
         -1    1    4    4    0  502  0.12362637259E+03 -0.22381154238E+02  0.57401728645E+02  0.13812803668E+03  0.00000000000E+00 0.  1.
          5    1    3    3  503    0 -0.17957182566E+02 -0.45695393995E+02  0.68202967762E+02  0.84168071438E+02  0.47000000000E+01 0. -1.
         11    1    6    6    0    0  0.14887988036E+01 -0.20930632430E+02 -0.14526383384E+02  0.25521044454E+02  0.00000000000E+00 0. -1.
        -12    1    6    6    0    0 -0.30816316480E+02  0.70601364843E+02 -0.28348026493E+02  0.82084156115E+02  0.00000000000E+00 0.  1.
         -5    1    5    5    0  501 -0.93005044826E+02 -0.57740288591E+01  0.57968073168E+02  0.10984382222E+03  0.47000000000E+01 0.  1.
<mgrwt>
<rscale>  2 0.21683026E+03</rscale>
<asrwt>0</asrwt>
<pdfrwt beam="2">  1        1 0.23687313E-01 0.21683026E+03</pdfrwt>
<pdfrwt beam="1">  1       -1 0.52112496E-01 0.21683026E+03</pdfrwt>
<totfact> 0.77977048E+02</totfact>
</mgrwt>
</event>
<event>
12    1  0.1093377E-001  0.2236623E+03  0.7546771E-02  0.1131182E+00
          2   -1    0    0  503    0  0.00000000000E+00  0.00000000000E+00  0.13553538526E+04  0.13553538526E+04  0.00000000000E+00 0.  1.
         -2   -1    0    0    0  501 -0.00000000000E+00 -0.00000000000E+00 -0.37042846205E+02  0.37042846205E+02  0.00000000000E+00 0. -1.
          6    2    1    2  503    0  0.59592145691E+02 -0.13242887393E+03  0.70609750172E+03  0.74124556654E+03  0.17257658445E+03 0.  0.
         24    2    3    3    0    0  0.87514074016E+02 -0.67968565980E+02  0.58757618941E+03  0.60339000135E+03  0.80964660513E+02 0.  0.
         -6    2    1    2    0  501 -0.59592145691E+02  0.13242887393E+03  0.61221350465E+03  0.65115113224E+03  0.16764185415E+03 0.  0.
        -24    2    5    5    0    0 -0.12203349454E+02  0.10159646151E+02  0.17618211300E+03  0.19580409253E+03  0.83946206353E+02 0.  0.
          4    1    4    4  502    0  0.65995730036E+02 -0.81355853553E+02  0.53326188857E+03  0.54345418674E+03  0.00000000000E+00 0. -1.
         -3    1    4    4    0  502  0.21518343980E+02  0.13387287574E+02  0.54314300844E+02  0.59935814605E+02  0.00000000000E+00 0.  1.
          5    1    3    3  503    0 -0.27921928325E+02 -0.64460307955E+02  0.11852131231E+03  0.13785556519E+03  0.47000000000E+01 0. -1.
         13    1    6    6    0    0  0.18353055118E+01  0.26581493840E+02  0.10371943124E+02  0.28592330532E+02  0.00000000000E+00 0. -1.
        -14    1    6    6    0    0 -0.14038654966E+02 -0.16421847689E+02  0.16581016988E+03  0.16721176199E+03  0.00000000000E+00 0.  1.
         -5    1    5    5    0  501 -0.47388796236E+02  0.12226922778E+03  0.43603139165E+03  0.45534703972E+03  0.47000000000E+01 0.  1.
<mgrwt>
<rscale>  2 0.22366230E+03</rscale>
<asrwt>0</asrwt>
<pdfrwt beam="1">  1        2 0.20851594E+00 0.22366230E+03</pdfrwt>
<pdfrwt beam="2">  1       -2 0.56989005E-02 0.22366230E+03</pdfrwt>
<totfact> 0.26171066E+03</totfact>
</mgrwt>
</event>
<event>
12    1  0.1093377E-001  0.2093453E+03  0.7546771E-02  0.1142085E+00
         -2   -1    0    0    0  501 -0.00000000000E+00  0.00000000000E+00  0.24850439905E+02  0.24850439905E+02  0.00000000000E+00 0.  1.
          2   -1    0    0  503    0  0.00000000000E+00 -0.00000000000E+00 -0.20068562982E+04  0.20068562982E+04  0.00000000000E+00 0. -1.
          6    2    1    2  503    0 -0.85663961312E+02  0.80989923101E+02 -0.63894139816E+03  0.67248502670E+03  0.17347137788E+03 0.  0.
         24    2    3    3    0    0 -0.70677269817E+02  0.44376745973E+02 -0.19325602391E+03  0.22502254952E+03  0.79515312772E+02 0.  0.
         -6    2    1    2    0  501  0.85663961312E+02 -0.80989923101E+02 -0.13430644601E+04  0.13592217114E+04  0.17252198341E+03 0.  0.
        -24    2    5    5    0    0  0.43337613332E+01 -0.71832757039E+02 -0.10203370463E+04  0.10262449423E+04  0.83140044983E+02 0.  0.
          2    1    4    4  502    0  0.12301021414E+02  0.21668703620E+02 -0.21436666292E+02  0.32869111733E+02  0.00000000000E+00 0. -1.
         -1    1    4    4    0  502 -0.82978291231E+02  0.22708042353E+02 -0.17181935761E+03  0.19215343779E+03  0.00000000000E+00 0.  1.
          5    1    3    3  503    0 -0.14986691494E+02  0.36613177128E+02 -0.44568537425E+03  0.44746247718E+03  0.47000000000E+01 0. -1.
         11    1    6    6    0    0  0.34058860767E+02 -0.52797131546E+02 -0.84833054135E+03  0.85065401338E+03  0.00000000000E+00 0. -1.
        -12    1    6    6    0    0 -0.29725099433E+02 -0.19035625493E+02 -0.17200650495E+03  0.17559092892E+03  0.00000000000E+00 0.  1.
         -5    1    5    5    0  501  0.81330199979E+02 -0.91571660616E+01 -0.32272741380E+03  0.33297676907E+03  0.47000000000E+01 0.  1.
<mgrwt>
<rscale>  2 0.20934529E+03</rscale>
<asrwt>0</asrwt>
<pdfrwt beam="2">  1        2 0.30874711E+00 0.20934529E+03</pdfrwt>
<pdfrwt beam="1">  1       -2 0.38231447E-02 0.20934529E+03</pdfrwt>
<totfact> 0.21750277E+03</totfact>
</mgrwt>
</event>
<event>
12    1  0.1093377E-001  0.2216859E+03  0.7546771E-02  0.1132632E+00
         -2   -1    0    0    0  501 -0.00000000000E+00  0.00000000000E+00  0.10671303721E+03  0.10671303721E+03  0.00000000000E+00 0. -1.
          2   -1    0    0  503    0  0.00000000000E+00 -0.00000000000E+00 -0.47121592025E+03  0.47121592025E+03  0.00000000000E+00 0.  1.
          6    2    1    2  503    0 -0.13502528282E+03  0.37200409384E+02 -0.22633476579E+03  0.31732203796E+03  0.17277196564E+03 0.  0.
         24    2    3    3    0    0 -0.12142526378E+03 -0.22271016123E+02 -0.20557367235E+03  0.25270838638E+03  0.79755256516E+02 0.  0.
         -6    2    1    2    0  501  0.13502528282E+03 -0.37200409384E+02 -0.13816811725E+03  0.26060691950E+03  0.17090886580E+03 0.  0.
        -24    2    5    5    0    0  0.58592152433E+02  0.17802955898E+02 -0.86330417197E+01  0.10039200320E+03  0.79082484353E+02 0.  0.
          2    1    4    4  502    0 -0.97697876850E+02 -0.35350651397E+00 -0.19602995377E+03  0.21902680860E+03  0.00000000000E+00 0. -1.
         -1    1    4    4    0  502 -0.23727386928E+02 -0.21917509609E+02 -0.95437185776E+01  0.33681577786E+02  0.00000000000E+00 0.  1.
          5    1    3    3  503    0 -0.13600019045E+02  0.59471425507E+02 -0.20761093441E+02  0.64613651581E+02  0.47000000000E+01 0. -1.
         11    1    6    6    0    0  0.59676221122E+02 -0.17843648664E+02 -0.15235096252E+02  0.64122970322E+02  0.00000000000E+00 0. -1.
        -12    1    6    6    0    0 -0.10840686891E+01  0.35646604562E+02  0.66020545328E+01  0.36269032877E+02  0.00000000000E+00 0.  1.
         -5    1    5    5    0  501  0.76433130390E+02 -0.55003365282E+02 -0.12953507553E+03  0.16021491630E+03  0.47000000000E+01 0.  1.
<mgrwt>
<rscale>  2 0.22168593E+03</rscale>
<asrwt>0</asrwt>
<pdfrwt beam="2">  1        2 0.72494757E-01 0.22168593E+03</pdfrwt>
<pdfrwt beam="1">  1       -2 0.16417390E-01 0.22168593E+03</pdfrwt>
<totfact> 0.19470161E+03</totfact>
</mgrwt>
</event>
<event>
12    1  0.1093377E-001  0.2399579E+03  0.7546771E-02  0.1119821E+00
         -1   -1    0    0    0  501 -0.00000000000E+00  0.00000000000E+00  0.17906932389E+03  0.17906932389E+03  0.00000000000E+00 0.  1.
          1   -1    0    0  503    0  0.00000000000E+00 -0.00000000000E+00 -0.49912814279E+03  0.49912814279E+03  0.00000000000E+00 0. -1.
          6    2    1    2  503    0 -0.11796200799E+03 -0.11382137808E+03 -0.36184210864E+03  0.43360673200E+03  0.17382389081E+03 0.  0.
         24    2    3    3    0    0 -0.40827647438E+02 -0.55105775235E+02 -0.70474688977E+02  0.12650040703E+03  0.79574668921E+02 0.  0.
         -6    2    1    2    0  501  0.11796200799E+03  0.11382137808E+03  0.41783289731E+02  0.24459073468E+03  0.17665911455E+03 0.  0.
        -24    2    5    5    0    0  0.90100930703E+02  0.11098924886E+02 -0.17286368416E+02  0.12277342666E+03  0.80827791723E+02 0.  0.
          2    1    4    4  502    0 -0.64265138594E+02 -0.31021709119E+02 -0.45529427800E+02  0.84647996261E+02  0.00000000000E+00 0. -1.
         -1    1    4    4    0  502  0.23437491156E+02 -0.24084066116E+02 -0.24945261177E+02  0.41852410774E+02  0.00000000000E+00 0.  1.
          5    1    3    3  503    0 -0.77134360554E+02 -0.58715602847E+02 -0.29136741966E+03  0.30710632497E+03  0.47000000000E+01 0. -1.
         11    1    6    6    0    0  0.46368116767E+01 -0.24734159853E+02 -0.16511011233E+02  0.30098042762E+02  0.00000000000E+00 0. -1.
        -12    1    6    6    0    0  0.85464119026E+02  0.35833084739E+02 -0.77535718320E+00  0.92675383903E+02  0.00000000000E+00 0.  1.
         -5    1    5    5    0  501  0.27861077289E+02  0.10272245320E+03  0.59069658147E+02  0.12181730801E+03  0.47000000000E+01 0.  1.
<mgrwt>
<rscale>  2 0.23995790E+03</rscale>
<asrwt>0</asrwt>
<pdfrwt beam="2">  1        1 0.76788945E-01 0.23995790E+03</pdfrwt>
<pdfrwt beam="1">  1       -1 0.27549127E-01 0.23995790E+03</pdfrwt>
<totfact> 0.53838702E+02</totfact>
</mgrwt>
</event>
<event>
12    1  0.1093377E-001  0.1838165E+03  0.7546771E-02  0.1164160E+00
         -3   -1    0    0    0  501 -0.00000000000E+00  0.00000000000E+00  0.37265443561E+03  0.37265443561E+03  0.00000000000E+00 0.  1.
          3   -1    0    0  503    0  0.00000000000E+00 -0.00000000000E+00 -0.92638029284E+02  0.92638029284E+02  0.00000000000E+00 0. -1.
          6    2    1    2  503    0  0.19181563561E+02 -0.59036810063E+02  0.10671642880E+03  0.21325060678E+03  0.17387969344E+03 0.  0.
         24    2    3    3    0    0  0.12648556527E+02 -0.50672551663E+02 -0.95732473227E+01  0.96383075901E+02  0.80438527968E+02 0.  0.
         -6    2    1    2    0  501 -0.19181563561E+02  0.59036810063E+02  0.17329997752E+03  0.25204185811E+03  0.17215963148E+03 0.  0.
        -24    2    5    5    0    0 -0.74983567350E+02  0.71669917971E+02  0.93276855021E+02  0.15355709190E+03  0.64187976094E+02 0.  0.
          2    1    4    4  502    0 -0.92473489712E+01 -0.36816758232E+02 -0.40851620226E+02  0.55765957580E+02  0.00000000000E+00 0. -1.
         -1    1    4    4    0  502  0.21895905499E+02 -0.13855793431E+02  0.31278372904E+02  0.40617118321E+02  0.00000000000E+00 0.  1.
          5    1    3    3  503    0  0.65330070334E+01 -0.83642584001E+01  0.11628967613E+03  0.11686753088E+03  0.47000000000E+01 0. -1.
         13    1    6    6    0    0 -0.41529045312E+02  0.12130467221E+01  0.18406022602E+02  0.45441333111E+02  0.00000000000E+00 0. -1.
        -14    1    6    6    0    0 -0.33454522038E+02  0.70456871249E+02  0.74870832419E+02  0.10811575879E+03  0.00000000000E+00 0.  1.
         -5    1    5    5    0  501  0.55802003789E+02 -0.12633107908E+02  0.80023122496E+02  0.98484766214E+02  0.47000000000E+01 0.  1.
<mgrwt>
<rscale>  2 0.18381651E+03</rscale>
<asrwt>0</asrwt>
<pdfrwt beam="2">  1        3 0.14252005E-01 0.18381651E+03</pdfrwt>
<pdfrwt beam="1">  1       -3 0.57331451E-01 0.18381651E+03</pdfrwt>
<totfact> 0.29646073E+02</totfact>
</mgrwt>
</event>
<event>
12    1  0.1093377E-001  0.1826410E+03  0.7546771E-02  0.1165271E+00
          2   -1    0    0  503    0  0.00000000000E+00  0.00000000000E+00  0.82531825235E+03  0.82531825235E+03  0.00000000000E+00 0. -1.
         -2   -1    0    0    0  501 -0.00000000000E+00 -0.00000000000E+00 -0.78852915618E+02  0.78852915618E+02  0.00000000000E+00 0.  1.
          6    2    1    2  503    0  0.20566147547E+02  0.54272974316E+02  0.68929313472E+03  0.71318621070E+03  0.17361170293E+03 0.  0.
         24    2    3    3    0    0  0.72980576586E+01  0.96368408224E+01  0.64057173185E+03  0.64562666866E+03  0.79721523423E+02 0.  0.
         -6    2    1    2    0  501 -0.20566147547E+02 -0.54272974316E+02  0.57172202012E+02  0.19098495727E+03  0.17273699967E+03 0.  0.
        -24    2    5    5    0    0 -0.48066718954E+02  0.12749627833E+02  0.70268227596E+02  0.11721567835E+03  0.79554565929E+02 0.  0.
          4    1    4    4  502    0  0.12746541715E+02  0.39545006453E+02  0.50412897490E+03  0.50583822038E+03  0.00000000000E+00 0. -1.
         -3    1    4    4    0  502 -0.54484840560E+01 -0.29908165630E+02  0.13644275695E+03  0.13978844828E+03  0.00000000000E+00 0.  1.
          5    1    3    3  503    0  0.13268089888E+02  0.44636133494E+02  0.48721402872E+02  0.67559542038E+02  0.47000000000E+01 0. -1.
         13    1    6    6    0    0 -0.65980065880E+02  0.19073381386E+02  0.34833468253E+02  0.77009957028E+02  0.00000000000E+00 0. -1.
        -14    1    6    6    0    0  0.17913346926E+02 -0.63237535524E+01  0.35434759343E+02  0.40205721319E+02  0.00000000000E+00 0.  1.
         -5    1    5    5    0  501  0.27500571407E+02 -0.67022602150E+02 -0.13096025584E+02  0.73769278922E+02  0.47000000000E+01 0.  1.
<mgrwt>
<rscale>  2 0.18264097E+03</rscale>
<asrwt>0</asrwt>
<pdfrwt beam="1">  1        2 0.12697203E+00 0.18264097E+03</pdfrwt>
<pdfrwt beam="2">  1       -2 0.12131218E-01 0.18264097E+03</pdfrwt>
<totfact> 0.16492309E+03</totfact>
</mgrwt>
</event>
<event>
12    1  0.1093377E-001  0.1936518E+03  0.7546771E-02  0.1155208E+00
          2   -1    0    0  503    0  0.00000000000E+00  0.00000000000E+00  0.27151989166E+03  0.27151989166E+03  0.00000000000E+00 0.  1.
         -2   -1    0    0    0  501 -0.00000000000E+00 -0.00000000000E+00 -0.14525820214E+03  0.14525820214E+03  0.00000000000E+00 0. -1.
          6    2    1    2  503    0 -0.47014786706E+02  0.72891347621E+02  0.17171855234E+02  0.19519782024E+03  0.17402234824E+03 0.  0.
         24    2    3    3    0    0 -0.30669972954E+02  0.11407022832E+02 -0.52069552350E+02  0.10104933297E+03  0.80180808179E+02 0.  0.
         -6    2    1    2    0  501  0.47014786706E+02 -0.72891347621E+02  0.10908983428E+03  0.22158027356E+03  0.17226052061E+03 0.  0.
        -24    2    5    5    0    0  0.78650296200E+02 -0.43426578253E+02  0.20302626744E+02  0.12271553608E+03  0.81087417963E+02 0.  0.
          2    1    4    4  502    0 -0.43807204034E+02  0.27846652064E+02 -0.59288849795E+02  0.78801490255E+02  0.00000000000E+00 0. -1.
         -1    1    4    4    0  502  0.13137231080E+02 -0.16439629231E+02  0.72192974452E+01  0.22247842712E+02  0.00000000000E+00 0.  1.
          5    1    3    3  503    0 -0.16344813752E+02  0.61484324789E+02  0.69241407583E+02  0.94148487272E+02  0.47000000000E+01 0. -1.
         13    1    6    6    0    0  0.59424604500E+02 -0.21292551490E+02 -0.25707766118E+02  0.68158239470E+02  0.00000000000E+00 0. -1.
        -14    1    6    6    0    0  0.19225691700E+02 -0.22134026763E+02  0.46010392862E+02  0.54557296611E+02  0.00000000000E+00 0.  1.
         -5    1    5    5    0  501 -0.31635509494E+02 -0.29464769368E+02  0.88787207535E+02  0.98864737479E+02  0.47000000000E+01 0.  1.
<mgrwt>
<rscale>  2 0.19365183E+03</rscale>
<asrwt>0</asrwt>
<pdfrwt beam="1">  1        2 0.41772291E-01 0.19365183E+03</pdfrwt>
<pdfrwt beam="2">  1       -2 0.22347416E-01 0.19365183E+03</pdfrwt>
<totfact> 0.20858456E+03</totfact>
</mgrwt>
</event>
<event>
12    1  0.1093377E-001  0.1953801E+03  0.7546771E-02  0.1153696E+00
         -1   -1    0    0    0  501 -0.00000000000E+00  0.00000000000E+00  0.23775212565E+02  0.23775212565E+02  0.00000000000E+00 0. -1.
          1   -1    0    0  503    0  0.00000000000E+00 -0.00000000000E+00 -0.19134419838E+04  0.19134419838E+04  0.00000000000E+00 0.  1.
          6    2    1    2  503    0 -0.25198750502E+02  0.86945727713E+02 -0.13351704775E+04  0.13494554653E+04  0.17365285031E+03 0.  0.
         24    2    3    3    0    0 -0.14715917785E+01 -0.19367891913E+01 -0.95333562189E+03  0.95666668392E+03  0.79727156083E+02 0.  0.
         -6    2    1    2    0  501  0.25198750502E+02 -0.86945727713E+02 -0.55449629373E+03  0.58776173099E+03  0.17263596400E+03 0.  0.
        -24    2    5    5    0    0  0.41776804195E+02  0.54678801699E+01 -0.16449811153E+03  0.18659371270E+03  0.77345884433E+02 0.  0.
          4    1    4    4  502    0 -0.37691646910E+02  0.13964851073E+02 -0.47226053148E+03  0.47396802309E+03  0.00000000000E+00 0. -1.
         -3    1    4    4    0  502  0.36220055131E+02 -0.15901640265E+02 -0.48107509041E+03  0.48269866083E+03  0.00000000000E+00 0.  1.
          5    1    3    3  503    0 -0.23727158723E+02  0.88882516904E+02 -0.38183485559E+03  0.39278878143E+03  0.47000000000E+01 0. -1.
         13    1    6    6    0    0  0.41405271123E+02 -0.21812956709E+02 -0.14678416668E+03  0.15406425005E+03  0.00000000000E+00 0. -1.
        -14    1    6    6    0    0  0.37153307222E+00  0.27280836879E+02 -0.17713944851E+02  0.32529462642E+02  0.00000000000E+00 0.  1.
         -5    1    5    5    0  501 -0.16578053693E+02 -0.92413607883E+02 -0.38999818220E+03  0.40116801830E+03  0.47000000000E+01 0.  1.
<mgrwt>
<rscale>  2 0.19538008E+03</rscale>
<asrwt>0</asrwt>
<pdfrwt beam="2">  1        1 0.29437574E+00 0.19538008E+03</pdfrwt>
<pdfrwt beam="1">  1       -1 0.36577244E-02 0.19538008E+03</pdfrwt>
<totfact> 0.10859869E+03</totfact>
</mgrwt>
</event>
<event>
12    1  0.1093377E-001  0.2124265E+03  0.7546771E-02  0.1139659E+00
         -2   -1    0    0    0  501 -0.00000000000E+00  0.00000000000E+00  0.15757662226E+02  0.15757662226E+02  0.00000000000E+00 0. -1.
          2   -1    0    0  503    0  0.00000000000E+00 -0.00000000000E+00 -0.28645153788E+04  0.28645153788E+04  0.00000000000E+00 0.  1.
          6    2    1    2  503    0 -0.96011556384E+02  0.79536790602E+02 -0.13936249548E+04  0.14095555958E+04  0.17062280930E+03 0.  0.
         24    2    3    3    0    0 -0.12772315637E+02  0.83857106061E+02 -0.57610818502E+03  0.58778726156E+03  0.79987984846E+02 0.  0.
         -6    2    1    2    0  501  0.96011556384E+02 -0.79536790602E+02 -0.14551327618E+04  0.14707174452E+04  0.17336126793E+03 0.  0.
        -24    2    5    5    0    0  0.69789389737E+02  0.16118246441E+02 -0.59609550251E+03  0.60596049037E+03  0.82023844000E+02 0.  0.
          4    1    4    4  502    0 -0.26988694301E+02  0.29146375359E+02 -0.89655778572E+02  0.98061508493E+02  0.00000000000E+00 0. -1.
         -3    1    4    4    0  502  0.14216378663E+02  0.54710730703E+02 -0.48645240645E+03  0.48972575307E+03  0.00000000000E+00 0.  1.
          5    1    3    3  503    0 -0.83239240747E+02 -0.43203154592E+01 -0.81751676979E+03  0.82176833427E+03  0.47000000000E+01 0. -1.
         11    1    6    6    0    0 -0.12825941982E+02  0.16938251508E+02 -0.62642689029E+02  0.66147680539E+02  0.00000000000E+00 0. -1.
        -12    1    6    6    0    0  0.82615331719E+02 -0.82000506736E+00 -0.53345281348E+03  0.53981280983E+03  0.00000000000E+00 0.  1.
         -5    1    5    5    0  501  0.26222166647E+02 -0.95655037043E+02 -0.85903725924E+03  0.86475695482E+03  0.47000000000E+01 0.  1.
<mgrwt>
<rscale>  2 0.21242645E+03</rscale>
<asrwt>0</asrwt>
<pdfrwt beam="2">  1        2 0.44069468E+00 0.21242645E+03</pdfrwt>
<pdfrwt beam="1">  1       -2 0.24242557E-02 0.21242645E+03</pdfrwt>
<totfact> 0.14681125E+03</totfact>
</mgrwt>
</event>
<event>
12    1  0.1093377E-001  0.2348750E+03  0.7546771E-02  0.1123255E+00
         -2   -1    0    0    0  501 -0.00000000000E+00  0.00000000000E+00  0.20232654245E+02  0.20232654245E+02  0.00000000000E+00 0. -1.
          2   -1    0    0  503    0  0.00000000000E+00 -0.00000000000E+00 -0.27704614296E+04  0.27704614296E+04  0.00000000000E+00 0.  1.
          6    2    1    2  503    0 -0.14365058590E+03  0.67505724727E+02 -0.12002236920E+04  0.12230122546E+04  0.17329036428E+03 0.  0.
         24    2    3    3    0    0 -0.59890383360E+02 -0.29387299301E+02 -0.45582131951E+03  0.46765736330E+03  0.80497594688E+02 0.  0.
         -6    2    1    2    0  501  0.14365058590E+03 -0.67505724727E+02 -0.15500050834E+04  0.15676818293E+04  0.17296833708E+03 0.  0.
        -24    2    5    5    0    0  0.31706535238E+02 -0.84413456748E+02 -0.75733533965E+03  0.76695418862E+03  0.80814446127E+02 0.  0.
          2    1    4    4  502    0 -0.78543849158E+02 -0.22171108628E+02 -0.31400929727E+03  0.32444187934E+03  0.00000000000E+00 0. -1.
         -1    1    4    4    0  502  0.18653465798E+02 -0.72161906727E+01 -0.14181202224E+03  0.14321548396E+03  0.00000000000E+00 0.  1.
          5    1    3    3  503    0 -0.83760202543E+02  0.96893024028E+02 -0.74440237250E+03  0.75535489131E+03  0.47000000000E+01 0. -1.
         13    1    6    6    0    0  0.58305901816E+02 -0.68383291600E+02 -0.54487099722E+03  0.55223206750E+03  0.00000000000E+00 0. -1.
        -14    1    6    6    0    0 -0.26599366578E+02 -0.16030165148E+02 -0.21246434243E+03  0.21472212113E+03  0.00000000000E+00 0.  1.
         -5    1    5    5    0  501  0.11194405067E+03  0.16907732021E+02 -0.79266974372E+03  0.80072764064E+03  0.47000000000E+01 0.  1.
<mgrwt>
<rscale>  2 0.23487504E+03</rscale>
<asrwt>0</asrwt>
<pdfrwt beam="2">  1        2 0.42622444E+00 0.23487504E+03</pdfrwt>
<pdfrwt beam="1">  1       -2 0.31127189E-02 0.23487504E+03</pdfrwt>
<totfact> 0.11417525E+03</totfact>
</mgrwt>
</event>
<event>
12    1  0.1093377E-001  0.2554241E+03  0.7546771E-02  0.1109924E+00
          1   -1    0    0  503    0  0.00000000000E+00  0.00000000000E+00  0.13892565971E+03  0.13892565971E+03  0.00000000000E+00 0.  1.
         -1   -1    0    0    0  501 -0.00000000000E+00 -0.00000000000E+00 -0.47118840472E+03  0.47118840472E+03  0.00000000000E+00 0. -1.
          6    2    1    2  503    0  0.18183794168E+03 -0.46985478115E+02 -0.18396987193E+03  0.31504435685E+03  0.17359539399E+03 0.  0.
         24    2    3    3    0    0  0.11700610561E+03 -0.96633901568E+02 -0.10405292652E+03  0.20068990314E+03  0.80130431310E+02 0.  0.
         -6    2    1    2    0  501 -0.18183794168E+03  0.46985478115E+02 -0.14829287309E+03  0.29506970758E+03  0.17263453865E+03 0.  0.
        -24    2    5    5    0    0 -0.19734223481E+03  0.10529887386E+02 -0.11122673943E+03  0.24061439135E+03  0.80430476780E+02 0.  0.
          4    1    4    4  502    0  0.19590649754E+00 -0.43091970575E+02 -0.27445885618E+02  0.51090438878E+02  0.00000000000E+00 0. -1.
         -3    1    4    4    0  502  0.11681019911E+03 -0.53541930993E+02 -0.76607040902E+02  0.14959946426E+03  0.00000000000E+00 0.  1.
          5    1    3    3  503    0  0.64831836073E+02  0.49648423454E+02 -0.79916945407E+02  0.11435445371E+03  0.47000000000E+01 0. -1.
         11    1    6    6    0    0 -0.16579492108E+03  0.18392592596E+02 -0.12166553988E+03  0.20646730228E+03  0.00000000000E+00 0. -1.
        -12    1    6    6    0    0 -0.31547313734E+02 -0.78627052098E+01  0.10438800457E+02  0.34147089071E+02  0.00000000000E+00 0.  1.
         -5    1    5    5    0  501  0.15504293129E+02  0.36455590729E+02 -0.37066133664E+02  0.54455316229E+02  0.47000000000E+01 0.  1.
<mgrwt>
<rscale>  2 0.25542412E+03</rscale>
<asrwt>0</asrwt>
<pdfrwt beam="1">  1        1 0.21373178E-01 0.25542412E+03</pdfrwt>
<pdfrwt beam="2">  1       -1 0.72490524E-01 0.25542412E+03</pdfrwt>
<totfact> 0.46953354E+02</totfact>
</mgrwt>
</event>
<event>
12    1  0.1093377E-001  0.1888697E+03  0.7546771E-02  0.1159485E+00
         -1   -1    0    0    0  501 -0.00000000000E+00  0.00000000000E+00  0.51526028619E+02  0.51526028619E+02  0.00000000000E+00 0. -1.
          1   -1    0    0  503    0  0.00000000000E+00 -0.00000000000E+00 -0.87882280432E+03  0.87882280432E+03  0.00000000000E+00 0.  1.
          6    2    1    2  503    0  0.71057538711E+02  0.22544597136E+02 -0.19992497244E+03  0.27526016041E+03  0.17389861597E+03 0.  0.
         24    2    3    3    0    0 -0.25944185528E+02 -0.11292209804E+02 -0.10697610684E+03  0.13663892962E+03  0.80160432182E+02 0.  0.
         -6    2    1    2    0  501 -0.71057538711E+02 -0.22544597136E+02 -0.62737180326E+03  0.65508867253E+03  0.17317146614E+03 0.  0.
        -24    2    5    5    0    0 -0.54440506457E+02  0.28092192273E+02 -0.56066989312E+03  0.56958168440E+03  0.79496076290E+02 0.  0.
          2    1    4    4  502    0 -0.50919773433E+02 -0.24183148770E+02 -0.63971491127E+02  0.85264293159E+02  0.00000000000E+00 0. -1.
         -1    1    4    4    0  502  0.24975587905E+02  0.12890938966E+02 -0.43004615713E+02  0.51374636459E+02  0.00000000000E+00 0.  1.
          5    1    3    3  503    0  0.97001724239E+02  0.33836806940E+02 -0.92948865598E+02  0.13862123079E+03  0.47000000000E+01 0. -1.
         11    1    6    6    0    0  0.35688559811E+01  0.10033827391E+02 -0.73581066929E+01  0.12944348544E+02  0.00000000000E+00 0. -1.
        -12    1    6    6    0    0 -0.58009362438E+02  0.18058364882E+02 -0.55331178642E+03  0.55663733585E+03  0.00000000000E+00 0.  1.
         -5    1    5    5    0  501 -0.16617032255E+02 -0.50636789409E+02 -0.66701910149E+02  0.85506988136E+02  0.47000000000E+01 0.  1.
<mgrwt>
<rscale>  2 0.18886967E+03</rscale>
<asrwt>0</asrwt>
<pdfrwt beam="2">  1        1 0.13520351E+00 0.18886967E+03</pdfrwt>
<pdfrwt beam="1">  1       -1 0.79270810E-02 0.18886967E+03</pdfrwt>
<totfact> 0.17281316E+03</totfact>
</mgrwt>
</event>
<event>
12    1  0.1093377E-001  0.1989865E+03  0.7546771E-02  0.1150597E+00
         -2   -1    0    0    0  501 -0.00000000000E+00  0.00000000000E+00  0.23663878788E+03  0.23663878788E+03  0.00000000000E+00 0.  1.
          2   -1    0    0  503    0  0.00000000000E+00 -0.00000000000E+00 -0.20698277168E+03  0.20698277168E+03  0.00000000000E+00 0. -1.
          6    2    1    2  503    0  0.35411069346E+02  0.90280422376E+02  0.11187209554E+03  0.22764732158E+03  0.17292610782E+03 0.  0.
         24    2    3    3    0    0 -0.41484334498E+02  0.77243442709E+02  0.76339356378E+02  0.14181299556E+03  0.81214093153E+02 0.  0.
         -6    2    1    2    0  501 -0.35411069346E+02 -0.90280422376E+02 -0.82216079341E+02  0.21597423798E+03  0.17458776954E+03 0.  0.
        -24    2    5    5    0    0 -0.26692067472E+02 -0.66329203844E+02 -0.12558791347E+03  0.16544812732E+03  0.80552647840E+02 0.  0.
          4    1    4    4  502    0 -0.28580586347E+02  0.93454751613E+02  0.69768552044E+02  0.12007618985E+03  0.00000000000E+00 0. -1.
         -3    1    4    4    0  502 -0.12903748152E+02 -0.16211308904E+02  0.65708043347E+01  0.21736805707E+02  0.00000000000E+00 0.  1.
          5    1    3    3  503    0  0.76895403844E+02  0.13036979667E+02  0.35532739160E+02  0.85834326021E+02  0.47000000000E+01 0. -1.
         11    1    6    6    0    0  0.20959234349E+02 -0.73715622929E+01 -0.64094840539E+02  0.67836406293E+02  0.00000000000E+00 0. -1.
        -12    1    6    6    0    0 -0.47651301821E+02 -0.58957641551E+02 -0.61493072933E+02  0.97611721024E+02  0.00000000000E+00 0.  1.
         -5    1    5    5    0  501 -0.87190018731E+01 -0.23951218533E+02  0.43371834130E+02  0.50526110662E+02  0.47000000000E+01 0.  1.
<mgrwt>
<rscale>  2 0.19898646E+03</rscale>
<asrwt>0</asrwt>
<pdfrwt beam="2">  1        2 0.31843504E-01 0.19898646E+03</pdfrwt>
<pdfrwt beam="1">  1       -2 0.36405967E-01 0.19898646E+03</pdfrwt>
<totfact> 0.11634491E+03</totfact>
</mgrwt>
</event>
<event>
12    1  0.1093377E-001  0.1813446E+03  0.7546771E-02  0.1166508E+00
          2   -1    0    0  503    0  0.00000000000E+00  0.00000000000E+00  0.87845632007E+03  0.87845632007E+03  0.00000000000E+00 0. -1.
         -2   -1    0    0    0  501 -0.00000000000E+00 -0.00000000000E+00 -0.37439354491E+02  0.37439354491E+02  0.00000000000E+00 0.  1.
          6    2    1    2  503    0 -0.49402688518E+02 -0.22140514699E+02  0.41682096889E+03  0.45466752569E+03  0.17335515796E+03 0.  0.
         24    2    3    3    0    0 -0.20759576079E+02 -0.15840843298E+02  0.41648113177E+03  0.42496366670E+03  0.80347324662E+02 0.  0.
         -6    2    1    2    0  501  0.49402688518E+02  0.22140514699E+02  0.42419599669E+03  0.46122814887E+03  0.17279564136E+03 0.  0.
        -24    2    5    5    0    0  0.13139822881E+02  0.78376138604E+02  0.27703643814E+03  0.29950163127E+03  0.81465115416E+02 0.  0.
          4    1    4    4  502    0 -0.49000018636E+02 -0.24080487571E+02  0.24861890151E+03  0.25454317885E+03  0.00000000000E+00 0. -1.
         -3    1    4    4    0  502  0.28240442557E+02  0.82396442739E+01  0.16786223025E+03  0.17042048785E+03  0.00000000000E+00 0.  1.
          5    1    3    3  503    0 -0.28643112439E+02 -0.62996714011E+01  0.33983712071E+00  0.29703858996E+02  0.47000000000E+01 0. -1.
         11    1    6    6    0    0  0.33762927913E+02  0.35241991655E+01  0.59197264489E+02  0.68239808059E+02  0.00000000000E+00 0. -1.
        -12    1    6    6    0    0 -0.20623105032E+02  0.74851939438E+02  0.21783917365E+03  0.23126182321E+03  0.00000000000E+00 0.  1.
         -5    1    5    5    0  501  0.36262865637E+02 -0.56235623905E+02  0.14715955855E+03  0.16172651760E+03  0.47000000000E+01 0.  1.
<mgrwt>
<rscale>  2 0.18134458E+03</rscale>
<asrwt>0</asrwt>
<pdfrwt beam="1">  1        2 0.13514711E+00 0.18134458E+03</pdfrwt>
<pdfrwt beam="2">  1       -2 0.57599014E-02 0.18134458E+03</pdfrwt>
<totfact> 0.48709877E+03</totfact>
</mgrwt>
</event>
<event>
12    1  0.1093377E-001  0.1907656E+03  0.7546771E-02  0.1157773E+00
          1   -1    0    0  503    0  0.00000000000E+00  0.00000000000E+00  0.21640641520E+04  0.21640641520E+04  0.00000000000E+00 0.  1.
         -1   -1    0    0    0  501 -0.00000000000E+00 -0.00000000000E+00 -0.17159597744E+02  0.17159597744E+02  0.00000000000E+00 0. -1.
          6    2    1    2  503    0  0.60301991502E+02  0.24272961743E+02  0.87456799001E+03  0.89308641307E+03  0.16884509235E+03 0.  0.
         24    2    3    3    0    0 -0.22294505555E+02  0.40290451344E+02  0.36766266732E+03  0.37922472208E+03  0.80716711070E+02 0.  0.
         -6    2    1    2    0  501 -0.60301991502E+02 -0.24272961743E+02  0.12723365643E+04  0.12881373367E+04  0.19034694262E+03 0.  0.
        -24    2    5    5    0    0 -0.11036408818E+03 -0.31511462711E+02  0.10735607445E+04  0.10829727054E+04  0.84403816377E+02 0.  0.
          4    1    4    4  502    0 -0.40053604371E+02  0.50337343734E+02  0.19444975410E+03  0.20481417497E+03  0.00000000000E+00 0. -1.
         -3    1    4    4    0  502  0.17759098817E+02 -0.10046892390E+02  0.17321291322E+03  0.17441054711E+03  0.00000000000E+00 0.  1.
          5    1    3    3  503    0  0.82596497057E+02 -0.16017489601E+02  0.50690532269E+03  0.51386169100E+03  0.47000000000E+01 0. -1.
         13    1    6    6    0    0 -0.19770570256E+02  0.19221798523E+02  0.95064341347E+02  0.98982735780E+02  0.00000000000E+00 0. -1.
        -14    1    6    6    0    0 -0.90593517922E+02 -0.50733261234E+02  0.97849640313E+03  0.98398996958E+03  0.00000000000E+00 0.  1.
         -5    1    5    5    0  501  0.50062096677E+02  0.72385009682E+01  0.19877581978E+03  0.20516463134E+03  0.47000000000E+01 0.  1.
<mgrwt>
<rscale>  2 0.19076558E+03</rscale>
<asrwt>0</asrwt>
<pdfrwt beam="1">  1        1 0.33293273E+00 0.19076558E+03</pdfrwt>
<pdfrwt beam="2">  1       -1 0.26399398E-02 0.19076558E+03</pdfrwt>
<totfact> 0.12104159E+03</totfact>
</mgrwt>
</event>
<event>
12    1  0.1093377E-001  0.1728102E+03  0.7546771E-02  0.1174949E+00
         -2   -1    0    0    0  501 -0.00000000000E+00  0.00000000000E+00  0.14805022306E+02  0.14805022306E+02  0.00000000000E+00 0. -1.
          2   -1    0    0  503    0  0.00000000000E+00 -0.00000000000E+00 -0.20177092130E+04  0.20177092130E+04  0.00000000000E+00 0.  1.
          6    2    1    2  503    0  0.58780204075E+01  0.10069740251E+02 -0.98032511732E+03  0.99531734167E+03  0.17170708834E+03 0.  0.
         24    2    3    3    0    0  0.26978326446E+02  0.54295455003E+01 -0.96472960214E+03  0.96826065274E+03  0.77898500194E+02 0.  0.
         -6    2    1    2    0  501 -0.58780204075E+01 -0.10069740251E+02 -0.10225790734E+04  0.10371968936E+04  0.17312851896E+03 0.  0.
        -24    2    5    5    0    0 -0.15596198144E+02  0.28883910356E+02 -0.94582230574E+03  0.95044713138E+03  0.87706293028E+02 0.  0.
          4    1    4    4  502    0 -0.53151583177E+01 -0.30313908977E+02 -0.24583970566E+03  0.24775864236E+03  0.00000000000E+00 0. -1.
         -3    1    4    4    0  502  0.32293484764E+02  0.35743454477E+02 -0.71888989648E+03  0.72050201038E+03  0.00000000000E+00 0.  1.
          5    1    3    3  503    0 -0.21100306038E+02  0.46401947510E+01 -0.15595515180E+02  0.27056688932E+02  0.47000000000E+01 0. -1.
         11    1    6    6    0    0  0.42626108901E+01  0.35247657986E+02 -0.14257673686E+03  0.14693091281E+03  0.00000000000E+00 0. -1.
        -12    1    6    6    0    0 -0.19858809034E+02 -0.63637476304E+01 -0.80324556887E+03  0.80351621856E+03  0.00000000000E+00 0.  1.
         -5    1    5    5    0  501  0.97181777363E+01 -0.38953650607E+02 -0.76756767625E+02  0.86749762249E+02  0.47000000000E+01 0.  1.
<mgrwt>
<rscale>  2 0.17281015E+03</rscale>
<asrwt>0</asrwt>
<pdfrwt beam="2">  1        2 0.31041691E+00 0.17281015E+03</pdfrwt>
<pdfrwt beam="1">  1       -2 0.22776949E-02 0.17281015E+03</pdfrwt>
<totfact> 0.46269581E+03</totfact>
</mgrwt>
</event>
<event>
12    1  0.1093377E-001  0.2377039E+03  0.7546771E-02  0.1121332E+00
          2   -1    0    0  503    0  0.00000000000E+00  0.00000000000E+00  0.23275674545E+04  0.23275674545E+04  0.00000000000E+00 0.  1.
         -2   -1    0    0    0  501 -0.00000000000E+00 -0.00000000000E+00 -0.24651025267E+02  0.24651025267E+02  0.00000000000E+00 0. -1.
          6    2    1    2  503    0  0.16251804307E+02  0.16538832293E+03  0.13058942652E+04  0.13277169032E+04  0.17278577652E+03 0.  0.
         24    2    3    3    0    0  0.64951087220E+02  0.67727874776E+02  0.84623997432E+03  0.85526231232E+03  0.80906241927E+02 0.  0.
         -6    2    1    2    0  501 -0.16251804307E+02 -0.16538832293E+03  0.99702216396E+03  0.10245015765E+04  0.16713128485E+03 0.  0.
        -24    2    5    5    0    0 -0.47066564012E+02 -0.66781154078E+02  0.32379327038E+03  0.34337592269E+03  0.79937215064E+02 0.  0.
          2    1    4    4  502    0  0.20748772593E+02 -0.66769777061E+01  0.40667132953E+03  0.40725503540E+03  0.00000000000E+00 0. -1.
         -1    1    4    4    0  502  0.44202314627E+02  0.74404852482E+02  0.43956864479E+03  0.44800727692E+03  0.00000000000E+00 0.  1.
          5    1    3    3  503    0 -0.48699282913E+02  0.97660448151E+02  0.45965429091E+03  0.47245459087E+03  0.47000000000E+01 0. -1.
         13    1    6    6    0    0  0.81120522390E+01 -0.54354513692E+02  0.19734393139E+03  0.20485322991E+03  0.00000000000E+00 0. -1.
        -14    1    6    6    0    0 -0.55178616251E+02 -0.12426640385E+02  0.12644933899E+03  0.13852269277E+03  0.00000000000E+00 0.  1.
         -5    1    5    5    0  501  0.30814759705E+02 -0.98607168849E+02  0.67322889358E+03  0.68112565384E+03  0.47000000000E+01 0.  1.
<mgrwt>
<rscale>  2 0.23770390E+03</rscale>
<asrwt>0</asrwt>
<pdfrwt beam="1">  1        2 0.35808713E+00 0.23770390E+03</pdfrwt>
<pdfrwt beam="2">  1       -2 0.37924673E-02 0.23770390E+03</pdfrwt>
<totfact> 0.14872399E+03</totfact>
</mgrwt>
</event>
<event>
12    1  0.1093377E-001  0.3440505E+03  0.7546771E-02  0.1065084E+00
          2   -1    0    0  503    0  0.00000000000E+00  0.00000000000E+00  0.65551979443E+03  0.65551979443E+03  0.00000000000E+00 0.  1.
         -2   -1    0    0    0  501 -0.00000000000E+00 -0.00000000000E+00 -0.20787873672E+03  0.20787873672E+03  0.00000000000E+00 0. -1.
          6    2    1    2  503    0 -0.29621433721E+03 -0.24840439221E+02  0.38033403001E+03  0.51293104781E+03  0.17344827595E+03 0.  0.
         24    2    3    3    0    0 -0.26020070497E+03  0.32588503958E+02  0.28323066084E+03  0.39441429994E+03  0.81096333433E+02 0.  0.
         -6    2    1    2    0  501  0.29621433721E+03  0.24840439221E+02  0.67307027699E+02  0.35046748334E+03  0.17302381313E+03 0.  0.
        -24    2    5    5    0    0  0.30191140638E+03  0.48160956123E+02  0.47472656555E+02  0.31897470029E+03  0.77596593406E+02 0.  0.
          4    1    4    4  502    0 -0.17747460234E+03  0.64135132505E+00  0.14041309357E+03  0.22630396075E+03  0.00000000000E+00 0. -1.
         -3    1    4    4    0  502 -0.82726102627E+02  0.31947152633E+02  0.14281756728E+03  0.16811033918E+03  0.00000000000E+00 0.  1.
          5    1    3    3  503    0 -0.36013632240E+02 -0.57428943178E+02  0.97103369168E+02  0.11851674787E+03  0.47000000000E+01 0. -1.
         11    1    6    6    0    0  0.17578762602E+03  0.57908698479E+02  0.37055403361E+01  0.18511736237E+03  0.00000000000E+00 0. -1.
        -12    1    6    6    0    0  0.12612378036E+03 -0.97477423565E+01  0.43767116219E+02  0.13385733792E+03  0.00000000000E+00 0.  1.
         -5    1    5    5    0  501 -0.56970691675E+01 -0.23320516902E+02  0.19834371144E+02  0.31492783052E+02  0.47000000000E+01 0.  1.
<mgrwt>
<rscale>  2 0.34405048E+03</rscale>
<asrwt>0</asrwt>
<pdfrwt beam="1">  1        2 0.10084920E+00 0.34405048E+03</pdfrwt>
<pdfrwt beam="2">  1       -2 0.31981344E-01 0.34405048E+03</pdfrwt>
<totfact> 0.41376810E+02</totfact>
</mgrwt>
</event>
<event>
12    1  0.1093377E-001  0.2068159E+03  0.7546771E-02  0.1144113E+00
          2   -1    0    0  503    0  0.00000000000E+00  0.00000000000E+00  0.62121794417E+03  0.62121794417E+03  0.00000000000E+00 0.  1.
         -2   -1    0    0    0  501 -0.00000000000E+00 -0.00000000000E+00 -0.72871513579E+02  0.72871513579E+02  0.00000000000E+00 0. -1.
          6    2    1    2  503    0  0.11249365355E+03  0.97967625753E+01  0.19276725355E+03  0.28277446565E+03  0.17335335513E+03 0.  0.
         24    2    3    3    0    0  0.65886129839E+02  0.55004485192E+02  0.55818078754E+02  0.13113948971E+03  0.81947741569E+02 0.  0.
         -6    2    1    2    0  501 -0.11249365355E+03 -0.97967625753E+01  0.35557917705E+03  0.41131499211E+03  0.17318392806E+03 0.  0.
        -24    2    5    5    0    0 -0.13248594778E+03 -0.26679618668E+02  0.25598639886E+03  0.30823476061E+03  0.10590232687E+03 0.  0.
          2    1    4    4  502    0  0.68098893128E+00  0.19889501349E+02 -0.17811131890E+02  0.26707535061E+02  0.00000000000E+00 0. -1.
         -1    1    4    4    0  502  0.65205140908E+02  0.35114983842E+02  0.73629210644E+02  0.10443195465E+03  0.00000000000E+00 0.  1.
          5    1    3    3  503    0  0.46607523712E+02 -0.45207722616E+02  0.13694917480E+03  0.15163497594E+03  0.47000000000E+01 0. -1.
         11    1    6    6    0    0 -0.82758550193E+02  0.36878862849E+02  0.12495993986E+03  0.15435029876E+03  0.00000000000E+00 0. -1.
        -12    1    6    6    0    0 -0.49727397591E+02 -0.63558481517E+02  0.13102645899E+03  0.15388446185E+03  0.00000000000E+00 0.  1.
         -5    1    5    5    0  501  0.19992294233E+02  0.16882856093E+02  0.99592778189E+02  0.10308023150E+03  0.47000000000E+01 0.  1.
<mgrwt>
<rscale>  2 0.20681590E+03</rscale>
<asrwt>0</asrwt>
<pdfrwt beam="1">  1        2 0.95571988E-01 0.20681590E+03</pdfrwt>
<pdfrwt beam="2">  1       -2 0.11211002E-01 0.20681590E+03</pdfrwt>
<totfact> 0.26501722E+03</totfact>
</mgrwt>
</event>
<event>
12    1  0.1093377E-001  0.2805764E+03  0.7546771E-02  0.1095375E+00
         -2   -1    0    0    0  501 -0.00000000000E+00  0.00000000000E+00  0.35852107865E+02  0.35852107865E+02  0.00000000000E+00 0.  1.
          2   -1    0    0  503    0  0.00000000000E+00 -0.00000000000E+00 -0.22351799079E+04  0.22351799079E+04  0.00000000000E+00 0. -1.
          6    2    1    2  503    0  0.21076429248E+03 -0.63665648145E+02 -0.12462122442E+04  0.12771704236E+04  0.17217558370E+03 0.  0.
         24    2    3    3    0    0  0.19954902128E+02 -0.75249762522E+01 -0.28465408413E+03  0.29524568939E+03  0.75413832316E+02 0.  0.
         -6    2    1    2    0  501 -0.21076429248E+03  0.63665648145E+02 -0.95311555586E+03  0.99386159218E+03  0.17566075214E+03 0.  0.
        -24    2    5    5    0    0 -0.17339149875E+03 -0.47183434753E+01 -0.77184800060E+03  0.79649616305E+03  0.92573900923E+02 0.  0.
          4    1    4    4  502    0  0.32366324969E+02  0.28617907861E+01 -0.47558830697E+02  0.57598708456E+02  0.00000000000E+00 0. -1.
         -3    1    4    4    0  502 -0.12411422840E+02 -0.10386767038E+02 -0.23709525344E+03  0.23764698094E+03  0.00000000000E+00 0.  1.
          5    1    3    3  503    0  0.19080939035E+03 -0.56140671893E+02 -0.96155816003E+03  0.98192473418E+03  0.47000000000E+01 0. -1.
         11    1    6    6    0    0 -0.46299376042E+01 -0.11949799051E+02 -0.19511744538E+03  0.19553785187E+03  0.00000000000E+00 0. -1.
        -12    1    6    6    0    0 -0.16876156114E+03  0.72314555758E+01 -0.57673055521E+03  0.60095831119E+03  0.00000000000E+00 0.  1.
         -5    1    5    5    0  501 -0.37372793729E+02  0.68383991620E+02 -0.18126755527E+03  0.19736542912E+03  0.47000000000E+01 0.  1.
<mgrwt>
<rscale>  2 0.28057643E+03</rscale>
<asrwt>0</asrwt>
<pdfrwt beam="2">  1        2 0.34387379E+00 0.28057643E+03</pdfrwt>
<pdfrwt beam="1">  1       -2 0.55157095E-02 0.28057643E+03</pdfrwt>
<totfact> 0.93828283E+02</totfact>
</mgrwt>
</event>
<event>
12    1  0.1093377E-001  0.1865278E+03  0.7546771E-02  0.1161631E+00
         -2   -1    0    0    0  501 -0.00000000000E+00  0.00000000000E+00  0.26896020111E+03  0.26896020111E+03  0.00000000000E+00 0.  1.
          2   -1    0    0  503    0  0.00000000000E+00 -0.00000000000E+00 -0.27250465737E+03  0.27250465737E+03  0.00000000000E+00 0. -1.
          6    2    1    2  503    0  0.56820197530E+02 -0.37821300577E+02 -0.19799244040E+03  0.27225319906E+03  0.17395922603E+03 0.  0.
         24    2    3    3    0    0  0.23061358266E+02 -0.85985152824E+02 -0.14204737465E+03  0.19094295202E+03  0.91413792901E+02 0.  0.
         -6    2    1    2    0  501 -0.56820197530E+02  0.37821300577E+02  0.19444798414E+03  0.26921165942E+03  0.17322215045E+03 0.  0.
        -24    2    5    5    0    0 -0.34207782538E+02  0.49814674264E+02  0.21393534326E+03  0.23669997706E+03  0.81282678881E+02 0.  0.
          4    1    4    4  502    0 -0.28722998243E+02 -0.36008258672E+02 -0.93208948970E+02  0.10396881017E+03  0.00000000000E+00 0. -1.
         -3    1    4    4    0  502  0.51784356510E+02 -0.49976894152E+02 -0.48838425677E+02  0.86974141851E+02  0.00000000000E+00 0.  1.
          5    1    3    3  503    0  0.33758839264E+02  0.48163852247E+02 -0.55945065748E+02  0.81310247037E+02  0.47000000000E+01 0. -1.
         11    1    6    6    0    0  0.22364472527E+02 -0.28252418611E+01  0.33111099489E+02  0.40056167220E+02  0.00000000000E+00 0. -1.
        -12    1    6    6    0    0 -0.56572255066E+02  0.52639916125E+02  0.18082424377E+03  0.19664380984E+03  0.00000000000E+00 0.  1.
         -5    1    5    5    0  501 -0.22612414992E+02 -0.11993373687E+02 -0.19487359120E+02  0.32511682356E+02  0.47000000000E+01 0.  1.
<mgrwt>
<rscale>  2 0.18652778E+03</rscale>
<asrwt>0</asrwt>
<pdfrwt beam="2">  1        2 0.41923793E-01 0.18652778E+03</pdfrwt>
<pdfrwt beam="1">  1       -2 0.41378492E-01 0.18652778E+03</pdfrwt>
<totfact> 0.67752681E+02</totfact>
</mgrwt>
</event>
<event>
12    1  0.1093377E-001  0.1796945E+03  0.7546771E-02  0.1168099E+00
         -1   -1    0    0    0  501 -0.00000000000E+00  0.00000000000E+00  0.43468880573E+03  0.43468880573E+03  0.00000000000E+00 0.  1.
          1   -1    0    0  503    0  0.00000000000E+00 -0.00000000000E+00 -0.27448478205E+03  0.27448478205E+03  0.00000000000E+00 0. -1.
          6    2    1    2  503    0 -0.39894613112E+02 -0.20894802780E+02 -0.22285166562E+03  0.28560968487E+03  0.17286368701E+03 0.  0.
         24    2    3    3    0    0  0.43387663893E+02 -0.11699832270E+02 -0.93007795260E+02  0.13100694940E+03  0.80579124831E+02 0.  0.
         -6    2    1    2    0  501  0.39894613112E+02  0.20894802780E+02  0.38305568930E+03  0.42356390291E+03  0.17506154861E+03 0.  0.
        -24    2    5    5    0    0  0.78243107944E+02  0.61044619750E+01  0.35636911075E+03  0.37433357981E+03  0.83471177561E+02 0.  0.
          4    1    4    4  502    0  0.50212818486E+02 -0.23901883599E+02 -0.10071040845E+03  0.11504439817E+03  0.00000000000E+00 0. -1.
         -3    1    4    4    0  502 -0.68251545932E+01  0.12202051329E+02  0.77026131895E+01  0.15962551231E+02  0.00000000000E+00 0.  1.
          5    1    3    3  503    0 -0.83282277005E+02 -0.91949705097E+01 -0.12984387036E+03  0.15460273547E+03  0.47000000000E+01 0. -1.
         13    1    6    6    0    0 -0.55657719944E+01 -0.21868836323E+02  0.40751392477E+02  0.46582183384E+02  0.00000000000E+00 0. -1.
        -14    1    6    6    0    0  0.83808879939E+02  0.27973298298E+02  0.31561771827E+03  0.32775139643E+03  0.00000000000E+00 0.  1.
         -5    1    5    5    0  501 -0.38348494832E+02  0.14790340805E+02  0.26686578555E+02  0.49230323094E+02  0.47000000000E+01 0.  1.
<mgrwt>
<rscale>  2 0.17969449E+03</rscale>
<asrwt>0</asrwt>
<pdfrwt beam="2">  1        1 0.42228428E-01 0.17969449E+03</pdfrwt>
<pdfrwt beam="1">  1       -1 0.66875201E-01 0.17969449E+03</pdfrwt>
<totfact> 0.23435510E+02</totfact>
</mgrwt>
</event>
<event>
12    1  0.1093377E-001  0.2070574E+03  0.7546771E-02  0.1143918E+00
          2   -1    0    0  503    0  0.00000000000E+00  0.00000000000E+00  0.24231693981E+04  0.24231693981E+04  0.00000000000E+00 0.  1.
         -2   -1    0    0    0  501 -0.00000000000E+00 -0.00000000000E+00 -0.32164584975E+02  0.32164584975E+02  0.00000000000E+00 0. -1.
          6    2    1    2  503    0 -0.69358985164E-01  0.99951951920E+02  0.19919847828E+04  0.20019080335E+04  0.17216852840E+03 0.  0.
         24    2    3    3    0    0  0.53423226224E+02  0.81356685681E+02  0.10819205328E+04  0.10900712774E+04  0.90721547409E+02 0.  0.
         -6    2    1    2    0  501  0.69358985164E-01 -0.99951951920E+02  0.39902003028E+03  0.45342594953E+03  0.19075562807E+03 0.  0.
        -24    2    5    5    0    0 -0.26508298664E+02  0.17524342193E+02  0.10721449693E+03  0.13770516964E+03  0.80361513957E+02 0.  0.
          4    1    4    4  502    0  0.48966913492E+01  0.53053716431E+02  0.22145969376E+03  0.22777855556E+03  0.00000000000E+00 0. -1.
         -3    1    4    4    0  502  0.48526534875E+02  0.28302969250E+02  0.86046083901E+03  0.86229272183E+03  0.00000000000E+00 0.  1.
          5    1    3    3  503    0 -0.53492585209E+02  0.18595266239E+02  0.91006425007E+03  0.91183675615E+03  0.47000000000E+01 0. -1.
         11    1    6    6    0    0  0.16057842715E+01 -0.16319355170E+02 -0.50244909667E+01  0.17150667794E+02  0.00000000000E+00 0. -1.
        -12    1    6    6    0    0 -0.28114082936E+02  0.33843697363E+02  0.11223898790E+03  0.12055450185E+03  0.00000000000E+00 0.  1.
         -5    1    5    5    0  501  0.26577657649E+02 -0.11747629411E+03  0.29180553334E+03  0.31572077989E+03  0.47000000000E+01 0.  1.
<mgrwt>
<rscale>  2 0.20705744E+03</rscale>
<asrwt>0</asrwt>
<pdfrwt beam="1">  1        2 0.37279515E+00 0.20705744E+03</pdfrwt>
<pdfrwt beam="2">  1       -2 0.49483996E-02 0.20705744E+03</pdfrwt>
<totfact> 0.88885267E+02</totfact>
</mgrwt>
</event>
<event>
12    1  0.1093377E-001  0.2055701E+03  0.7546771E-02  0.1145123E+00
          1   -1    0    0  503    0  0.00000000000E+00  0.00000000000E+00  0.36075093878E+03  0.36075093878E+03  0.00000000000E+00 0. -1.
         -1   -1    0    0    0  501 -0.00000000000E+00 -0.00000000000E+00 -0.11758484301E+03  0.11758484301E+03  0.00000000000E+00 0.  1.
          6    2    1    2  503    0  0.10627974510E+03 -0.13604901017E+02  0.10785720327E+03  0.23343787237E+03  0.17714284182E+03 0.  0.
         24    2    3    3    0    0  0.10934051866E+03 -0.25837180806E+02  0.14001321483E+02  0.13862219038E+03  0.79982283850E+02 0.  0.
         -6    2    1    2    0  501 -0.10627974510E+03  0.13604901017E+02  0.13530889249E+03  0.24489790942E+03  0.17374122166E+03 0.  0.
        -24    2    5    5    0    0 -0.59248579464E+02  0.54288888382E+02  0.22362992189E+02  0.11587859395E+03  0.80436730087E+02 0.  0.
          4    1    4    4  502    0  0.16479613161E+01 -0.49653717725E+01 -0.22431740645E+02  0.23033750925E+02  0.00000000000E+00 0. -1.
         -3    1    4    4    0  502  0.10769255735E+03 -0.20871809034E+02  0.36433062128E+02  0.11558843946E+03  0.00000000000E+00 0.  1.
          5    1    3    3  503    0 -0.30607735654E+01  0.12232279789E+02  0.93855881790E+02  0.94815681985E+02  0.47000000000E+01 0. -1.
         13    1    6    6    0    0 -0.45983424124E+02  0.55340709766E+02  0.48346467441E+02  0.86685929455E+02  0.00000000000E+00 0. -1.
        -14    1    6    6    0    0 -0.13265155340E+02 -0.10518213836E+01 -0.25983475252E+02  0.29192664500E+02  0.00000000000E+00 0.  1.
         -5    1    5    5    0  501 -0.47031165636E+02 -0.40683987365E+02  0.11294590030E+03  0.12901931547E+03  0.47000000000E+01 0.  1.
<mgrwt>
<rscale>  2 0.20557009E+03</rscale>
<asrwt>0</asrwt>
<pdfrwt beam="1">  1        1 0.55500144E-01 0.20557009E+03</pdfrwt>
<pdfrwt beam="2">  1       -1 0.18089976E-01 0.20557009E+03</pdfrwt>
<totfact> 0.16342203E+03</totfact>
</mgrwt>
</event>
<event>
12    1  0.1093377E-001  0.3512125E+03  0.7546771E-02  0.1062119E+00
         -1   -1    0    0    0  501 -0.00000000000E+00  0.00000000000E+00  0.75607009085E+03  0.75607009085E+03  0.00000000000E+00 0.  1.
          1   -1    0    0  503    0  0.00000000000E+00 -0.00000000000E+00 -0.16985710602E+03  0.16985710602E+03  0.00000000000E+00 0. -1.
          6    2    1    2  503    0  0.22248397392E+03  0.20935959664E+03  0.20053687239E+03  0.40383326021E+03  0.17185955169E+03 0.  0.
         24    2    3    3    0    0  0.16362976725E+03  0.21945579867E+03  0.19021396405E+03  0.34305165629E+03  0.81040350829E+02 0.  0.
         -6    2    1    2    0  501 -0.22248397392E+03 -0.20935959664E+03  0.38567611244E+03  0.52209393666E+03  0.17465811071E+03 0.  0.
        -24    2    5    5    0    0 -0.10852194084E+03 -0.30053949675E+02  0.17412472328E+03  0.22223740385E+03  0.79936180021E+02 0.  0.
          4    1    4    4  502    0  0.54713856899E+02  0.34069540830E+02  0.75777328366E+02  0.99481371338E+02  0.00000000000E+00 0. -1.
         -3    1    4    4    0  502  0.10891591035E+03  0.18538625784E+03  0.11443663568E+03  0.24357028495E+03  0.00000000000E+00 0.  1.
          5    1    3    3  503    0  0.58854206671E+02 -0.10096202031E+02  0.10322908341E+02  0.60781603919E+02  0.47000000000E+01 0. -1.
         11    1    6    6    0    0 -0.89905351935E+02 -0.14557131015E+02  0.68742045477E+02  0.11410675347E+03  0.00000000000E+00 0. -1.
        -12    1    6    6    0    0 -0.18616588908E+02 -0.15496818660E+02  0.10538267781E+03  0.10813065039E+03  0.00000000000E+00 0.  1.
         -5    1    5    5    0  501 -0.11396203307E+03 -0.17930564697E+03  0.21155138915E+03  0.29985653281E+03  0.47000000000E+01 0.  1.
<mgrwt>
<rscale>  2 0.35121245E+03</rscale>
<asrwt>0</asrwt>
<pdfrwt beam="2">  1        1 0.26131863E-01 0.35121245E+03</pdfrwt>
<pdfrwt beam="1">  1       -1 0.11631847E+00 0.35121245E+03</pdfrwt>
<totfact> 0.12839582E+02</totfact>
</mgrwt>
</event>
<event>
12    1  0.1093377E-001  0.1953555E+03  0.7546771E-02  0.1153718E+00
         -1   -1    0    0    0  501 -0.00000000000E+00  0.00000000000E+00  0.15886014387E+04  0.15886014387E+04  0.00000000000E+00 0.  1.
          1   -1    0    0  503    0  0.00000000000E+00 -0.00000000000E+00 -0.30222844358E+02  0.30222844358E+02  0.00000000000E+00 0. -1.
          6    2    1    2  503    0  0.88721942251E+02  0.61765058128E+01  0.11436324903E+04  0.11600849938E+04  0.17318252711E+03 0.  0.
         24    2    3    3    0    0  0.75064199384E+02 -0.45794190560E+02  0.49469506446E+03  0.50890962580E+03  0.80833523468E+02 0.  0.
         -6    2    1    2    0  501 -0.88721942251E+02 -0.61765058128E+01  0.41474610404E+03  0.45873928927E+03  0.17469308068E+03 0.  0.
        -24    2    5    5    0    0 -0.29629522750E+02 -0.66303390189E+02  0.17427931232E+03  0.20387947644E+03  0.76938378234E+02 0.  0.
          4    1    4    4  502    0  0.32196849448E+02 -0.39230463535E+02  0.10303446203E+03  0.11485541672E+03  0.00000000000E+00 0. -1.
         -3    1    4    4    0  502  0.42867349936E+02 -0.65637270254E+01  0.39166060242E+03  0.39405420908E+03  0.00000000000E+00 0.  1.
          5    1    3    3  503    0  0.13657742868E+02  0.51970696373E+02  0.64893742587E+03  0.65117536802E+03  0.47000000000E+01 0. -1.
         11    1    6    6    0    0 -0.50798697072E+02 -0.20320207139E+02  0.80948764231E+02  0.97704252072E+02  0.00000000000E+00 0. -1.
        -12    1    6    6    0    0  0.21169174322E+02 -0.45983183049E+02  0.93330548084E+02  0.10617522437E+03  0.00000000000E+00 0.  1.
         -5    1    5    5    0  501 -0.59092419501E+02  0.60126884376E+02  0.24046679173E+03  0.25485981282E+03  0.47000000000E+01 0.  1.
<mgrwt>
<rscale>  2 0.19535547E+03</rscale>
<asrwt>0</asrwt>
<pdfrwt beam="2">  1        1 0.46496696E-02 0.19535547E+03</pdfrwt>
<pdfrwt beam="1">  1       -1 0.24440016E+00 0.19535547E+03</pdfrwt>
<totfact> 0.15970220E+02</totfact>
</mgrwt>
</event>
<event>
12    1  0.1093377E-001  0.2214245E+03  0.7546771E-02  0.1132825E+00
          2   -1    0    0  503    0  0.00000000000E+00  0.00000000000E+00  0.48357376667E+03  0.48357376667E+03  0.00000000000E+00 0.  1.
         -2   -1    0    0    0  501 -0.00000000000E+00 -0.00000000000E+00 -0.19376955509E+03  0.19376955509E+03  0.00000000000E+00 0. -1.
          6    2    1    2  503    0  0.13947302733E+03 -0.42887385088E+01 -0.88584626670E+02  0.23944910386E+03  0.17325564530E+03 0.  0.
         24    2    3    3    0    0  0.13122279960E+03 -0.13549600937E+02 -0.44439443114E+01  0.15426944515E+03  0.79851726626E+02 0.  0.
         -6    2    1    2    0  501 -0.13947302733E+03  0.42887385088E+01  0.37838883824E+03  0.43789421790E+03  0.17059341879E+03 0.  0.
        -24    2    5    5    0    0 -0.80824341360E+02 -0.62893582531E+02  0.21171989112E+03  0.24880756961E+03  0.81189392905E+02 0.  0.
          4    1    4    4  502    0  0.52376544084E+02 -0.38230640880E+02  0.20430143037E+02  0.67987315117E+02  0.00000000000E+00 0. -1.
         -3    1    4    4    0  502  0.78846255515E+02  0.24681039943E+02 -0.24874087348E+02  0.86282130032E+02  0.00000000000E+00 0.  1.
          5    1    3    3  503    0  0.82502277274E+01  0.92608624281E+01 -0.84140682359E+02  0.85179658712E+02  0.47000000000E+01 0. -1.
         13    1    6    6    0    0 -0.21063632480E+02  0.13185908055E+02  0.13599507567E+02  0.28328278990E+02  0.00000000000E+00 0. -1.
        -14    1    6    6    0    0 -0.59760708881E+02 -0.76079490586E+02  0.19812038355E+03  0.22047929062E+03  0.00000000000E+00 0.  1.
         -5    1    5    5    0  501 -0.58648685966E+02  0.67182321040E+02  0.16666894712E+03  0.18908664829E+03  0.47000000000E+01 0.  1.
<mgrwt>
<rscale>  2 0.22142448E+03</rscale>
<asrwt>0</asrwt>
<pdfrwt beam="1">  1        2 0.74395964E-01 0.22142448E+03</pdfrwt>
<pdfrwt beam="2">  1       -2 0.29810701E-01 0.22142448E+03</pdfrwt>
<totfact> 0.67152671E+02</totfact>
</mgrwt>
</event>
<event>
12    1  0.1093377E-001  0.1740056E+03  0.7546771E-02  0.1173734E+00
          1   -1    0    0  503    0  0.00000000000E+00  0.00000000000E+00  0.13685362674E+04  0.13685362674E+04  0.00000000000E+00 0.  1.
         -1   -1    0    0    0  501 -0.00000000000E+00 -0.00000000000E+00 -0.24459878170E+02  0.24459878170E+02  0.00000000000E+00 0. -1.
          6    2    1    2  503    0 -0.20418198689E+01 -0.15123195684E+02  0.88261087861E+03  0.89934782611E+03  0.17202229279E+03 0.  0.
         24    2    3    3    0    0  0.16936144053E+02  0.24261689460E+02  0.80863171317E+03  0.81328773541E+03  0.81708203232E+02 0.  0.
         -6    2    1    2    0  501  0.20418198689E+01  0.15123195684E+02  0.46146551066E+03  0.49364831949E+03  0.17465785335E+03 0.  0.
        -24    2    5    5    0    0  0.14421522367E+02 -0.56759805585E+02  0.26965832589E+03  0.28838626983E+03  0.83793627833E+02 0.  0.
          4    1    4    4  502    0 -0.25105241579E+02 -0.14939664088E+02  0.24677407812E+03  0.24849730853E+03  0.00000000000E+00 0. -1.
         -3    1    4    4    0  502  0.42041385632E+02  0.39201353548E+02  0.56185763505E+03  0.56479042687E+03  0.00000000000E+00 0.  1.
          5    1    3    3  503    0 -0.18977963922E+02 -0.39384885143E+02  0.73979165440E+02  0.86060090702E+02  0.47000000000E+01 0. -1.
         11    1    6    6    0    0  0.46479570597E+02 -0.13663330432E+02  0.13327769353E+03  0.14180966355E+03  0.00000000000E+00 0. -1.
        -12    1    6    6    0    0 -0.32058048230E+02 -0.43096475153E+02  0.13638063236E+03  0.14657660629E+03  0.00000000000E+00 0.  1.
         -5    1    5    5    0  501 -0.12379702498E+02  0.71883001269E+02  0.19180718476E+03  0.20526204966E+03  0.47000000000E+01 0.  1.
<mgrwt>
<rscale>  2 0.17400561E+03</rscale>
<asrwt>0</asrwt>
<pdfrwt beam="1">  1        1 0.21054398E+00 0.17400561E+03</pdfrwt>
<pdfrwt beam="2">  1       -1 0.37630592E-02 0.17400561E+03</pdfrwt>
<totfact> 0.23546631E+03</totfact>
</mgrwt>
</event>
<event>
12    1  0.1093377E-001  0.2415905E+03  0.7546771E-02  0.1118738E+00
         -2   -1    0    0    0  501 -0.00000000000E+00  0.00000000000E+00  0.13035992217E+03  0.13035992217E+03  0.00000000000E+00 0.  1.
          2   -1    0    0  503    0  0.00000000000E+00 -0.00000000000E+00 -0.44841737908E+03  0.44841737908E+03  0.00000000000E+00 0. -1.
          6    2    1    2  503    0 -0.11697668116E+03 -0.12487754503E+03 -0.16923156007E+03  0.29373942189E+03  0.16842084746E+03 0.  0.
         24    2    3    3    0    0 -0.58510920994E+02 -0.13231449275E+03 -0.12439913485E+03  0.21953976115E+03  0.10859055717E+03 0.  0.
         -6    2    1    2    0  501  0.11697668116E+03  0.12487754503E+03 -0.14882589684E+03  0.28503787936E+03  0.17268323577E+03 0.  0.
        -24    2    5    5    0    0 -0.95699539428E+01  0.58936857677E+02 -0.68517794141E+02  0.12122790878E+03  0.80227056171E+02 0.  0.
          4    1    4    4  502    0  0.24875246020E+02 -0.44509408181E+02 -0.70471828435E+02  0.86983583992E+02  0.00000000000E+00 0. -1.
         -3    1    4    4    0  502 -0.83386167013E+02 -0.87805084564E+02 -0.53927306412E+02  0.13255617715E+03  0.00000000000E+00 0.  1.
          5    1    3    3  503    0 -0.58465760163E+02  0.74369477138E+01 -0.44832425221E+02  0.74199660740E+02  0.47000000000E+01 0. -1.
         13    1    6    6    0    0  0.23372607126E+01  0.59362849060E+02 -0.83254130412E+02  0.10227737221E+03  0.00000000000E+00 0. -1.
        -14    1    6    6    0    0 -0.11907214655E+02 -0.42599138243E+00  0.14736336271E+02  0.18950536567E+02  0.00000000000E+00 0.  1.
         -5    1    5    5    0  501  0.12654663510E+03  0.65940687354E+02 -0.80308102698E+02  0.16380997058E+03  0.47000000000E+01 0.  1.
<mgrwt>
<rscale>  2 0.24159048E+03</rscale>
<asrwt>0</asrwt>
<pdfrwt beam="2">  1        2 0.68987289E-01 0.24159048E+03</pdfrwt>
<pdfrwt beam="1">  1       -2 0.20055373E-01 0.24159048E+03</pdfrwt>
<totfact> 0.14685792E+03</totfact>
</mgrwt>
</event>
<event>
12    1  0.1093377E-001  0.1769853E+03  0.7546771E-02  0.1170753E+00
          2   -1    0    0  503    0  0.00000000000E+00  0.00000000000E+00  0.17842131428E+04  0.17842131428E+04  0.00000000000E+00 0.  1.
         -2   -1    0    0    0  501 -0.00000000000E+00 -0.00000000000E+00 -0.18105521928E+02  0.18105521928E+02  0.00000000000E+00 0. -1.
          6    2    1    2  503    0  0.16562454081E+02  0.29466540851E+02  0.10450859470E+04  0.10601447278E+04  0.17481308710E+03 0.  0.
         24    2    3    3    0    0  0.46900965415E+02  0.33893430497E+02  0.33740211301E+03  0.35178145838E+03  0.81003354300E+02 0.  0.
         -6    2    1    2    0  501 -0.16562454081E+02 -0.29466540851E+02  0.72102167388E+03  0.74217393690E+03  0.17264792642E+03 0.  0.
        -24    2    5    5    0    0  0.52349333902E+02  0.35544565055E+01  0.29153064886E+03  0.30591271772E+03  0.76415866924E+02 0.  0.
          4    1    4    4  502    0  0.66560658121E+02  0.94800955825E+01  0.25178954059E+03  0.26061113977E+03  0.00000000000E+00 0. -1.
         -3    1    4    4    0  502 -0.19659692705E+02  0.24413334914E+02  0.85612572422E+02  0.91170318610E+02  0.00000000000E+00 0.  1.
          5    1    3    3  503    0 -0.30338511335E+02 -0.44268896458E+01  0.70768383398E+03  0.70836326945E+03  0.47000000000E+01 0. -1.
         13    1    6    6    0    0  0.51281922519E+02 -0.18826540137E+02  0.26764255826E+03  0.27316078266E+03  0.00000000000E+00 0. -1.
        -14    1    6    6    0    0  0.10674113828E+01  0.22380996643E+02  0.23888090598E+02  0.32751935060E+02  0.00000000000E+00 0.  1.
         -5    1    5    5    0  501 -0.68911787982E+02 -0.33020997356E+02  0.42949102502E+03  0.43626121918E+03  0.47000000000E+01 0.  1.
<mgrwt>
<rscale>  2 0.17698529E+03</rscale>
<asrwt>0</asrwt>
<pdfrwt beam="1">  1        2 0.27449419E+00 0.17698529E+03</pdfrwt>
<pdfrwt beam="2">  1       -2 0.27854663E-02 0.17698529E+03</pdfrwt>
<totfact> 0.45443219E+03</totfact>
</mgrwt>
</event>
<event>
12    1  0.1093377E-001  0.3091864E+03  0.7546771E-02  0.1080736E+00
         -3   -1    0    0    0  501 -0.00000000000E+00  0.00000000000E+00  0.42530785272E+02  0.42530785272E+02  0.00000000000E+00 0.  1.
          3   -1    0    0  503    0  0.00000000000E+00 -0.00000000000E+00 -0.24912205887E+04  0.24912205887E+04  0.00000000000E+00 0. -1.
          6    2    1    2  503    0  0.21673853097E+03  0.13414900676E+03 -0.82579594882E+03  0.88153831354E+03  0.17377946462E+03 0.  0.
         24    2    3    3    0    0  0.51753953203E+02  0.63047232237E+02 -0.19872464108E+03  0.22922252480E+03  0.79987859950E+02 0.  0.
         -6    2    1    2    0  501 -0.21673853097E+03 -0.13414900676E+03 -0.16228938546E+04  0.16522130604E+04  0.17621573973E+03 0.  0.
        -24    2    5    5    0    0 -0.13770799575E+03 -0.13612993856E+03 -0.13928080359E+04  0.14088792905E+04  0.86785818291E+02 0.  0.
          4    1    4    4  502    0 -0.20495075016E+02  0.17055594809E+02 -0.66916293137E+02  0.72032851543E+02  0.00000000000E+00 0. -1.
         -3    1    4    4    0  502  0.72249028219E+02  0.45991637428E+02 -0.13180834794E+03  0.15718967326E+03  0.00000000000E+00 0.  1.
          5    1    3    3  503    0  0.16498457777E+03  0.71101774522E+02 -0.62707130774E+03  0.65231578873E+03  0.47000000000E+01 0. -1.
         13    1    6    6    0    0 -0.12090470493E+03 -0.90503797070E+02 -0.80360342700E+03  0.81767191027E+03  0.00000000000E+00 0. -1.
        -14    1    6    6    0    0 -0.16803290820E+02 -0.45626141493E+02 -0.58920460887E+03  0.59120738027E+03  0.00000000000E+00 0.  1.
         -5    1    5    5    0  501 -0.79030535217E+02  0.19809318039E+01 -0.23008581870E+03  0.24333376986E+03  0.47000000000E+01 0.  1.
<mgrwt>
<rscale>  2 0.30918642E+03</rscale>
<asrwt>0</asrwt>
<pdfrwt beam="2">  1        3 0.38326473E+00 0.30918642E+03</pdfrwt>
<pdfrwt beam="1">  1       -3 0.65431974E-02 0.30918642E+03</pdfrwt>
<totfact> 0.60232837E+00</totfact>
</mgrwt>
</event>
<event>
12    1  0.1093377E-001  0.3383208E+03  0.7546771E-02  0.1067513E+00
          2   -1    0    0  503    0  0.00000000000E+00  0.00000000000E+00  0.37302439904E+03  0.37302439904E+03  0.00000000000E+00 0.  1.
         -2   -1    0    0    0  501 -0.00000000000E+00 -0.00000000000E+00 -0.55765001791E+03  0.55765001791E+03  0.00000000000E+00 0. -1.
          6    2    1    2  503    0  0.12787448161E+03  0.26224105900E+03  0.21980323647E+03  0.40320444531E+03  0.17069887486E+03 0.  0.
         24    2    3    3    0    0  0.10069316786E+03  0.19906150632E+03  0.85435113373E+02  0.25218337989E+03  0.80825126948E+02 0.  0.
         -6    2    1    2    0  501 -0.12787448161E+03 -0.26224105900E+03 -0.40442885534E+03  0.52746997164E+03  0.17187092796E+03 0.  0.
        -24    2    5    5    0    0 -0.87765443026E+02 -0.15939032434E+03 -0.14636406578E+03  0.24674495636E+03  0.79703106920E+02 0.  0.
          4    1    4    4  502    0  0.11287531798E+03  0.17425359695E+03  0.85531147152E+02  0.22454560916E+03  0.00000000000E+00 0. -1.
         -3    1    4    4    0  502 -0.12182150120E+02  0.24807909367E+02 -0.96033779118E-01  0.27637770735E+02  0.00000000000E+00 0.  1.
          5    1    3    3  503    0  0.27181313756E+02  0.63179552682E+02  0.13436812309E+03  0.15102106541E+03  0.47000000000E+01 0. -1.
         11    1    6    6    0    0 -0.98830645529E+02 -0.12807511480E+03 -0.13764384793E+03  0.21240659218E+03  0.00000000000E+00 0. -1.
        -12    1    6    6    0    0  0.11065202503E+02 -0.31315209544E+02 -0.87202178440E+01  0.34338364179E+02  0.00000000000E+00 0.  1.
         -5    1    5    5    0  501 -0.40109038587E+02 -0.10285073466E+03 -0.25806478956E+03  0.28072501529E+03  0.47000000000E+01 0.  1.
<mgrwt>
<rscale>  2 0.33832077E+03</rscale>
<asrwt>0</asrwt>
<pdfrwt beam="1">  1        2 0.57388370E-01 0.33832077E+03</pdfrwt>
<pdfrwt beam="2">  1       -2 0.85792309E-01 0.33832077E+03</pdfrwt>
<totfact> 0.10531301E+02</totfact>
</mgrwt>
</event>
<event>
12    1  0.1093377E-001  0.1750367E+03  0.7546771E-02  0.1172695E+00
          2   -1    0    0  503    0  0.00000000000E+00  0.00000000000E+00  0.32576616104E+04  0.32576616104E+04  0.00000000000E+00 0. -1.
         -2   -1    0    0    0  501 -0.00000000000E+00 -0.00000000000E+00 -0.18166071455E+02  0.18166071455E+02  0.00000000000E+00 0.  1.
          6    2    1    2  503    0  0.27997448251E+02 -0.35826947026E-01  0.27556507914E+04  0.27611835469E+04  0.17245125993E+03 0.  0.
         24    2    3    3    0    0  0.69651596911E+02 -0.13168519689E+02  0.24570330490E+04  0.24593521672E+04  0.79855640404E+02 0.  0.
         -6    2    1    2    0  501 -0.27997448251E+02  0.35826947026E-01  0.48384474752E+03  0.51464413495E+03  0.17311553234E+03 0.  0.
        -24    2    5    5    0    0 -0.52593169673E+02 -0.28641247788E+02  0.45759226726E+03  0.46839906118E+03  0.80128864256E+02 0.  0.
          4    1    4    4  502    0 -0.23066224236E+01 -0.26929641492E+02  0.34841505472E+03  0.34946183834E+03  0.00000000000E+00 0. -1.
         -3    1    4    4    0  502  0.71958219335E+02  0.13761121803E+02  0.21086179943E+04  0.21098903288E+04  0.00000000000E+00 0.  1.
          5    1    3    3  503    0 -0.41654148661E+02  0.13132692742E+02  0.29861774244E+03  0.30183137978E+03  0.47000000000E+01 0. -1.
         11    1    6    6    0    0 -0.62085003542E+02 -0.44489292613E+02  0.29370707475E+03  0.30347601319E+03  0.00000000000E+00 0. -1.
        -12    1    6    6    0    0  0.94918338692E+01  0.15848044826E+02  0.16388519251E+03  0.16492304800E+03  0.00000000000E+00 0.  1.
         -5    1    5    5    0  501  0.24595721423E+02  0.28677074735E+02  0.26252480259E+02  0.46245073763E+02  0.47000000000E+01 0.  1.
<mgrwt>
<rscale>  2 0.17503673E+03</rscale>
<asrwt>0</asrwt>
<pdfrwt beam="1">  1        2 0.50117825E+00 0.17503673E+03</pdfrwt>
<pdfrwt beam="2">  1       -2 0.27947828E-02 0.17503673E+03</pdfrwt>
<totfact> 0.70205776E+02</totfact>
</mgrwt>
</event>
<event>
12    1  0.1093377E-001  0.1806180E+03  0.7546771E-02  0.1167206E+00
          1   -1    0    0  503    0  0.00000000000E+00  0.00000000000E+00  0.11714908402E+04  0.11714908402E+04  0.00000000000E+00 0. -1.
         -1   -1    0    0    0  501 -0.00000000000E+00 -0.00000000000E+00 -0.42986563164E+02  0.42986563164E+02  0.00000000000E+00 0.  1.
          6    2    1    2  503    0 -0.31513079533E+02 -0.43657345972E+02  0.92426654824E+03  0.94171582286E+03  0.17222369405E+03 0.  0.
         24    2    3    3    0    0 -0.65164901653E+02 -0.74175106146E+02  0.78019398574E+03  0.79057756799E+03  0.81005091550E+02 0.  0.
         -6    2    1    2    0  501  0.31513079533E+02  0.43657345972E+02  0.20423772878E+03  0.27276158049E+03  0.17258850452E+03 0.  0.
        -24    2    5    5    0    0 -0.45327872318E+01 -0.64206117497E+01  0.27221387284E+02  0.85240964242E+02  0.80394325943E+02 0.  0.
          2    1    4    4  502    0 -0.56735525854E+02 -0.34283730405E+02  0.66660124025E+03  0.66988917559E+03  0.00000000000E+00 0. -1.
         -1    1    4    4    0  502 -0.84293757991E+01 -0.39891375741E+02  0.11359274548E+03  0.12068839241E+03  0.00000000000E+00 0.  1.
          5    1    3    3  503    0  0.33651822120E+02  0.30517760175E+02  0.14407256250E+03  0.15113825487E+03  0.47000000000E+01 0. -1.
         11    1    6    6    0    0  0.47115331319E+01 -0.24242919935E+02  0.49458287338E+02  0.55281460707E+02  0.00000000000E+00 0. -1.
        -12    1    6    6    0    0 -0.92443203637E+01  0.17822308185E+02 -0.22236900054E+02  0.29959503535E+02  0.00000000000E+00 0.  1.
         -5    1    5    5    0  501  0.36045866765E+02  0.50077957721E+02  0.17701634150E+03  0.18752061625E+03  0.47000000000E+01 0.  1.
<mgrwt>
<rscale>  2 0.18061803E+03</rscale>
<asrwt>0</asrwt>
<pdfrwt beam="1">  1        1 0.18022934E+00 0.18061803E+03</pdfrwt>
<pdfrwt beam="2">  1       -1 0.66133183E-02 0.18061803E+03</pdfrwt>
<totfact> 0.13842334E+03</totfact>
</mgrwt>
</event>
<event>
12    1  0.1093377E-001  0.1968077E+03  0.7546771E-02  0.1152461E+00
         -3   -1    0    0    0  501 -0.00000000000E+00  0.00000000000E+00  0.45781033032E+03  0.45781033032E+03  0.00000000000E+00 0. -1.
          3   -1    0    0  503    0  0.00000000000E+00 -0.00000000000E+00 -0.84710610349E+02  0.84710610349E+02  0.00000000000E+00 0.  1.
          6    2    1    2  503    0 -0.18315132875E+02  0.87898804466E+02  0.19653549821E+03  0.27847665357E+03  0.17567413186E+03 0.  0.
         24    2    3    3    0    0  0.26667858225E+02  0.12067909255E+02  0.31080474479E+02  0.90936660402E+02  0.80291165237E+02 0.  0.
         -6    2    1    2    0  501  0.18315132875E+02 -0.87898804466E+02  0.17656422176E+03  0.26404428710E+03  0.17459329090E+03 0.  0.
        -24    2    5    5    0    0 -0.26730598362E+02 -0.54599187044E+02  0.18158608350E+03  0.20760590018E+03  0.80194189036E+02 0.  0.
          4    1    4    4  502    0  0.29690778153E+02 -0.12261070389E+02  0.50370357247E+02  0.59741518591E+02  0.00000000000E+00 0. -1.
         -3    1    4    4    0  502 -0.30229199287E+01  0.24328979644E+02 -0.19289882768E+02  0.31195141811E+02  0.00000000000E+00 0.  1.
          5    1    3    3  503    0 -0.44982991100E+02  0.75830895211E+02  0.16545502373E+03  0.18753999316E+03  0.47000000000E+01 0. -1.
         13    1    6    6    0    0  0.89019376358E+01 -0.19929480628E+02  0.14304456418E+03  0.14470029729E+03  0.00000000000E+00 0. -1.
        -14    1    6    6    0    0 -0.35632535998E+02 -0.34669706415E+02  0.38541519312E+02  0.62905602894E+02  0.00000000000E+00 0.  1.
         -5    1    5    5    0  501  0.45045731237E+02 -0.33299617423E+02 -0.50218617406E+01  0.56438386923E+02  0.47000000000E+01 0.  1.
<mgrwt>
<rscale>  2 0.19680775E+03</rscale>
<asrwt>0</asrwt>
<pdfrwt beam="2">  1        3 0.13032402E-01 0.19680775E+03</pdfrwt>
<pdfrwt beam="1">  1       -3 0.70432357E-01 0.19680775E+03</pdfrwt>
<totfact> 0.22613008E+02</totfact>
</mgrwt>
</event>
<event>
12    1  0.1093377E-001  0.1893326E+03  0.7546771E-02  0.1159065E+00
          2   -1    0    0  503    0  0.00000000000E+00  0.00000000000E+00  0.23363433624E+04  0.23363433624E+04  0.00000000000E+00 0.  1.
         -2   -1    0    0    0  501 -0.00000000000E+00 -0.00000000000E+00 -0.16717809538E+02  0.16717809538E+02  0.00000000000E+00 0. -1.
          6    2    1    2  503    0 -0.73931232462E+02  0.97262449495E+01  0.15026485459E+04  0.15146527319E+04  0.17509945373E+03 0.  0.
         24    2    3    3    0    0  0.29168734559E+02 -0.31017952017E+01  0.72182442843E+03  0.72693288685E+03  0.80873236000E+02 0.  0.
         -6    2    1    2    0  501  0.73931232462E+02 -0.97262449495E+01  0.81697700693E+03  0.83840844004E+03  0.17296489671E+03 0.  0.
        -24    2    5    5    0    0  0.16113170617E+02 -0.58546494290E+02  0.34347720137E+03  0.35887689687E+03  0.84431706057E+02 0.  0.
          4    1    4    4  502    0  0.16977848101E+02  0.38053696330E+02  0.42186960307E+03  0.42392250839E+03  0.00000000000E+00 0. -1.
         -3    1    4    4    0  502  0.12190886458E+02 -0.41155491532E+02  0.29995482536E+03  0.30301037846E+03  0.00000000000E+00 0.  1.
          5    1    3    3  503    0 -0.10309996702E+03  0.12828040151E+02  0.78082411747E+03  0.78771984502E+03  0.47000000000E+01 0. -1.
         13    1    6    6    0    0  0.37123191933E+02 -0.70198438853E+02  0.24688537138E+03  0.25934212692E+03  0.00000000000E+00 0. -1.
        -14    1    6    6    0    0 -0.21010021316E+02  0.11651944564E+02  0.96591829992E+02  0.99534769951E+02  0.00000000000E+00 0.  1.
         -5    1    5    5    0  501  0.57818061845E+02  0.48820249340E+02  0.47349980556E+03  0.47953154316E+03  0.47000000000E+01 0.  1.
<mgrwt>
<rscale>  2 0.18933262E+03</rscale>
<asrwt>0</asrwt>
<pdfrwt beam="1">  1        2 0.35943718E+00 0.18933262E+03</pdfrwt>
<pdfrwt beam="2">  1       -2 0.25719726E-02 0.18933262E+03</pdfrwt>
<totfact> 0.26350634E+03</totfact>
</mgrwt>
</event>
<event>
12    1  0.1093377E-001  0.2904606E+03  0.7546771E-02  0.1090109E+00
         -2   -1    0    0    0  501 -0.00000000000E+00  0.00000000000E+00  0.74173554580E+03  0.74173554580E+03  0.00000000000E+00 0.  1.
          2   -1    0    0  503    0  0.00000000000E+00 -0.00000000000E+00 -0.16950270427E+03  0.16950270427E+03  0.00000000000E+00 0. -1.
          6    2    1    2  503    0  0.17518196035E+03 -0.15425587831E+03  0.54746368400E+03  0.61976413881E+03  0.17293787102E+03 0.  0.
         24    2    3    3    0    0  0.99196089862E+02 -0.13727684833E+03  0.48373215066E+03  0.51903709024E+03  0.81962858213E+02 0.  0.
         -6    2    1    2    0  501 -0.17518196035E+03  0.15425587831E+03  0.24769157520E+02  0.29147411126E+03  0.17280061095E+03 0.  0.
        -24    2    5    5    0    0 -0.15155240732E+03  0.10201475028E+03  0.77196095419E+02  0.21363989609E+03  0.79420567953E+02 0.  0.
          4    1    4    4  502    0  0.10946451485E+02 -0.43665747351E+02  0.23209295026E+03  0.23641839998E+03  0.00000000000E+00 0. -1.
         -3    1    4    4    0  502  0.88249638377E+02 -0.93611100978E+02  0.25163920040E+03  0.28261869025E+03  0.00000000000E+00 0.  1.
          5    1    3    3  503    0  0.75985870488E+02 -0.16979029977E+02  0.63731533342E+02  0.10072704858E+03  0.47000000000E+01 0. -1.
         11    1    6    6    0    0 -0.98625081815E+02  0.10394607804E+03  0.39505081898E+02  0.14863494003E+03  0.00000000000E+00 0. -1.
        -12    1    6    6    0    0 -0.52927325500E+02 -0.19313277568E+01  0.37691013520E+02  0.65004956055E+02  0.00000000000E+00 0.  1.
         -5    1    5    5    0  501 -0.23629553035E+02  0.52241128028E+02 -0.52426937899E+02  0.77834215174E+02  0.47000000000E+01 0.  1.
<mgrwt>
<rscale>  2 0.29046062E+03</rscale>
<asrwt>0</asrwt>
<pdfrwt beam="2">  1        2 0.26077340E-01 0.29046062E+03</pdfrwt>
<pdfrwt beam="1">  1       -2 0.11411316E+00 0.29046062E+03</pdfrwt>
<totfact> 0.12921211E+02</totfact>
</mgrwt>
</event>
<event>
12    1  0.1093377E-001  0.3303374E+03  0.7546771E-02  0.1070988E+00
         -1   -1    0    0    0  501 -0.00000000000E+00  0.00000000000E+00  0.33132639517E+03  0.33132639517E+03  0.00000000000E+00 0.  1.
          1   -1    0    0  503    0  0.00000000000E+00 -0.00000000000E+00 -0.35617367997E+03  0.35617367997E+03  0.00000000000E+00 0. -1.
          6    2    1    2  503    0  0.22028346315E+02 -0.28085098201E+03 -0.10678981727E+03  0.34833953945E+03  0.17485378903E+03 0.  0.
         24    2    3    3    0    0  0.20024310029E+02 -0.73313106522E+02 -0.85384528423E+02  0.13963816832E+03  0.80202966136E+02 0.  0.
         -6    2    1    2    0  501 -0.22028346315E+02  0.28085098201E+03  0.81942532467E+02  0.33916053569E+03  0.17015512983E+03 0.  0.
        -24    2    5    5    0    0  0.30829405799E+01  0.28627123513E+03  0.56495622126E+02  0.30269697691E+03  0.80454831590E+02 0.  0.
          2    1    4    4  502    0  0.21352897252E+02 -0.37187799311E+02 -0.93254656791E+02  0.10264165651E+03  0.00000000000E+00 0. -1.
         -1    1    4    4    0  502 -0.13285872230E+01 -0.36125307211E+02  0.78701283680E+01  0.36996511804E+02  0.00000000000E+00 0.  1.
          5    1    3    3  503    0  0.20040362856E+01 -0.20753787549E+03 -0.21405288843E+02  0.20870137114E+03  0.47000000000E+01 0. -1.
         11    1    6    6    0    0  0.38908041770E+02  0.13171389761E+03  0.11692354063E+02  0.13783721443E+03  0.00000000000E+00 0. -1.
        -12    1    6    6    0    0 -0.35825101190E+02  0.15455733752E+03  0.44803268063E+02  0.16485976248E+03  0.00000000000E+00 0.  1.
         -5    1    5    5    0  501 -0.25111286895E+02 -0.54202531173E+01  0.25446910341E+02  0.36463558785E+02  0.47000000000E+01 0.  1.
<mgrwt>
<rscale>  2 0.33033743E+03</rscale>
<asrwt>0</asrwt>
<pdfrwt beam="2">  1        1 0.54795951E-01 0.33033743E+03</pdfrwt>
<pdfrwt beam="1">  1       -1 0.50973292E-01 0.33033743E+03</pdfrwt>
<totfact> 0.27973707E+02</totfact>
</mgrwt>
</event>
<event>
12    1  0.1093377E-001  0.2012972E+03  0.7546771E-02  0.1148649E+00
          1   -1    0    0  503    0  0.00000000000E+00  0.00000000000E+00  0.21290482530E+03  0.21290482530E+03  0.00000000000E+00 0. -1.
         -1   -1    0    0    0  501 -0.00000000000E+00 -0.00000000000E+00 -0.34478333134E+03  0.34478333134E+03  0.00000000000E+00 0.  1.
          6    2    1    2  503    0 -0.99703843114E+02  0.21031789489E+02 -0.25272205744E+03  0.32360694364E+03  0.17455607453E+03 0.  0.
         24    2    3    3    0    0 -0.10267799999E+03  0.70450782485E+02 -0.21634764720E+03  0.26199306373E+03  0.79548579867E+02 0.  0.
         -6    2    1    2    0  501  0.99703843114E+02 -0.21031789489E+02  0.12084355140E+03  0.23408121299E+03  0.17264894399E+03 0.  0.
        -24    2    5    5    0    0 -0.51137897880E+01  0.21521835218E+02  0.78070395978E+02  0.11304741619E+03  0.78710808298E+02 0.  0.
          2    1    4    4  502    0 -0.90094341682E+01  0.33969220373E+02 -0.17676406658E+02  0.39338698366E+02  0.00000000000E+00 0. -1.
         -1    1    4    4    0  502 -0.93668565819E+02  0.36481562112E+02 -0.19867124054E+03  0.22265436536E+03  0.00000000000E+00 0.  1.
          5    1    3    3  503    0  0.29741568740E+01 -0.49418992996E+02 -0.36374410244E+02  0.61613879918E+02  0.47000000000E+01 0. -1.
         13    1    6    6    0    0 -0.32767584263E+02  0.71530215280E+01  0.74472518791E+02  0.81676412449E+02  0.00000000000E+00 0. -1.
        -14    1    6    6    0    0  0.27653794475E+02  0.14368813690E+02  0.35978771866E+01  0.31371003745E+02  0.00000000000E+00 0.  1.
         -5    1    5    5    0  501  0.10481763290E+03 -0.42553624707E+02  0.42773155422E+02  0.12103379680E+03  0.47000000000E+01 0.  1.
<mgrwt>
<rscale>  2 0.20129724E+03</rscale>
<asrwt>0</asrwt>
<pdfrwt beam="1">  1        1 0.32754589E-01 0.20129724E+03</pdfrwt>
<pdfrwt beam="2">  1       -1 0.53043589E-01 0.20129724E+03</pdfrwt>
<totfact> 0.50076217E+02</totfact>
</mgrwt>
</event>
<event>
12    1  0.1093377E-001  0.2035630E+03  0.7546771E-02  0.1146767E+00
         -1   -1    0    0    0  501 -0.00000000000E+00  0.00000000000E+00  0.67264111428E+03  0.67264111428E+03  0.00000000000E+00 0. -1.
          1   -1    0    0  503    0  0.00000000000E+00 -0.00000000000E+00 -0.89361179199E+02  0.89361179199E+02  0.00000000000E+00 0.  1.
          6    2    1    2  503    0  0.78486338952E+02 -0.62264362627E+02  0.76644876150E+02  0.21496551786E+03  0.17406544911E+03 0.  0.
         24    2    3    3    0    0  0.98176825754E+02 -0.97845782097E+02  0.66313790100E+02  0.17274497759E+03  0.78935558112E+02 0.  0.
         -6    2    1    2    0  501 -0.78486338952E+02  0.62264362627E+02  0.50663505893E+03  0.54703677562E+03  0.18036960577E+03 0.  0.
        -24    2    5    5    0    0 -0.76803280900E+02 -0.51587626173E+01  0.43517926891E+03  0.44866640188E+03  0.77428594830E+02 0.  0.
          4    1    4    4  502    0  0.31548689410E+02  0.94800703233E+01  0.17628951573E+02  0.37362701594E+02  0.00000000000E+00 0. -1.
         -3    1    4    4    0  502  0.66628136345E+02 -0.10732585242E+03  0.48684838527E+02  0.13538227599E+03  0.00000000000E+00 0.  1.
          5    1    3    3  503    0 -0.19690486803E+02  0.35581419470E+02  0.10331086050E+02  0.42220540274E+02  0.47000000000E+01 0. -1.
         13    1    6    6    0    0 -0.56918967868E+02  0.11207842234E+02  0.12945132744E+03  0.14185566892E+03  0.00000000000E+00 0. -1.
        -14    1    6    6    0    0 -0.19884313033E+02 -0.16366604851E+02  0.30572794148E+03  0.30681073296E+03  0.00000000000E+00 0.  1.
         -5    1    5    5    0  501 -0.16830580513E+01  0.67423125244E+02  0.71455790016E+02  0.98370373736E+02  0.47000000000E+01 0.  1.
<mgrwt>
<rscale>  2 0.20356298E+03</rscale>
<asrwt>0</asrwt>
<pdfrwt beam="2">  1        1 0.13747874E-01 0.20356298E+03</pdfrwt>
<pdfrwt beam="1">  1       -1 0.10348325E+00 0.20356298E+03</pdfrwt>
<totfact> 0.39175469E+02</totfact>
</mgrwt>
</event>
<event>
12    1  0.1093377E-001  0.2389845E+03  0.7546771E-02  0.1120471E+00
         -2   -1    0    0    0  501 -0.00000000000E+00  0.00000000000E+00  0.40758344005E+02  0.40758344005E+02  0.00000000000E+00 0. -1.
          2   -1    0    0  503    0  0.00000000000E+00 -0.00000000000E+00 -0.16461150662E+04  0.16461150662E+04  0.00000000000E+00 0.  1.
          6    2    1    2  503    0 -0.94555096036E+02 -0.13348884953E+03 -0.11263359846E+04  0.11512931481E+04  0.17344515965E+03 0.  0.
         24    2    3    3    0    0 -0.90444205324E+02 -0.16237010332E+03 -0.10532123887E+04  0.10724250523E+04  0.79340736435E+02 0.  0.
         -6    2    1    2    0  501  0.94555096036E+02  0.13348884953E+03 -0.47902073757E+03  0.53558026213E+03  0.17500117436E+03 0.  0.
        -24    2    5    5    0    0  0.23096689801E+02  0.12132974573E+03 -0.17945203512E+03  0.22733093916E+03  0.64976601256E+02 0.  0.
          2    1    4    4  502    0 -0.86023963205E+02 -0.81337520095E+02 -0.70579523678E+03  0.71565552515E+03  0.00000000000E+00 0. -1.
         -1    1    4    4    0  502 -0.44202421192E+01 -0.81032583228E+02 -0.34741715188E+03  0.35676952715E+03  0.00000000000E+00 0.  1.
          5    1    3    3  503    0 -0.41108907113E+01  0.28881253794E+02 -0.73123595968E+02  0.78868095771E+02  0.47000000000E+01 0. -1.
         13    1    6    6    0    0 -0.45689040133E+01  0.10255553585E+03 -0.15498594565E+03  0.18590093105E+03  0.00000000000E+00 0. -1.
        -14    1    6    6    0    0  0.27665593814E+02  0.18774209881E+02 -0.24466089478E+02  0.41430008111E+02  0.00000000000E+00 0.  1.
         -5    1    5    5    0  501  0.71458406234E+02  0.12159103799E+02 -0.29956870245E+03  0.30824932297E+03  0.47000000000E+01 0.  1.
<mgrwt>
<rscale>  2 0.23898455E+03</rscale>
<asrwt>0</asrwt>
<pdfrwt beam="2">  1        2 0.25324849E+00 0.23898455E+03</pdfrwt>
<pdfrwt beam="1">  1       -2 0.62705141E-02 0.23898455E+03</pdfrwt>
<totfact> 0.15803908E+03</totfact>
</mgrwt>
</event>
<event>
12    1  0.1093377E-001  0.1928737E+03  0.7546771E-02  0.1155895E+00
         -1   -1    0    0    0  501 -0.00000000000E+00  0.00000000000E+00  0.57974479541E+02  0.57974479541E+02  0.00000000000E+00 0.  1.
          1   -1    0    0  503    0  0.00000000000E+00 -0.00000000000E+00 -0.65176858961E+03  0.65176858961E+03  0.00000000000E+00 0. -1.
          6    2    1    2  503    0  0.80521172427E+02 -0.25739030816E+02 -0.25215047806E+03  0.31723008847E+03  0.17294192242E+03 0.  0.
         24    2    3    3    0    0  0.40729252412E+02  0.52172511477E+02 -0.12583633320E+03  0.16350644516E+03  0.80738664219E+02 0.  0.
         -6    2    1    2    0  501 -0.80521172427E+02  0.25739030816E+02 -0.34164363201E+03  0.39251298068E+03  0.17378121818E+03 0.  0.
        -24    2    5    5    0    0 -0.11913907533E+03  0.36895189169E+02 -0.30019030502E+03  0.33457965165E+03  0.79208268610E+02 0.  0.
          4    1    4    4  502    0 -0.99072388340E+00  0.77017529339E+01 -0.94740594364E+02  0.95058291340E+02  0.00000000000E+00 0. -1.
         -3    1    4    4    0  502  0.41719976295E+02  0.44470758543E+02 -0.31095738834E+02  0.68448153818E+02  0.00000000000E+00 0.  1.
          5    1    3    3  503    0  0.39791920015E+02 -0.77911542294E+02 -0.12631414486E+03  0.15372364331E+03  0.47000000000E+01 0. -1.
         11    1    6    6    0    0 -0.49533109014E+02  0.55150560404E+02 -0.12728177561E+03  0.14729481866E+03  0.00000000000E+00 0. -1.
        -12    1    6    6    0    0 -0.69605966318E+02 -0.18255371235E+02 -0.17290852941E+03  0.18728483299E+03  0.00000000000E+00 0.  1.
         -5    1    5    5    0  501  0.38617902905E+02 -0.11156158353E+02 -0.41453326992E+02  0.57933329032E+02  0.47000000000E+01 0.  1.
<mgrwt>
<rscale>  2 0.19287375E+03</rscale>
<asrwt>0</asrwt>
<pdfrwt beam="2">  1        1 0.10027209E+00 0.19287375E+03</pdfrwt>
<pdfrwt beam="1">  1       -1 0.89191506E-02 0.19287375E+03</pdfrwt>
<totfact> 0.22579287E+03</totfact>
</mgrwt>
</event>
<event>
12    1  0.1093377E-001  0.1780257E+03  0.7546771E-02  0.1169728E+00
          1   -1    0    0  503    0  0.00000000000E+00  0.00000000000E+00  0.93593908109E+02  0.93593908109E+02  0.00000000000E+00 0. -1.
         -1   -1    0    0    0  501 -0.00000000000E+00 -0.00000000000E+00 -0.37055104933E+03  0.37055104933E+03  0.00000000000E+00 0.  1.
          6    2    1    2  503    0 -0.20090907567E+02 -0.34010681339E+02 -0.20667399877E+03  0.27284568667E+03  0.17369587201E+03 0.  0.
         24    2    3    3    0    0 -0.69066466429E+02 -0.50919503587E+02 -0.17854204803E+03  0.21370170736E+03  0.80175957632E+02 0.  0.
         -6    2    1    2    0  501  0.20090907567E+02  0.34010681339E+02 -0.70283142451E+02  0.19129927078E+03  0.17348002731E+03 0.  0.
        -24    2    5    5    0    0  0.37060708925E+01  0.24885590258E+02  0.33189090093E+02  0.86036157257E+02  0.75283976319E+02 0.  0.
          2    1    4    4  502    0 -0.68919415123E+02 -0.46259555022E+02 -0.80765500476E+02  0.11581406771E+03  0.00000000000E+00 0. -1.
         -1    1    4    4    0  502 -0.14705130641E+00 -0.46599485657E+01 -0.97776547558E+02  0.97887639654E+02  0.00000000000E+00 0.  1.
          5    1    3    3  503    0  0.48975558862E+02  0.16908822249E+02 -0.28131950741E+02  0.59143979306E+02  0.47000000000E+01 0. -1.
         13    1    6    6    0    0  0.29829174417E+02  0.37665682679E+02  0.30319158802E+02  0.56813155946E+02  0.00000000000E+00 0. -1.
        -14    1    6    6    0    0 -0.26123103524E+02 -0.12780092421E+02  0.28699312910E+01  0.29223001311E+02  0.00000000000E+00 0.  1.
         -5    1    5    5    0  501  0.16384836674E+02  0.91250910812E+01 -0.10347223254E+03  0.10526311352E+03  0.47000000000E+01 0.  1.
<mgrwt>
<rscale>  2 0.17802566E+03</rscale>
<asrwt>0</asrwt>
<pdfrwt beam="1">  1        1 0.14399063E-01 0.17802566E+03</pdfrwt>
<pdfrwt beam="2">  1       -1 0.57007855E-01 0.17802566E+03</pdfrwt>
<totfact> 0.12490771E+03</totfact>
</mgrwt>
</event>
<event>
12    1  0.1093377E-001  0.1983809E+03  0.7546771E-02  0.1151112E+00
          2   -1    0    0  503    0  0.00000000000E+00  0.00000000000E+00  0.64771387875E+02  0.64771387875E+02  0.00000000000E+00 0. -1.
         -2   -1    0    0    0  501 -0.00000000000E+00 -0.00000000000E+00 -0.61227005446E+03  0.61227005446E+03  0.00000000000E+00 0.  1.
          6    2    1    2  503    0  0.13724705832E+02  0.85392736052E+02 -0.30370071296E+03  0.36290634177E+03  0.17884798831E+03 0.  0.
         24    2    3    3    0    0 -0.34988590450E+02 -0.36524045049E+01 -0.19945950568E+03  0.21733731489E+03  0.78828120093E+02 0.  0.
         -6    2    1    2    0  501 -0.13724705832E+02 -0.85392736052E+02 -0.24379795362E+03  0.31413510057E+03  0.17822214311E+03 0.  0.
        -24    2    5    5    0    0 -0.67863410531E+02 -0.92643108307E+02 -0.14759555528E+03  0.20340769343E+03  0.80012835229E+02 0.  0.
          2    1    4    4  502    0 -0.39380060608E+02  0.28550310190E+02 -0.15368177996E+03  0.16119552995E+03  0.00000000000E+00 0. -1.
         -1    1    4    4    0  502  0.43914701582E+01 -0.32202714694E+02 -0.45777725721E+02  0.56141784938E+02  0.00000000000E+00 0.  1.
          5    1    3    3  503    0  0.48713296281E+02  0.89045140557E+02 -0.10424120728E+03  0.14556902688E+03  0.47000000000E+01 0. -1.
         11    1    6    6    0    0 -0.23365826555E+01 -0.11182009667E+02  0.93962341616E+01  0.14791422350E+02  0.00000000000E+00 0. -1.
        -12    1    6    6    0    0 -0.65526827875E+02 -0.81461098640E+02 -0.15699178945E+03  0.18861627108E+03  0.00000000000E+00 0.  1.
         -5    1    5    5    0  501  0.54138704699E+02  0.72503722548E+01 -0.96202398341E+02  0.11072740713E+03  0.47000000000E+01 0.  1.
<mgrwt>
<rscale>  2 0.19838094E+03</rscale>
<asrwt>0</asrwt>
<pdfrwt beam="1">  1        2 0.99648285E-02 0.19838094E+03</pdfrwt>
<pdfrwt beam="2">  1       -2 0.94195397E-01 0.19838094E+03</pdfrwt>
<totfact> 0.62961361E+02</totfact>
</mgrwt>
</event>
<event>
12    1  0.1093377E-001  0.2237817E+03  0.7546771E-02  0.1131095E+00
          2   -1    0    0  503    0  0.00000000000E+00  0.00000000000E+00  0.20198706207E+03  0.20198706207E+03  0.00000000000E+00 0.  1.
         -2   -1    0    0    0  501 -0.00000000000E+00 -0.00000000000E+00 -0.34856089351E+03  0.34856089351E+03  0.00000000000E+00 0. -1.
          6    2    1    2  503    0 -0.78115632006E+02  0.11692303899E+03  0.74515209082E+02  0.23629521562E+03  0.17467072888E+03 0.  0.
         24    2    3    3    0    0 -0.11623636597E+03  0.63914851866E+02  0.68507278406E+02  0.17055904984E+03  0.82469031919E+02 0.  0.
         -6    2    1    2    0  501  0.78115632006E+02 -0.11692303899E+03 -0.22108904053E+03  0.31425273996E+03  0.17349746891E+03 0.  0.
        -24    2    5    5    0    0  0.72809068848E+02 -0.15030263384E+03 -0.16633904326E+03  0.24973910446E+03  0.82516063499E+02 0.  0.
          2    1    4    4  502    0 -0.12582355197E+03  0.50729396423E+02  0.47009582309E+02  0.14357903301E+03  0.00000000000E+00 0. -1.
         -1    1    4    4    0  502  0.95871860016E+01  0.13185455443E+02  0.21497696097E+02  0.26980016830E+02  0.00000000000E+00 0.  1.
          5    1    3    3  503    0  0.38120733961E+02  0.53008187127E+02  0.60079306761E+01  0.65736165779E+02  0.47000000000E+01 0. -1.
         11    1    6    6    0    0  0.87630066227E+02 -0.10673542882E+03 -0.14029764284E+03  0.19686266497E+03  0.00000000000E+00 0. -1.
        -12    1    6    6    0    0 -0.14820997379E+02 -0.43567205027E+02 -0.26041400417E+02  0.52876439487E+02  0.00000000000E+00 0.  1.
         -5    1    5    5    0  501  0.53065631582E+01  0.33379594851E+02 -0.54749997267E+02  0.64513635502E+02  0.47000000000E+01 0.  1.
<mgrwt>
<rscale>  2 0.22378170E+03</rscale>
<asrwt>0</asrwt>
<pdfrwt beam="1">  1        2 0.31074933E-01 0.22378170E+03</pdfrwt>
<pdfrwt beam="2">  1       -2 0.53624752E-01 0.22378170E+03</pdfrwt>
<totfact> 0.56323889E+02</totfact>
</mgrwt>
</event>
<event>
12    1  0.1093377E-001  0.2403651E+03  0.7546771E-02  0.1119550E+00
         -2   -1    0    0    0  501 -0.00000000000E+00  0.00000000000E+00  0.29282381629E+02  0.29282381629E+02  0.00000000000E+00 0. -1.
          2   -1    0    0  503    0  0.00000000000E+00 -0.00000000000E+00 -0.19833633325E+04  0.19833633325E+04  0.00000000000E+00 0.  1.
          6    2    1    2  503    0 -0.34039438658E+02 -0.17057009242E+03 -0.10272653280E+04  0.10539340925E+04  0.15890304407E+03 0.  0.
         24    2    3    3    0    0  0.69803055065E+01 -0.76652989062E+02 -0.29196241239E+03  0.31150866903E+03  0.76623725012E+02 0.  0.
         -6    2    1    2    0  501  0.34039438658E+02  0.17057009242E+03 -0.92681562291E+03  0.95871162166E+03  0.17288127381E+03 0.  0.
        -24    2    5    5    0    0  0.69686222639E+02  0.13431114980E+03 -0.49671805520E+03  0.52559337929E+03  0.81387464674E+02 0.  0.
          2    1    4    4  502    0 -0.10615966595E+02 -0.81293289141E+02 -0.27374986283E+03  0.28576263752E+03  0.00000000000E+00 0. -1.
         -1    1    4    4    0  502  0.17596272101E+02  0.46403000794E+01 -0.18212549558E+02  0.25746031502E+02  0.00000000000E+00 0.  1.
          5    1    3    3  503    0 -0.41019744165E+02 -0.93917103359E+02 -0.73530291560E+03  0.74242542346E+03  0.47000000000E+01 0. -1.
         13    1    6    6    0    0  0.13325851938E+02  0.10611285278E+03 -0.34830887136E+03  0.36435777159E+03  0.00000000000E+00 0. -1.
        -14    1    6    6    0    0  0.56360370701E+02  0.28198297023E+02 -0.14840918384E+03  0.16123560769E+03  0.00000000000E+00 0.  1.
         -5    1    5    5    0  501 -0.35646783981E+02  0.36258942622E+02 -0.43009756771E+03  0.43311824237E+03  0.47000000000E+01 0.  1.
<mgrwt>
<rscale>  2 0.24036510E+03</rscale>
<asrwt>0</asrwt>
<pdfrwt beam="2">  1        2 0.30513275E+00 0.24036510E+03</pdfrwt>
<pdfrwt beam="1">  1       -2 0.45049829E-02 0.24036510E+03</pdfrwt>
<totfact> 0.17434221E+03</totfact>
</mgrwt>
</event>
<event>
12    1  0.1093377E-001  0.2046177E+03  0.7546771E-02  0.1145901E+00
          2   -1    0    0  503    0  0.00000000000E+00  0.00000000000E+00  0.26930731904E+03  0.26930731904E+03  0.00000000000E+00 0. -1.
         -2   -1    0    0    0  501 -0.00000000000E+00 -0.00000000000E+00 -0.17303184605E+03  0.17303184605E+03  0.00000000000E+00 0.  1.
          6    2    1    2  503    0 -0.86165582494E+02 -0.66657092929E+02  0.11856056175E+03  0.23630612019E+03  0.17296329089E+03 0.  0.
         24    2    3    3    0    0 -0.71210973386E+02 -0.40720267692E+02  0.16458077208E+01  0.11552735987E+03  0.81330924395E+02 0.  0.
         -6    2    1    2    0  501  0.86165582494E+02  0.66657092929E+02 -0.22285088752E+02  0.20603304490E+03  0.17345118843E+03 0.  0.
        -24    2    5    5    0    0  0.79138680076E+02 -0.20067179762E+02 -0.19922202724E+02  0.11886567680E+03  0.84062670501E+02 0.  0.
          2    1    4    4  502    0  0.43494917836E+01  0.18797393372E+02 -0.79556153674E+00  0.19310437450E+02  0.00000000000E+00 0. -1.
         -1    1    4    4    0  502 -0.75560465169E+02 -0.59517661064E+02  0.24413692576E+01  0.96216922415E+02  0.00000000000E+00 0.  1.
          5    1    3    3  503    0 -0.14954609108E+02 -0.25936825237E+02  0.11691475403E+03  0.12077876033E+03  0.47000000000E+01 0. -1.
         11    1    6    6    0    0  0.27003106905E+01 -0.63807870930E+01  0.27175819439E+02  0.28045165073E+02  0.00000000000E+00 0. -1.
        -12    1    6    6    0    0  0.76438369386E+02 -0.13686392669E+02 -0.47098022163E+02  0.90820511727E+02  0.00000000000E+00 0.  1.
         -5    1    5    5    0  501  0.70269024177E+01  0.86724272691E+02 -0.23628860280E+01  0.87167368102E+02  0.47000000000E+01 0.  1.
<mgrwt>
<rscale>  2 0.20461769E+03</rscale>
<asrwt>0</asrwt>
<pdfrwt beam="1">  1        2 0.41431895E-01 0.20461769E+03</pdfrwt>
<pdfrwt beam="2">  1       -2 0.26620284E-01 0.20461769E+03</pdfrwt>
<totfact> 0.15504041E+03</totfact>
</mgrwt>
</event>
<event>
12    1  0.1093377E-001  0.3275968E+03  0.7546771E-02  0.1072205E+00
         -1   -1    0    0    0  501 -0.00000000000E+00  0.00000000000E+00  0.72224176303E+03  0.72224176303E+03  0.00000000000E+00 0.  1.
          1   -1    0    0  503    0  0.00000000000E+00 -0.00000000000E+00 -0.14882627315E+03  0.14882627315E+03  0.00000000000E+00 0. -1.
          6    2    1    2  503    0 -0.19934697999E+03  0.19256283517E+03  0.26886968658E+03  0.42327735388E+03  0.17335843222E+03 0.  0.
         24    2    3    3    0    0 -0.20494228244E+03  0.16630464846E+03  0.28055878754E+03  0.39362056950E+03  0.81026811837E+02 0.  0.
         -6    2    1    2    0  501  0.19934697999E+03 -0.19256283517E+03  0.30454580329E+03  0.44779068231E+03  0.17592238328E+03 0.  0.
        -24    2    5    5    0    0  0.88304232263E+02 -0.68954527833E+02  0.57308474143E+02  0.14986805411E+03  0.81386780814E+02 0.  0.
          2    1    4    4  502    0 -0.81790853281E+02  0.20266107357E+02  0.99904046455E+02  0.13069536061E+03  0.00000000000E+00 0. -1.
         -1    1    4    4    0  502 -0.12315142916E+03  0.14603854110E+03  0.18065474108E+03  0.26292520888E+03  0.00000000000E+00 0.  1.
          5    1    3    3  503    0  0.55953024505E+01  0.26258186707E+02 -0.11689100951E+02  0.29656784379E+02  0.47000000000E+01 0. -1.
         11    1    6    6    0    0  0.96815568940E+02 -0.38474001143E+02  0.55806793044E+02  0.11818587607E+03  0.00000000000E+00 0. -1.
        -12    1    6    6    0    0 -0.85113366774E+01 -0.30480526690E+02  0.15016810990E+01  0.31682178042E+02  0.00000000000E+00 0.  1.
         -5    1    5    5    0  501  0.11104274773E+03 -0.12360830733E+03  0.24723732915E+03  0.29792262819E+03  0.47000000000E+01 0.  1.
<mgrwt>
<rscale>  2 0.32759677E+03</rscale>
<asrwt>0</asrwt>
<pdfrwt beam="2">  1        1 0.22896350E-01 0.32759677E+03</pdfrwt>
<pdfrwt beam="1">  1       -1 0.11111412E+00 0.32759677E+03</pdfrwt>
<totfact> 0.16986451E+02</totfact>
</mgrwt>
</event>
<event>
12    1  0.1093377E-001  0.4304880E+03  0.7546771E-02  0.1033706E+00
          2   -1    0    0  503    0  0.00000000000E+00  0.00000000000E+00  0.13313381966E+04  0.13313381966E+04  0.00000000000E+00 0.  1.
         -2   -1    0    0    0  501 -0.00000000000E+00 -0.00000000000E+00 -0.28173382561E+03  0.28173382561E+03  0.00000000000E+00 0. -1.
          6    2    1    2  503    0 -0.23153488479E+03 -0.31925819486E+03  0.10984854299E+04  0.11798313426E+04  0.17261969548E+03 0.  0.
         24    2    3    3    0    0 -0.25104540278E+03 -0.26754826071E+03  0.95565902816E+03  0.10266123860E+04  0.77736394017E+02 0.  0.
         -6    2    1    2    0  501  0.23153488479E+03  0.31925819486E+03 -0.48881058979E+02  0.43324067960E+03  0.17255124073E+03 0.  0.
        -24    2    5    5    0    0  0.74742595646E+02  0.10700443647E+03  0.34152574506E+02  0.15656008004E+03  0.79424525735E+02 0.  0.
          2    1    4    4  502    0 -0.22926110383E+03 -0.24120940045E+03  0.78600330895E+03  0.85354779027E+03  0.00000000000E+00 0. -1.
         -1    1    4    4    0  502 -0.21784298951E+02 -0.26338860257E+02  0.16965571920E+03  0.17306459574E+03  0.00000000000E+00 0.  1.
          5    1    3    3  503    0  0.19510517994E+02 -0.51709934150E+02  0.14282640178E+03  0.15321895655E+03  0.47000000000E+01 0. -1.
         13    1    6    6    0    0  0.28982382827E+02  0.98507461969E+02  0.75696965231E+01  0.10296115230E+03  0.00000000000E+00 0. -1.
        -14    1    6    6    0    0  0.45760212819E+02  0.84969745055E+01  0.26582877983E+02  0.53598927740E+02  0.00000000000E+00 0.  1.
         -5    1    5    5    0  501  0.15679228914E+03  0.21225375838E+03 -0.83033633485E+02  0.27668059956E+03  0.47000000000E+01 0.  1.
<mgrwt>
<rscale>  2 0.43048803E+03</rscale>
<asrwt>0</asrwt>
<pdfrwt beam="1">  1        2 0.20482126E+00 0.43048803E+03</pdfrwt>
<pdfrwt beam="2">  1       -2 0.43343666E-01 0.43048803E+03</pdfrwt>
<totfact> 0.84475397E+01</totfact>
</mgrwt>
</event>
<event>
12    1  0.1093377E-001  0.1918885E+03  0.7546771E-02  0.1156769E+00
         -1   -1    0    0    0  501 -0.00000000000E+00  0.00000000000E+00  0.60432440239E+02  0.60432440239E+02  0.00000000000E+00 0. -1.
          1   -1    0    0  503    0  0.00000000000E+00 -0.00000000000E+00 -0.72966557552E+03  0.72966557552E+03  0.00000000000E+00 0.  1.
          6    2    1    2  503    0  0.47349918899E+02  0.60155525674E+02 -0.49927408661E+03  0.53595826769E+03  0.17920923260E+03 0.  0.
         24    2    3    3    0    0  0.34606905991E+02  0.60252373144E+02 -0.50860848555E+03  0.51947752860E+03  0.79663823258E+02 0.  0.
         -6    2    1    2    0  501 -0.47349918899E+02 -0.60155525674E+02 -0.16995904867E+03  0.25413974807E+03  0.17274325236E+03 0.  0.
        -24    2    5    5    0    0 -0.69301278941E+02 -0.42526617879E+02 -0.18941397626E+03  0.21959666186E+03  0.75722249088E+02 0.  0.
          4    1    4    4  502    0  0.26746886438E+02  0.54683754319E+02 -0.16726251374E+03  0.17799566687E+03  0.00000000000E+00 0. -1.
         -3    1    4    4    0  502  0.78600195525E+01  0.55686188250E+01 -0.34134597180E+03  0.34148186173E+03  0.00000000000E+00 0.  1.
          5    1    3    3  503    0  0.12743012908E+02 -0.96847469990E-01  0.93343989355E+01  0.16480739088E+02  0.47000000000E+01 0. -1.
         13    1    6    6    0    0 -0.69630010748E+02 -0.53672587145E+02 -0.11710603570E+03  0.14643397354E+03  0.00000000000E+00 0. -1.
        -14    1    6    6    0    0  0.32873180700E+00  0.11145969266E+02 -0.72307940551E+02  0.73162688320E+02  0.00000000000E+00 0.  1.
         -5    1    5    5    0  501  0.21951360042E+02 -0.17628907795E+02  0.19454927588E+02  0.34543086214E+02  0.47000000000E+01 0.  1.
<mgrwt>
<rscale>  2 0.19188855E+03</rscale>
<asrwt>0</asrwt>
<pdfrwt beam="2">  1        1 0.11225624E+00 0.19188855E+03</pdfrwt>
<pdfrwt beam="1">  1       -1 0.92972983E-02 0.19188855E+03</pdfrwt>
<totfact> 0.18005298E+03</totfact>
</mgrwt>
</event>
<event>
12    1  0.1093377E-001  0.1948666E+03  0.7546771E-02  0.1154144E+00
         -2   -1    0    0    0  501 -0.00000000000E+00  0.00000000000E+00  0.99350226799E+02  0.99350226799E+02  0.00000000000E+00 0.  1.
          2   -1    0    0  503    0  0.00000000000E+00 -0.00000000000E+00 -0.58889982515E+03  0.58889982515E+03  0.00000000000E+00 0. -1.
          6    2    1    2  503    0 -0.82388956903E+02  0.20783813630E+02 -0.45114416292E+03  0.49269754720E+03  0.17888518707E+03 0.  0.
         24    2    3    3    0    0  0.36972306174E+01  0.69628783507E+02 -0.20460219035E+03  0.22698774873E+03  0.69278746890E+02 0.  0.
         -6    2    1    2    0  501  0.82388956903E+02 -0.20783813630E+02 -0.38405435434E+02  0.19555250475E+03  0.17188920128E+03 0.  0.
        -24    2    5    5    0    0  0.76082606808E+02 -0.71722264612E+02 -0.52436431412E+02  0.14213476717E+03  0.80746928116E+02 0.  0.
          2    1    4    4  502    0 -0.30646505789E+02  0.44389594956E+02 -0.92813097960E+02  0.10734950214E+03  0.00000000000E+00 0. -1.
         -1    1    4    4    0  502  0.34343736406E+02  0.25239188552E+02 -0.11178909239E+03  0.11963824659E+03  0.00000000000E+00 0.  1.
          5    1    3    3  503    0 -0.86086187521E+02 -0.48844969877E+02 -0.24654197257E+03  0.26570979847E+03  0.47000000000E+01 0. -1.
         13    1    6    6    0    0  0.17661406676E+02  0.10924600509E+02  0.10172395129E+02  0.23124657938E+02  0.00000000000E+00 0. -1.
        -14    1    6    6    0    0  0.58421200132E+02 -0.82646865122E+02 -0.62608826541E+02  0.11901010924E+03  0.00000000000E+00 0.  1.
         -5    1    5    5    0  501  0.63063500952E+01  0.50938450982E+02  0.14030995978E+02  0.53417737580E+02  0.47000000000E+01 0.  1.
<mgrwt>
<rscale>  2 0.19486660E+03</rscale>
<asrwt>0</asrwt>
<pdfrwt beam="2">  1        2 0.90599972E-01 0.19486660E+03</pdfrwt>
<pdfrwt beam="1">  1       -2 0.15284650E-01 0.19486660E+03</pdfrwt>
<totfact> 0.17012723E+03</totfact>
</mgrwt>
</event>
<event>
12    1  0.1093377E-001  0.2192217E+03  0.7546771E-02  0.1134465E+00
          2   -1    0    0  503    0  0.00000000000E+00  0.00000000000E+00  0.44028759899E+03  0.44028759899E+03  0.00000000000E+00 0. -1.
         -2   -1    0    0    0  501 -0.00000000000E+00 -0.00000000000E+00 -0.11077428537E+03  0.11077428537E+03  0.00000000000E+00 0.  1.
          6    2    1    2  503    0  0.13523172203E+03  0.42196682754E+01  0.13371551251E+03  0.25923935678E+03  0.17612433555E+03 0.  0.
         24    2    3    3    0    0  0.74554464362E+02 -0.66871164879E+02  0.92462452382E+02  0.15696745875E+03  0.77841872775E+02 0.  0.
         -6    2    1    2    0  501 -0.13523172203E+03 -0.42196682754E+01  0.19579780111E+03  0.29182252759E+03  0.16887327925E+03 0.  0.
        -24    2    5    5    0    0 -0.54436003930E+02 -0.41408298378E+02  0.41925069163E+02  0.11403093637E+03  0.81039603439E+02 0.  0.
          2    1    4    4  502    0 -0.10420390216E+02  0.65784550969E+01  0.14598302084E+01  0.12409339546E+02  0.00000000000E+00 0. -1.
         -1    1    4    4    0  502  0.84974854579E+02 -0.73449619976E+02  0.91002622174E+02  0.14455811920E+03  0.00000000000E+00 0.  1.
          5    1    3    3  503    0  0.60677257664E+02  0.71090833155E+02  0.41253060123E+02  0.10227189803E+03  0.47000000000E+01 0. -1.
         13    1    6    6    0    0 -0.46306246341E+02 -0.64571747913E+02  0.41121002897E+02  0.89469078223E+02  0.00000000000E+00 0. -1.
        -14    1    6    6    0    0 -0.81297575889E+01  0.23163449536E+02  0.80406626577E+00  0.24561858142E+02  0.00000000000E+00 0.  1.
         -5    1    5    5    0  501 -0.80795718096E+02  0.37188630103E+02  0.15387273195E+03  0.17779159122E+03  0.47000000000E+01 0.  1.
<mgrwt>
<rscale>  2 0.21922165E+03</rscale>
<asrwt>0</asrwt>
<pdfrwt beam="1">  1        2 0.67736553E-01 0.21922165E+03</pdfrwt>
<pdfrwt beam="2">  1       -2 0.17042198E-01 0.21922165E+03</pdfrwt>
<totfact> 0.19707425E+03</totfact>
</mgrwt>
</event>
<event>
12    1  0.1093377E-001  0.1916863E+03  0.7546771E-02  0.1156949E+00
          3   -1    0    0  503    0  0.00000000000E+00  0.00000000000E+00  0.71160568849E+02  0.71160568849E+02  0.00000000000E+00 0. -1.
         -3   -1    0    0    0  501 -0.00000000000E+00 -0.00000000000E+00 -0.68491721712E+03  0.68491721712E+03  0.00000000000E+00 0.  1.
          6    2    1    2  503    0 -0.57951531166E+02 -0.55355508711E+02 -0.49508630572E+03  0.53109895726E+03  0.17473705955E+03 0.  0.
         24    2    3    3    0    0 -0.10582240955E+03 -0.52667804316E+02 -0.35083677758E+03  0.37901719925E+03  0.81211531473E+02 0.  0.
         -6    2    1    2    0  501  0.57951531166E+02  0.55355508711E+02 -0.11867034254E+03  0.22497882870E+03  0.17352294043E+03 0.  0.
        -24    2    5    5    0    0  0.85013162479E+02  0.87659645891E+02 -0.10133192243E+03  0.17916834977E+03  0.83196681082E+02 0.  0.
          4    1    4    4  502    0 -0.51502073619E+02  0.16210943326E+02 -0.16292838931E+03  0.17164183148E+03  0.00000000000E+00 0. -1.
         -3    1    4    4    0  502 -0.54320335933E+02 -0.68878747642E+02 -0.18790838827E+03  0.20737536777E+03  0.00000000000E+00 0.  1.
          5    1    3    3  503    0  0.47870878386E+02 -0.26877043946E+01 -0.14424952814E+03  0.15208175801E+03  0.47000000000E+01 0. -1.
         11    1    6    6    0    0  0.24195802740E+02  0.35831958353E+02  0.77761912989E+01  0.43929890288E+02  0.00000000000E+00 0. -1.
        -12    1    6    6    0    0  0.60817359739E+02  0.51827687538E+02 -0.10910811373E+03  0.13523845948E+03  0.00000000000E+00 0.  1.
         -5    1    5    5    0  501 -0.27061631313E+02 -0.32304137180E+02 -0.17338420115E+02  0.45810478936E+02  0.47000000000E+01 0.  1.
<mgrwt>
<rscale>  2 0.19168628E+03</rscale>
<asrwt>0</asrwt>
<pdfrwt beam="1">  1        3 0.10947780E-01 0.19168628E+03</pdfrwt>
<pdfrwt beam="2">  1       -3 0.10537188E+00 0.19168628E+03</pdfrwt>
<totfact> 0.12372399E+02</totfact>
</mgrwt>
</event>
<event>
12    1  0.1093377E-001  0.1916448E+03  0.7546771E-02  0.1156986E+00
         -1   -1    0    0    0  501 -0.00000000000E+00  0.00000000000E+00  0.18549294300E+03  0.18549294300E+03  0.00000000000E+00 0. -1.
          1   -1    0    0  503    0  0.00000000000E+00 -0.00000000000E+00 -0.42372252334E+03  0.42372252334E+03  0.00000000000E+00 0.  1.
          6    2    1    2  503    0 -0.41226241910E+02 -0.71522190058E+02  0.10316160900E+03  0.21779160205E+03  0.17313531604E+03 0.  0.
         24    2    3    3    0    0 -0.71608578923E+02 -0.18017216075E+02  0.15719365046E+02  0.11076775111E+03  0.81055460018E+02 0.  0.
         -6    2    1    2    0  501  0.41226241910E+02  0.71522190058E+02 -0.34139118933E+03  0.39142386429E+03  0.17277057240E+03 0.  0.
        -24    2    5    5    0    0  0.65412972289E+02 -0.10170742040E+02 -0.19860559360E+03  0.22508520543E+03  0.82685349118E+02 0.  0.
          4    1    4    4  502    0 -0.46004676677E+02 -0.40596703692E+02  0.35923948190E+02  0.71098893665E+02  0.00000000000E+00 0. -1.
         -3    1    4    4    0  502 -0.25603902246E+02  0.22579487616E+02 -0.20204583144E+02  0.39668857448E+02  0.00000000000E+00 0.  1.
          5    1    3    3  503    0  0.30382337013E+02 -0.53504973982E+02  0.87442243950E+02  0.10702385094E+03  0.47000000000E+01 0. -1.
         13    1    6    6    0    0  0.25288882947E+02 -0.33296954613E+02 -0.33409113018E+02  0.53519936658E+02  0.00000000000E+00 0. -1.
        -14    1    6    6    0    0  0.40124089342E+02  0.23126212573E+02 -0.16519648058E+03  0.17156526878E+03  0.00000000000E+00 0.  1.
         -5    1    5    5    0  501 -0.24186730378E+02  0.81692932098E+02 -0.14278559573E+03  0.16633865885E+03  0.47000000000E+01 0.  1.
<mgrwt>
<rscale>  2 0.19164479E+03</rscale>
<asrwt>0</asrwt>
<pdfrwt beam="2">  1        1 0.65188080E-01 0.19164479E+03</pdfrwt>
<pdfrwt beam="1">  1       -1 0.28537376E-01 0.19164479E+03</pdfrwt>
<totfact> 0.62926801E+02</totfact>
</mgrwt>
</event>
<event>
12    1  0.1093377E-001  0.1767544E+03  0.7546771E-02  0.1170982E+00
         -1   -1    0    0    0  501 -0.00000000000E+00  0.00000000000E+00  0.22506446483E+03  0.22506446483E+03  0.00000000000E+00 0. -1.
          1   -1    0    0  503    0  0.00000000000E+00 -0.00000000000E+00 -0.22838871507E+03  0.22838871507E+03  0.00000000000E+00 0.  1.
          6    2    1    2  503    0  0.12785424846E+02 -0.24841826403E+02 -0.14365354165E+03  0.22836455111E+03  0.17530956833E+03 0.  0.
         24    2    3    3    0    0  0.24332727330E+02 -0.63499415168E+02 -0.34598049760E+02  0.11199041449E+03  0.81979086015E+02 0.  0.
         -6    2    1    2    0  501 -0.12785424846E+02  0.24841826403E+02  0.14032929140E+03  0.22508862879E+03  0.17375844543E+03 0.  0.
        -24    2    5    5    0    0 -0.65022446056E+02  0.44676073422E+02  0.55542882651E+02  0.12343761380E+03  0.76993263735E+02 0.  0.
          4    1    4    4  502    0 -0.68264663789E+01 -0.72882170928E+02 -0.30065739853E+02  0.79135075632E+02  0.00000000000E+00 0. -1.
         -3    1    4    4    0  502  0.31159193709E+02  0.93827557591E+01 -0.45323099067E+01  0.32855338856E+02  0.00000000000E+00 0.  1.
          5    1    3    3  503    0 -0.11547302484E+02  0.38657588765E+02 -0.10905549189E+03  0.11637413662E+03  0.47000000000E+01 0. -1.
         11    1    6    6    0    0 -0.33636150847E+02 -0.13232284707E+02  0.43366042078E+02  0.56454385196E+02  0.00000000000E+00 0. -1.
        -12    1    6    6    0    0 -0.31386295209E+02  0.57908358130E+02  0.12176840573E+02  0.66983228607E+02  0.00000000000E+00 0.  1.
         -5    1    5    5    0  501  0.52237021210E+02 -0.19834247019E+02  0.84786408753E+02  0.10165101499E+03  0.47000000000E+01 0.  1.
<mgrwt>
<rscale>  2 0.17675444E+03</rscale>
<asrwt>0</asrwt>
<pdfrwt beam="2">  1        1 0.35136725E-01 0.17675444E+03</pdfrwt>
<pdfrwt beam="1">  1       -1 0.34625302E-01 0.17675444E+03</pdfrwt>
<totfact> 0.98348037E+02</totfact>
</mgrwt>
</event>
<event>
12    1  0.1093377E-001  0.2471522E+03  0.7546771E-02  0.1115118E+00
         -2   -1    0    0    0  501 -0.00000000000E+00  0.00000000000E+00  0.13416480896E+03  0.13416480896E+03  0.00000000000E+00 0. -1.
          2   -1    0    0  503    0  0.00000000000E+00 -0.00000000000E+00 -0.76027446642E+03  0.76027446642E+03  0.00000000000E+00 0.  1.
          6    2    1    2  503    0 -0.13915473332E+03  0.10839282530E+03 -0.59601278533E+03  0.64507721851E+03  0.17256979222E+03 0.  0.
         24    2    3    3    0    0 -0.13784098034E+03  0.24996214111E+02 -0.42164547190E+03  0.45173097289E+03  0.81553793979E+02 0.  0.
         -6    2    1    2    0  501  0.13915473332E+03 -0.10839282530E+03 -0.30096872126E+02  0.24936205687E+03  0.17367374387E+03 0.  0.
        -24    2    5    5    0    0  0.13227293064E+03 -0.14378368852E+03 -0.13520576869E+02  0.20940287804E+03  0.74140960800E+02 0.  0.
          4    1    4    4  502    0 -0.13873610825E+03  0.41489040746E+02 -0.39035794792E+03  0.41635126484E+03  0.00000000000E+00 0. -1.
         -3    1    4    4    0  502  0.89512791187E+00 -0.16492826635E+02 -0.31287523982E+02  0.35379708044E+02  0.00000000000E+00 0.  1.
          5    1    3    3  503    0 -0.13137529813E+01  0.83396611185E+02 -0.17436731343E+03  0.19334624563E+03  0.47000000000E+01 0. -1.
         13    1    6    6    0    0  0.77667034703E+02 -0.10291871053E+03  0.24610815991E+02  0.13126355747E+03  0.00000000000E+00 0. -1.
        -14    1    6    6    0    0  0.54605895939E+02 -0.40864977988E+02 -0.38131392860E+02  0.78139320567E+02  0.00000000000E+00 0.  1.
         -5    1    5    5    0  501  0.68818026802E+01  0.35390863223E+02 -0.16576295257E+02  0.39959178824E+02  0.47000000000E+01 0.  1.
<mgrwt>
<rscale>  2 0.24715217E+03</rscale>
<asrwt>0</asrwt>
<pdfrwt beam="2">  1        2 0.11696530E+00 0.24715217E+03</pdfrwt>
<pdfrwt beam="1">  1       -2 0.20640740E-01 0.24715217E+03</pdfrwt>
<totfact> 0.75648298E+02</totfact>
</mgrwt>
</event>
<event>
12    1  0.1093377E-001  0.1918987E+03  0.7546771E-02  0.1156760E+00
          1   -1    0    0  503    0  0.00000000000E+00  0.00000000000E+00  0.70834919558E+02  0.70834919558E+02  0.00000000000E+00 0. -1.
         -1   -1    0    0    0  501 -0.00000000000E+00 -0.00000000000E+00 -0.61047397925E+03  0.61047397925E+03  0.00000000000E+00 0.  1.
          6    2    1    2  503    0 -0.77119290569E+02 -0.29721117574E+02 -0.13881184712E+03  0.23699483555E+03  0.17339865446E+03 0.  0.
         24    2    3    3    0    0 -0.42342602488E+02  0.42355567931E+02 -0.34562896734E+02  0.10548665982E+03  0.79661480337E+02 0.  0.
         -6    2    1    2    0  501  0.77119290569E+02  0.29721117574E+02 -0.40082721257E+03  0.44431406325E+03  0.17297919719E+03 0.  0.
        -24    2    5    5    0    0  0.45662152956E+02 -0.16559014220E+02 -0.92602290309E+02  0.13101533232E+03  0.78934149559E+02 0.  0.
          4    1    4    4  502    0 -0.51308652171E+02 -0.26438522897E+01 -0.29705492898E+02  0.59346306126E+02  0.00000000000E+00 0. -1.
         -3    1    4    4    0  502  0.89660496831E+01  0.44999420221E+02 -0.48574038362E+01  0.46140353695E+02  0.00000000000E+00 0.  1.
          5    1    3    3  503    0 -0.34776688081E+02 -0.72076685505E+02 -0.10424895039E+03  0.13150817573E+03  0.47000000000E+01 0. -1.
         11    1    6    6    0    0  0.83774980002E+01  0.23196852857E+02 -0.13192690839E+01  0.24698520727E+02  0.00000000000E+00 0. -1.
        -12    1    6    6    0    0  0.37284654956E+02 -0.39755867077E+02 -0.91283021225E+02  0.10631681159E+03  0.00000000000E+00 0.  1.
         -5    1    5    5    0  501  0.31457137612E+02  0.46280131794E+02 -0.30822492226E+03  0.31329873094E+03  0.47000000000E+01 0.  1.
<mgrwt>
<rscale>  2 0.19189869E+03</rscale>
<asrwt>0</asrwt>
<pdfrwt beam="1">  1        1 0.10897680E-01 0.19189869E+03</pdfrwt>
<pdfrwt beam="2">  1       -1 0.93919073E-01 0.19189869E+03</pdfrwt>
<totfact> 0.66001335E+02</totfact>
</mgrwt>
</event>
<event>
12    1  0.1093377E-001  0.2442198E+03  0.7546771E-02  0.1117013E+00
          2   -1    0    0  503    0  0.00000000000E+00  0.00000000000E+00  0.25016382566E+04  0.25016382566E+04  0.00000000000E+00 0.  1.
         -2   -1    0    0    0  501 -0.00000000000E+00 -0.00000000000E+00 -0.27434354569E+02  0.27434354569E+02  0.00000000000E+00 0. -1.
          6    2    1    2  503    0  0.89327235040E+02  0.14760884263E+03  0.16927119536E+04  0.17101744316E+04  0.17220657128E+03 0.  0.
         24    2    3    3    0    0  0.79282194213E+02  0.12619990428E+02  0.77138424328E+03  0.77894420608E+03  0.72632602368E+02 0.  0.
         -6    2    1    2    0  501 -0.89327235040E+02 -0.14760884263E+03  0.78149194839E+03  0.81889817955E+03  0.17348440202E+03 0.  0.
        -24    2    5    5    0    0 -0.97304286474E+02 -0.51273125603E+02  0.32036508283E+03  0.34772487825E+03  0.78624087168E+02 0.  0.
          4    1    4    4  502    0  0.53275358388E+02 -0.27877435779E+02  0.42527100844E+03  0.42950069366E+03  0.00000000000E+00 0. -1.
         -3    1    4    4    0  502  0.26006835825E+02  0.40497426207E+02  0.34611323484E+03  0.34944351242E+03  0.00000000000E+00 0.  1.
          5    1    3    3  503    0  0.10045040827E+02  0.13498885220E+03  0.92132771035E+03  0.93123022552E+03  0.47000000000E+01 0. -1.
         13    1    6    6    0    0 -0.40151204635E+02 -0.25832112753E+02  0.24579205107E+03  0.25038600131E+03  0.00000000000E+00 0. -1.
        -14    1    6    6    0    0 -0.57153081838E+02 -0.25441012849E+02  0.74573031765E+02  0.97338876946E+02  0.00000000000E+00 0.  1.
         -5    1    5    5    0  501  0.79770514338E+01 -0.96335717024E+02  0.46112686555E+03  0.47117330130E+03  0.47000000000E+01 0.  1.
<mgrwt>
<rscale>  2 0.24421975E+03</rscale>
<asrwt>0</asrwt>
<pdfrwt beam="1">  1        2 0.38486724E+00 0.24421975E+03</pdfrwt>
<pdfrwt beam="2">  1       -2 0.42206719E-02 0.24421975E+03</pdfrwt>
<totfact> 0.10183350E+03</totfact>
</mgrwt>
</event>
<event>
12    1  0.1093377E-001  0.1870589E+03  0.7546771E-02  0.1161141E+00
         -1   -1    0    0    0  501 -0.00000000000E+00  0.00000000000E+00  0.81845115079E+02  0.81845115079E+02  0.00000000000E+00 0. -1.
          1   -1    0    0  503    0  0.00000000000E+00 -0.00000000000E+00 -0.76943020333E+03  0.76943020333E+03  0.00000000000E+00 0.  1.
          6    2    1    2  503    0  0.69371566732E+02  0.13450882122E+02 -0.60426757772E+02  0.19691656399E+03  0.17358398434E+03 0.  0.
         24    2    3    3    0    0  0.42956933677E+01  0.46495166979E+02 -0.77594742322E+02  0.12179250826E+03  0.81438427652E+02 0.  0.
         -6    2    1    2    0  501 -0.69371566732E+02 -0.13450882122E+02 -0.62715833048E+03  0.65435875442E+03  0.17281338922E+03 0.  0.
        -24    2    5    5    0    0 -0.59338228168E+02 -0.38794944730E+02 -0.61473068548E+03  0.62403507139E+03  0.80621843175E+02 0.  0.
          2    1    4    4  502    0 -0.16665012425E+02  0.37685236772E+02 -0.28283688858E+00  0.41206549314E+02  0.00000000000E+00 0. -1.
         -1    1    4    4    0  502  0.20960705792E+02  0.88099302076E+01 -0.77311905434E+02  0.80585958947E+02  0.00000000000E+00 0.  1.
          5    1    3    3  503    0  0.65075873364E+02 -0.33044284858E+02  0.17167984550E+02  0.75124055731E+02  0.47000000000E+01 0. -1.
         13    1    6    6    0    0  0.12968196890E+02 -0.25734972524E+02 -0.99418195826E+02  0.10351058208E+03  0.00000000000E+00 0. -1.
        -14    1    6    6    0    0 -0.72306425058E+02 -0.13059972206E+02 -0.51531248965E+03  0.52052448931E+03  0.00000000000E+00 0.  1.
         -5    1    5    5    0  501 -0.10033338564E+02  0.25344062608E+02 -0.12427645002E+02  0.30323683030E+02  0.47000000000E+01 0.  1.
<mgrwt>
<rscale>  2 0.18705887E+03</rscale>
<asrwt>0</asrwt>
<pdfrwt beam="2">  1        1 0.11837388E+00 0.18705887E+03</pdfrwt>
<pdfrwt beam="1">  1       -1 0.12591556E-01 0.18705887E+03</pdfrwt>
<totfact> 0.10409867E+03</totfact>
</mgrwt>
</event>
<event>
12    1  0.1093377E-001  0.1909561E+03  0.7546771E-02  0.1157602E+00
         -2   -1    0    0    0  501 -0.00000000000E+00  0.00000000000E+00  0.89125650104E+02  0.89125650104E+02  0.00000000000E+00 0.  1.
          2   -1    0    0  503    0  0.00000000000E+00 -0.00000000000E+00 -0.48032859631E+03  0.48032859631E+03  0.00000000000E+00 0. -1.
          6    2    1    2  503    0 -0.78713023172E+02  0.16365606283E+02 -0.30560565858E+03  0.36059509084E+03  0.17369636696E+03 0.  0.
         24    2    3    3    0    0 -0.35193969371E+02  0.20646898564E+02 -0.30340255092E+03  0.31655895578E+03  0.80570184800E+02 0.  0.
         -6    2    1    2    0  501  0.78713023172E+02 -0.16365606283E+02 -0.85597287623E+02  0.20885915557E+03  0.17271849389E+03 0.  0.
        -24    2    5    5    0    0  0.12214481688E+03 -0.14298446735E+02 -0.69830672583E+02  0.16236969437E+03  0.79773384948E+02 0.  0.
          2    1    4    4  502    0 -0.50533671636E+02  0.32195607239E+02 -0.27974499202E+03  0.28608996776E+03  0.00000000000E+00 0. -1.
         -1    1    4    4    0  502  0.15339702264E+02 -0.11548708675E+02 -0.23657558902E+02  0.30468988018E+02  0.00000000000E+00 0.  1.
          5    1    3    3  503    0 -0.43519053801E+02 -0.42812922807E+01 -0.22031076582E+01  0.44036135056E+02  0.47000000000E+01 0. -1.
         11    1    6    6    0    0  0.86382637458E+02 -0.38282560086E+02 -0.72695039873E+02  0.11921444243E+03  0.00000000000E+00 0. -1.
        -12    1    6    6    0    0  0.35762179422E+02  0.23984113350E+02  0.28643672894E+01  0.43155251942E+02  0.00000000000E+00 0.  1.
         -5    1    5    5    0  501 -0.43431793708E+02 -0.20671595479E+01 -0.15766615040E+02  0.46489461205E+02  0.47000000000E+01 0.  1.
<mgrwt>
<rscale>  2 0.19095610E+03</rscale>
<asrwt>0</asrwt>
<pdfrwt beam="2">  1        2 0.73896708E-01 0.19095610E+03</pdfrwt>
<pdfrwt beam="1">  1       -2 0.13711638E-01 0.19095610E+03</pdfrwt>
<totfact> 0.25558824E+03</totfact>
</mgrwt>
</event>
<event>
12    1  0.1093377E-001  0.1980703E+03  0.7546771E-02  0.1151377E+00
          1   -1    0    0  503    0  0.00000000000E+00  0.00000000000E+00  0.11479737723E+03  0.11479737723E+03  0.00000000000E+00 0. -1.
         -1   -1    0    0    0  501 -0.00000000000E+00 -0.00000000000E+00 -0.55993925479E+03  0.55993925479E+03  0.00000000000E+00 0.  1.
          6    2    1    2  503    0 -0.33508846064E+02 -0.89679048034E+02 -0.11685813042E+02  0.19799410622E+03  0.17291597223E+03 0.  0.
         24    2    3    3    0    0  0.35264313869E+01  0.15710939496E+01 -0.47270023084E+02  0.93177474944E+02  0.80204006759E+02 0.  0.
         -6    2    1    2    0  501  0.33508846064E+02  0.89679048034E+02 -0.43345606452E+03  0.47674252581E+03  0.17387956069E+03 0.  0.
        -24    2    5    5    0    0  0.58710540698E+02  0.50723872281E+02 -0.15508084334E+03  0.19448823461E+03  0.88066830443E+02 0.  0.
          2    1    4    4  502    0  0.35033283860E+02  0.19220314984E+02 -0.98129629856E+01  0.41146636905E+02  0.00000000000E+00 0. -1.
         -1    1    4    4    0  502 -0.31506852473E+02 -0.17649221034E+02 -0.37457060098E+02  0.52030838039E+02  0.00000000000E+00 0.  1.
          5    1    3    3  503    0 -0.37035277451E+02 -0.91250141984E+02  0.35584210042E+02  0.10481663128E+03  0.47000000000E+01 0. -1.
         11    1    6    6    0    0  0.27086219795E+02  0.44618442399E+02 -0.20451975547E+02  0.56060253377E+02  0.00000000000E+00 0. -1.
        -12    1    6    6    0    0  0.31624320903E+02  0.61054298817E+01 -0.13462886779E+03  0.13842798123E+03  0.00000000000E+00 0.  1.
         -5    1    5    5    0  501 -0.25201694634E+02  0.38955175753E+02 -0.27837522118E+03  0.28225429120E+03  0.47000000000E+01 0.  1.
<mgrwt>
<rscale>  2 0.19807028E+03</rscale>
<asrwt>0</asrwt>
<pdfrwt beam="1">  1        1 0.17661135E-01 0.19807028E+03</pdfrwt>
<pdfrwt beam="2">  1       -1 0.86144502E-01 0.19807028E+03</pdfrwt>
<totfact> 0.42111122E+02</totfact>
</mgrwt>
</event>
<event>
12    1  0.1093377E-001  0.1828553E+03  0.7546771E-02  0.1165068E+00
         -2   -1    0    0    0  501 -0.00000000000E+00  0.00000000000E+00  0.89666396827E+02  0.89666396827E+02  0.00000000000E+00 0. -1.
          2   -1    0    0  503    0  0.00000000000E+00 -0.00000000000E+00 -0.38228761405E+03  0.38228761405E+03  0.00000000000E+00 0.  1.
          6    2    1    2  503    0 -0.14034575280E+02  0.57161708902E+02 -0.18338664601E+03  0.25905007646E+03  0.17323928513E+03 0.  0.
         24    2    3    3    0    0  0.10526038713E+02  0.97012010653E+02 -0.16631409986E+03  0.20900177837E+03  0.80617838287E+02 0.  0.
         -6    2    1    2    0  501  0.14034575280E+02 -0.57161708902E+02 -0.10923457121E+03  0.21290393441E+03  0.17300711972E+03 0.  0.
        -24    2    5    5    0    0  0.30330946001E+02  0.18999701783E+02 -0.12065525989E+02  0.88284331115E+02  0.79797188234E+02 0.  0.
          4    1    4    4  502    0  0.24116154028E+02  0.42740085651E+02 -0.21166026718E+02  0.53444405634E+02  0.00000000000E+00 0. -1.
         -3    1    4    4    0  502 -0.13590115315E+02  0.54271925002E+02 -0.14514807314E+03  0.15555737274E+03  0.00000000000E+00 0.  1.
          5    1    3    3  503    0 -0.24560613993E+02 -0.39850301752E+02 -0.17072546150E+02  0.50048298088E+02  0.47000000000E+01 0. -1.
         11    1    6    6    0    0 -0.17338924232E+02  0.19622165428E+02  0.18132908980E+02  0.31850746580E+02  0.00000000000E+00 0. -1.
        -12    1    6    6    0    0  0.47669870232E+02 -0.62246364516E+00 -0.30198434969E+02  0.56433584536E+02  0.00000000000E+00 0.  1.
         -5    1    5    5    0  501 -0.16296370721E+02 -0.76161410685E+02 -0.97169045223E+02  0.12461960330E+03  0.47000000000E+01 0.  1.
<mgrwt>
<rscale>  2 0.18285531E+03</rscale>
<asrwt>0</asrwt>
<pdfrwt beam="2">  1        2 0.58813480E-01 0.18285531E+03</pdfrwt>
<pdfrwt beam="1">  1       -2 0.13794830E-01 0.18285531E+03</pdfrwt>
<totfact> 0.32400065E+03</totfact>
</mgrwt>
</event>
<event>
12    1  0.1093377E-001  0.1968593E+03  0.7546771E-02  0.1152416E+00
         -2   -1    0    0    0  501 -0.00000000000E+00  0.00000000000E+00  0.60842688219E+02  0.60842688219E+02  0.00000000000E+00 0.  1.
          2   -1    0    0  503    0  0.00000000000E+00 -0.00000000000E+00 -0.65044678455E+03  0.65044678455E+03  0.00000000000E+00 0. -1.
          6    2    1    2  503    0 -0.85285122726E+02 -0.56238014954E+02 -0.35252827967E+03  0.40624382836E+03  0.17413096690E+03 0.  0.
         24    2    3    3    0    0 -0.39487514695E+02  0.34269724519E+02 -0.21611779143E+03  0.23618800486E+03  0.79650461593E+02 0.  0.
         -6    2    1    2    0  501  0.85285122726E+02  0.56238014954E+02 -0.23707581666E+03  0.30504564441E+03  0.16251657097E+03 0.  0.
        -24    2    5    5    0    0  0.62529410601E+02  0.46107825079E+02 -0.25129893907E+03  0.27597967819E+03  0.83533031009E+02 0.  0.
          4    1    4    4  502    0  0.24621787897E+02  0.10177526040E+02 -0.66601953134E+02  0.71733079097E+02  0.00000000000E+00 0. -1.
         -3    1    4    4    0  502 -0.64109302592E+02  0.24092198480E+02 -0.14951583829E+03  0.16445492576E+03  0.00000000000E+00 0.  1.
          5    1    3    3  503    0 -0.45797608031E+02 -0.90507739473E+02 -0.13641048825E+03  0.17005582351E+03  0.47000000000E+01 0. -1.
         13    1    6    6    0    0  0.53591719520E+02 -0.58195080103E+01 -0.17604138477E+03  0.18411004380E+03  0.00000000000E+00 0. -1.
        -14    1    6    6    0    0  0.89376910807E+01  0.51927333089E+02 -0.75257554302E+02  0.91869634391E+02  0.00000000000E+00 0.  1.
         -5    1    5    5    0  501  0.22755712125E+02  0.10130189875E+02  0.14223122409E+02  0.29065966220E+02  0.47000000000E+01 0.  1.
<mgrwt>
<rscale>  2 0.19685935E+03</rscale>
<asrwt>0</asrwt>
<pdfrwt beam="2">  1        2 0.10006874E+00 0.19685935E+03</pdfrwt>
<pdfrwt beam="1">  1       -2 0.93604134E-02 0.19685935E+03</pdfrwt>
<totfact> 0.33403644E+03</totfact>
</mgrwt>
</event>
<event>
12    1  0.1093377E-001  0.1754929E+03  0.7546771E-02  0.1172238E+00
         -2   -1    0    0    0  501 -0.00000000000E+00  0.00000000000E+00  0.24119994375E+02  0.24119994375E+02  0.00000000000E+00 0.  1.
          2   -1    0    0  503    0  0.00000000000E+00 -0.00000000000E+00 -0.12797669981E+04  0.12797669981E+04  0.00000000000E+00 0. -1.
          6    2    1    2  503    0 -0.14659621831E+02  0.17377176075E+02 -0.66329010816E+03  0.68645764788E+03  0.17536665588E+03 0.  0.
         24    2    3    3    0    0  0.16204161283E+02  0.63268380788E+02 -0.56011742999E+03  0.56930276195E+03  0.78157766929E+02 0.  0.
         -6    2    1    2    0  501  0.14659621831E+02 -0.17377176075E+02 -0.59235689555E+03  0.61742934458E+03  0.17267145993E+03 0.  0.
        -24    2    5    5    0    0 -0.51776533584E+02 -0.16838528696E+02 -0.24600268393E+03  0.26472921303E+03  0.81239708581E+02 0.  0.
          2    1    4    4  502    0 -0.59268882671E+01  0.73286187994E+02 -0.47951159533E+03  0.48511582474E+03  0.00000000000E+00 0. -1.
         -1    1    4    4    0  502  0.22131049550E+02 -0.10017807206E+02 -0.80605834662E+02  0.84186937211E+02  0.00000000000E+00 0.  1.
          5    1    3    3  503    0 -0.30863783114E+02 -0.45891204713E+02 -0.10317267817E+03  0.11715488593E+03  0.47000000000E+01 0. -1.
         11    1    6    6    0    0  0.21379414442E+02  0.25543543966E+01 -0.43285708875E+02  0.48345182604E+02  0.00000000000E+00 0. -1.
        -12    1    6    6    0    0 -0.73155948026E+02 -0.19392883093E+02 -0.20271697505E+03  0.21638403042E+03  0.00000000000E+00 0.  1.
         -5    1    5    5    0  501  0.66436155415E+02 -0.53864737849E+00 -0.34635421162E+03  0.35270013155E+03  0.47000000000E+01 0.  1.
<mgrwt>
<rscale>  2 0.17549287E+03</rscale>
<asrwt>0</asrwt>
<pdfrwt beam="2">  1        2 0.19688724E+00 0.17549287E+03</pdfrwt>
<pdfrwt beam="1">  1       -2 0.37107681E-02 0.17549287E+03</pdfrwt>
<totfact> 0.54787128E+03</totfact>
</mgrwt>
</event>
<event>
12    1  0.1093377E-001  0.1805301E+03  0.7546771E-02  0.1167291E+00
          3   -1    0    0  503    0  0.00000000000E+00  0.00000000000E+00  0.48394773132E+02  0.48394773132E+02  0.00000000000E+00 0. -1.
         -3   -1    0    0    0  501 -0.00000000000E+00 -0.00000000000E+00 -0.74238568919E+03  0.74238568919E+03  0.00000000000E+00 0.  1.
          6    2    1    2  503    0  0.37689459268E+02 -0.27860368981E+02 -0.22404794603E+03  0.28683744085E+03  0.17286277752E+03 0.  0.
         24    2    3    3    0    0  0.85955299163E+02 -0.46346924694E+02 -0.14474189660E+03  0.19205936575E+03  0.80001452844E+02 0.  0.
         -6    2    1    2    0  501 -0.37689459268E+02  0.27860368981E+02 -0.46994297003E+03  0.50394302148E+03  0.17582797933E+03 0.  0.
        -24    2    5    5    0    0 -0.28332808701E+02 -0.30584957774E+02 -0.13145310464E+03  0.16028493253E+03  0.81689370086E+02 0.  0.
          4    1    4    4  502    0  0.12047213007E+02  0.11611655191E+02 -0.70154838493E+02  0.72122584822E+02  0.00000000000E+00 0. -1.
         -3    1    4    4    0  502  0.73908086156E+02 -0.57958579885E+02 -0.74587058105E+02  0.11993678092E+03  0.00000000000E+00 0.  1.
          5    1    3    3  503    0 -0.48265839896E+02  0.18486555713E+02 -0.79306049433E+02  0.94778075100E+02  0.47000000000E+01 0. -1.
         13    1    6    6    0    0  0.19784527165E+02  0.15218324333E+02 -0.30136041987E+02  0.39130626590E+02  0.00000000000E+00 0. -1.
        -14    1    6    6    0    0 -0.48117335866E+02 -0.45803282107E+02 -0.10131706265E+03  0.12115430594E+03  0.00000000000E+00 0.  1.
         -5    1    5    5    0  501 -0.93566505666E+01  0.58445326755E+02 -0.33848986539E+03  0.34365808895E+03  0.47000000000E+01 0.  1.
<mgrwt>
<rscale>  2 0.18053007E+03</rscale>
<asrwt>0</asrwt>
<pdfrwt beam="1">  1        3 0.74453498E-02 0.18053007E+03</pdfrwt>
<pdfrwt beam="2">  1       -3 0.11421318E+00 0.18053007E+03</pdfrwt>
<totfact> 0.19268114E+02</totfact>
</mgrwt>
</event>
<event>
12    1  0.1093377E-001  0.1910942E+03  0.7546771E-02  0.1157478E+00
          2   -1    0    0  503    0  0.00000000000E+00  0.00000000000E+00  0.14129564262E+04  0.14129564262E+04  0.00000000000E+00 0.  1.
         -2   -1    0    0    0  501 -0.00000000000E+00 -0.00000000000E+00 -0.33428731609E+02  0.33428731609E+02  0.00000000000E+00 0. -1.
          6    2    1    2  503    0 -0.40568130205E+02 -0.71517357633E+02  0.34531663571E+03  0.39466933665E+03  0.17251029177E+03 0.  0.
         24    2    3    3    0    0  0.43441238173E+01  0.25027559145E+02  0.14300771558E+03  0.16600141000E+03  0.80374195343E+02 0.  0.
         -6    2    1    2    0  501  0.40568130205E+02  0.71517357633E+02  0.10342110588E+04  0.10517158211E+04  0.17249100998E+03 0.  0.
        -24    2    5    5    0    0  0.14571362978E+02  0.77024403567E+02  0.10074365880E+04  0.10137010641E+04  0.80723510763E+02 0.  0.
          2    1    4    4  502    0 -0.20677700847E+02  0.20163216237E+02  0.99851044342E+01  0.30558548917E+02  0.00000000000E+00 0. -1.
         -1    1    4    4    0  502  0.25021824664E+02  0.48643429077E+01  0.13302261114E+03  0.13544286108E+03  0.00000000000E+00 0.  1.
          5    1    3    3  503    0 -0.44912254022E+02 -0.96544916778E+02  0.20230892013E+03  0.22866792666E+03  0.47000000000E+01 0. -1.
         13    1    6    6    0    0 -0.25313095070E+02  0.13726188388E+02  0.13362077309E+03  0.13668822930E+03  0.00000000000E+00 0. -1.
        -14    1    6    6    0    0  0.39884458048E+02  0.63298215180E+02  0.87381581489E+03  0.87701283480E+03  0.00000000000E+00 0.  1.
         -5    1    5    5    0  501  0.25996767227E+02 -0.55070459341E+01  0.26774470862E+02  0.38014757018E+02  0.47000000000E+01 0.  1.
<mgrwt>
<rscale>  2 0.19109417E+03</rscale>
<asrwt>0</asrwt>
<pdfrwt beam="1">  1        2 0.21737787E+00 0.19109417E+03</pdfrwt>
<pdfrwt beam="2">  1       -2 0.51428829E-02 0.19109417E+03</pdfrwt>
<totfact> 0.28458124E+03</totfact>
</mgrwt>
</event>
<event>
12    1  0.1093377E-001  0.1958906E+03  0.7546771E-02  0.1153253E+00
          2   -1    0    0  503    0  0.00000000000E+00  0.00000000000E+00  0.33335885354E+03  0.33335885354E+03  0.00000000000E+00 0. -1.
         -2   -1    0    0    0  501 -0.00000000000E+00 -0.00000000000E+00 -0.12822961840E+03  0.12822961840E+03  0.00000000000E+00 0.  1.
          6    2    1    2  503    0  0.71082729834E+02 -0.62485119415E+02  0.28578903062E+02  0.19761621051E+03  0.17110893702E+03 0.  0.
         24    2    3    3    0    0  0.57113497776E+02  0.23924693560E+02  0.44731471905E+02  0.10848265509E+03  0.77027522913E+02 0.  0.
         -6    2    1    2    0  501 -0.71082729834E+02  0.62485119415E+02  0.17655033207E+03  0.26397226143E+03  0.17191332240E+03 0.  0.
        -24    2    5    5    0    0 -0.10485853753E+03  0.83658654298E+02  0.14088737352E+03  0.21027812415E+03  0.79834542316E+02 0.  0.
          4    1    4    4  502    0  0.37859525566E+02  0.52021388184E+02  0.34003578834E+02  0.72772329069E+02  0.00000000000E+00 0. -1.
         -3    1    4    4    0  502  0.19253972210E+02 -0.28096694624E+02  0.10727893071E+02  0.35710326019E+02  0.00000000000E+00 0.  1.
          5    1    3    3  503    0  0.13969232058E+02 -0.86409812974E+02 -0.16152568843E+02  0.89133555426E+02  0.47000000000E+01 0. -1.
         11    1    6    6    0    0 -0.71697802769E+01 -0.21292621235E+01 -0.91048648545E+01  0.11782956778E+02  0.00000000000E+00 0. -1.
        -12    1    6    6    0    0 -0.97688757256E+02  0.85787916422E+02  0.14999223837E+03  0.19849516737E+03  0.00000000000E+00 0.  1.
         -5    1    5    5    0  501  0.33775807699E+02 -0.21173534884E+02  0.35662958553E+02  0.53694137277E+02  0.47000000000E+01 0.  1.
<mgrwt>
<rscale>  2 0.19589060E+03</rscale>
<asrwt>0</asrwt>
<pdfrwt beam="1">  1        2 0.51285977E-01 0.19589060E+03</pdfrwt>
<pdfrwt beam="2">  1       -2 0.19727634E-01 0.19589060E+03</pdfrwt>
<totfact> 0.20742694E+03</totfact>
</mgrwt>
</event>
<event>
12    1  0.1093377E-001  0.1922184E+03  0.7546771E-02  0.1156476E+00
         -1   -1    0    0    0  501 -0.00000000000E+00  0.00000000000E+00  0.18171920037E+03  0.18171920037E+03  0.00000000000E+00 0. -1.
          1   -1    0    0  503    0  0.00000000000E+00 -0.00000000000E+00 -0.20438487768E+03  0.20438487768E+03  0.00000000000E+00 0.  1.
          6    2    1    2  503    0 -0.48534778203E+02 -0.66905600159E+02 -0.25253038328E+02  0.19411700211E+03  0.17381516198E+03 0.  0.
         24    2    3    3    0    0  0.53860732685E+01 -0.29253799318E+02 -0.73389167645E+02  0.11248187930E+03  0.79883719766E+02 0.  0.
         -6    2    1    2    0  501  0.48534778203E+02  0.66905600159E+02  0.25873610189E+01  0.19198707595E+03  0.17326384177E+03 0.  0.
        -24    2    5    5    0    0  0.44261626800E+02  0.47829393367E+02 -0.65756724676E+02  0.12074687986E+03  0.77518511849E+02 0.  0.
          2    1    4    4  502    0 -0.36028453009E+02 -0.13801638262E+02 -0.47721376112E+02  0.61366639007E+02  0.00000000000E+00 0. -1.
         -1    1    4    4    0  502  0.41414526278E+02 -0.15452161056E+02 -0.25667791533E+02  0.51115240294E+02  0.00000000000E+00 0.  1.
          5    1    3    3  503    0 -0.53920851472E+02 -0.37651800841E+02  0.48136129317E+02  0.81635122806E+02  0.47000000000E+01 0. -1.
         13    1    6    6    0    0  0.51986011062E+02  0.29872176872E+02 -0.88885152753E+01  0.60612688449E+02  0.00000000000E+00 0. -1.
        -14    1    6    6    0    0 -0.77243842612E+01  0.17957216496E+02 -0.56868209401E+02  0.60134191414E+02  0.00000000000E+00 0.  1.
         -5    1    5    5    0  501  0.42731514026E+01  0.19076206792E+02  0.68344085695E+02  0.71240196083E+02  0.47000000000E+01 0.  1.
<mgrwt>
<rscale>  2 0.19221835E+03</rscale>
<asrwt>0</asrwt>
<pdfrwt beam="2">  1        1 0.31443827E-01 0.19221835E+03</pdfrwt>
<pdfrwt beam="1">  1       -1 0.27956800E-01 0.19221835E+03</pdfrwt>
<totfact> 0.16289054E+03</totfact>
</mgrwt>
</event>
<event>
12    1  0.1093377E-001  0.2517938E+03  0.7546771E-02  0.1112176E+00
         -3   -1    0    0    0  501 -0.00000000000E+00  0.00000000000E+00  0.12741117971E+04  0.12741117971E+04  0.00000000000E+00 0.  1.
          3   -1    0    0  503    0  0.00000000000E+00 -0.00000000000E+00 -0.50471507415E+02  0.50471507415E+02  0.00000000000E+00 0. -1.
          6    2    1    2  503    0  0.14131605250E+01 -0.18316891485E+03  0.68877143221E+03  0.73311705095E+03  0.17176051984E+03 0.  0.
         24    2    3    3    0    0  0.45752156091E+02 -0.18131761046E+03  0.60042841612E+03  0.63414254743E+03  0.81566855542E+02 0.  0.
         -6    2    1    2    0  501 -0.14131605250E+01  0.18316891485E+03  0.53486885748E+03  0.59146625357E+03  0.17376646978E+03 0.  0.
        -24    2    5    5    0    0  0.28513547948E+02  0.16314562645E+03  0.29501013719E+03  0.34887434180E+03  0.85163416292E+02 0.  0.
          2    1    4    4  502    0  0.18478134114E+01 -0.35755267313E+02  0.41048664857E+02  0.54468765743E+02  0.00000000000E+00 0. -1.
         -1    1    4    4    0  502  0.43904342680E+02 -0.14556234315E+03  0.55937975126E+03  0.57967378168E+03  0.00000000000E+00 0.  1.
          5    1    3    3  503    0 -0.44338995566E+02 -0.18513043895E+01  0.88343016091E+02  0.98974503524E+02  0.47000000000E+01 0. -1.
         11    1    6    6    0    0  0.53638296550E+02  0.13850205638E+03  0.21339626009E+03  0.25999586593E+03  0.00000000000E+00 0. -1.
        -12    1    6    6    0    0 -0.25124748602E+02  0.24643570067E+02  0.81613877098E+02  0.88878475870E+02  0.00000000000E+00 0.  1.
         -5    1    5    5    0  501 -0.29926708473E+02  0.20023288402E+02  0.23985872029E+03  0.24259191177E+03  0.47000000000E+01 0.  1.
<mgrwt>
<rscale>  2 0.25179383E+03</rscale>
<asrwt>0</asrwt>
<pdfrwt beam="2">  1        3 0.77648482E-02 0.25179383E+03</pdfrwt>
<pdfrwt beam="1">  1       -3 0.19601718E+00 0.25179383E+03</pdfrwt>
<totfact> 0.46964992E+01</totfact>
</mgrwt>
</event>
<event>
12    1  0.1093377E-001  0.1884593E+03  0.7546771E-02  0.1159858E+00
         -1   -1    0    0    0  501 -0.00000000000E+00  0.00000000000E+00  0.24036508782E+02  0.24036508782E+02  0.00000000000E+00 0. -1.
          1   -1    0    0  503    0  0.00000000000E+00 -0.00000000000E+00 -0.15572625865E+04  0.15572625865E+04  0.00000000000E+00 0.  1.
          6    2    1    2  503    0  0.75207869685E+02  0.74223268301E+01 -0.58779047365E+03  0.61726191795E+03  0.17263638043E+03 0.  0.
         24    2    3    3    0    0  0.61285224505E+01 -0.19807589154E+02 -0.46989445854E+03  0.47785250322E+03  0.84334532006E+02 0.  0.
         -6    2    1    2    0  501 -0.75207869685E+02 -0.74223268301E+01 -0.94543560408E+03  0.96403717734E+03  0.17264959666E+03 0.  0.
        -24    2    5    5    0    0  0.47174502551E+01 -0.17508685798E+02 -0.25103053563E+03  0.26495901254E+03  0.82813888287E+02 0.  0.
          4    1    4    4  502    0  0.38505497252E+02 -0.28743912316E+02 -0.19137655625E+03  0.19731667973E+03  0.00000000000E+00 0. -1.
         -3    1    4    4    0  502 -0.32376974801E+02  0.89363231621E+01 -0.27851790229E+03  0.28053582349E+03  0.00000000000E+00 0.  1.
          5    1    3    3  503    0  0.69079347235E+02  0.27229915984E+02 -0.11789601511E+03  0.13940941474E+03  0.47000000000E+01 0. -1.
         13    1    6    6    0    0 -0.36401227778E+02 -0.17226548949E+02 -0.87251899242E+02  0.96097332397E+02  0.00000000000E+00 0. -1.
        -14    1    6    6    0    0  0.41118678033E+02 -0.28213684877E+00 -0.16377863639E+03  0.16886168014E+03  0.00000000000E+00 0.  1.
         -5    1    5    5    0  501 -0.79925319940E+02  0.10086358968E+02 -0.69440506845E+03  0.69907816480E+03  0.47000000000E+01 0.  1.
<mgrwt>
<rscale>  2 0.18845932E+03</rscale>
<asrwt>0</asrwt>
<pdfrwt beam="2">  1        1 0.23957888E+00 0.18845932E+03</pdfrwt>
<pdfrwt beam="1">  1       -1 0.36979241E-02 0.18845932E+03</pdfrwt>
<totfact> 0.18155579E+03</totfact>
</mgrwt>
</event>
<event>
12    1  0.1093377E-001  0.1754778E+03  0.7546771E-02  0.1172253E+00
          1   -1    0    0  503    0  0.00000000000E+00  0.00000000000E+00  0.11504492983E+03  0.11504492983E+03  0.00000000000E+00 0. -1.
         -1   -1    0    0    0  501 -0.00000000000E+00 -0.00000000000E+00 -0.28451365678E+03  0.28451365678E+03  0.00000000000E+00 0.  1.
          6    2    1    2  503    0  0.14307398441E+02  0.27717382472E+02 -0.35762721074E+02  0.17833148692E+03  0.17190169304E+03 0.  0.
         24    2    3    3    0    0 -0.43442682298E+02  0.51434731948E+02 -0.47509082804E+02  0.11463178908E+03  0.79690249235E+02 0.  0.
         -6    2    1    2    0  501 -0.14307398441E+02 -0.27717382472E+02 -0.13370600587E+03  0.22122709968E+03  0.17346809127E+03 0.  0.
        -24    2    5    5    0    0 -0.45503014524E+02  0.40846189651E+02 -0.72352114433E+02  0.12396189584E+03  0.79954909897E+02 0.  0.
          2    1    4    4  502    0  0.58462804407E+01 -0.11386097087E+02 -0.30380118872E+02  0.32966252813E+02  0.00000000000E+00 0. -1.
         -1    1    4    4    0  502 -0.49288962739E+02  0.62820829035E+02 -0.17128963932E+02  0.81665536268E+02  0.00000000000E+00 0.  1.
          5    1    3    3  503    0  0.57750080739E+02 -0.23717349476E+02  0.11746361729E+02  0.63699697844E+02  0.47000000000E+01 0. -1.
         11    1    6    6    0    0  0.19482825905E+02  0.25874964630E+02 -0.34322433403E+02  0.47192411833E+02  0.00000000000E+00 0. -1.
        -12    1    6    6    0    0 -0.64985840429E+02  0.14971225021E+02 -0.38029681030E+02  0.76769484003E+02  0.00000000000E+00 0.  1.
         -5    1    5    5    0  501  0.31195616083E+02 -0.68563572123E+02 -0.61353891437E+02  0.97265203848E+02  0.47000000000E+01 0.  1.
<mgrwt>
<rscale>  2 0.17547778E+03</rscale>
<asrwt>0</asrwt>
<pdfrwt beam="1">  1        1 0.17699220E-01 0.17547778E+03</pdfrwt>
<pdfrwt beam="2">  1       -1 0.43771331E-01 0.17547778E+03</pdfrwt>
<totfact> 0.15520075E+03</totfact>
</mgrwt>
</event>
<event>
12    1  0.1093377E-001  0.1867357E+03  0.7546771E-02  0.1161439E+00
          1   -1    0    0  503    0  0.00000000000E+00  0.00000000000E+00  0.21453463978E+03  0.21453463978E+03  0.00000000000E+00 0.  1.
         -1   -1    0    0    0  501 -0.00000000000E+00 -0.00000000000E+00 -0.17311281334E+03  0.17311281334E+03  0.00000000000E+00 0. -1.
          6    2    1    2  503    0 -0.55388843905E+02  0.44933330928E+02  0.68638343535E+02  0.19918081971E+03  0.17284342186E+03 0.  0.
         24    2    3    3    0    0 -0.10171921919E+03  0.19938217615E+02  0.33400611223E+02  0.13565879878E+03  0.80891141556E+02 0.  0.
         -6    2    1    2    0  501  0.55388843905E+02 -0.44933330928E+02 -0.27216517092E+02  0.18846663341E+03  0.17231368154E+03 0.  0.
        -24    2    5    5    0    0 -0.13607144206E+01  0.28746894123E+02 -0.40533611074E+02  0.94398982613E+02  0.80249354055E+02 0.  0.
          2    1    4    4  502    0 -0.18961652368E+02 -0.22689508633E+02 -0.12214039141E+02  0.31992824424E+02  0.00000000000E+00 0. -1.
         -1    1    4    4    0  502 -0.82757566825E+02  0.42627726248E+02  0.45614650363E+02  0.10366597436E+03  0.00000000000E+00 0.  1.
          5    1    3    3  503    0  0.46330375288E+02  0.24995113313E+02  0.35237732312E+02  0.63522020925E+02  0.47000000000E+01 0. -1.
         11    1    6    6    0    0 -0.64442858322E+00 -0.10043296818E+02 -0.52767790792E+02  0.53718924452E+02  0.00000000000E+00 0. -1.
        -12    1    6    6    0    0 -0.71628583735E+00  0.38790190941E+02  0.12234179718E+02  0.40680058161E+02  0.00000000000E+00 0.  1.
         -5    1    5    5    0  501  0.56749558326E+02 -0.73680225051E+02  0.13317093983E+02  0.94067650794E+02  0.47000000000E+01 0.  1.
<mgrwt>
<rscale>  2 0.18673574E+03</rscale>
<asrwt>0</asrwt>
<pdfrwt beam="1">  1        1 0.33005329E-01 0.18673574E+03</pdfrwt>
<pdfrwt beam="2">  1       -1 0.26632741E-01 0.18673574E+03</pdfrwt>
<totfact> 0.16612764E+03</totfact>
</mgrwt>
</event>
<event>
12    1  0.1093377E-001  0.1813933E+03  0.7546771E-02  0.1166461E+00
         -3   -1    0    0    0  501 -0.00000000000E+00  0.00000000000E+00  0.25905297597E+03  0.25905297597E+03  0.00000000000E+00 0.  1.
          3   -1    0    0  503    0  0.00000000000E+00 -0.00000000000E+00 -0.13030388460E+03  0.13030388460E+03  0.00000000000E+00 0. -1.
          6    2    1    2  503    0  0.44765737053E+02  0.35442442515E+02  0.95604593844E+02  0.20585338308E+03  0.17313358720E+03 0.  0.
         24    2    3    3    0    0  0.52506446065E+02  0.56713527216E+02  0.12552226701E+03  0.16804419388E+03  0.80682467333E+02 0.  0.
         -6    2    1    2    0  501 -0.44765737053E+02 -0.35442442515E+02  0.33144497529E+02  0.18350347749E+03  0.17121574282E+03 0.  0.
        -24    2    5    5    0    0 -0.83348856121E+02  0.11320889928E+02  0.52209678827E+01  0.11659099849E+03  0.80566792521E+02 0.  0.
          2    1    4    4  502    0 -0.13398313090E+02  0.16741484742E+02  0.83878831295E+00  0.21459162865E+02  0.00000000000E+00 0. -1.
         -1    1    4    4    0  502  0.65904759155E+02  0.39972042474E+02  0.12468347870E+03  0.14658503102E+03  0.00000000000E+00 0.  1.
          5    1    3    3  503    0 -0.77407090121E+01 -0.21271084701E+02 -0.29917673166E+02  0.37809189201E+02  0.47000000000E+01 0. -1.
         11    1    6    6    0    0 -0.19926705806E+02 -0.30063625519E+02  0.17131966234E+02  0.39929931764E+02  0.00000000000E+00 0. -1.
        -12    1    6    6    0    0 -0.63422150315E+02  0.41384515447E+02 -0.11910998352E+02  0.76661066723E+02  0.00000000000E+00 0.  1.
         -5    1    5    5    0  501  0.38583119068E+02 -0.46763332443E+02  0.27923529646E+02  0.66912479001E+02  0.47000000000E+01 0.  1.
<mgrwt>
<rscale>  2 0.18139326E+03</rscale>
<asrwt>0</asrwt>
<pdfrwt beam="2">  1        3 0.20046752E-01 0.18139326E+03</pdfrwt>
<pdfrwt beam="1">  1       -3 0.39854304E-01 0.18139326E+03</pdfrwt>
<totfact> 0.33744420E+02</totfact>
</mgrwt>
</event>
<event>
12    1  0.1093377E-001  0.3305600E+03  0.7546771E-02  0.1070889E+00
          1   -1    0    0  503    0  0.00000000000E+00  0.00000000000E+00  0.46564276485E+03  0.46564276485E+03  0.00000000000E+00 0. -1.
         -1   -1    0    0    0  501 -0.00000000000E+00 -0.00000000000E+00 -0.31089481178E+03  0.31089481178E+03  0.00000000000E+00 0.  1.
          6    2    1    2  503    0 -0.22000048876E+03  0.17637267588E+03  0.26977591837E+03  0.42730548412E+03  0.17407870283E+03 0.  0.
         24    2    3    3    0    0 -0.15283622108E+03  0.12241937209E+03  0.96565956994E+02  0.23379636660E+03  0.83608276208E+02 0.  0.
         -6    2    1    2    0  501  0.22000048876E+03 -0.17637267588E+03 -0.11502796530E+03  0.34923209250E+03  0.17095053607E+03 0.  0.
        -24    2    5    5    0    0  0.19935540850E+03 -0.20204385222E+03 -0.99674040487E+02  0.31258428710E+03  0.84910099978E+02 0.  0.
          2    1    4    4  502    0  0.89636357642E+01  0.68199339733E+01 -0.26434134774E+01  0.11569178896E+02  0.00000000000E+00 0. -1.
         -1    1    4    4    0  502 -0.16179985684E+03  0.11559943812E+03  0.99209370472E+02  0.22222718771E+03  0.00000000000E+00 0.  1.
          5    1    3    3  503    0 -0.67164267684E+02  0.53953303783E+02  0.17320996138E+03  0.19350911752E+03  0.47000000000E+01 0. -1.
         13    1    6    6    0    0  0.12111073802E+03 -0.63889397664E+02 -0.55785453623E+02  0.14785696749E+03  0.00000000000E+00 0. -1.
        -14    1    6    6    0    0  0.78244670484E+02 -0.13815445455E+03 -0.43888586864E+02  0.16472731962E+03  0.00000000000E+00 0.  1.
         -5    1    5    5    0  501  0.20645080256E+02  0.25671176340E+02 -0.15353924816E+02  0.36647805401E+02  0.47000000000E+01 0.  1.
<mgrwt>
<rscale>  2 0.33056005E+03</rscale>
<asrwt>0</asrwt>
<pdfrwt beam="1">  1        1 0.71637348E-01 0.33056005E+03</pdfrwt>
<pdfrwt beam="2">  1       -1 0.47829971E-01 0.33056005E+03</pdfrwt>
<totfact> 0.22217011E+02</totfact>
</mgrwt>
</event>
<event>
12    1  0.1093377E-001  0.1778915E+03  0.7546771E-02  0.1169859E+00
         -1   -1    0    0    0  501 -0.00000000000E+00  0.00000000000E+00  0.54509114897E+02  0.54509114897E+02  0.00000000000E+00 0.  1.
          1   -1    0    0  503    0  0.00000000000E+00 -0.00000000000E+00 -0.70487657575E+03  0.70487657575E+03  0.00000000000E+00 0. -1.
          6    2    1    2  503    0 -0.19458210647E+02  0.31010558799E+02 -0.16787825216E+03  0.24563247594E+03  0.17553327026E+03 0.  0.
         24    2    3    3    0    0 -0.37081373021E+02  0.46935079850E+02 -0.18900066232E+03  0.21350130052E+03  0.79269319554E+02 0.  0.
         -6    2    1    2    0  501  0.19458210647E+02 -0.31010558799E+02 -0.48248920869E+03  0.51375321470E+03  0.17264487365E+03 0.  0.
        -24    2    5    5    0    0  0.31507664644E+02  0.38161930527E+02 -0.36249875107E+03  0.37464957513E+03  0.80671517585E+02 0.  0.
          4    1    4    4  502    0 -0.26855739490E+02  0.32820702869E+02 -0.19127907703E+03  0.19592374687E+03  0.00000000000E+00 0. -1.
         -3    1    4    4    0  502 -0.10225633531E+02  0.14114376981E+02  0.22784147108E+01  0.17577553648E+02  0.00000000000E+00 0.  1.
          5    1    3    3  503    0  0.17623162374E+02 -0.15924521052E+02  0.21122410158E+02  0.32131175417E+02  0.47000000000E+01 0. -1.
         11    1    6    6    0    0  0.25462964459E+00  0.23420624222E+01 -0.27550177685E+03  0.27551184936E+03  0.00000000000E+00 0. -1.
        -12    1    6    6    0    0  0.31253034999E+02  0.35819868105E+02 -0.86996974217E+02  0.99137725768E+02  0.00000000000E+00 0.  1.
         -5    1    5    5    0  501 -0.12049453997E+02 -0.69172489325E+02 -0.11999045763E+03  0.13910363957E+03  0.47000000000E+01 0.  1.
<mgrwt>
<rscale>  2 0.17789146E+03</rscale>
<asrwt>0</asrwt>
<pdfrwt beam="2">  1        1 0.10844253E+00 0.17789146E+03</pdfrwt>
<pdfrwt beam="1">  1       -1 0.83860191E-02 0.17789146E+03</pdfrwt>
<totfact> 0.22137677E+03</totfact>
</mgrwt>
</event>
<event>
12    1  0.1093377E-001  0.1886635E+03  0.7546771E-02  0.1159672E+00
          2   -1    0    0  503    0  0.00000000000E+00  0.00000000000E+00  0.61564659457E+03  0.61564659457E+03  0.00000000000E+00 0.  1.
         -2   -1    0    0    0  501 -0.00000000000E+00 -0.00000000000E+00 -0.67428546670E+02  0.67428546670E+02  0.00000000000E+00 0. -1.
          6    2    1    2  503    0 -0.65749833621E+02  0.29904366176E+02  0.14626287384E+03  0.23942009443E+03  0.17524794325E+03 0.  0.
         24    2    3    3    0    0 -0.10311095573E+03  0.36002538799E+02  0.64069399251E+02  0.14880608658E+03  0.78168481437E+02 0.  0.
         -6    2    1    2    0  501  0.65749833621E+02 -0.29904366176E+02  0.40195517406E+03  0.44365504681E+03  0.17333357109E+03 0.  0.
        -24    2    5    5    0    0  0.20885102980E+02  0.93457182602E+01  0.73347899371E+02  0.10965168730E+03  0.78230736988E+02 0.  0.
          2    1    4    4  502    0 -0.87187704112E+02  0.53912221660E+02  0.29367275219E+02  0.10663329802E+03  0.00000000000E+00 0. -1.
         -1    1    4    4    0  502 -0.15923251616E+02 -0.17909682862E+02  0.34702124032E+02  0.42172788556E+02  0.00000000000E+00 0.  1.
          5    1    3    3  503    0  0.37361122108E+02 -0.60981726230E+01  0.82193474584E+02  0.90614007851E+02  0.47000000000E+01 0. -1.
         11    1    6    6    0    0 -0.60951724033E+01  0.40084383306E+02  0.38671581148E+02  0.56030349813E+02  0.00000000000E+00 0. -1.
        -12    1    6    6    0    0  0.26980275383E+02 -0.30738665046E+02  0.34676318223E+02  0.53621337488E+02  0.00000000000E+00 0.  1.
         -5    1    5    5    0  501  0.44864730641E+02 -0.39250084436E+02  0.32860727469E+03  0.33400335951E+03  0.47000000000E+01 0.  1.
<mgrwt>
<rscale>  2 0.18866354E+03</rscale>
<asrwt>0</asrwt>
<pdfrwt beam="1">  1        2 0.94714857E-01 0.18866354E+03</pdfrwt>
<pdfrwt beam="2">  1       -2 0.10373623E-01 0.18866354E+03</pdfrwt>
<totfact> 0.30236030E+03</totfact>
</mgrwt>
</event>
<event>
12    1  0.1093377E-001  0.1744404E+03  0.7546771E-02  0.1173295E+00
         -4   -1    0    0    0  501 -0.00000000000E+00  0.00000000000E+00  0.14003766826E+03  0.14003766826E+03  0.00000000000E+00 0.  1.
          4   -1    0    0  503    0  0.00000000000E+00 -0.00000000000E+00 -0.23425604297E+03  0.23425604297E+03  0.00000000000E+00 0. -1.
          6    2    1    2  503    0  0.10708588181E+02  0.85738076582E+01 -0.97028546473E+02  0.19819397888E+03  0.17227341755E+03 0.  0.
         24    2    3    3    0    0  0.12742760335E+02  0.34838386032E+02 -0.12785185839E+03  0.15737569265E+03  0.83934020881E+02 0.  0.
         -6    2    1    2    0  501 -0.10708588181E+02 -0.85738076582E+01  0.28101717648E+01  0.17609973236E+03  0.17554211641E+03 0.  0.
        -24    2    5    5    0    0  0.59472398297E+02  0.56047500500E+01 -0.16592452706E+02  0.10176969672E+03  0.80705528316E+02 0.  0.
          4    1    4    4  502    0 -0.17135220106E+02  0.50715551338E+02 -0.53478893411E+02  0.75668189856E+02  0.00000000000E+00 0. -1.
         -3    1    4    4    0  502  0.29877980441E+02 -0.15877165306E+02 -0.74372964974E+02  0.81707502792E+02  0.00000000000E+00 0.  1.
          5    1    3    3  503    0 -0.20341721538E+01 -0.26264578374E+02  0.30823311912E+02  0.40818286230E+02  0.47000000000E+01 0. -1.
         13    1    6    6    0    0  0.16680380284E+02 -0.30140205203E+02 -0.28554289230E+02  0.44743876559E+02  0.00000000000E+00 0. -1.
        -14    1    6    6    0    0  0.42792018014E+02  0.35744955253E+02  0.11961836525E+02  0.57025820159E+02  0.00000000000E+00 0.  1.
         -5    1    5    5    0  501 -0.70180986479E+02 -0.14178557708E+02  0.19402624470E+02  0.74330035639E+02  0.47000000000E+01 0.  1.
<mgrwt>
<rscale>  2 0.17444041E+03</rscale>
<asrwt>0</asrwt>
<pdfrwt beam="2">  1        4 0.36039391E-01 0.17444041E+03</pdfrwt>
<pdfrwt beam="1">  1       -4 0.21544257E-01 0.17444041E+03</pdfrwt>
<totfact> 0.25603374E+02</totfact>
</mgrwt>
</event>
<event>
12    1  0.1093377E-001  0.2020813E+03  0.7546771E-02  0.1147995E+00
          2   -1    0    0  503    0  0.00000000000E+00  0.00000000000E+00  0.58511428876E+03  0.58511428876E+03  0.00000000000E+00 0.  1.
         -2   -1    0    0    0  501 -0.00000000000E+00 -0.00000000000E+00 -0.72799260088E+02  0.72799260088E+02  0.00000000000E+00 0. -1.
          6    2    1    2  503    0 -0.93954889046E+02  0.47479249523E+02  0.18805503714E+03  0.27528086955E+03  0.17126896927E+03 0.  0.
         24    2    3    3    0    0 -0.13826946037E+02  0.10293603184E+02  0.19947017771E+02  0.85318621406E+02  0.81143335755E+02 0.  0.
         -6    2    1    2    0  501  0.93954889046E+02 -0.47479249523E+02  0.32425999153E+03  0.38263267930E+03  0.17372801975E+03 0.  0.
        -24    2    5    5    0    0  0.18035092325E+02  0.33115064058E+02  0.11933134855E+03  0.14965822227E+03  0.82071558540E+02 0.  0.
          2    1    4    4  502    0 -0.42319623545E+02  0.26289464806E+02  0.16402755924E+02  0.52451281193E+02  0.00000000000E+00 0. -1.
         -1    1    4    4    0  502  0.28492677508E+02 -0.15995861622E+02  0.35442618463E+01  0.32867340213E+02  0.00000000000E+00 0.  1.
          5    1    3    3  503    0 -0.80127943009E+02  0.37185646339E+02  0.16810801937E+03  0.18996224814E+03  0.47000000000E+01 0. -1.
         13    1    6    6    0    0  0.39809424476E+02  0.30163984537E+02  0.31340219303E+02  0.58964952185E+02  0.00000000000E+00 0. -1.
        -14    1    6    6    0    0 -0.21774332151E+02  0.29510795210E+01  0.87991129251E+02  0.90693270080E+02  0.00000000000E+00 0.  1.
         -5    1    5    5    0  501  0.75919796721E+02 -0.80594313581E+02  0.20492864298E+03  0.23297445703E+03  0.47000000000E+01 0.  1.
<mgrwt>
<rscale>  2 0.20208127E+03</rscale>
<asrwt>0</asrwt>
<pdfrwt beam="1">  1        2 0.90017580E-01 0.20208127E+03</pdfrwt>
<pdfrwt beam="2">  1       -2 0.11199887E-01 0.20208127E+03</pdfrwt>
<totfact> 0.28431447E+03</totfact>
</mgrwt>
</event>
<event>
12    1  0.1093377E-001  0.1756219E+03  0.7546771E-02  0.1172109E+00
          2   -1    0    0  503    0  0.00000000000E+00  0.00000000000E+00  0.13974739570E+04  0.13974739570E+04  0.00000000000E+00 0.  1.
         -2   -1    0    0    0  501 -0.00000000000E+00 -0.00000000000E+00 -0.23459313718E+02  0.23459313718E+02  0.00000000000E+00 0. -1.
          6    2    1    2  503    0  0.52476024474E+01  0.92848826089E+01  0.86212066432E+03  0.87995035047E+03  0.17591711987E+03 0.  0.
         24    2    3    3    0    0  0.51731094169E+02 -0.28174429743E+02  0.34991280471E+03  0.36425383455E+03  0.82292043893E+02 0.  0.
         -6    2    1    2    0  501 -0.52476024474E+01 -0.92848826089E+01  0.51189397894E+03  0.54098292023E+03  0.17468064554E+03 0.  0.
        -24    2    5    5    0    0 -0.66757372235E+02 -0.10204599396E+02  0.26399343179E+03  0.28552045932E+03  0.85256788959E+02 0.  0.
          2    1    4    4  502    0 -0.45617723831E+00 -0.27639888477E+02  0.25007077506E+03  0.25159404618E+03  0.00000000000E+00 0. -1.
         -1    1    4    4    0  502  0.52187271407E+02 -0.53454126600E+00  0.99842029651E+02  0.11265978837E+03  0.00000000000E+00 0.  1.
          5    1    3    3  503    0 -0.46483491721E+02  0.37459312352E+02  0.51220785961E+03  0.51569651592E+03  0.47000000000E+01 0. -1.
         13    1    6    6    0    0 -0.20140380754E+02 -0.44802858168E+02  0.14554068931E+03  0.15360671627E+03  0.00000000000E+00 0. -1.
        -14    1    6    6    0    0 -0.46616991481E+02  0.34598258772E+02  0.11845274248E+03  0.13191374305E+03  0.00000000000E+00 0.  1.
         -5    1    5    5    0  501  0.61509769787E+02  0.91971678738E+00  0.24790054714E+03  0.25546246091E+03  0.47000000000E+01 0.  1.
<mgrwt>
<rscale>  2 0.17562194E+03</rscale>
<asrwt>0</asrwt>
<pdfrwt beam="1">  1        2 0.21499593E+00 0.17562194E+03</pdfrwt>
<pdfrwt beam="2">  1       -2 0.36091263E-02 0.17562194E+03</pdfrwt>
<totfact> 0.49315574E+03</totfact>
</mgrwt>
</event>
<event>
12    1  0.1093377E-001  0.1768955E+03  0.7546771E-02  0.1170842E+00
          1   -1    0    0  503    0  0.00000000000E+00  0.00000000000E+00  0.76968683418E+02  0.76968683418E+02  0.00000000000E+00 0. -1.
         -1   -1    0    0    0  501 -0.00000000000E+00 -0.00000000000E+00 -0.41134990656E+03  0.41134990656E+03  0.00000000000E+00 0.  1.
          6    2    1    2  503    0 -0.34458527801E+02  0.16834622412E+02 -0.14110813811E+03  0.22651157786E+03  0.17298899853E+03 0.  0.
         24    2    3    3    0    0 -0.21468497532E+02  0.72117382023E+02 -0.10401288617E+03  0.15851840090E+03  0.92992417748E+02 0.  0.
         -6    2    1    2    0  501  0.34458527801E+02 -0.16834622412E+02 -0.19327308504E+03  0.26180701212E+03  0.17238802611E+03 0.  0.
        -24    2    5    5    0    0  0.12287977206E+02 -0.11633088894E+01 -0.20600286979E+02  0.86949617166E+02  0.83567436423E+02 0.  0.
          2    1    4    4  502    0  0.34773443506E+02  0.24549245776E+02 -0.20766107058E+02  0.47361261003E+02  0.00000000000E+00 0. -1.
         -1    1    4    4    0  502 -0.56241941039E+02  0.47568136247E+02 -0.83246779109E+02  0.11115713990E+03  0.00000000000E+00 0.  1.
          5    1    3    3  503    0 -0.12990030268E+02 -0.55282759611E+02 -0.37095251940E+02  0.67993176960E+02  0.47000000000E+01 0. -1.
         11    1    6    6    0    0  0.42097024104E+02  0.18973911030E+02 -0.21565793008E+02  0.50963243287E+02  0.00000000000E+00 0. -1.
        -12    1    6    6    0    0 -0.29809046899E+02 -0.20137219920E+02  0.96550602896E+00  0.35986373879E+02  0.00000000000E+00 0.  1.
         -5    1    5    5    0  501  0.22170550595E+02 -0.15671313523E+02 -0.17267279806E+03  0.17485739495E+03  0.47000000000E+01 0.  1.
<mgrwt>
<rscale>  2 0.17689555E+03</rscale>
<asrwt>0</asrwt>
<pdfrwt beam="1">  1        1 0.11841336E-01 0.17689555E+03</pdfrwt>
<pdfrwt beam="2">  1       -1 0.63284601E-01 0.17689555E+03</pdfrwt>
<totfact> 0.13227125E+03</totfact>
</mgrwt>
</event>
<event>
12    1  0.1093377E-001  0.1770063E+03  0.7546771E-02  0.1170732E+00
         -1   -1    0    0    0  501 -0.00000000000E+00  0.00000000000E+00  0.17416266386E+02  0.17416266386E+02  0.00000000000E+00 0. -1.
          1   -1    0    0  503    0  0.00000000000E+00 -0.00000000000E+00 -0.18322537313E+04  0.18322537313E+04  0.00000000000E+00 0.  1.
          6    2    1    2  503    0  0.98841302260E+01 -0.36086575466E+02 -0.10308627832E+04  0.10459084341E+04  0.17276121563E+03 0.  0.
         24    2    3    3    0    0  0.30185132467E+01 -0.67291973161E+01 -0.99742430585E+03  0.10006401878E+04  0.79819459164E+02 0.  0.
         -6    2    1    2    0  501 -0.98841302260E+01  0.36086575466E+02 -0.78397468163E+03  0.80376156357E+03  0.17325245361E+03 0.  0.
        -24    2    5    5    0    0  0.17837854387E+02  0.85161879652E+02 -0.58691281892E+03  0.59874360912E+03  0.80352458950E+02 0.  0.
          2    1    4    4  502    0  0.13007750317E+02  0.34651968008E+02 -0.52415282700E+03  0.52545803497E+03  0.00000000000E+00 0. -1.
         -1    1    4    4    0  502 -0.99892370701E+01 -0.41381165324E+02 -0.47327147885E+03  0.47518215286E+03  0.00000000000E+00 0.  1.
          5    1    3    3  503    0  0.68656169793E+01 -0.29357378150E+02 -0.33438477395E+02  0.45268246253E+02  0.47000000000E+01 0. -1.
         13    1    6    6    0    0  0.45292604294E+02  0.26199225025E+02 -0.30217484942E+03  0.30667158169E+03  0.00000000000E+00 0. -1.
        -14    1    6    6    0    0 -0.27454749907E+02  0.58962654627E+02 -0.28473796950E+03  0.29207202743E+03  0.00000000000E+00 0.  1.
         -5    1    5    5    0  501 -0.27721984613E+02 -0.49075304186E+02 -0.19706186271E+03  0.20501795445E+03  0.47000000000E+01 0.  1.
<mgrwt>
<rscale>  2 0.17700635E+03</rscale>
<asrwt>0</asrwt>
<pdfrwt beam="2">  1        1 0.28188518E+00 0.17700635E+03</pdfrwt>
<pdfrwt beam="1">  1       -1 0.26794257E-02 0.17700635E+03</pdfrwt>
<totfact> 0.19368021E+03</totfact>
</mgrwt>
</event>
<event>
12    1  0.1093377E-001  0.3524384E+03  0.7546771E-02  0.1061619E+00
          2   -1    0    0  503    0  0.00000000000E+00  0.00000000000E+00  0.86711921503E+03  0.86711921503E+03  0.00000000000E+00 0.  1.
         -2   -1    0    0    0  501 -0.00000000000E+00 -0.00000000000E+00 -0.14877388593E+03  0.14877388593E+03  0.00000000000E+00 0. -1.
          6    2    1    2  503    0  0.27148758040E+03  0.14036289145E+03  0.26266507249E+03  0.44067313492E+03  0.17830486233E+03 0.  0.
         24    2    3    3    0    0  0.24420467212E+03  0.17207491499E+03  0.24726901799E+03  0.39584972569E+03  0.79431352851E+02 0.  0.
         -6    2    1    2    0  501 -0.27148758040E+03 -0.14036289145E+03  0.45568025661E+03  0.57521996604E+03  0.17270282412E+03 0.  0.
        -24    2    5    5    0    0 -0.26462851117E+03 -0.16082008839E+03  0.38137400769E+03  0.49770188837E+03  0.79810313806E+02 0.  0.
          4    1    4    4  502    0  0.21150839207E+03  0.12754584403E+03  0.16602916893E+03  0.29760616119E+03  0.00000000000E+00 0. -1.
         -3    1    4    4    0  502  0.32696280055E+02  0.44529070954E+02  0.81239849058E+02  0.98243564494E+02  0.00000000000E+00 0.  1.
          5    1    3    3  503    0  0.27282908281E+02 -0.31712023542E+02  0.15396054504E+02  0.44823409238E+02  0.47000000000E+01 0. -1.
         13    1    6    6    0    0 -0.11380026283E+03 -0.36214530374E+02  0.10454922933E+03  0.15872155929E+03  0.00000000000E+00 0. -1.
        -14    1    6    6    0    0 -0.15082824834E+03 -0.12460555802E+03  0.27682477837E+03  0.33898032908E+03  0.00000000000E+00 0.  1.
         -5    1    5    5    0  501 -0.68590692337E+01  0.20457196945E+02  0.74306248916E+02  0.77518077670E+02  0.47000000000E+01 0.  1.
<mgrwt>
<rscale>  2 0.35243837E+03</rscale>
<asrwt>0</asrwt>
<pdfrwt beam="1">  1        2 0.13340295E+00 0.35243837E+03</pdfrwt>
<pdfrwt beam="2">  1       -2 0.22888291E-01 0.35243837E+03</pdfrwt>
<totfact> 0.53056981E+02</totfact>
</mgrwt>
</event>
<event>
12    1  0.1093377E-001  0.2366315E+03  0.7546771E-02  0.1122057E+00
          1   -1    0    0  503    0  0.00000000000E+00  0.00000000000E+00  0.91985671364E+02  0.91985671364E+02  0.00000000000E+00 0.  1.
         -1   -1    0    0    0  501 -0.00000000000E+00 -0.00000000000E+00 -0.61378003820E+03  0.61378003820E+03  0.00000000000E+00 0. -1.
          6    2    1    2  503    0  0.25126376952E+02 -0.15917333307E+03 -0.22820325761E+03  0.32828211090E+03  0.17240920152E+03 0.  0.
         24    2    3    3    0    0  0.19925130897E+02 -0.17312718394E+03 -0.13937623605E+03  0.23809290603E+03  0.83020865241E+02 0.  0.
         -6    2    1    2    0  501 -0.25126376952E+02  0.15917333307E+03 -0.29359110922E+03  0.37748359867E+03  0.17415694953E+03 0.  0.
        -24    2    5    5    0    0 -0.60359641166E+02  0.76303841648E+02 -0.86537215860E+02  0.15164706426E+03  0.77734032692E+02 0.  0.
          2    1    4    4  502    0 -0.35846096240E+01 -0.76374943084E+02 -0.13571198760E+02  0.77654097078E+02  0.00000000000E+00 0. -1.
         -1    1    4    4    0  502  0.23509740521E+02 -0.96752240859E+02 -0.12580503729E+03  0.16043880895E+03  0.00000000000E+00 0.  1.
          5    1    3    3  503    0  0.52012460550E+01  0.13953850872E+02 -0.88827021561E+02  0.90189204864E+02  0.47000000000E+01 0. -1.
         13    1    6    6    0    0 -0.15034432533E+02  0.13587037869E+02 -0.69525477536E+02  0.72418463020E+02  0.00000000000E+00 0. -1.
        -14    1    6    6    0    0 -0.45325208633E+02  0.62716803779E+02 -0.17011738324E+02  0.79228601241E+02  0.00000000000E+00 0.  1.
         -5    1    5    5    0  501  0.35233264214E+02  0.82869491424E+02 -0.20705389336E+03  0.22583653441E+03  0.47000000000E+01 0.  1.
<mgrwt>
<rscale>  2 0.23663147E+03</rscale>
<asrwt>0</asrwt>
<pdfrwt beam="1">  1        1 0.14151642E-01 0.23663147E+03</pdfrwt>
<pdfrwt beam="2">  1       -1 0.94427697E-01 0.23663147E+03</pdfrwt>
<totfact> 0.46169063E+02</totfact>
</mgrwt>
</event>
<event>
12    1  0.1093377E-001  0.2313303E+03  0.7546771E-02  0.1125707E+00
         -2   -1    0    0    0  501 -0.00000000000E+00  0.00000000000E+00  0.39522118703E+03  0.39522118703E+03  0.00000000000E+00 0.  1.
          2   -1    0    0  503    0  0.00000000000E+00 -0.00000000000E+00 -0.15024595595E+03  0.15024595595E+03  0.00000000000E+00 0. -1.
          6    2    1    2  503    0  0.15340499941E+03  0.13727465493E+02  0.20834345827E+03  0.31152379597E+03  0.17296977105E+03 0.  0.
         24    2    3    3    0    0  0.13424939154E+03  0.66760819951E+02  0.18440735079E+03  0.25008682633E+03  0.77829579627E+02 0.  0.
         -6    2    1    2    0  501 -0.15340499941E+03 -0.13727465493E+02  0.36631772814E+02  0.23394334702E+03  0.17223839781E+03 0.  0.
        -24    2    5    5    0    0 -0.14767870077E+03 -0.43585894306E+02 -0.14180103837E+02  0.17454424706E+03  0.80968450597E+02 0.  0.
          4    1    4    4  502    0  0.41822839861E+02 -0.38037932364E+01  0.93457014640E+02  0.10245893013E+03  0.00000000000E+00 0. -1.
         -3    1    4    4    0  502  0.92426551684E+02  0.70564613187E+02  0.90950336153E+02  0.14762789620E+03  0.00000000000E+00 0.  1.
          5    1    3    3  503    0  0.19155607867E+02 -0.53033354458E+02  0.23936107474E+02  0.61436969642E+02  0.47000000000E+01 0. -1.
         11    1    6    6    0    0 -0.11053647567E+03 -0.78934424353E+01  0.20157749683E+02  0.11263637849E+03  0.00000000000E+00 0. -1.
        -12    1    6    6    0    0 -0.37142225097E+02 -0.35692451871E+02 -0.34337853520E+02  0.61907868564E+02  0.00000000000E+00 0.  1.
         -5    1    5    5    0  501 -0.57262986401E+01  0.29858428813E+02  0.50811876652E+02  0.59399099961E+02  0.47000000000E+01 0.  1.
<mgrwt>
<rscale>  2 0.23133027E+03</rscale>
<asrwt>0</asrwt>
<pdfrwt beam="2">  1        2 0.23114763E-01 0.23133027E+03</pdfrwt>
<pdfrwt beam="1">  1       -2 0.60803259E-01 0.23133027E+03</pdfrwt>
<totfact> 0.60502297E+02</totfact>
</mgrwt>
</event>
<event>
12    1  0.1093377E-001  0.2250940E+03  0.7546771E-02  0.1130141E+00
         -2   -1    0    0    0  501 -0.00000000000E+00  0.00000000000E+00  0.59005278434E+02  0.59005278434E+02  0.00000000000E+00 0.  1.
          2   -1    0    0  503    0  0.00000000000E+00 -0.00000000000E+00 -0.93498466101E+03  0.93498466101E+03  0.00000000000E+00 0. -1.
          6    2    1    2  503    0  0.56893953863E+02  0.13311607457E+03 -0.29559517109E+03  0.37139802401E+03  0.17205573448E+03 0.  0.
         24    2    3    3    0    0  0.65412265000E+02  0.14771744651E+03 -0.30231787670E+03  0.35260849347E+03  0.82688830415E+02 0.  0.
         -6    2    1    2    0  501 -0.56893953863E+02 -0.13311607457E+03 -0.58038421148E+03  0.62259191544E+03  0.17267903443E+03 0.  0.
        -24    2    5    5    0    0  0.13223320205E+02 -0.12534576742E+03 -0.32521358301E+03  0.35780719263E+03  0.79847948731E+02 0.  0.
          2    1    4    4  502    0  0.46225133341E+02  0.55353119855E+02 -0.20391256407E+03  0.21628930768E+03  0.00000000000E+00 0. -1.
         -1    1    4    4    0  502  0.19187131660E+02  0.92364326657E+02 -0.98405312630E+02  0.13631918579E+03  0.00000000000E+00 0.  1.
          5    1    3    3  503    0 -0.85183111373E+01 -0.14601371939E+02  0.67227056107E+01  0.18789530539E+02  0.47000000000E+01 0. -1.
         13    1    6    6    0    0  0.60515555661E+01 -0.84715469087E+02 -0.29413981713E+03  0.30615611058E+03  0.00000000000E+00 0. -1.
        -14    1    6    6    0    0  0.71717646393E+01 -0.40630298331E+02 -0.31073765882E+02  0.51651082047E+02  0.00000000000E+00 0.  1.
         -5    1    5    5    0  501 -0.70117274069E+02 -0.77703071547E+01 -0.25517062847E+03  0.26478472281E+03  0.47000000000E+01 0.  1.
<mgrwt>
<rscale>  2 0.22509400E+03</rscale>
<asrwt>0</asrwt>
<pdfrwt beam="2">  1        2 0.14384380E+00 0.22509400E+03</pdfrwt>
<pdfrwt beam="1">  1       -2 0.90777350E-02 0.22509400E+03</pdfrwt>
<totfact> 0.22264754E+03</totfact>
</mgrwt>
</event>
<event>
12    1  0.1093377E-001  0.2246095E+03  0.7546771E-02  0.1130492E+00
          1   -1    0    0  503    0  0.00000000000E+00  0.00000000000E+00  0.19882519941E+03  0.19882519941E+03  0.00000000000E+00 0.  1.
         -1   -1    0    0    0  501 -0.00000000000E+00 -0.00000000000E+00 -0.25579643623E+03  0.25579643623E+03  0.00000000000E+00 0. -1.
          6    2    1    2  503    0  0.14302517484E+03 -0.31343484685E+01 -0.80353927992E+01  0.22425407450E+03  0.17250883344E+03 0.  0.
         24    2    3    3    0    0  0.14673920032E+03  0.23771206904E+02 -0.47709833360E+02  0.17594409490E+03  0.81133428021E+02 0.  0.
         -6    2    1    2    0  501 -0.14302517484E+03  0.31343484685E+01 -0.48935844019E+02  0.23036756114E+03  0.17380584460E+03 0.  0.
        -24    2    5    5    0    0 -0.12753771273E+03  0.25855047449E+02  0.21548838263E+02  0.15456339185E+03  0.80567599091E+02 0.  0.
          4    1    4    4  502    0  0.14831329747E+03  0.11820637723E+02 -0.58398190909E+02  0.15983400885E+03  0.00000000000E+00 0. -1.
         -3    1    4    4    0  502 -0.15740971484E+01  0.11950569181E+02  0.10688357548E+02  0.16110086054E+02  0.00000000000E+00 0.  1.
          5    1    3    3  503    0 -0.37140254790E+01 -0.26905555373E+02  0.39674440561E+02  0.48309979601E+02  0.47000000000E+01 0. -1.
         13    1    6    6    0    0  0.22424992393E+01  0.20213335034E+02  0.13502643214E+02  0.24411658891E+02  0.00000000000E+00 0. -1.
        -14    1    6    6    0    0 -0.12978021197E+03  0.56417124152E+01  0.80461950488E+01  0.13015173296E+03  0.00000000000E+00 0.  1.
         -5    1    5    5    0  501 -0.15487462108E+02 -0.22720698981E+02 -0.70484682281E+02  0.75804169285E+02  0.47000000000E+01 0.  1.
<mgrwt>
<rscale>  2 0.22460946E+03</rscale>
<asrwt>0</asrwt>
<pdfrwt beam="1">  1        1 0.30588492E-01 0.22460946E+03</pdfrwt>
<pdfrwt beam="2">  1       -1 0.39353298E-01 0.22460946E+03</pdfrwt>
<totfact> 0.93867379E+02</totfact>
</mgrwt>
</event>
<event>
12    1  0.1093377E-001  0.2277588E+03  0.7546771E-02  0.1128227E+00
         -2   -1    0    0    0  501 -0.00000000000E+00  0.00000000000E+00  0.21187871361E+03  0.21187871361E+03  0.00000000000E+00 0.  1.
          2   -1    0    0  503    0  0.00000000000E+00 -0.00000000000E+00 -0.25581407297E+03  0.25581407297E+03  0.00000000000E+00 0. -1.
          6    2    1    2  503    0 -0.22693267533E+02 -0.14819938731E+03  0.26581301585E+02  0.22818256263E+03  0.16994903208E+03 0.  0.
         24    2    3    3    0    0 -0.37531482605E+02 -0.67604571826E+02  0.62990428350E+02  0.13838606258E+03  0.95937051940E+02 0.  0.
         -6    2    1    2    0  501  0.22693267533E+02  0.14819938731E+03 -0.70516660949E+02  0.23951022394E+03  0.17295810218E+03 0.  0.
        -24    2    5    5    0    0 -0.25437337111E+02  0.14467841600E+03 -0.12895191595E+02  0.16420234870E+03  0.72230348040E+02 0.  0.
          4    1    4    4  502    0  0.25138965870E+02  0.63075597524E+01  0.17937906179E+02  0.31520174383E+02  0.00000000000E+00 0. -1.
         -3    1    4    4    0  502 -0.62670448475E+02 -0.73912131578E+02  0.45052522171E+02  0.10686588820E+03  0.00000000000E+00 0.  1.
          5    1    3    3  503    0  0.14838215072E+02 -0.80594815487E+02 -0.36409126765E+02  0.89796500052E+02  0.47000000000E+01 0. -1.
         13    1    6    6    0    0 -0.10105519959E+02 -0.61831144584E+01  0.12123763659E+01  0.11908916596E+02  0.00000000000E+00 0. -1.
        -14    1    6    6    0    0 -0.15331817152E+02  0.15086153046E+03 -0.14107567961E+02  0.15229343211E+03  0.00000000000E+00 0.  1.
         -5    1    5    5    0  501  0.48130604645E+02  0.35209713141E+01 -0.57621469354E+02  0.75307875239E+02  0.47000000000E+01 0.  1.
<mgrwt>
<rscale>  2 0.22775879E+03</rscale>
<asrwt>0</asrwt>
<pdfrwt beam="2">  1        2 0.39356011E-01 0.22775879E+03</pdfrwt>
<pdfrwt beam="1">  1       -2 0.32596725E-01 0.22775879E+03</pdfrwt>
<totfact> 0.11383291E+03</totfact>
</mgrwt>
</event>
<event>
12    1  0.1093377E-001  0.2554306E+03  0.7546771E-02  0.1109920E+00
          1   -1    0    0  503    0  0.00000000000E+00  0.00000000000E+00  0.93904678310E+03  0.93904678310E+03  0.00000000000E+00 0. -1.
         -1   -1    0    0    0  501 -0.00000000000E+00 -0.00000000000E+00 -0.81487992278E+02  0.81487992278E+02  0.00000000000E+00 0.  1.
          6    2    1    2  503    0 -0.18767403943E+03 -0.21372959628E+02  0.23376164862E+03  0.34669362263E+03  0.17283984243E+03 0.  0.
         24    2    3    3    0    0 -0.92388335129E+02 -0.25010875078E+02  0.41314616186E+02  0.13186683155E+03  0.80751566012E+02 0.  0.
         -6    2    1    2    0  501  0.18767403943E+03  0.21372959628E+02  0.62379714220E+03  0.67384115275E+03  0.17105752259E+03 0.  0.
        -24    2    5    5    0    0  0.16628438101E+03 -0.45282487582E+02  0.42579530875E+03  0.46377620522E+03  0.63919672406E+02 0.  0.
          2    1    4    4  502    0 -0.49610259991E+02 -0.39438862891E+02  0.55813914621E+02  0.84449954812E+02  0.00000000000E+00 0. -1.
         -1    1    4    4    0  502 -0.42778075138E+02  0.14427987813E+02 -0.14499298434E+02  0.47416876742E+02  0.00000000000E+00 0.  1.
          5    1    3    3  503    0 -0.95285704300E+02  0.36379154498E+01  0.19244703243E+03  0.21482679108E+03  0.47000000000E+01 0. -1.
         13    1    6    6    0    0  0.72765319523E+02 -0.10573185152E+01  0.11381330190E+03  0.13509025626E+03  0.00000000000E+00 0. -1.
        -14    1    6    6    0    0  0.93519061492E+02 -0.44225169067E+02  0.31198200685E+03  0.32868594896E+03  0.00000000000E+00 0.  1.
         -5    1    5    5    0  501  0.21389658414E+02  0.66655447211E+02  0.19800183345E+03  0.21006494753E+03  0.47000000000E+01 0.  1.
<mgrwt>
<rscale>  2 0.25543056E+03</rscale>
<asrwt>0</asrwt>
<pdfrwt beam="1">  1        1 0.14446873E+00 0.25543056E+03</pdfrwt>
<pdfrwt beam="2">  1       -1 0.12536615E-01 0.25543056E+03</pdfrwt>
<totfact> 0.76375360E+02</totfact>
</mgrwt>
</event>
<event>
12    1  0.1093377E-001  0.1736610E+03  0.7546771E-02  0.1174083E+00
         -1   -1    0    0    0  501 -0.00000000000E+00  0.00000000000E+00  0.40037853606E+02  0.40037853606E+02  0.00000000000E+00 0. -1.
          1   -1    0    0  503    0  0.00000000000E+00 -0.00000000000E+00 -0.84334395193E+03  0.84334395193E+03  0.00000000000E+00 0.  1.
          6    2    1    2  503    0  0.25818114324E+02 -0.27226144619E+02 -0.55032331094E+03  0.57772167947E+03  0.17175201424E+03 0.  0.
         24    2    3    3    0    0 -0.12738077804E+02  0.43082934233E+02 -0.24006045495E+03  0.25722975083E+03  0.80744813041E+02 0.  0.
         -6    2    1    2    0  501 -0.25818114324E+02  0.27226144619E+02 -0.25298278739E+03  0.30566012607E+03  0.16739170820E+03 0.  0.
        -24    2    5    5    0    0 -0.11653217291E+02  0.73681118486E+02 -0.11605028488E+03  0.16029400502E+03  0.81619818238E+02 0.  0.
          2    1    4    4  502    0 -0.41285367260E+02  0.83373586765E+01 -0.73572942287E+02  0.84776004484E+02  0.00000000000E+00 0. -1.
         -1    1    4    4    0  502  0.28547289456E+02  0.34745575556E+02 -0.16648751266E+03  0.17245374635E+03  0.00000000000E+00 0.  1.
          5    1    3    3  503    0  0.38556192129E+02 -0.70309078852E+02 -0.31026285599E+03  0.32049192864E+03  0.47000000000E+01 0. -1.
         13    1    6    6    0    0  0.21556509807E+02  0.56943102861E+02 -0.32902210357E+02  0.69208059682E+02  0.00000000000E+00 0. -1.
        -14    1    6    6    0    0 -0.33209727098E+02  0.16738015625E+02 -0.83148074521E+02  0.91085945335E+02  0.00000000000E+00 0.  1.
         -5    1    5    5    0  501 -0.14164897034E+02 -0.46454973866E+02 -0.13693250251E+03  0.14536612105E+03  0.47000000000E+01 0.  1.
<mgrwt>
<rscale>  2 0.17366101E+03</rscale>
<asrwt>0</asrwt>
<pdfrwt beam="2">  1        1 0.12974521E+00 0.17366101E+03</pdfrwt>
<pdfrwt beam="1">  1       -1 0.61596702E-02 0.17366101E+03</pdfrwt>
<totfact> 0.26952587E+03</totfact>
</mgrwt>
</event>
<event>
12    1  0.1093377E-001  0.3178183E+03  0.7546771E-02  0.1076658E+00
          1   -1    0    0  503    0  0.00000000000E+00  0.00000000000E+00  0.11753331392E+04  0.11753331392E+04  0.00000000000E+00 0. -1.
         -1   -1    0    0    0  501 -0.00000000000E+00 -0.00000000000E+00 -0.86716921240E+02  0.86716921240E+02  0.00000000000E+00 0.  1.
          6    2    1    2  503    0 -0.34216109285E+02 -0.26426037929E+03  0.48496937180E+03  0.57995249369E+03  0.17362405695E+03 0.  0.
         24    2    3    3    0    0 -0.60754851776E+02 -0.17760415389E+03  0.22012326410E+03  0.29998971577E+03  0.79405230799E+02 0.  0.
         -6    2    1    2    0  501  0.34216109285E+02  0.26426037929E+03  0.60364684620E+03  0.68209756680E+03  0.17280996932E+03 0.  0.
        -24    2    5    5    0    0  0.74745125792E+02  0.14302280657E+03  0.43545610932E+03  0.47078887272E+03  0.77316120586E+02 0.  0.
          2    1    4    4  502    0 -0.69021602173E+02 -0.79301326486E+02  0.11094424038E+03  0.15284405916E+03  0.00000000000E+00 0. -1.
         -1    1    4    4    0  502  0.82667503972E+01 -0.98302827405E+02  0.10917902372E+03  0.14714565661E+03  0.00000000000E+00 0.  1.
          5    1    3    3  503    0  0.26538742490E+02 -0.86656225402E+02  0.26484610770E+03  0.27996277792E+03  0.47000000000E+01 0. -1.
         13    1    6    6    0    0  0.83836738580E+02  0.12159254067E+03  0.31243961384E+03  0.34558914477E+03  0.00000000000E+00 0. -1.
        -14    1    6    6    0    0 -0.90916127875E+01  0.21430265898E+02  0.12301649548E+03  0.12519972795E+03  0.00000000000E+00 0.  1.
         -5    1    5    5    0  501 -0.40529016507E+02  0.12123757272E+03  0.16819073688E+03  0.21130869408E+03  0.47000000000E+01 0.  1.
<mgrwt>
<rscale>  2 0.31781833E+03</rscale>
<asrwt>0</asrwt>
<pdfrwt beam="1">  1        1 0.18082047E+00 0.31781833E+03</pdfrwt>
<pdfrwt beam="2">  1       -1 0.13341066E-01 0.31781833E+03</pdfrwt>
<totfact> 0.46144330E+02</totfact>
</mgrwt>
</event>
<event>
12    1  0.1093377E-001  0.2157045E+03  0.7546771E-02  0.1137127E+00
          2   -1    0    0  503    0  0.00000000000E+00  0.00000000000E+00  0.38396941498E+03  0.38396941498E+03  0.00000000000E+00 0. -1.
         -2   -1    0    0    0  501 -0.00000000000E+00 -0.00000000000E+00 -0.14366258377E+03  0.14366258377E+03  0.00000000000E+00 0.  1.
          6    2    1    2  503    0 -0.11304807495E+03 -0.53689421681E+02  0.15031627570E+02  0.21459858769E+03  0.17367838888E+03 0.  0.
         24    2    3    3    0    0 -0.11395577313E+03 -0.74575231455E+02 -0.33608678591E+02  0.16144776127E+03  0.79927798462E+02 0.  0.
         -6    2    1    2    0  501  0.11304807495E+03  0.53689421681E+02  0.22527520364E+03  0.31303341106E+03  0.17770362353E+03 0.  0.
        -24    2    5    5    0    0  0.77778544827E+02  0.10387107863E+03  0.18513060151E+03  0.23957718240E+03  0.79279150475E+02 0.  0.
          4    1    4    4  502    0 -0.41446717514E+02  0.74445762543E+01  0.10534675394E+02  0.43407735416E+02  0.00000000000E+00 0. -1.
         -3    1    4    4    0  502 -0.72509055613E+02 -0.82019807710E+02 -0.44143353985E+02  0.11804002585E+03  0.00000000000E+00 0.  1.
          5    1    3    3  503    0  0.90769818157E+00  0.20885809775E+02  0.48640306161E+02  0.53150826422E+02  0.47000000000E+01 0. -1.
         11    1    6    6    0    0 -0.13266116645E+02  0.35612663933E+02  0.52715097667E+02  0.64985638454E+02  0.00000000000E+00 0. -1.
        -12    1    6    6    0    0  0.91044661471E+02  0.68258414696E+02  0.13241550384E+03  0.17459154395E+03  0.00000000000E+00 0.  1.
         -5    1    5    5    0  501  0.35269530119E+02 -0.50181656948E+02  0.40144602124E+02  0.73456228657E+02  0.47000000000E+01 0.  1.
<mgrwt>
<rscale>  2 0.21570449E+03</rscale>
<asrwt>0</asrwt>
<pdfrwt beam="1">  1        2 0.59072217E-01 0.21570449E+03</pdfrwt>
<pdfrwt beam="2">  1       -2 0.22101936E-01 0.21570449E+03</pdfrwt>
<totfact> 0.14686117E+03</totfact>
</mgrwt>
</event>
<event>
12    1  0.1093377E-001  0.2123995E+03  0.7546771E-02  0.1139680E+00
         -4   -1    0    0    0  501 -0.00000000000E+00  0.00000000000E+00  0.62628893767E+03  0.62628893767E+03  0.00000000000E+00 0. -1.
          4   -1    0    0  503    0  0.00000000000E+00 -0.00000000000E+00 -0.78615340613E+02  0.78615340613E+02  0.00000000000E+00 0.  1.
          6    2    1    2  503    0 -0.12109386233E+03 -0.25833376471E+02  0.17200024934E+03  0.27340568462E+03  0.17272954518E+03 0.  0.
         24    2    3    3    0    0 -0.61269276066E+02  0.50841474618E+02  0.74037102421E+02  0.13528659809E+03  0.80512057214E+02 0.  0.
         -6    2    1    2    0  501  0.12109386233E+03  0.25833376471E+02  0.37567334772E+03  0.43149859366E+03  0.17242240374E+03 0.  0.
        -24    2    5    5    0    0  0.11245901263E+03  0.26876409141E+02  0.38985912360E+03  0.41420770636E+03  0.78794142332E+02 0.  0.
          4    1    4    4  502    0 -0.52538131579E+02  0.30627270495E+02  0.89624206919E+02  0.10830874126E+03  0.00000000000E+00 0. -1.
         -3    1    4    4    0  502 -0.87311444869E+01  0.20214204123E+02 -0.15587104498E+02  0.26977856828E+02  0.00000000000E+00 0.  1.
          5    1    3    3  503    0 -0.59824586260E+02 -0.76674851089E+02  0.97963146920E+02  0.13811908654E+03  0.47000000000E+01 0. -1.
         11    1    6    6    0    0 -0.53127629481E+01  0.12829313060E+02  0.12624516921E+02  0.18766863116E+02  0.00000000000E+00 0. -1.
        -12    1    6    6    0    0  0.11777177558E+03  0.14047096081E+02  0.37723460667E+03  0.39544084324E+03  0.00000000000E+00 0.  1.
         -5    1    5    5    0  501  0.86348496930E+01 -0.10430326698E+01 -0.14185775879E+02  0.17290887301E+02  0.47000000000E+01 0.  1.
<mgrwt>
<rscale>  2 0.21239950E+03</rscale>
<asrwt>0</asrwt>
<pdfrwt beam="2">  1        4 0.12094668E-01 0.21239950E+03</pdfrwt>
<pdfrwt beam="1">  1       -4 0.96352141E-01 0.21239950E+03</pdfrwt>
<totfact> 0.91521322E+01</totfact>
</mgrwt>
</event>
<event>
12    1  0.1093377E-001  0.2445609E+03  0.7546771E-02  0.1116791E+00
          1   -1    0    0  503    0  0.00000000000E+00  0.00000000000E+00  0.82291615217E+03  0.82291615217E+03  0.00000000000E+00 0. -1.
         -1   -1    0    0    0  501 -0.00000000000E+00 -0.00000000000E+00 -0.11035280820E+03  0.11035280820E+03  0.00000000000E+00 0.  1.
          6    2    1    2  503    0  0.16209077727E+03  0.66459551240E+02  0.82597668563E+02  0.25710114357E+03  0.16908084205E+03 0.  0.
         24    2    3    3    0    0  0.19354947583E+02  0.52558609684E+01  0.34168342790E+01  0.82713347849E+02  0.80172221408E+02 0.  0.
         -6    2    1    2    0  501 -0.16209077727E+03 -0.66459551240E+02  0.62996567541E+03  0.67616781680E+03  0.17220880424E+03 0.  0.
        -24    2    5    5    0    0 -0.12198720459E+03  0.22979661548E+02  0.35052221637E+03  0.37999488399E+03  0.78239023299E+02 0.  0.
          4    1    4    4  502    0 -0.13425825605E+02  0.26077494331E+02  0.24774254462E+02  0.38393387294E+02  0.00000000000E+00 0. -1.
         -3    1    4    4    0  502  0.32780773188E+02 -0.20821633363E+02 -0.21357420183E+02  0.44319960555E+02  0.00000000000E+00 0.  1.
          5    1    3    3  503    0  0.14273582968E+03  0.61203690272E+02  0.79180834284E+02  0.17438779572E+03  0.47000000000E+01 0. -1.
         13    1    6    6    0    0 -0.60055386000E+02 -0.27800101483E+02  0.14363683005E+03  0.15814877166E+03  0.00000000000E+00 0. -1.
        -14    1    6    6    0    0 -0.61931818588E+02  0.50779763031E+02  0.20688538632E+03  0.22184611234E+03  0.00000000000E+00 0.  1.
         -5    1    5    5    0  501 -0.40103572679E+02 -0.89439212788E+02  0.27944345904E+03  0.29617293280E+03  0.47000000000E+01 0.  1.
<mgrwt>
<rscale>  2 0.24456086E+03</rscale>
<asrwt>0</asrwt>
<pdfrwt beam="1">  1        1 0.12660248E+00 0.24456086E+03</pdfrwt>
<pdfrwt beam="2">  1       -1 0.16977356E-01 0.24456086E+03</pdfrwt>
<totfact> 0.58417001E+02</totfact>
</mgrwt>
</event>
<event>
12    1  0.1093377E-001  0.3544683E+03  0.7546771E-02  0.1060796E+00
         -2   -1    0    0    0  501 -0.00000000000E+00  0.00000000000E+00  0.40698335872E+03  0.40698335872E+03  0.00000000000E+00 0. -1.
          2   -1    0    0  503    0  0.00000000000E+00 -0.00000000000E+00 -0.34058584002E+03  0.34058584002E+03  0.00000000000E+00 0.  1.
          6    2    1    2  503    0 -0.28557484241E+03 -0.11762153873E+03 -0.81174531278E+02  0.36295629132E+03  0.17251129786E+03 0.  0.
         24    2    3    3    0    0 -0.17998716683E+03 -0.40377292158E+02 -0.10834411567E+03  0.22925622708E+03  0.82427327444E+02 0.  0.
         -6    2    1    2    0  501  0.28557484241E+03  0.11762153873E+03  0.14757204997E+03  0.38461290742E+03  0.17539031226E+03 0.  0.
        -24    2    5    5    0    0  0.45145731326E+02  0.18362843045E+02  0.35651772603E+02  0.10140506041E+03  0.81465368868E+02 0.  0.
          2    1    4    4  502    0 -0.90384264722E+02  0.19219021180E+02 -0.34003648747E+02  0.98462857021E+02  0.00000000000E+00 0. -1.
         -1    1    4    4    0  502 -0.89602902110E+02 -0.59596313338E+02 -0.74340466919E+02  0.13079337006E+03  0.00000000000E+00 0.  1.
          5    1    3    3  503    0 -0.10558767558E+03 -0.77244246567E+02  0.27169584388E+02  0.13370006424E+03  0.47000000000E+01 0. -1.
         11    1    6    6    0    0  0.48226436978E+02 -0.11188895482E+02 -0.63962149823E+01  0.49918855874E+02  0.00000000000E+00 0. -1.
        -12    1    6    6    0    0 -0.30807056519E+01  0.29551738528E+02  0.42047987585E+02  0.51486204533E+02  0.00000000000E+00 0.  1.
         -5    1    5    5    0  501  0.24042911108E+03  0.99258695680E+02  0.11192027737E+03  0.28320784701E+03  0.47000000000E+01 0.  1.
<mgrwt>
<rscale>  2 0.35446830E+03</rscale>
<asrwt>0</asrwt>
<pdfrwt beam="2">  1        2 0.52397822E-01 0.35446830E+03</pdfrwt>
<pdfrwt beam="1">  1       -2 0.62612824E-01 0.35446830E+03</pdfrwt>
<totfact> 0.23092379E+02</totfact>
</mgrwt>
</event>
<event>
12    1  0.1093377E-001  0.2231940E+03  0.7546771E-02  0.1131524E+00
         -4   -1    0    0    0  501 -0.00000000000E+00  0.00000000000E+00  0.24795462862E+03  0.24795462862E+03  0.00000000000E+00 0. -1.
          4   -1    0    0  503    0  0.00000000000E+00 -0.00000000000E+00 -0.22225131630E+03  0.22225131630E+03  0.00000000000E+00 0.  1.
          6    2    1    2  503    0  0.14158941226E+03  0.44021560491E+02 -0.60093813513E+02  0.22715974894E+03  0.16126011802E+03 0.  0.
         24    2    3    3    0    0  0.14729263914E+03  0.76654878054E+02 -0.56107423391E+02  0.19346343581E+03  0.81908278950E+02 0.  0.
         -6    2    1    2    0  501 -0.14158941226E+03 -0.44021560491E+02  0.85797125836E+02  0.24304619598E+03  0.17240895315E+03 0.  0.
        -24    2    5    5    0    0 -0.75002928994E+02 -0.93300477110E+02  0.24566095757E+02  0.13992733049E+03  0.68159712217E+02 0.  0.
          2    1    4    4  502    0  0.12084147999E+03  0.25472383739E+02 -0.19040948668E+02  0.12495624573E+03  0.00000000000E+00 0. -1.
         -1    1    4    4    0  502  0.26451159153E+02  0.51182494315E+02 -0.37066474723E+02  0.68507190084E+02  0.00000000000E+00 0.  1.
          5    1    3    3  503    0 -0.57032268872E+01 -0.32633317563E+02 -0.39863901221E+01  0.33696313126E+02  0.47000000000E+01 0. -1.
         13    1    6    6    0    0  0.12783775675E+02 -0.13257017033E+02  0.75945265331E+01  0.19921100733E+02  0.00000000000E+00 0. -1.
        -14    1    6    6    0    0 -0.87786704669E+02 -0.80043460076E+02  0.16971569224E+02  0.12000622975E+03  0.00000000000E+00 0.  1.
         -5    1    5    5    0  501 -0.66586483262E+02  0.49278916619E+02  0.61231030078E+02  0.10311886549E+03  0.47000000000E+01 0.  1.
<mgrwt>
<rscale>  2 0.22319405E+03</rscale>
<asrwt>0</asrwt>
<pdfrwt beam="2">  1        4 0.34192510E-01 0.22319405E+03</pdfrwt>
<pdfrwt beam="1">  1       -4 0.38146866E-01 0.22319405E+03</pdfrwt>
<totfact> 0.99591388E+01</totfact>
</mgrwt>
</event>
<event>
12    1  0.1093377E-001  0.1926798E+03  0.7546771E-02  0.1156066E+00
          2   -1    0    0  503    0  0.00000000000E+00  0.00000000000E+00  0.84118659026E+03  0.84118659026E+03  0.00000000000E+00 0. -1.
         -2   -1    0    0    0  501 -0.00000000000E+00 -0.00000000000E+00 -0.50263041245E+02  0.50263041245E+02  0.00000000000E+00 0.  1.
          6    2    1    2  503    0  0.40592989702E+02 -0.79664233775E+02  0.24246800253E+03  0.31060940414E+03  0.17231740694E+03 0.  0.
         24    2    3    3    0    0  0.70333883949E+02 -0.60753774461E+02  0.24585393220E+03  0.27489273042E+03  0.80523170044E+02 0.  0.
         -6    2    1    2    0  501 -0.40592989702E+02  0.79664233775E+02  0.54845554648E+03  0.58084022736E+03  0.16904940786E+03 0.  0.
        -24    2    5    5    0    0 -0.43730384309E+02  0.10759110697E+03  0.26838573840E+03  0.29932479103E+03  0.63845384645E+02 0.  0.
          4    1    4    4  502    0  0.59773163957E+02 -0.45184639676E+02  0.24484382325E+03  0.25605269101E+03  0.00000000000E+00 0. -1.
         -3    1    4    4    0  502  0.10560719992E+02 -0.15569134785E+02  0.10101089560E+01  0.18840039405E+02  0.00000000000E+00 0.  1.
          5    1    3    3  503    0 -0.29740894247E+02 -0.18910459314E+02 -0.33859296739E+01  0.35716673723E+02  0.47000000000E+01 0. -1.
         11    1    6    6    0    0  0.16072559421E+02  0.28514083343E+02  0.54422021792E+02  0.63506980492E+02  0.00000000000E+00 0. -1.
        -12    1    6    6    0    0 -0.59802943730E+02  0.79077023624E+02  0.21396371661E+03  0.23581781054E+03  0.00000000000E+00 0.  1.
         -5    1    5    5    0  501  0.31373946073E+01 -0.27926873193E+02  0.28006980808E+03  0.28151543633E+03  0.47000000000E+01 0.  1.
<mgrwt>
<rscale>  2 0.19267975E+03</rscale>
<asrwt>0</asrwt>
<pdfrwt beam="1">  1        2 0.12941331E+00 0.19267975E+03</pdfrwt>
<pdfrwt beam="2">  1       -2 0.77327762E-02 0.19267975E+03</pdfrwt>
<totfact> 0.32817509E+03</totfact>
</mgrwt>
</event>
<event>
12    1  0.1093377E-001  0.2091228E+03  0.7546771E-02  0.1142263E+00
         -1   -1    0    0    0  501 -0.00000000000E+00  0.00000000000E+00  0.28267743862E+02  0.28267743862E+02  0.00000000000E+00 0.  1.
          1   -1    0    0  503    0  0.00000000000E+00 -0.00000000000E+00 -0.24811372401E+04  0.24811372401E+04  0.00000000000E+00 0. -1.
          6    2    1    2  503    0 -0.11592640869E+03 -0.21608372374E+02 -0.45806357815E+03  0.50370930377E+03  0.17319055138E+03 0.  0.
         24    2    3    3    0    0 -0.12405368216E+03 -0.70297178604E+02 -0.35752100584E+03  0.39160421346E+03  0.72121986991E+02 0.  0.
         -6    2    1    2    0  501  0.11592640869E+03  0.21608372374E+02 -0.19948059181E+04  0.20056956802E+04  0.17221688859E+03 0.  0.
        -24    2    5    5    0    0  0.14114072370E+03  0.19704292361E+02 -0.19115486171E+04  0.19185563930E+04  0.80818034014E+02 0.  0.
          4    1    4    4  502    0 -0.64284345955E+02 -0.62591796893E+02 -0.14332895724E+03  0.16909583128E+03  0.00000000000E+00 0. -1.
         -3    1    4    4    0  502 -0.59769336205E+02 -0.77053817106E+01 -0.21419204859E+03  0.22250838218E+03  0.00000000000E+00 0.  1.
          5    1    3    3  503    0  0.81272734691E+01  0.48688806230E+02 -0.10054257231E+03  0.11210509031E+03  0.47000000000E+01 0. -1.
         11    1    6    6    0    0  0.12001753340E+03 -0.17249386618E+02 -0.14033284240E+04  0.14085568555E+04  0.00000000000E+00 0. -1.
        -12    1    6    6    0    0  0.21123190300E+02  0.36953678979E+02 -0.50822019309E+03  0.50999953747E+03  0.00000000000E+00 0.  1.
         -5    1    5    5    0  501 -0.25214315009E+02  0.19040800134E+01 -0.83257301021E+02  0.87139287210E+02  0.47000000000E+01 0.  1.
<mgrwt>
<rscale>  2 0.20912279E+03</rscale>
<asrwt>0</asrwt>
<pdfrwt beam="2">  1        1 0.38171361E+00 0.20912279E+03</pdfrwt>
<pdfrwt beam="1">  1       -1 0.43488815E-02 0.20912279E+03</pdfrwt>
<totfact> 0.35889187E+02</totfact>
</mgrwt>
</event>
<event>
12    1  0.1093377E-001  0.2030813E+03  0.7546771E-02  0.1147165E+00
          1   -1    0    0  503    0  0.00000000000E+00  0.00000000000E+00  0.16022554273E+04  0.16022554273E+04  0.00000000000E+00 0.  1.
         -1   -1    0    0    0  501 -0.00000000000E+00 -0.00000000000E+00 -0.26005158207E+02  0.26005158207E+02  0.00000000000E+00 0. -1.
          6    2    1    2  503    0  0.15458119665E+02 -0.10828749242E+03  0.87590220643E+03  0.89947924059E+03  0.17289619586E+03 0.  0.
         24    2    3    3    0    0 -0.25842351923E+02  0.36221747910E+01  0.31233907978E+03  0.32341067671E+03  0.79735925086E+02 0.  0.
         -6    2    1    2    0  501 -0.15458119665E+02  0.10828749242E+03  0.70034806268E+03  0.72878134494E+03  0.16932130801E+03 0.  0.
        -24    2    5    5    0    0  0.53803157900E+02  0.54544629066E+02  0.32331566799E+03  0.34166258205E+03  0.79563826237E+02 0.  0.
          2    1    4    4  502    0 -0.34074938223E+02  0.14789857514E+02  0.59182792249E+02  0.69874488897E+02  0.00000000000E+00 0. -1.
         -1    1    4    4    0  502  0.82325862999E+01 -0.11167682723E+02  0.25315628753E+03  0.25353618781E+03  0.00000000000E+00 0.  1.
          5    1    3    3  503    0  0.41300471589E+02 -0.11190966721E+03  0.56356312665E+03  0.57606856388E+03  0.47000000000E+01 0. -1.
         13    1    6    6    0    0  0.38264926515E+02 -0.12884952624E+02  0.99012633566E+02  0.10692861269E+03  0.00000000000E+00 0. -1.
        -14    1    6    6    0    0  0.15538231385E+02  0.67429581691E+02  0.22430303443E+03  0.23473396937E+03  0.00000000000E+00 0.  1.
         -5    1    5    5    0  501 -0.69261277565E+02  0.53742863356E+02  0.37703239469E+03  0.38711876289E+03  0.47000000000E+01 0.  1.
<mgrwt>
<rscale>  2 0.20308126E+03</rscale>
<asrwt>0</asrwt>
<pdfrwt beam="1">  1        1 0.24650076E+00 0.20308126E+03</pdfrwt>
<pdfrwt beam="2">  1       -1 0.40007948E-02 0.20308126E+03</pdfrwt>
<totfact> 0.15099074E+03</totfact>
</mgrwt>
</event>
<event>
12    1  0.1093377E-001  0.1730204E+03  0.7546771E-02  0.1174734E+00
          2   -1    0    0  503    0  0.00000000000E+00  0.00000000000E+00  0.69054096303E+03  0.69054096303E+03  0.00000000000E+00 0.  1.
         -2   -1    0    0    0  501 -0.00000000000E+00 -0.00000000000E+00 -0.47522932033E+02  0.47522932033E+02  0.00000000000E+00 0. -1.
          6    2    1    2  503    0  0.20535494048E+02 -0.49463748690E+01  0.21048170227E+03  0.27182786055E+03  0.17070930157E+03 0.  0.
         24    2    3    3    0    0 -0.22292103978E+02 -0.29708270288E+02  0.20218519477E+03  0.22144654800E+03  0.82341978440E+02 0.  0.
         -6    2    1    2    0  501 -0.20535494048E+02  0.49463748690E+01  0.43253632873E+03  0.46623603452E+03  0.17274892494E+03 0.  0.
        -24    2    5    5    0    0  0.34624020024E+02 -0.45599358256E+02  0.26498811170E+03  0.28268239614E+03  0.80078171249E+02 0.  0.
          2    1    4    4  502    0 -0.41465404499E+02 -0.42788731037E+02  0.97874447222E+02  0.11458474023E+03  0.00000000000E+00 0. -1.
         -1    1    4    4    0  502  0.19173300521E+02  0.13080460748E+02  0.10431074755E+03  0.10686180777E+03  0.00000000000E+00 0.  1.
          5    1    3    3  503    0  0.42827598026E+02  0.24761895419E+02  0.82965074964E+01  0.50381312548E+02  0.47000000000E+01 0. -1.
         11    1    6    6    0    0  0.32295004955E+02 -0.57470556388E+02  0.26207506982E+03  0.27023910601E+03  0.00000000000E+00 0. -1.
        -12    1    6    6    0    0  0.23290150699E+01  0.11871198132E+02  0.29130418793E+01  0.12443290131E+02  0.00000000000E+00 0.  1.
         -5    1    5    5    0  501 -0.55159514073E+02  0.50545733125E+02  0.16754821703E+03  0.18355363838E+03  0.47000000000E+01 0.  1.
<mgrwt>
<rscale>  2 0.17302038E+03</rscale>
<asrwt>0</asrwt>
<pdfrwt beam="1">  1        2 0.10623706E+00 0.17302038E+03</pdfrwt>
<pdfrwt beam="2">  1       -2 0.73112208E-02 0.17302038E+03</pdfrwt>
<totfact> 0.45539318E+03</totfact>
</mgrwt>
</event>
<event>
12    1  0.1093377E-001  0.2453730E+03  0.7546771E-02  0.1116264E+00
         -3   -1    0    0    0  501 -0.00000000000E+00  0.00000000000E+00  0.70497716773E+02  0.70497716773E+02  0.00000000000E+00 0.  1.
          3   -1    0    0  503    0  0.00000000000E+00 -0.00000000000E+00 -0.85691418659E+03  0.85691418659E+03  0.00000000000E+00 0. -1.
          6    2    1    2  503    0  0.15246843895E+03 -0.83366372409E+02 -0.36457173691E+03  0.43880164751E+03  0.17157434999E+03 0.  0.
         24    2    3    3    0    0  0.54435864928E+02  0.65593161529E+01 -0.84437006508E+02  0.12864914919E+03  0.80091869129E+02 0.  0.
         -6    2    1    2    0  501 -0.15246843895E+03  0.83366372409E+02 -0.42184473290E+03  0.48861025585E+03  0.17490119075E+03 0.  0.
        -24    2    5    5    0    0 -0.51643671015E+02 -0.91091083055E+01 -0.26160821694E+03  0.27786116473E+03  0.77575273662E+02 0.  0.
          4    1    4    4  502    0  0.61512576881E+02  0.29392631303E+02 -0.78591262891E+02  0.10403994662E+03  0.00000000000E+00 0. -1.
         -3    1    4    4    0  502 -0.70767119530E+01 -0.22833315150E+02 -0.58457436166E+01  0.24609202573E+02  0.00000000000E+00 0.  1.
          5    1    3    3  503    0  0.98032574021E+02 -0.89925688562E+02 -0.28013473040E+03  0.31015249831E+03  0.47000000000E+01 0. -1.
         11    1    6    6    0    0 -0.16939029985E+02  0.32936664371E+02 -0.13554755576E+03  0.14051652739E+03  0.00000000000E+00 0. -1.
        -12    1    6    6    0    0 -0.34704641030E+02 -0.42045772676E+02 -0.12606066118E+03  0.13734463734E+03  0.00000000000E+00 0.  1.
         -5    1    5    5    0  501 -0.10082476793E+03  0.92475480714E+02 -0.16023651596E+03  0.21074909112E+03  0.47000000000E+01 0.  1.
<mgrwt>
<rscale>  2 0.24537300E+03</rscale>
<asrwt>0</asrwt>
<pdfrwt beam="2">  1        3 0.13183295E+00 0.24537300E+03</pdfrwt>
<pdfrwt beam="1">  1       -3 0.10845802E-01 0.24537300E+03</pdfrwt>
<totfact> 0.75597803E+01</totfact>
</mgrwt>
</event>
<event>
12    1  0.1093377E-001  0.2292816E+03  0.7546771E-02  0.1127146E+00
          1   -1    0    0  503    0  0.00000000000E+00  0.00000000000E+00  0.14710997933E+03  0.14710997933E+03  0.00000000000E+00 0. -1.
         -1   -1    0    0    0  501 -0.00000000000E+00 -0.00000000000E+00 -0.35774662051E+03  0.35774662051E+03  0.00000000000E+00 0.  1.
          6    2    1    2  503    0 -0.36764895125E+02  0.14626388749E+03 -0.11355940802E+03  0.25559545872E+03  0.17230356082E+03 0.  0.
         24    2    3    3    0    0 -0.89106554257E+02  0.11886114557E+03 -0.80102912256E+02  0.18753675866E+03  0.81765575629E+02 0.  0.
         -6    2    1    2    0  501  0.36764895125E+02 -0.14626388749E+03 -0.97077233158E+02  0.24926114112E+03  0.17309634594E+03 0.  0.
        -24    2    5    5    0    0  0.32918358252E+02 -0.15812603106E+03 -0.34462202639E+02  0.18524365645E+03  0.83905356411E+02 0.  0.
          4    1    4    4  502    0 -0.61948666743E+02  0.17308253778E+02 -0.33929993689E+02  0.72721781000E+02  0.00000000000E+00 0. -1.
         -3    1    4    4    0  502 -0.27157887514E+02  0.10155289179E+03 -0.46172918567E+02  0.11481497766E+03  0.00000000000E+00 0.  1.
          5    1    3    3  503    0  0.52341659132E+02  0.27402741918E+02 -0.33456495766E+02  0.68058700063E+02  0.47000000000E+01 0. -1.
         11    1    6    6    0    0  0.58244309383E+02 -0.89863401356E+02 -0.66195053978E+01  0.10729234982E+03  0.00000000000E+00 0. -1.
        -12    1    6    6    0    0 -0.25325951131E+02 -0.68262629707E+02 -0.27842697241E+02  0.77951306627E+02  0.00000000000E+00 0.  1.
         -5    1    5    5    0  501  0.38465368729E+01  0.11862143576E+02 -0.62615030519E+02  0.64017484666E+02  0.47000000000E+01 0.  1.
<mgrwt>
<rscale>  2 0.22928156E+03</rscale>
<asrwt>0</asrwt>
<pdfrwt beam="1">  1        1 0.22632304E-01 0.22928156E+03</pdfrwt>
<pdfrwt beam="2">  1       -1 0.55037942E-01 0.22928156E+03</pdfrwt>
<totfact> 0.74647858E+02</totfact>
</mgrwt>
</event>
<event>
12    1  0.1093377E-001  0.1868381E+03  0.7546771E-02  0.1161344E+00
          2   -1    0    0  503    0  0.00000000000E+00  0.00000000000E+00  0.12823104735E+04  0.12823104735E+04  0.00000000000E+00 0.  1.
         -2   -1    0    0    0  501 -0.00000000000E+00 -0.00000000000E+00 -0.30733271722E+02  0.30733271722E+02  0.00000000000E+00 0. -1.
          6    2    1    2  503    0  0.85524757358E+01 -0.60427463314E+02  0.38722830263E+03  0.42743523249E+03  0.17038338081E+03 0.  0.
         24    2    3    3    0    0  0.69738935920E+02 -0.53287613366E+02  0.25153264438E+03  0.27833740544E+03  0.80622274545E+02 0.  0.
         -6    2    1    2    0  501 -0.85524757358E+01  0.60427463314E+02  0.86434889911E+03  0.88560851269E+03  0.18297211587E+03 0.  0.
        -24    2    5    5    0    0  0.68157543192E+02  0.27787625017E+02  0.51660709542E+03  0.52798267738E+03  0.80406553048E+02 0.  0.
          2    1    4    4  502    0  0.86333317903E+02 -0.54465272449E+02  0.20704412434E+03  0.23084015488E+03  0.00000000000E+00 0. -1.
         -1    1    4    4    0  502 -0.16594381983E+02  0.11776590836E+01  0.44488520046E+02  0.47497250555E+02  0.00000000000E+00 0.  1.
          5    1    3    3  503    0 -0.61186460184E+02 -0.71398499478E+01  0.13569565824E+03  0.14909782706E+03  0.47000000000E+01 0. -1.
         13    1    6    6    0    0 -0.43016825687E+01  0.60686257685E+01  0.18072895933E+01  0.76549975385E+01  0.00000000000E+00 0. -1.
        -14    1    6    6    0    0  0.72459225760E+02  0.21718999249E+02  0.51479980583E+03  0.52032767984E+03  0.00000000000E+00 0.  1.
         -5    1    5    5    0  501 -0.76710018927E+02  0.32639838296E+02  0.34774180369E+03  0.35762583531E+03  0.47000000000E+01 0.  1.
<mgrwt>
<rscale>  2 0.18683813E+03</rscale>
<asrwt>0</asrwt>
<pdfrwt beam="1">  1        2 0.19727849E+00 0.18683813E+03</pdfrwt>
<pdfrwt beam="2">  1       -2 0.47281966E-02 0.18683813E+03</pdfrwt>
<totfact> 0.38026478E+03</totfact>
</mgrwt>
</event>
<event>
12    1  0.1093377E-001  0.1875973E+03  0.7546771E-02  0.1160646E+00
         -1   -1    0    0    0  501 -0.00000000000E+00  0.00000000000E+00  0.10519091661E+04  0.10519091661E+04  0.00000000000E+00 0. -1.
          1   -1    0    0  503    0  0.00000000000E+00 -0.00000000000E+00 -0.34598659354E+02  0.34598659354E+02  0.00000000000E+00 0.  1.
          6    2    1    2  503    0 -0.92541991869E+01  0.70866600826E+02  0.60761591937E+03  0.63594324410E+03  0.17354823228E+03 0.  0.
         24    2    3    3    0    0  0.23962127451E+02  0.85098303009E+02  0.57660583366E+03  0.58809367652E+03  0.74592092178E+02 0.  0.
         -6    2    1    2    0  501  0.92541991869E+01 -0.70866600826E+02  0.40969458733E+03  0.45056458131E+03  0.17335244944E+03 0.  0.
        -24    2    5    5    0    0  0.72874823638E+01 -0.61576092468E+02  0.42213832525E+03  0.43422083223E+03  0.80636486342E+02 0.  0.
          4    1    4    4  502    0 -0.53376807195E+01  0.57473590703E+02  0.17069283077E+03  0.18018808767E+03  0.00000000000E+00 0. -1.
         -3    1    4    4    0  502  0.29299808171E+02  0.27624712305E+02  0.40591300290E+03  0.40790558884E+03  0.00000000000E+00 0.  1.
          5    1    3    3  503    0 -0.33216326638E+02 -0.14231702183E+02  0.31010085706E+02  0.47849567582E+02  0.47000000000E+01 0. -1.
         11    1    6    6    0    0  0.48154076155E+01  0.19004469160E+02  0.11601772193E+03  0.11766252504E+03  0.00000000000E+00 0. -1.
        -12    1    6    6    0    0  0.24720747483E+01 -0.80580561628E+02  0.30612060333E+03  0.31655830718E+03  0.00000000000E+00 0.  1.
         -5    1    5    5    0  501  0.19667168231E+01 -0.92905083581E+01 -0.12443737922E+02  0.16343749083E+02  0.47000000000E+01 0.  1.
<mgrwt>
<rscale>  2 0.18759725E+03</rscale>
<asrwt>0</asrwt>
<pdfrwt beam="2">  1        1 0.53228715E-02 0.18759725E+03</pdfrwt>
<pdfrwt beam="1">  1       -1 0.16183216E+00 0.18759725E+03</pdfrwt>
<totfact> 0.46993073E+02</totfact>
</mgrwt>
</event>
<event>
12    1  0.1093377E-001  0.1791114E+03  0.7546771E-02  0.1168666E+00
          1   -1    0    0  503    0  0.00000000000E+00  0.00000000000E+00  0.20506356263E+04  0.20506356263E+04  0.00000000000E+00 0.  1.
         -1   -1    0    0    0  501 -0.00000000000E+00 -0.00000000000E+00 -0.17915543442E+02  0.17915543442E+02  0.00000000000E+00 0. -1.
          6    2    1    2  503    0  0.20481752082E+02 -0.45328339654E+02  0.13931189857E+04  0.14048103568E+04  0.17388924495E+03 0.  0.
         24    2    3    3    0    0 -0.38394235185E+02 -0.70627801948E+02  0.99755658712E+03  0.10040633719E+04  0.81004361645E+02 0.  0.
         -6    2    1    2    0  501 -0.20481752082E+02  0.45328339654E+02  0.63960109714E+03  0.66374081300E+03  0.17025904625E+03 0.  0.
        -24    2    5    5    0    0 -0.52236842570E+02  0.53303965327E+02  0.25847702154E+03  0.28118408860E+03  0.81756471167E+02 0.  0.
          2    1    4    4  502    0 -0.24573405194E+02 -0.61570402060E+02  0.34578920925E+03  0.35208655738E+03  0.00000000000E+00 0. -1.
         -1    1    4    4    0  502 -0.13820829991E+02 -0.90573998888E+01  0.65176737787E+03  0.65197681453E+03  0.00000000000E+00 0.  1.
          5    1    3    3  503    0  0.58875987266E+02  0.25299462295E+02  0.39556239862E+03  0.40074698486E+03  0.47000000000E+01 0. -1.
         11    1    6    6    0    0 -0.66478560238E+02  0.13505192294E+02  0.14480328314E+03  0.15990553461E+03  0.00000000000E+00 0. -1.
        -12    1    6    6    0    0  0.14241717668E+02  0.39798773033E+02  0.11367373840E+03  0.12127855399E+03  0.00000000000E+00 0.  1.
         -5    1    5    5    0  501  0.31755090488E+02 -0.79756256726E+01  0.38112407560E+03  0.38255672439E+03  0.47000000000E+01 0.  1.
<mgrwt>
<rscale>  2 0.17911138E+03</rscale>
<asrwt>0</asrwt>
<pdfrwt beam="1">  1        1 0.31548222E+00 0.17911138E+03</pdfrwt>
<pdfrwt beam="2">  1       -1 0.27562391E-02 0.17911138E+03</pdfrwt>
<totfact> 0.13459912E+03</totfact>
</mgrwt>
</event>
<event>
12    1  0.1093377E-001  0.3187910E+03  0.7546771E-02  0.1076207E+00
         -2   -1    0    0    0  501 -0.00000000000E+00  0.00000000000E+00  0.59196721120E+02  0.59196721120E+02  0.00000000000E+00 0.  1.
          2   -1    0    0  503    0  0.00000000000E+00 -0.00000000000E+00 -0.17176421058E+04  0.17176421058E+04  0.00000000000E+00 0. -1.
          6    2    1    2  503    0  0.22758476373E+03 -0.14421308683E+03 -0.85171226935E+03  0.90979790656E+03  0.17241288213E+03 0.  0.
         24    2    3    3    0    0  0.16069791270E+03 -0.13416799610E+03 -0.77816503529E+03  0.80976770949E+03  0.79737386809E+02 0.  0.
         -6    2    1    2    0  501 -0.22758476373E+03  0.14421308683E+03 -0.80673311529E+03  0.86704092032E+03  0.16837279802E+03 0.  0.
        -24    2    5    5    0    0 -0.86933938587E+02  0.12796745092E+03 -0.49104237461E+03  0.52102168812E+03  0.80048783014E+02 0.  0.
          2    1    4    4  502    0  0.11696572399E+03 -0.97098374507E+02 -0.67337176178E+03  0.69031775617E+03  0.00000000000E+00 0. -1.
         -1    1    4    4    0  502  0.43732188711E+02 -0.37069621593E+02 -0.10479327351E+03  0.11944995332E+03  0.00000000000E+00 0.  1.
          5    1    3    3  503    0  0.66886851030E+02 -0.10045090729E+02 -0.73547234060E+02  0.10003019707E+03  0.47000000000E+01 0. -1.
         13    1    6    6    0    0 -0.10589889231E+02  0.33426457185E+02 -0.23505954200E+03  0.23766039232E+03  0.00000000000E+00 0. -1.
        -14    1    6    6    0    0 -0.76344049355E+02  0.94540993733E+02 -0.25598283261E+03  0.28336129580E+03  0.00000000000E+00 0.  1.
         -5    1    5    5    0  501 -0.14065082514E+03  0.16245635910E+02 -0.31569074068E+03  0.34601923220E+03  0.47000000000E+01 0.  1.
<mgrwt>
<rscale>  2 0.31879101E+03</rscale>
<asrwt>0</asrwt>
<pdfrwt beam="2">  1        2 0.26425265E+00 0.31879101E+03</pdfrwt>
<pdfrwt beam="1">  1       -2 0.91071872E-02 0.31879101E+03</pdfrwt>
<totfact> 0.80260338E+02</totfact>
</mgrwt>
</event>
<event>
12    1  0.1093377E-001  0.2644768E+03  0.7546771E-02  0.1104483E+00
          2   -1    0    0  503    0  0.00000000000E+00  0.00000000000E+00  0.25835190636E+04  0.25835190636E+04  0.00000000000E+00 0. -1.
         -2   -1    0    0    0  501 -0.00000000000E+00 -0.00000000000E+00 -0.29823402552E+02  0.29823402552E+02  0.00000000000E+00 0.  1.
          6    2    1    2  503    0  0.18739325452E+03 -0.60104570177E+02  0.88859910641E+03  0.92766864877E+03  0.17953261205E+03 0.  0.
         24    2    3    3    0    0  0.15411089188E+02 -0.70202416946E+01  0.20927432002E+03  0.22488840820E+03  0.80574621684E+02 0.  0.
         -6    2    1    2    0  501 -0.18739325452E+03  0.60104570177E+02  0.16650965547E+04  0.16856738174E+04  0.17384156916E+03 0.  0.
        -24    2    5    5    0    0 -0.11443588694E+03  0.83488676792E+02  0.14072627406E+04  0.14166571644E+04  0.80393836737E+02 0.  0.
          4    1    4    4  502    0 -0.22301630979E+02 -0.53206481730E+01  0.16551540001E+03  0.16709583981E+03  0.00000000000E+00 0. -1.
         -3    1    4    4    0  502  0.37712720167E+02 -0.16995935215E+01  0.43758920005E+02  0.57792568385E+02  0.00000000000E+00 0.  1.
          5    1    3    3  503    0  0.17198216533E+03 -0.53084328482E+02  0.67932478639E+03  0.70278024057E+03  0.47000000000E+01 0. -1.
         13    1    6    6    0    0 -0.49804763025E+01  0.38333751615E+02  0.20783041181E+03  0.21139480062E+03  0.00000000000E+00 0. -1.
        -14    1    6    6    0    0 -0.10945541064E+03  0.45154925177E+02  0.11994323288E+04  0.12052623638E+04  0.00000000000E+00 0.  1.
         -5    1    5    5    0  501 -0.72957367577E+02 -0.23384106615E+02  0.25783381407E+03  0.26901665302E+03  0.47000000000E+01 0.  1.
<mgrwt>
<rscale>  2 0.26447682E+03</rscale>
<asrwt>0</asrwt>
<pdfrwt beam="1">  1        2 0.39746430E+00 0.26447682E+03</pdfrwt>
<pdfrwt beam="2">  1       -2 0.45882178E-02 0.26447682E+03</pdfrwt>
<totfact> 0.80611866E+02</totfact>
</mgrwt>
</event>
<event>
12    1  0.1093377E-001  0.2284423E+03  0.7546771E-02  0.1127741E+00
         -2   -1    0    0    0  501 -0.00000000000E+00  0.00000000000E+00  0.66577149311E+02  0.66577149311E+02  0.00000000000E+00 0.  1.
          2   -1    0    0  503    0  0.00000000000E+00 -0.00000000000E+00 -0.79356991472E+03  0.79356991472E+03  0.00000000000E+00 0. -1.
          6    2    1    2  503    0  0.13370161365E+03 -0.55971973967E+02 -0.31865610365E+03  0.39307744881E+03  0.17877132043E+03 0.  0.
         24    2    3    3    0    0  0.31654605521E+02  0.31028991540E+02 -0.16797294434E+03  0.19130960111E+03  0.80122662703E+02 0.  0.
         -6    2    1    2    0  501 -0.13370161365E+03  0.55971973967E+02 -0.40833666175E+03  0.46706961521E+03  0.17437377315E+03 0.  0.
        -24    2    5    5    0    0 -0.11400114542E+03  0.15352579418E+02 -0.39420610770E+03  0.41953219606E+03  0.85888563428E+02 0.  0.
          2    1    4    4  502    0  0.38499492553E+02  0.16009745773E+02 -0.16966904668E+03  0.17471722379E+03  0.00000000000E+00 0. -1.
         -1    1    4    4    0  502 -0.68448870325E+01  0.15019245768E+02  0.16961023412E+01  0.16592377318E+02  0.00000000000E+00 0.  1.
          5    1    3    3  503    0  0.10204700813E+03 -0.87000965507E+02 -0.15068315932E+03  0.20176784771E+03  0.47000000000E+01 0. -1.
         11    1    6    6    0    0 -0.11101934486E+03  0.12310299992E+02 -0.23424195828E+03  0.25951133586E+03  0.00000000000E+00 0. -1.
        -12    1    6    6    0    0 -0.29818005547E+01  0.30422794257E+01 -0.15996414942E+03  0.16002086020E+03  0.00000000000E+00 0.  1.
         -5    1    5    5    0  501 -0.19700468232E+02  0.40619394549E+02 -0.14130554047E+02  0.47537419153E+02  0.47000000000E+01 0.  1.
<mgrwt>
<rscale>  2 0.22844235E+03</rscale>
<asrwt>0</asrwt>
<pdfrwt beam="2">  1        2 0.12208769E+00 0.22844235E+03</pdfrwt>
<pdfrwt beam="1">  1       -2 0.10242638E-01 0.22844235E+03</pdfrwt>
<totfact> 0.22797957E+03</totfact>
</mgrwt>
</event>
<event>
12    1  0.1093377E-001  0.2737855E+03  0.7546771E-02  0.1099132E+00
         -2   -1    0    0    0  501 -0.00000000000E+00  0.00000000000E+00  0.74021264558E+03  0.74021264558E+03  0.00000000000E+00 0. -1.
          2   -1    0    0  503    0  0.00000000000E+00 -0.00000000000E+00 -0.13919010470E+03  0.13919010470E+03  0.00000000000E+00 0.  1.
          6    2    1    2  503    0  0.17833837799E+03 -0.11577489614E+03  0.52957350068E+03  0.59590105459E+03  0.17158546150E+03 0.  0.
         24    2    3    3    0    0  0.98772605983E+02 -0.74759374799E+02  0.45735746836E+03  0.48079140951E+03  0.81483334381E+02 0.  0.
         -6    2    1    2    0  501 -0.17833837799E+03  0.11577489614E+03  0.71449040201E+02  0.28350169569E+03  0.17337774503E+03 0.  0.
        -24    2    5    5    0    0 -0.57211706286E+02  0.95829686778E+02  0.82754088911E+02  0.16013486019E+03  0.79614232471E+02 0.  0.
          2    1    4    4  502    0  0.10897937352E+03 -0.59523829684E+02  0.43203331922E+03  0.44952461453E+03  0.00000000000E+00 0. -1.
         -1    1    4    4    0  502 -0.10206767540E+02 -0.15235545116E+02  0.25324149137E+02  0.31266794977E+02  0.00000000000E+00 0.  1.
          5    1    3    3  503    0  0.79565772011E+02 -0.41015521343E+02  0.72216032327E+02  0.11510964509E+03  0.47000000000E+01 0. -1.
         11    1    6    6    0    0  0.14509040326E+00  0.65267348864E+02  0.16488784755E+02  0.67318109760E+02  0.00000000000E+00 0. -1.
        -12    1    6    6    0    0 -0.57356796689E+02  0.30562337914E+02  0.66265304155E+02  0.92816750428E+02  0.00000000000E+00 0.  1.
         -5    1    5    5    0  501 -0.12112667171E+03  0.19945209364E+02 -0.11305048710E+02  0.12336683550E+03  0.47000000000E+01 0.  1.
<mgrwt>
<rscale>  2 0.27378545E+03</rscale>
<asrwt>0</asrwt>
<pdfrwt beam="2">  1        2 0.21413863E-01 0.27378545E+03</pdfrwt>
<pdfrwt beam="1">  1       -2 0.11387887E+00 0.27378545E+03</pdfrwt>
<totfact> 0.16245143E+02</totfact>
</mgrwt>
</event>
<event>
12    1  0.1093377E-001  0.1811731E+03  0.7546771E-02  0.1166673E+00
         -1   -1    0    0    0  501 -0.00000000000E+00  0.00000000000E+00  0.31499681260E+03  0.31499681260E+03  0.00000000000E+00 0.  1.
          1   -1    0    0  503    0  0.00000000000E+00 -0.00000000000E+00 -0.10868255640E+03  0.10868255640E+03  0.00000000000E+00 0. -1.
          6    2    1    2  503    0  0.53217657857E+02  0.58026359431E+01  0.60232050411E+02  0.19106372018E+03  0.17323872425E+03 0.  0.
         24    2    3    3    0    0  0.62588755373E+02  0.25003482564E+02 -0.21148890422E+02  0.10679369283E+03  0.80094262103E+02 0.  0.
         -6    2    1    2    0  501 -0.53217657857E+02 -0.58026359431E+01  0.14608220578E+03  0.23261564882E+03  0.17292842316E+03 0.  0.
        -24    2    5    5    0    0 -0.58734589780E+02  0.21655049163E+01  0.17533346955E+03  0.20144427993E+03  0.79897001980E+02 0.  0.
          2    1    4    4  502    0 -0.97804139332E+01  0.18372844757E+02 -0.26764093309E+02  0.33904787447E+02  0.00000000000E+00 0. -1.
         -1    1    4    4    0  502  0.72369169306E+02  0.66306378072E+01  0.56152028871E+01  0.72888905378E+02  0.00000000000E+00 0.  1.
          5    1    3    3  503    0 -0.93710975160E+01 -0.19200846621E+02  0.81380940833E+02  0.84270027356E+02  0.47000000000E+01 0. -1.
         13    1    6    6    0    0 -0.52203683580E+02 -0.20829023269E+02  0.54573455011E+02  0.78341143607E+02  0.00000000000E+00 0. -1.
        -14    1    6    6    0    0 -0.65309061999E+01  0.22994528186E+02  0.12076001454E+03  0.12310313632E+03  0.00000000000E+00 0.  1.
         -5    1    5    5    0  501  0.55169319233E+01 -0.79681408594E+01 -0.29251263762E+02  0.31171368887E+02  0.47000000000E+01 0.  1.
<mgrwt>
<rscale>  2 0.18117310E+03</rscale>
<asrwt>0</asrwt>
<pdfrwt beam="2">  1        1 0.16720393E-01 0.18117310E+03</pdfrwt>
<pdfrwt beam="1">  1       -1 0.48461048E-01 0.18117310E+03</pdfrwt>
<totfact> 0.13907964E+03</totfact>
</mgrwt>
</event>
<event>
12    1  0.1093377E-001  0.1920855E+03  0.7546771E-02  0.1156594E+00
         -1   -1    0    0    0  501 -0.00000000000E+00  0.00000000000E+00  0.33303457029E+03  0.33303457029E+03  0.00000000000E+00 0.  1.
          1   -1    0    0  503    0  0.00000000000E+00 -0.00000000000E+00 -0.17459551896E+03  0.17459551896E+03  0.00000000000E+00 0. -1.
          6    2    1    2  503    0  0.48733572768E+02 -0.69650921130E+02  0.23262456808E+03  0.30160248847E+03  0.17211525048E+03 0.  0.
         24    2    3    3    0    0 -0.11486105992E+02 -0.14806895395E+02  0.19467433368E+03  0.21162145070E+03  0.80835434166E+02 0.  0.
         -6    2    1    2    0  501 -0.48733572768E+02  0.69650921130E+02 -0.74185516748E+02  0.20602760078E+03  0.17238813607E+03 0.  0.
        -24    2    5    5    0    0 -0.25909754961E+02  0.92945060831E+02 -0.10334991679E+03  0.16202537546E+03  0.79125958177E+02 0.  0.
          4    1    4    4  502    0 -0.42186968070E+02 -0.26296673204E+02  0.12828750490E+03  0.13758248148E+03  0.00000000000E+00 0. -1.
         -3    1    4    4    0  502  0.30700862079E+02  0.11489777810E+02  0.66386828781E+02  0.74038969212E+02  0.00000000000E+00 0.  1.
          5    1    3    3  503    0  0.60219678760E+02 -0.54844025735E+02  0.37950234396E+02  0.89981037777E+02  0.47000000000E+01 0. -1.
         11    1    6    6    0    0  0.11855268212E+02  0.79814053510E+02 -0.87472866588E+02  0.11900560034E+03  0.00000000000E+00 0. -1.
        -12    1    6    6    0    0 -0.37765023173E+02  0.13131007321E+02 -0.15877050198E+02  0.43019775122E+02  0.00000000000E+00 0.  1.
         -5    1    5    5    0  501 -0.22823817807E+02 -0.23294139702E+02  0.29164400039E+02  0.44002225323E+02  0.47000000000E+01 0.  1.
<mgrwt>
<rscale>  2 0.19208552E+03</rscale>
<asrwt>0</asrwt>
<pdfrwt beam="2">  1        1 0.26860849E-01 0.19208552E+03</pdfrwt>
<pdfrwt beam="1">  1       -1 0.51236088E-01 0.19208552E+03</pdfrwt>
<totfact> 0.68544148E+02</totfact>
</mgrwt>
</event>
<event>
12    1  0.1093377E-001  0.2607885E+03  0.7546771E-02  0.1106670E+00
         -4   -1    0    0    0  501 -0.00000000000E+00  0.00000000000E+00  0.24008654260E+03  0.24008654260E+03  0.00000000000E+00 0. -1.
          4   -1    0    0  503    0  0.00000000000E+00 -0.00000000000E+00 -0.32568755260E+03  0.32568755260E+03  0.00000000000E+00 0.  1.
          6    2    1    2  503    0 -0.13415603074E+03  0.14182594201E+03 -0.14488524730E+03  0.29833901756E+03  0.17292193644E+03 0.  0.
         24    2    3    3    0    0 -0.96564356539E+02  0.70481157983E+02 -0.16059856443E+03  0.21604557607E+03  0.81188197781E+02 0.  0.
         -6    2    1    2    0  501  0.13415603074E+03 -0.14182594201E+03  0.59284237304E+02  0.26743507764E+03  0.17290014907E+03 0.  0.
        -24    2    5    5    0    0  0.39437087885E+02 -0.13964098265E+03  0.37148048625E+02  0.17002587359E+03  0.80460749676E+02 0.  0.
          2    1    4    4  502    0 -0.64419911716E+02  0.52774780825E+02 -0.44783253110E+02  0.94554969598E+02  0.00000000000E+00 0. -1.
         -1    1    4    4    0  502 -0.32144444823E+02  0.17706377157E+02 -0.11581531132E+03  0.12149060647E+03  0.00000000000E+00 0.  1.
          5    1    3    3  503    0 -0.37591674199E+02  0.71344784026E+02  0.15713317129E+02  0.82293441489E+02  0.47000000000E+01 0. -1.
         13    1    6    6    0    0 -0.23889461285E+02 -0.27125388160E+02  0.19324287966E+01  0.36197062372E+02  0.00000000000E+00 0. -1.
        -14    1    6    6    0    0  0.63326549170E+02 -0.11251559449E+03  0.35215619828E+02  0.13382881122E+03  0.00000000000E+00 0.  1.
         -5    1    5    5    0  501  0.94718942854E+02 -0.21849593576E+01  0.22136188680E+02  0.97409204042E+02  0.47000000000E+01 0.  1.
<mgrwt>
<rscale>  2 0.26078855E+03</rscale>
<asrwt>0</asrwt>
<pdfrwt beam="2">  1        4 0.50105777E-01 0.26078855E+03</pdfrwt>
<pdfrwt beam="1">  1       -4 0.36936391E-01 0.26078855E+03</pdfrwt>
<totfact> 0.50303743E+01</totfact>
</mgrwt>
</event>
<event>
12    1  0.1093377E-001  0.1878451E+03  0.7546771E-02  0.1160419E+00
          1   -1    0    0  503    0  0.00000000000E+00  0.00000000000E+00  0.28725776554E+03  0.28725776554E+03  0.00000000000E+00 0. -1.
         -1   -1    0    0    0  501 -0.00000000000E+00 -0.00000000000E+00 -0.12364434706E+03  0.12364434706E+03  0.00000000000E+00 0.  1.
          6    2    1    2  503    0 -0.77119324206E+02 -0.82454093869E+00  0.98194462600E+02  0.21153568668E+03  0.17075457305E+03 0.  0.
         24    2    3    3    0    0 -0.52737244611E+02 -0.51598533390E+02  0.10933879312E+03  0.15392691810E+03  0.79340398394E+02 0.  0.
         -6    2    1    2    0  501  0.77119324206E+02  0.82454093869E+00  0.65418955880E+02  0.19936642593E+03  0.17181170497E+03 0.  0.
        -24    2    5    5    0    0  0.68562384890E+01  0.42631237862E+02  0.72533101114E+02  0.11716300639E+03  0.81250777599E+02 0.  0.
          2    1    4    4  502    0 -0.52247283287E+02 -0.23103866729E+01  0.82833681959E+02  0.97961907721E+02  0.00000000000E+00 0. -1.
         -1    1    4    4    0  502 -0.48996132464E+00 -0.49288146717E+02  0.26505111157E+02  0.55965010375E+02  0.00000000000E+00 0.  1.
          5    1    3    3  503    0 -0.24382079595E+02  0.50773992451E+02 -0.11144330517E+02  0.57608768581E+02  0.47000000000E+01 0. -1.
         13    1    6    6    0    0 -0.55314125878E+01 -0.17105508185E+02  0.48267370550E+02  0.51506640303E+02  0.00000000000E+00 0. -1.
        -14    1    6    6    0    0  0.12387651077E+02  0.59736746047E+02  0.24265730564E+02  0.65656366083E+02  0.00000000000E+00 0.  1.
         -5    1    5    5    0  501  0.70263085717E+02 -0.41806696923E+02 -0.71141452331E+01  0.82203419543E+02  0.47000000000E+01 0.  1.
<mgrwt>
<rscale>  2 0.18784515E+03</rscale>
<asrwt>0</asrwt>
<pdfrwt beam="1">  1        1 0.44193502E-01 0.18784515E+03</pdfrwt>
<pdfrwt beam="2">  1       -1 0.19022207E-01 0.18784515E+03</pdfrwt>
<totfact> 0.20024521E+03</totfact>
</mgrwt>
</event>
<event>
12    1  0.1093377E-001  0.2086378E+03  0.7546771E-02  0.1142649E+00
         -2   -1    0    0    0  501 -0.00000000000E+00  0.00000000000E+00  0.33306620898E+02  0.33306620898E+02  0.00000000000E+00 0. -1.
          2   -1    0    0  503    0  0.00000000000E+00 -0.00000000000E+00 -0.13194753578E+04  0.13194753578E+04  0.00000000000E+00 0.  1.
          6    2    1    2  503    0  0.11192237186E+03 -0.26552493769E+02 -0.57276624431E+03  0.60907404710E+03  0.17227411871E+03 0.  0.
         24    2    3    3    0    0  0.10374614731E+03 -0.69210421124E+02 -0.51911744502E+03  0.53988710412E+03  0.80260936885E+02 0.  0.
         -6    2    1    2    0  501 -0.11192237186E+03  0.26552493769E+02 -0.71340249261E+03  0.74370793162E+03  0.17585994098E+03 0.  0.
        -24    2    5    5    0    0 -0.52008120456E+02 -0.50425286388E+02 -0.30838123363E+03  0.32707907234E+03  0.81450477016E+02 0.  0.
          2    1    4    4  502    0  0.47157752922E+02  0.11435060652E+02 -0.13969045425E+03  0.14787845442E+03  0.00000000000E+00 0. -1.
         -1    1    4    4    0  502  0.56588394390E+02 -0.80645481776E+02 -0.37942699078E+03  0.39200864970E+03  0.00000000000E+00 0.  1.
          5    1    3    3  503    0  0.81762245508E+01  0.42657927355E+02 -0.53648799287E+02  0.69186942981E+02  0.47000000000E+01 0. -1.
         13    1    6    6    0    0 -0.11343584341E+02 -0.20064452071E+02 -0.11255105939E+02  0.25650273923E+02  0.00000000000E+00 0. -1.
        -14    1    6    6    0    0 -0.40664536115E+02 -0.30360834317E+02 -0.29712612769E+03  0.30142879842E+03  0.00000000000E+00 0.  1.
         -5    1    5    5    0  501 -0.59914251406E+02  0.76977780157E+02 -0.40502125898E+03  0.41662885928E+03  0.47000000000E+01 0.  1.
<mgrwt>
<rscale>  2 0.20863778E+03</rscale>
<asrwt>0</asrwt>
<pdfrwt beam="2">  1        2 0.20299618E+00 0.20863778E+03</pdfrwt>
<pdfrwt beam="1">  1       -2 0.51240962E-02 0.20863778E+03</pdfrwt>
<totfact> 0.32176863E+03</totfact>
</mgrwt>
</event>
<event>
12    1  0.1093377E-001  0.2665665E+03  0.7546771E-02  0.1103261E+00
         -2   -1    0    0    0  501 -0.00000000000E+00  0.00000000000E+00  0.60375641509E+02  0.60375641509E+02  0.00000000000E+00 0.  1.
          2   -1    0    0  503    0  0.00000000000E+00 -0.00000000000E+00 -0.15582047549E+04  0.15582047549E+04  0.00000000000E+00 0. -1.
          6    2    1    2  503    0  0.20101267442E+03  0.26759273979E+02 -0.34817789588E+03  0.43838582188E+03  0.17271979511E+03 0.  0.
         24    2    3    3    0    0  0.19631366837E+03  0.29049471255E+02 -0.20854920568E+03  0.29858028984E+03  0.79211679184E+02 0.  0.
         -6    2    1    2    0  501 -0.20101267442E+03 -0.26759273979E+02 -0.11496512175E+04  0.11801945745E+04  0.17331808277E+03 0.  0.
        -24    2    5    5    0    0 -0.55902773076E+02  0.27043903860E+02 -0.30944951185E+03  0.32584531246E+03  0.80991817450E+02 0.  0.
          4    1    4    4  502    0  0.70289624647E+02  0.31128841986E+02 -0.35965659717E+02  0.84871460546E+02  0.00000000000E+00 0. -1.
         -3    1    4    4    0  502  0.12602404373E+03 -0.20793707315E+01 -0.17258354596E+03  0.21370882929E+03  0.00000000000E+00 0.  1.
          5    1    3    3  503    0  0.46990060446E+01 -0.22901972759E+01 -0.13962869020E+03  0.13980553204E+03  0.47000000000E+01 0. -1.
         13    1    6    6    0    0 -0.42169877104E+02 -0.12444321232E+02 -0.24574335799E+03  0.24964566421E+03  0.00000000000E+00 0. -1.
        -14    1    6    6    0    0 -0.13732895972E+02  0.39488225093E+02 -0.63706153864E+02  0.76199648247E+02  0.00000000000E+00 0.  1.
         -5    1    5    5    0  501 -0.14510990134E+03 -0.53803177839E+02 -0.84020170562E+03  0.85434926203E+03  0.47000000000E+01 0.  1.
<mgrwt>
<rscale>  2 0.26656654E+03</rscale>
<asrwt>0</asrwt>
<pdfrwt beam="2">  1        2 0.23972377E+00 0.26656654E+03</pdfrwt>
<pdfrwt beam="1">  1       -2 0.92885617E-02 0.26656654E+03</pdfrwt>
<totfact> 0.95011885E+02</totfact>
</mgrwt>
</event>
<event>
12    1  0.1093377E-001  0.1780660E+03  0.7546771E-02  0.1169688E+00
         -1   -1    0    0    0  501 -0.00000000000E+00  0.00000000000E+00  0.33554823625E+03  0.33554823625E+03  0.00000000000E+00 0.  1.
          1   -1    0    0  503    0  0.00000000000E+00 -0.00000000000E+00 -0.10215626012E+03  0.10215626012E+03  0.00000000000E+00 0. -1.
          6    2    1    2  503    0 -0.39735843183E+02 -0.59543046424E+00  0.57052986175E+02  0.18743752202E+03  0.17406461346E+03 0.  0.
         24    2    3    3    0    0 -0.15378157535E+02  0.60487390603E+02  0.65196952839E+02  0.12100844652E+03  0.80605144485E+02 0.  0.
         -6    2    1    2    0  501  0.39735843183E+02  0.59543046424E+00  0.17633898996E+03  0.25026697434E+03  0.17308618459E+03 0.  0.
        -24    2    5    5    0    0  0.92056962858E+02  0.73276891806E+00  0.99173114802E+02  0.15691719815E+03  0.79452369475E+02 0.  0.
          2    1    4    4  502    0 -0.31877576208E+01  0.58773620265E+02  0.44514020948E+01  0.59028088384E+02  0.00000000000E+00 0. -1.
         -1    1    4    4    0  502 -0.12190399914E+02  0.17137703379E+01  0.60745550744E+02  0.61980358131E+02  0.00000000000E+00 0.  1.
          5    1    3    3  503    0 -0.24357685649E+02 -0.61082821067E+02 -0.81439666644E+01  0.66429075507E+02  0.47000000000E+01 0. -1.
         13    1    6    6    0    0  0.55202675047E+02  0.17439047122E+02  0.96721410723E+01  0.58694173559E+02  0.00000000000E+00 0. -1.
        -14    1    6    6    0    0  0.36854287811E+02 -0.16706278204E+02  0.89500973729E+02  0.98223024592E+02  0.00000000000E+00 0.  1.
         -5    1    5    5    0  501 -0.52321119675E+02 -0.13733845382E+00  0.77165875154E+02  0.93349776187E+02  0.47000000000E+01 0.  1.
<mgrwt>
<rscale>  2 0.17806599E+03</rscale>
<asrwt>0</asrwt>
<pdfrwt beam="2">  1        1 0.15716348E-01 0.17806599E+03</pdfrwt>
<pdfrwt beam="1">  1       -1 0.51622805E-01 0.17806599E+03</pdfrwt>
<totfact> 0.13413255E+03</totfact>
</mgrwt>
</event>
<event>
12    1  0.1093377E-001  0.2538220E+03  0.7546771E-02  0.1110913E+00
         -2   -1    0    0    0  501 -0.00000000000E+00  0.00000000000E+00  0.48349761637E+02  0.48349761637E+02  0.00000000000E+00 0.  1.
          2   -1    0    0  503    0  0.00000000000E+00 -0.00000000000E+00 -0.15445723725E+04  0.15445723725E+04  0.00000000000E+00 0. -1.
          6    2    1    2  503    0 -0.11230999117E+03 -0.14863081653E+03 -0.10438857564E+04  0.10743613734E+04  0.17277220397E+03 0.  0.
         24    2    3    3    0    0 -0.34164651953E+02 -0.50449610604E+02 -0.71079843758E+03  0.71839017343E+03  0.84484529714E+02 0.  0.
         -6    2    1    2    0  501  0.11230999117E+03  0.14863081653E+03 -0.45233685442E+03  0.51856076071E+03  0.17202319304E+03 0.  0.
        -24    2    5    5    0    0  0.16094265785E+02  0.53363899300E+02 -0.96680581139E+02  0.13797341718E+03  0.81134443610E+02 0.  0.
          2    1    4    4  502    0 -0.58320239220E+01 -0.66660273107E+02 -0.56691627775E+03  0.57085170622E+03  0.00000000000E+00 0. -1.
         -1    1    4    4    0  502 -0.28332628031E+02  0.16210662503E+02 -0.14388215983E+03  0.14753846721E+03  0.00000000000E+00 0.  1.
          5    1    3    3  503    0 -0.78145339221E+02 -0.98181205923E+02 -0.33308731883E+03  0.35597119996E+03  0.47000000000E+01 0. -1.
         11    1    6    6    0    0  0.25552544864E+01  0.75766031168E+01 -0.89302414700E+02  0.89659664909E+02  0.00000000000E+00 0. -1.
        -12    1    6    6    0    0  0.13539011299E+02  0.45787296184E+02 -0.73781664389E+01  0.48313752274E+02  0.00000000000E+00 0.  1.
         -5    1    5    5    0  501  0.96215725389E+02  0.95266917226E+02 -0.35565627328E+03  0.38058734353E+03  0.47000000000E+01 0.  1.
<mgrwt>
<rscale>  2 0.25382205E+03</rscale>
<asrwt>0</asrwt>
<pdfrwt beam="2">  1        2 0.23762648E+00 0.25382205E+03</pdfrwt>
<pdfrwt beam="1">  1       -2 0.74384260E-02 0.25382205E+03</pdfrwt>
<totfact> 0.13713201E+03</totfact>
</mgrwt>
</event>
<event>
12    1  0.1093377E-001  0.1796953E+03  0.7546771E-02  0.1168098E+00
         -4   -1    0    0    0  501 -0.00000000000E+00  0.00000000000E+00  0.56353844452E+03  0.56353844452E+03  0.00000000000E+00 0. -1.
          4   -1    0    0  503    0  0.00000000000E+00 -0.00000000000E+00 -0.57452147567E+02  0.57452147567E+02  0.00000000000E+00 0.  1.
          6    2    1    2  503    0  0.19300296108E+02 -0.42097467407E+02  0.23783310720E+03  0.29841834377E+03  0.17419593229E+03 0.  0.
         24    2    3    3    0    0  0.55581914283E+02 -0.50622289571E+02  0.80602122709E+02  0.13676222451E+03  0.80964427194E+02 0.  0.
         -6    2    1    2    0  501 -0.19300296108E+02  0.42097467407E+02  0.26825318975E+03  0.32257224831E+03  0.17305601226E+03 0.  0.
        -24    2    5    5    0    0  0.52691855880E+02  0.21841650567E+01  0.65280662028E+02  0.10349263114E+03  0.60563665774E+02 0.  0.
          2    1    4    4  502    0  0.57500519822E+02 -0.21548011389E+02  0.87426296835E+02  0.10683624831E+03  0.00000000000E+00 0. -1.
         -1    1    4    4    0  502 -0.19186055396E+01 -0.29074278182E+02 -0.68241741255E+01  0.29925976200E+02  0.00000000000E+00 0.  1.
          5    1    3    3  503    0 -0.36281618174E+02  0.85248221645E+01  0.15723098449E+03  0.16165611926E+03  0.47000000000E+01 0. -1.
         13    1    6    6    0    0  0.38833038198E+02  0.17680001702E+02  0.70180974972E+02  0.82133772371E+02  0.00000000000E+00 0. -1.
        -14    1    6    6    0    0  0.13858817682E+02 -0.15495836645E+02 -0.49003129438E+01  0.21358858767E+02  0.00000000000E+00 0.  1.
         -5    1    5    5    0  501 -0.71992151988E+02  0.39913302350E+02  0.20297252772E+03  0.21907961718E+03  0.47000000000E+01 0.  1.
<mgrwt>
<rscale>  2 0.17969528E+03</rscale>
<asrwt>0</asrwt>
<pdfrwt beam="2">  1        4 0.88387923E-02 0.17969528E+03</pdfrwt>
<pdfrwt beam="1">  1       -4 0.86698218E-01 0.17969528E+03</pdfrwt>
<totfact> 0.19406959E+02</totfact>
</mgrwt>
</event>
<event>
12    1  0.1093377E-001  0.1781128E+03  0.7546771E-02  0.1169642E+00
          2   -1    0    0  503    0  0.00000000000E+00  0.00000000000E+00  0.53537992640E+03  0.53537992640E+03  0.00000000000E+00 0. -1.
         -2   -1    0    0    0  501 -0.00000000000E+00 -0.00000000000E+00 -0.94929863060E+02  0.94929863060E+02  0.00000000000E+00 0.  1.
          6    2    1    2  503    0  0.27639693201E+02 -0.10330849629E+02  0.26800645416E+02  0.17982646633E+03  0.17535279953E+03 0.  0.
         24    2    3    3    0    0 -0.19260183235E+02 -0.86534663665E+01 -0.38287671709E+02  0.99446176141E+02  0.89318301628E+02 0.  0.
         -6    2    1    2    0  501 -0.27639693201E+02  0.10330849629E+02  0.41364941792E+03  0.45048332313E+03  0.17595085785E+03 0.  0.
        -24    2    5    5    0    0 -0.26666661233E+02  0.73777703472E+02  0.29397938940E+03  0.31494935772E+03  0.81332380911E+02 0.  0.
          4    1    4    4  502    0 -0.24230271001E+02  0.26275997870E+02  0.12274476475E+02  0.37791492026E+02  0.00000000000E+00 0. -1.
         -3    1    4    4    0  502  0.49700877667E+01 -0.34929464236E+02 -0.50562148184E+02  0.61654684114E+02  0.00000000000E+00 0.  1.
          5    1    3    3  503    0  0.46899876436E+02 -0.16773832627E+01  0.65088317125E+02  0.80380290186E+02  0.47000000000E+01 0. -1.
         11    1    6    6    0    0  0.17118788039E+02  0.65662882998E+02  0.19318529476E+03  0.20475650226E+03  0.00000000000E+00 0. -1.
        -12    1    6    6    0    0 -0.43785449272E+02  0.81148204746E+01  0.10079409465E+03  0.11019285546E+03  0.00000000000E+00 0.  1.
         -5    1    5    5    0  501 -0.97303196844E+00 -0.63446853843E+02  0.11967002852E+03  0.13553396541E+03  0.47000000000E+01 0.  1.
<mgrwt>
<rscale>  2 0.17811277E+03</rscale>
<asrwt>0</asrwt>
<pdfrwt beam="1">  1        2 0.82366141E-01 0.17811277E+03</pdfrwt>
<pdfrwt beam="2">  1       -2 0.14604595E-01 0.17811277E+03</pdfrwt>
<totfact> 0.20390538E+03</totfact>
</mgrwt>
</event>
<event>
12    1  0.1093377E-001  0.1743242E+03  0.7546771E-02  0.1173412E+00
          2   -1    0    0  503    0  0.00000000000E+00  0.00000000000E+00  0.17465264159E+04  0.17465264159E+04  0.00000000000E+00 0.  1.
         -2   -1    0    0    0  501 -0.00000000000E+00 -0.00000000000E+00 -0.19686341030E+02  0.19686341030E+02  0.00000000000E+00 0. -1.
          6    2    1    2  503    0  0.20254074488E+02 -0.33532214028E+00  0.56381398500E+03  0.59024090232E+03  0.17345827485E+03 0.  0.
         24    2    3    3    0    0 -0.34046877059E+01 -0.53317050917E+02  0.47050582102E+03  0.48026224949E+03  0.80136139509E+02 0.  0.
         -6    2    1    2    0  501 -0.20254074488E+02  0.33532214028E+00  0.11630260899E+04  0.11759718546E+04  0.17282875092E+03 0.  0.
        -24    2    5    5    0    0  0.50555407715E+02 -0.25383777735E+02  0.66457569176E+03  0.67183859420E+03  0.80660158491E+02 0.  0.
          4    1    4    4  502    0 -0.25861972375E+02 -0.60436822410E+02  0.24988883413E+03  0.25839094516E+03  0.00000000000E+00 0. -1.
         -3    1    4    4    0  502  0.22457284669E+02  0.71197714927E+01  0.22061698689E+03  0.22187130433E+03  0.00000000000E+00 0.  1.
          5    1    3    3  503    0  0.23658762194E+02  0.52981728777E+02  0.93308163981E+02  0.10997865283E+03  0.47000000000E+01 0. -1.
         11    1    6    6    0    0 -0.15430896862E+02 -0.13365552393E+02  0.56498935649E+02  0.60073956905E+02  0.00000000000E+00 0. -1.
        -12    1    6    6    0    0  0.65986304577E+02 -0.12018225341E+02  0.60807675611E+03  0.61176463730E+03  0.00000000000E+00 0.  1.
         -5    1    5    5    0  501 -0.70809482202E+02  0.25719099875E+02  0.49845039811E+03  0.50413326040E+03  0.47000000000E+01 0.  1.
<mgrwt>
<rscale>  2 0.17432418E+03</rscale>
<asrwt>0</asrwt>
<pdfrwt beam="1">  1        2 0.26869625E+00 0.17432418E+03</pdfrwt>
<pdfrwt beam="2">  1       -2 0.30286692E-02 0.17432418E+03</pdfrwt>
<totfact> 0.41991382E+03</totfact>
</mgrwt>
</event>
<event>
12    1  0.1093377E-001  0.2151602E+03  0.7546771E-02  0.1137544E+00
         -2   -1    0    0    0  501 -0.00000000000E+00  0.00000000000E+00  0.51059589996E+03  0.51059589996E+03  0.00000000000E+00 0. -1.
          2   -1    0    0  503    0  0.00000000000E+00 -0.00000000000E+00 -0.96947727638E+02  0.96947727638E+02  0.00000000000E+00 0.  1.
          6    2    1    2  503    0  0.64938249356E+02  0.10821741624E+03  0.28359827739E+03  0.35561584085E+03  0.17351270247E+03 0.  0.
         24    2    3    3    0    0 -0.21067301120E+02  0.44378766846E+02  0.71975118841E+02  0.11838435242E+03  0.80131960180E+02 0.  0.
         -6    2    1    2    0  501 -0.64938249356E+02 -0.10821741624E+03  0.13004989493E+03  0.25192778674E+03  0.17500471181E+03 0.  0.
        -24    2    5    5    0    0 -0.89273539493E+02 -0.13227590898E+03  0.12181061327E+03  0.21641732095E+03  0.80820482251E+02 0.  0.
          2    1    4    4  502    0  0.15061521495E+02  0.14408963262E+02  0.68174194864E+02  0.71289469751E+02  0.00000000000E+00 0. -1.
         -1    1    4    4    0  502 -0.36128822615E+02  0.29969803584E+02  0.38009239768E+01  0.47094882668E+02  0.00000000000E+00 0.  1.
          5    1    3    3  503    0  0.86005550476E+02  0.63838649394E+02  0.21162315855E+03  0.23723148844E+03  0.47000000000E+01 0. -1.
         11    1    6    6    0    0 -0.59180993290E+02 -0.52538956310E+02  0.16323096336E+02  0.80803312871E+02  0.00000000000E+00 0. -1.
        -12    1    6    6    0    0 -0.30092546203E+02 -0.79736952668E+02  0.10548751693E+03  0.13561400808E+03  0.00000000000E+00 0.  1.
         -5    1    5    5    0  501  0.24335290137E+02  0.24058492738E+02  0.82392816594E+01  0.35510465797E+02  0.47000000000E+01 0.  1.
<mgrwt>
<rscale>  2 0.21516019E+03</rscale>
<asrwt>0</asrwt>
<pdfrwt beam="2">  1        2 0.14915035E-01 0.21516019E+03</pdfrwt>
<pdfrwt beam="1">  1       -2 0.78553214E-01 0.21516019E+03</pdfrwt>
<totfact> 0.58044117E+02</totfact>
</mgrwt>
</event>
<event>
12    1  0.1093377E-001  0.2702309E+03  0.7546771E-02  0.1101148E+00
          1   -1    0    0  503    0  0.00000000000E+00  0.00000000000E+00  0.14497905077E+03  0.14497905077E+03  0.00000000000E+00 0. -1.
         -1   -1    0    0    0  501 -0.00000000000E+00 -0.00000000000E+00 -0.58725608160E+03  0.58725608160E+03  0.00000000000E+00 0.  1.
          6    2    1    2  503    0 -0.13148484683E+03  0.16139322972E+03 -0.36123509211E+03  0.45288696015E+03  0.17686087004E+03 0.  0.
         24    2    3    3    0    0 -0.64005612184E+02  0.17535597158E+03 -0.28715116819E+03  0.35160061826E+03  0.79503246538E+02 0.  0.
         -6    2    1    2    0  501  0.13148484683E+03 -0.16139322972E+03 -0.81041938721E+02  0.27934817222E+03  0.16772467303E+03 0.  0.
        -24    2    5    5    0    0  0.80035512822E+01 -0.27768679000E+02 -0.35732597316E+02  0.91789708463E+02  0.79456753661E+02 0.  0.
          4    1    4    4  502    0  0.30796943538E+01  0.10306206544E+03 -0.12792911191E+03  0.16430803853E+03  0.00000000000E+00 0. -1.
         -3    1    4    4    0  502 -0.67085306538E+02  0.72293906136E+02 -0.15922205628E+03  0.18729257974E+03  0.00000000000E+00 0.  1.
          5    1    3    3  503    0 -0.67479234650E+02 -0.13962741855E+02 -0.74083923915E+02  0.10128634188E+03  0.47000000000E+01 0. -1.
         11    1    6    6    0    0  0.38507265933E+02  0.12527171339E+01 -0.33493967799E+01  0.38672952934E+02  0.00000000000E+00 0. -1.
        -12    1    6    6    0    0 -0.30503714650E+02 -0.29021396134E+02 -0.32383200536E+02  0.53116755530E+02  0.00000000000E+00 0.  1.
         -5    1    5    5    0  501  0.12348129555E+03 -0.13362455072E+03 -0.45309341404E+02  0.18755846375E+03  0.47000000000E+01 0.  1.
<mgrwt>
<rscale>  2 0.27023091E+03</rscale>
<asrwt>0</asrwt>
<pdfrwt beam="1">  1        1 0.22304470E-01 0.27023091E+03</pdfrwt>
<pdfrwt beam="2">  1       -1 0.90347088E-01 0.27023091E+03</pdfrwt>
<totfact> 0.28056003E+02</totfact>
</mgrwt>
</event>
<event>
12    1  0.1093377E-001  0.2537376E+03  0.7546771E-02  0.1110965E+00
         -2   -1    0    0    0  501 -0.00000000000E+00  0.00000000000E+00  0.11465942984E+03  0.11465942984E+03  0.00000000000E+00 0. -1.
          2   -1    0    0  503    0  0.00000000000E+00 -0.00000000000E+00 -0.62402483526E+03  0.62402483526E+03  0.00000000000E+00 0.  1.
          6    2    1    2  503    0 -0.18540572446E+03 -0.15920867291E+02 -0.13766632542E+03  0.28856285005E+03  0.17230131919E+03 0.  0.
         24    2    3    3    0    0 -0.53482160512E+02  0.26987915116E+02 -0.10582571323E+03  0.14615180793E+03  0.81071451974E+02 0.  0.
         -6    2    1    2    0  501  0.18540572446E+03  0.15920867291E+02 -0.37169908000E+03  0.45012141505E+03  0.17268562632E+03 0.  0.
        -24    2    5    5    0    0  0.15530336197E+03  0.68920887331E+02 -0.24063502407E+03  0.30550111527E+03  0.80972178399E+02 0.  0.
          4    1    4    4  502    0 -0.31464485178E+02 -0.14173439372E+02 -0.90762205557E+02  0.97101380880E+02  0.00000000000E+00 0. -1.
         -3    1    4    4    0  502 -0.22017675334E+02  0.41161354488E+02 -0.15063507673E+02  0.49050427051E+02  0.00000000000E+00 0.  1.
          5    1    3    3  503    0 -0.13192356395E+03 -0.42908782408E+02 -0.31840612192E+02  0.14241104212E+03  0.47000000000E+01 0. -1.
         13    1    6    6    0    0 -0.41378788227E+01  0.20080266771E+02 -0.37007196537E+02  0.42306875922E+02  0.00000000000E+00 0. -1.
        -14    1    6    6    0    0  0.15944124079E+03  0.48840620559E+02 -0.20362782753E+03  0.26319423935E+03  0.00000000000E+00 0.  1.
         -5    1    5    5    0  501  0.30102362492E+02 -0.53000020039E+02 -0.13106405593E+03  0.14462029978E+03  0.47000000000E+01 0.  1.
<mgrwt>
<rscale>  2 0.25373758E+03</rscale>
<asrwt>0</asrwt>
<pdfrwt beam="2">  1        2 0.96003821E-01 0.25373758E+03</pdfrwt>
<pdfrwt beam="1">  1       -2 0.17639912E-01 0.25373758E+03</pdfrwt>
<totfact> 0.12558979E+03</totfact>
</mgrwt>
</event>
<event>
12    1  0.1093377E-001  0.2118473E+03  0.7546771E-02  0.1140111E+00
          2   -1    0    0  503    0  0.00000000000E+00  0.00000000000E+00  0.64417081757E+02  0.64417081757E+02  0.00000000000E+00 0.  1.
         -2   -1    0    0    0  501 -0.00000000000E+00 -0.00000000000E+00 -0.75727755470E+03  0.75727755470E+03  0.00000000000E+00 0. -1.
          6    2    1    2  503    0 -0.98612212501E+02 -0.71784985269E+02 -0.46226365887E+03  0.50839300899E+03  0.17291127411E+03 0.  0.
         24    2    3    3    0    0 -0.13125014673E+02 -0.44896901077E+02 -0.36542228405E+03  0.37636508793E+03  0.77001532395E+02 0.  0.
         -6    2    1    2    0  501  0.98612212501E+02  0.71784985269E+02 -0.23059681407E+03  0.31330162746E+03  0.17350955751E+03 0.  0.
        -24    2    5    5    0    0  0.12937984639E+03  0.27664772566E+02 -0.19279911547E+03  0.24739262592E+03  0.80790643910E+02 0.  0.
          2    1    4    4  502    0 -0.58592120598E+01  0.16041542495E+02 -0.18508946208E+03  0.18587568541E+03  0.00000000000E+00 0. -1.
         -1    1    4    4    0  502 -0.72658026134E+01 -0.60938443571E+02 -0.18033282197E+03  0.19048940252E+03  0.00000000000E+00 0.  1.
          5    1    3    3  503    0 -0.85487197828E+02 -0.26888084192E+02 -0.96841374816E+02  0.13202792106E+03  0.47000000000E+01 0. -1.
         13    1    6    6    0    0  0.47007477533E+02  0.59489797364E+01 -0.13847830259E+03  0.14636028694E+03  0.00000000000E+00 0. -1.
        -14    1    6    6    0    0  0.82372368859E+02  0.21715792830E+02 -0.54320812875E+02  0.10103233899E+03  0.00000000000E+00 0.  1.
         -5    1    5    5    0  501 -0.30767633891E+02  0.44120212703E+02 -0.37797698606E+02  0.65909001541E+02  0.47000000000E+01 0.  1.
<mgrwt>
<rscale>  2 0.21184728E+03</rscale>
<asrwt>0</asrwt>
<pdfrwt beam="1">  1        2 0.99103199E-02 0.21184728E+03</pdfrwt>
<pdfrwt beam="2">  1       -2 0.11650424E+00 0.21184728E+03</pdfrwt>
<totfact> 0.38562877E+02</totfact>
</mgrwt>
</event>
<event>
12    1  0.1093377E-001  0.2094460E+03  0.7546771E-02  0.1142005E+00
          1   -1    0    0  503    0  0.00000000000E+00  0.00000000000E+00  0.14251279316E+04  0.14251279316E+04  0.00000000000E+00 0. -1.
         -1   -1    0    0    0  501 -0.00000000000E+00 -0.00000000000E+00 -0.33246787319E+02  0.33246787319E+02  0.00000000000E+00 0.  1.
          6    2    1    2  503    0  0.11110946780E+03  0.40887425971E+02  0.89301868179E+03  0.91714204354E+03  0.17219194683E+03 0.  0.
         24    2    3    3    0    0  0.11627421588E+03 -0.21257091472E+02  0.69400754180E+03  0.70853681946E+03  0.80039985255E+02 0.  0.
         -6    2    1    2    0  501 -0.11110946780E+03 -0.40887425971E+02  0.49886246247E+03  0.54123267536E+03  0.17335500276E+03 0.  0.
        -24    2    5    5    0    0 -0.74994256543E+02 -0.30267407120E+02  0.12673456116E+03  0.16717605102E+03  0.73115857329E+02 0.  0.
          4    1    4    4  502    0  0.78567524740E+02 -0.48243650604E+02  0.37448856210E+03  0.38567082973E+03  0.00000000000E+00 0. -1.
         -3    1    4    4    0  502  0.37706691137E+02  0.26986559133E+02  0.31951897970E+03  0.32286598972E+03  0.00000000000E+00 0.  1.
          5    1    3    3  503    0 -0.51647480782E+01  0.62144517442E+02  0.19901113999E+03  0.20860522408E+03  0.47000000000E+01 0. -1.
         13    1    6    6    0    0 -0.66518465534E+02  0.10511930103E+02  0.76423979819E+02  0.10186182613E+03  0.00000000000E+00 0. -1.
        -14    1    6    6    0    0 -0.84757910094E+01 -0.40779337222E+02  0.50310581338E+02  0.65314224883E+02  0.00000000000E+00 0.  1.
         -5    1    5    5    0  501 -0.36115211255E+02 -0.10620018851E+02  0.37212790131E+03  0.37405662435E+03  0.47000000000E+01 0.  1.
<mgrwt>
<rscale>  2 0.20944605E+03</rscale>
<asrwt>0</asrwt>
<pdfrwt beam="1">  1        1 0.21925040E+00 0.20944605E+03</pdfrwt>
<pdfrwt beam="2">  1       -1 0.51148915E-02 0.20944605E+03</pdfrwt>
<totfact> 0.13688014E+03</totfact>
</mgrwt>
</event>
<event>
12    1  0.1093377E-001  0.2452972E+03  0.7546771E-02  0.1116313E+00
          1   -1    0    0  503    0  0.00000000000E+00  0.00000000000E+00  0.28977149101E+03  0.28977149101E+03  0.00000000000E+00 0.  1.
         -1   -1    0    0    0  501 -0.00000000000E+00 -0.00000000000E+00 -0.49150865769E+03  0.49150865769E+03  0.00000000000E+00 0. -1.
          6    2    1    2  503    0 -0.48591288011E+02 -0.16502569884E+03 -0.39769156145E+03  0.46712225593E+03  0.17449936786E+03 0.  0.
         24    2    3    3    0    0  0.29571163473E+01 -0.17823590993E+02 -0.19243031428E+03  0.20928515981E+03  0.80277190576E+02 0.  0.
         -6    2    1    2    0  501  0.48591288011E+02  0.16502569884E+03  0.19595439478E+03  0.31415789277E+03  0.17522118082E+03 0.  0.
        -24    2    5    5    0    0  0.26868905947E+02  0.25013737525E+02  0.23351912890E+02  0.90799620152E+02  0.79697139298E+02 0.  0.
          4    1    4    4  502    0  0.32147435548E+02 -0.20092034571E+02 -0.16453371489E+03  0.16884457587E+03  0.00000000000E+00 0. -1.
         -3    1    4    4    0  502 -0.29190319201E+02  0.22684435780E+01 -0.27896599395E+02  0.40440583936E+02  0.00000000000E+00 0.  1.
          5    1    3    3  503    0 -0.51548404358E+02 -0.14720210784E+03 -0.20526124717E+03  0.25783709612E+03  0.47000000000E+01 0. -1.
         11    1    6    6    0    0  0.52788902113E+02  0.20547631228E+02  0.16017699916E+01  0.56669559752E+02  0.00000000000E+00 0. -1.
        -12    1    6    6    0    0 -0.25919996167E+02  0.44661062974E+01  0.21750142899E+02  0.34130060399E+02  0.00000000000E+00 0.  1.
         -5    1    5    5    0  501  0.21722382064E+02  0.14001196131E+03  0.17260248189E+03  0.22335827262E+03  0.47000000000E+01 0.  1.
<mgrwt>
<rscale>  2 0.24529718E+03</rscale>
<asrwt>0</asrwt>
<pdfrwt beam="1">  1        1 0.44580229E-01 0.24529718E+03</pdfrwt>
<pdfrwt beam="2">  1       -1 0.75616716E-01 0.24529718E+03</pdfrwt>
<totfact> 0.16982302E+02</totfact>
</mgrwt>
</event>
<event>
12    1  0.1093377E-001  0.2086350E+03  0.7546771E-02  0.1142651E+00
         -1   -1    0    0    0  501 -0.00000000000E+00  0.00000000000E+00  0.10325126920E+03  0.10325126920E+03  0.00000000000E+00 0. -1.
          1   -1    0    0  503    0  0.00000000000E+00 -0.00000000000E+00 -0.72520108986E+03  0.72520108986E+03  0.00000000000E+00 0.  1.
          6    2    1    2  503    0 -0.29118983855E+02  0.10716789324E+03 -0.58086467536E+03  0.61794333666E+03  0.17921306783E+03 0.  0.
         24    2    3    3    0    0 -0.23920360268E+02  0.26743973307E+02 -0.48313669175E+03  0.49118418960E+03  0.80953205306E+02 0.  0.
         -6    2    1    2    0  501  0.29118983855E+02 -0.10716789324E+03 -0.41085145301E+02  0.21050902240E+03  0.17404938031E+03 0.  0.
        -24    2    5    5    0    0  0.79371025314E+02 -0.73711171962E+02  0.42452327940E+01  0.13486807418E+03  0.80238886460E+02 0.  0.
          4    1    4    4  502    0  0.80111184293E+01 -0.22915037346E+02 -0.75827505270E+02  0.79618386762E+02  0.00000000000E+00 0. -1.
         -3    1    4    4    0  502 -0.31931478697E+02  0.49659010653E+02 -0.40730918648E+03  0.41156580284E+03  0.00000000000E+00 0.  1.
          5    1    3    3  503    0 -0.51986235867E+01  0.80423919928E+02 -0.97727983605E+02  0.12675914706E+03  0.47000000000E+01 0. -1.
         11    1    6    6    0    0  0.40280367107E+01  0.16627924695E+02  0.18645255809E+01  0.17210154416E+02  0.00000000000E+00 0. -1.
        -12    1    6    6    0    0  0.75342988603E+02 -0.90339096657E+02  0.23807072131E+01  0.11765791976E+03  0.00000000000E+00 0.  1.
         -5    1    5    5    0  501 -0.50252041459E+02 -0.33456721273E+02 -0.45330378095E+02  0.75640948218E+02  0.47000000000E+01 0.  1.
<mgrwt>
<rscale>  2 0.20863502E+03</rscale>
<asrwt>0</asrwt>
<pdfrwt beam="2">  1        1 0.11156940E+00 0.20863502E+03</pdfrwt>
<pdfrwt beam="1">  1       -1 0.15884811E-01 0.20863502E+03</pdfrwt>
<totfact> 0.78805640E+02</totfact>
</mgrwt>
</event>
<event>
12    1  0.1093377E-001  0.1913318E+03  0.7546771E-02  0.1157266E+00
         -1   -1    0    0    0  501 -0.00000000000E+00  0.00000000000E+00  0.56751094348E+02  0.56751094348E+02  0.00000000000E+00 0. -1.
          1   -1    0    0  503    0  0.00000000000E+00 -0.00000000000E+00 -0.65050974747E+03  0.65050974747E+03  0.00000000000E+00 0.  1.
          6    2    1    2  503    0 -0.23690289693E+02 -0.80830020171E+02 -0.32785001264E+03  0.37915414950E+03  0.17081427429E+03 0.  0.
         24    2    3    3    0    0 -0.47815222054E+02  0.41939190483E+01 -0.11131678318E+03  0.14523148692E+03  0.79980461112E+02 0.  0.
         -6    2    1    2    0  501  0.23690289693E+02  0.80830020171E+02 -0.26590864047E+03  0.32810669232E+03  0.17277695008E+03 0.  0.
        -24    2    5    5    0    0  0.13839648785E+02 -0.17997082595E+02 -0.17477532303E+03  0.19323192479E+03  0.79225831379E+02 0.  0.
          2    1    4    4  502    0 -0.21819421435E+02 -0.25679981861E+02 -0.97710896085E+02  0.10335844346E+03  0.00000000000E+00 0. -1.
         -1    1    4    4    0  502 -0.25995800620E+02  0.29873900910E+02 -0.13605887091E+02  0.41873043464E+02  0.00000000000E+00 0.  1.
          5    1    3    3  503    0  0.24124932361E+02 -0.85023939219E+02 -0.21653322947E+03  0.23392266258E+03  0.47000000000E+01 0. -1.
         13    1    6    6    0    0  0.34265446847E+02 -0.10559416217E+02 -0.29761681000E+02  0.46598066209E+02  0.00000000000E+00 0. -1.
        -14    1    6    6    0    0 -0.20425798063E+02 -0.74376663785E+01 -0.14501364203E+03  0.14663385858E+03  0.00000000000E+00 0.  1.
         -5    1    5    5    0  501  0.98506409088E+01  0.98827102766E+02 -0.91133317441E+02  0.13487476753E+03  0.47000000000E+01 0.  1.
<mgrwt>
<rscale>  2 0.19133182E+03</rscale>
<asrwt>0</asrwt>
<pdfrwt beam="2">  1        1 0.10007842E+00 0.19133182E+03</pdfrwt>
<pdfrwt beam="1">  1       -1 0.87309377E-02 0.19133182E+03</pdfrwt>
<totfact> 0.23387214E+03</totfact>
</mgrwt>
</event>
<event>
12    1  0.1093377E-001  0.1790368E+03  0.7546771E-02  0.1168739E+00
         -2   -1    0    0    0  501 -0.00000000000E+00  0.00000000000E+00  0.35130212741E+03  0.35130212741E+03  0.00000000000E+00 0.  1.
          2   -1    0    0  503    0  0.00000000000E+00 -0.00000000000E+00 -0.94014804918E+02  0.94014804918E+02  0.00000000000E+00 0. -1.
          6    2    1    2  503    0 -0.14750762127E+02 -0.49160628655E+02  0.16649096637E+03  0.24409567154E+03  0.17096520870E+03 0.  0.
         24    2    3    3    0    0 -0.13267271362E+01  0.38265208904E+02  0.98665521708E+02  0.13253464460E+03  0.79778195186E+02 0.  0.
         -6    2    1    2    0  501  0.14750762127E+02  0.49160628655E+02  0.90796356123E+02  0.20122126079E+03  0.17208040306E+03 0.  0.
        -24    2    5    5    0    0  0.67686899583E+02 -0.59546493101E+01  0.53278066275E+02  0.11595907347E+03  0.77401422150E+02 0.  0.
          4    1    4    4  502    0 -0.18855005462E+02  0.47049908347E+02  0.25408308761E+02  0.56699094001E+02  0.00000000000E+00 0. -1.
         -3    1    4    4    0  502  0.17528278326E+02 -0.87846994434E+01  0.73257212947E+02  0.75835550596E+02  0.00000000000E+00 0.  1.
          5    1    3    3  503    0 -0.13424034991E+02 -0.87425837558E+02  0.67825444666E+02  0.11156102694E+03  0.47000000000E+01 0. -1.
         13    1    6    6    0    0  0.25323130068E+02  0.35304006818E+02  0.17471911896E+02  0.46828426400E+02  0.00000000000E+00 0. -1.
        -14    1    6    6    0    0  0.42363769516E+02 -0.41258656128E+02  0.35806154379E+02  0.69130647071E+02  0.00000000000E+00 0.  1.
         -5    1    5    5    0  501 -0.52936137456E+02  0.55115277965E+02  0.37518289848E+02  0.85262187323E+02  0.47000000000E+01 0.  1.
<mgrwt>
<rscale>  2 0.17903677E+03</rscale>
<asrwt>0</asrwt>
<pdfrwt beam="2">  1        2 0.14463816E-01 0.17903677E+03</pdfrwt>
<pdfrwt beam="1">  1       -2 0.54046480E-01 0.17903677E+03</pdfrwt>
<totfact> 0.13167072E+03</totfact>
</mgrwt>
</event>
<event>
12    1  0.1093377E-001  0.3672390E+03  0.7546771E-02  0.1055754E+00
         -1   -1    0    0    0  501 -0.00000000000E+00  0.00000000000E+00  0.21970465422E+03  0.21970465422E+03  0.00000000000E+00 0. -1.
          1   -1    0    0  503    0  0.00000000000E+00 -0.00000000000E+00 -0.75998704107E+03  0.75998704107E+03  0.00000000000E+00 0.  1.
          6    2    1    2  503    0 -0.42192387563E+02 -0.32034420896E+03 -0.55490371747E+02  0.37166417879E+03  0.17508418163E+03 0.  0.
         24    2    3    3    0    0 -0.60936603024E+02 -0.26286940109E+03 -0.97379119151E+02  0.29796576421E+03  0.80543852511E+02 0.  0.
         -6    2    1    2    0  501  0.42192387563E+02  0.32034420896E+03 -0.48479201510E+03  0.60802751649E+03  0.17399296862E+03 0.  0.
        -24    2    5    5    0    0 -0.45291436791E+02  0.16016378370E+03 -0.25021958442E+03  0.31077761592E+03  0.79177864785E+02 0.  0.
          2    1    4    4  502    0 -0.40514435135E+02 -0.24352843894E+03 -0.65428745009E+02  0.25539859181E+03  0.00000000000E+00 0. -1.
         -1    1    4    4    0  502 -0.20422167890E+02 -0.19340962153E+02 -0.31950374142E+02  0.42567172400E+02  0.00000000000E+00 0.  1.
          5    1    3    3  503    0  0.18744215461E+02 -0.57474807872E+02  0.41888747403E+02  0.73698414584E+02  0.47000000000E+01 0. -1.
         13    1    6    6    0    0  0.26427582483E+01  0.78078696149E+02 -0.16728347686E+03  0.18462672773E+03  0.00000000000E+00 0. -1.
        -14    1    6    6    0    0 -0.47934195039E+02  0.82085087553E+02 -0.82936107567E+02  0.12615088819E+03  0.00000000000E+00 0.  1.
         -5    1    5    5    0  501  0.87483824354E+02  0.16018042526E+03 -0.23457243067E+03  0.29724990057E+03  0.47000000000E+01 0.  1.
<mgrwt>
<rscale>  2 0.36723901E+03</rscale>
<asrwt>0</asrwt>
<pdfrwt beam="2">  1        1 0.11692108E+00 0.36723901E+03</pdfrwt>
<pdfrwt beam="1">  1       -1 0.33800716E-01 0.36723901E+03</pdfrwt>
<totfact> 0.20679527E+02</totfact>
</mgrwt>
</event>
<event>
12    1  0.1093377E-001  0.2042878E+03  0.7546771E-02  0.1146171E+00
         -2   -1    0    0    0  501 -0.00000000000E+00  0.00000000000E+00  0.76512859145E+02  0.76512859145E+02  0.00000000000E+00 0. -1.
          2   -1    0    0  503    0  0.00000000000E+00 -0.00000000000E+00 -0.55321194565E+03  0.55321194565E+03  0.00000000000E+00 0.  1.
          6    2    1    2  503    0 -0.10727949302E+03 -0.14544732245E+02 -0.20025543307E+03  0.28557384637E+03  0.17242315506E+03 0.  0.
         24    2    3    3    0    0  0.77995422265E+01 -0.14751751897E+02 -0.54746087986E+02  0.99998291096E+02  0.82000469690E+02 0.  0.
         -6    2    1    2    0  501  0.10727949302E+03  0.14544732245E+02 -0.27644365344E+03  0.34415095842E+03  0.17406421171E+03 0.  0.
        -24    2    5    5    0    0  0.11887404923E+03  0.54563295031E+02 -0.16516892289E+03  0.22523891211E+03  0.79646730589E+02 0.  0.
          2    1    4    4  502    0  0.15478789382E+02 -0.10050711796E+02  0.18540732310E+02  0.26160437362E+02  0.00000000000E+00 0. -1.
         -1    1    4    4    0  502 -0.76792471557E+01 -0.47010401011E+01 -0.73286820296E+02  0.73837853734E+02  0.00000000000E+00 0.  1.
          5    1    3    3  503    0 -0.11507903524E+03  0.20701965230E+00 -0.14550934508E+03  0.18557555527E+03  0.47000000000E+01 0. -1.
         13    1    6    6    0    0  0.49017875214E+02  0.64285133689E+02 -0.71051761145E+02  0.10762752095E+03  0.00000000000E+00 0. -1.
        -14    1    6    6    0    0  0.69856174012E+02 -0.97218386583E+01 -0.94117161747E+02  0.11761139116E+03  0.00000000000E+00 0.  1.
         -5    1    5    5    0  501 -0.11594556210E+02 -0.40018562786E+02 -0.11127473055E+03  0.11891204632E+03  0.47000000000E+01 0.  1.
<mgrwt>
<rscale>  2 0.20428783E+03</rscale>
<asrwt>0</asrwt>
<pdfrwt beam="2">  1        2 0.85109533E-01 0.20428783E+03</pdfrwt>
<pdfrwt beam="1">  1       -2 0.11771209E-01 0.20428783E+03</pdfrwt>
<totfact> 0.27992703E+03</totfact>
</mgrwt>
</event>
<event>
12    1  0.1093377E-001  0.1866652E+03  0.7546771E-02  0.1161504E+00
         -1   -1    0    0    0  501 -0.00000000000E+00  0.00000000000E+00  0.87232505550E+03  0.87232505550E+03  0.00000000000E+00 0.  1.
          1   -1    0    0  503    0  0.00000000000E+00 -0.00000000000E+00 -0.41126159857E+02  0.41126159857E+02  0.00000000000E+00 0. -1.
          6    2    1    2  503    0 -0.44111592248E+02 -0.48763759971E+02  0.49402638267E+03  0.52827779012E+03  0.17519023918E+03 0.  0.
         24    2    3    3    0    0 -0.86124219769E+02 -0.67301722473E+02  0.41722891809E+03  0.43867501399E+03  0.80055572739E+02 0.  0.
         -6    2    1    2    0  501  0.44111592248E+02  0.48763759971E+02  0.33717251298E+03  0.38517342524E+03  0.17421115678E+03 0.  0.
        -24    2    5    5    0    0  0.32002672520E+02  0.57157206387E+02  0.34991636583E+03  0.36513417213E+03  0.81181175734E+02 0.  0.
          4    1    4    4  502    0 -0.27646992533E+01 -0.45075524248E+02  0.19793329773E+03  0.20301979411E+03  0.00000000000E+00 0. -1.
         -3    1    4    4    0  502 -0.83359520515E+02 -0.22226198225E+02  0.21929562036E+03  0.23565521988E+03  0.00000000000E+00 0.  1.
          5    1    3    3  503    0  0.42012627521E+02  0.18537962502E+02  0.76797464578E+02  0.89602776132E+02  0.47000000000E+01 0. -1.
         11    1    6    6    0    0  0.21925096005E+02  0.49560201277E+02  0.91030689993E+02  0.10594106808E+03  0.00000000000E+00 0. -1.
        -12    1    6    6    0    0  0.10077576515E+02  0.75970051090E+01  0.25888567583E+03  0.25919310405E+03  0.00000000000E+00 0.  1.
         -5    1    5    5    0  501  0.12108919728E+02 -0.83934464152E+01 -0.12743852850E+02  0.20039253109E+02  0.47000000000E+01 0.  1.
<mgrwt>
<rscale>  2 0.18666518E+03</rscale>
<asrwt>0</asrwt>
<pdfrwt beam="2">  1        1 0.63271022E-02 0.18666518E+03</pdfrwt>
<pdfrwt beam="1">  1       -1 0.13420384E+00 0.18666518E+03</pdfrwt>
<totfact> 0.60198784E+02</totfact>
</mgrwt>
</event>
<event>
12    1  0.1093377E-001  0.1746474E+03  0.7546771E-02  0.1173086E+00
         -4   -1    0    0    0  501 -0.00000000000E+00  0.00000000000E+00  0.13006327410E+03  0.13006327410E+03  0.00000000000E+00 0.  1.
          4   -1    0    0  503    0  0.00000000000E+00 -0.00000000000E+00 -0.26134521451E+03  0.26134521451E+03  0.00000000000E+00 0. -1.
          6    2    1    2  503    0  0.28158757074E+02 -0.19513418134E+02 -0.12870029829E+03  0.21782039013E+03  0.17236086124E+03 0.  0.
         24    2    3    3    0    0  0.12266189537E+02  0.18120555684E+02  0.33735062363E+00  0.82388877820E+02  0.79429210238E+02 0.  0.
         -6    2    1    2    0  501 -0.28158757074E+02  0.19513418134E+02 -0.25816421161E+01  0.17358809848E+03  0.17015426522E+03 0.  0.
        -24    2    5    5    0    0  0.39850509511E+02 -0.16163236294E+02  0.20239729592E+02  0.93332325986E+02  0.80324112844E+02 0.  0.
          4    1    4    4  502    0  0.45265446307E+02  0.35057923643E+01 -0.58339679941E+01  0.45774298378E+02  0.00000000000E+00 0. -1.
         -3    1    4    4    0  502 -0.32999256770E+02  0.14614763319E+02  0.61713186177E+01  0.36614579442E+02  0.00000000000E+00 0.  1.
          5    1    3    3  503    0  0.15892567537E+02 -0.37633973817E+02 -0.12903764891E+03  0.13543151231E+03  0.47000000000E+01 0. -1.
         13    1    6    6    0    0  0.32947084948E+02  0.33090393905E+01 -0.26382334122E+02  0.42337781023E+02  0.00000000000E+00 0. -1.
        -14    1    6    6    0    0  0.69034245631E+01 -0.19472275684E+02  0.46622063713E+02  0.50994544962E+02  0.00000000000E+00 0.  1.
         -5    1    5    5    0  501 -0.68009266585E+02  0.35676654428E+02 -0.22821371708E+02  0.80255772498E+02  0.47000000000E+01 0.  1.
<mgrwt>
<rscale>  2 0.17464741E+03</rscale>
<asrwt>0</asrwt>
<pdfrwt beam="2">  1        4 0.40206956E-01 0.17464741E+03</pdfrwt>
<pdfrwt beam="1">  1       -4 0.20009734E-01 0.17464741E+03</pdfrwt>
<totfact> 0.23623289E+02</totfact>
</mgrwt>
</event>
<event>
12    1  0.1093377E-001  0.1755417E+03  0.7546771E-02  0.1172189E+00
          2   -1    0    0  503    0  0.00000000000E+00  0.00000000000E+00  0.10602066951E+04  0.10602066951E+04  0.00000000000E+00 0.  1.
         -2   -1    0    0    0  501 -0.00000000000E+00 -0.00000000000E+00 -0.29572866621E+02  0.29572866621E+02  0.00000000000E+00 0. -1.
          6    2    1    2  503    0 -0.11444874407E+02  0.24306200860E+02  0.44369754588E+03  0.47713373817E+03  0.17339929450E+03 0.  0.
         24    2    3    3    0    0 -0.72175771710E+02  0.15621262416E+02  0.33882975994E+03  0.35554832552E+03  0.78457884843E+02 0.  0.
         -6    2    1    2    0  501  0.11444874407E+02 -0.24306200860E+02  0.58693628259E+03  0.61264582354E+03  0.17354805885E+03 0.  0.
        -24    2    5    5    0    0 -0.14617937396E+02  0.88595626970E+01  0.13400988344E+03  0.15773522674E+03  0.81422214112E+02 0.  0.
          4    1    4    4  502    0 -0.65500857399E+02 -0.94818693215E+01  0.30893628222E+03  0.31594603121E+03  0.00000000000E+00 0. -1.
         -3    1    4    4    0  502 -0.66749143113E+01  0.25103131737E+02  0.29893477726E+02  0.39602294310E+02  0.00000000000E+00 0.  1.
          5    1    3    3  503    0  0.60730897303E+02  0.86849384446E+01  0.10486778593E+03  0.12158541265E+03  0.47000000000E+01 0. -1.
         13    1    6    6    0    0 -0.43705617830E+02 -0.12754618601E+02  0.88823631388E+02  0.99812317970E+02  0.00000000000E+00 0. -1.
        -14    1    6    6    0    0  0.29087680433E+02  0.21614181298E+02  0.45186252050E+02  0.57922908771E+02  0.00000000000E+00 0.  1.
         -5    1    5    5    0  501  0.26062811804E+02 -0.33165763557E+02  0.45292639916E+03  0.45491059680E+03  0.47000000000E+01 0.  1.
<mgrwt>
<rscale>  2 0.17554170E+03</rscale>
<asrwt>0</asrwt>
<pdfrwt beam="1">  1        2 0.16310869E+00 0.17554170E+03</pdfrwt>
<pdfrwt beam="2">  1       -2 0.45496726E-02 0.17554170E+03</pdfrwt>
<totfact> 0.53753235E+03</totfact>
</mgrwt>
</event>
<event>
12    1  0.1093377E-001  0.1754210E+03  0.7546771E-02  0.1172310E+00
         -1   -1    0    0    0  501 -0.00000000000E+00  0.00000000000E+00  0.64348346366E+02  0.64348346366E+02  0.00000000000E+00 0. -1.
          1   -1    0    0  503    0  0.00000000000E+00 -0.00000000000E+00 -0.49288544929E+03  0.49288544929E+03  0.00000000000E+00 0.  1.
          6    2    1    2  503    0 -0.70026447104E+01  0.28481864721E+02 -0.26232751157E+03  0.31557377805E+03  0.17294748456E+03 0.  0.
         24    2    3    3    0    0  0.60395502737E+01 -0.41491419651E+02 -0.20385122877E+03  0.22333536400E+03  0.81026830560E+02 0.  0.
         -6    2    1    2    0  501  0.70026447104E+01 -0.28481864721E+02 -0.16620959135E+03  0.24166001760E+03  0.17295572324E+03 0.  0.
        -24    2    5    5    0    0  0.36053394217E+01 -0.74860293140E+02 -0.16065941617E+03  0.19459203751E+03  0.80234351093E+02 0.  0.
          4    1    4    4  502    0 -0.32135451294E+02 -0.31956321278E+02 -0.14962143450E+03  0.15633447272E+03  0.00000000000E+00 0. -1.
         -3    1    4    4    0  502  0.38175001568E+02 -0.95350983732E+01 -0.54229794272E+02  0.67000891281E+02  0.00000000000E+00 0.  1.
          5    1    3    3  503    0 -0.13042194984E+02  0.69973284373E+02 -0.58476282802E+02  0.92238414049E+02  0.47000000000E+01 0. -1.
         13    1    6    6    0    0  0.19510059383E+02 -0.71368709814E+02 -0.67924656818E+02  0.10043850936E+03  0.00000000000E+00 0. -1.
        -14    1    6    6    0    0 -0.15904719961E+02 -0.34915833257E+01 -0.92734759352E+02  0.94153528150E+02  0.00000000000E+00 0.  1.
         -5    1    5    5    0  501  0.33973052887E+01  0.46378428419E+02 -0.55501751780E+01  0.47067980096E+02  0.47000000000E+01 0.  1.
<mgrwt>
<rscale>  2 0.17542095E+03</rscale>
<asrwt>0</asrwt>
<pdfrwt beam="2">  1        1 0.75828531E-01 0.17542095E+03</pdfrwt>
<pdfrwt beam="1">  1       -1 0.98997455E-02 0.17542095E+03</pdfrwt>
<totfact> 0.28049553E+03</totfact>
</mgrwt>
</event>
<event>
12    1  0.1093377E-001  0.1791542E+03  0.7546771E-02  0.1168624E+00
         -2   -1    0    0    0  501 -0.00000000000E+00  0.00000000000E+00  0.20021209569E+02  0.20021209569E+02  0.00000000000E+00 0.  1.
          2   -1    0    0  503    0  0.00000000000E+00 -0.00000000000E+00 -0.16106737202E+04  0.16106737202E+04  0.00000000000E+00 0. -1.
          6    2    1    2  503    0 -0.24557181125E+02  0.40698917206E+02 -0.85027262805E+03  0.86889924689E+03  0.17251928076E+03 0.  0.
         24    2    3    3    0    0 -0.24005530956E+02  0.58458760130E+02 -0.84301873305E+03  0.84914006343E+03  0.79778260736E+02 0.  0.
         -6    2    1    2    0  501  0.24557181125E+02 -0.40698917206E+02 -0.74037988254E+03  0.76179568284E+03  0.17294749177E+03 0.  0.
        -24    2    5    5    0    0  0.50866407475E+02 -0.84656043765E+02 -0.52283087225E+03  0.53824688225E+03  0.81262218246E+02 0.  0.
          2    1    4    4  502    0 -0.49106129088E+02  0.58875764845E+02 -0.63146005765E+03  0.63609714039E+03  0.00000000000E+00 0. -1.
         -1    1    4    4    0  502  0.25100598132E+02 -0.41700471505E+00 -0.21155867540E+03  0.21304292304E+03  0.00000000000E+00 0.  1.
          5    1    3    3  503    0 -0.55165016900E+00 -0.17759842923E+02 -0.72538949937E+01  0.19759183464E+02  0.47000000000E+01 0. -1.
         11    1    6    6    0    0  0.16150379818E+02  0.13413445442E+02 -0.52379591368E+02  0.56430283348E+02  0.00000000000E+00 0. -1.
        -12    1    6    6    0    0  0.34716027657E+02 -0.98069489207E+02 -0.47045128088E+03  0.48181659890E+03  0.00000000000E+00 0.  1.
         -5    1    5    5    0  501 -0.26309226350E+02  0.43957126558E+02 -0.21754901029E+03  0.22354880059E+03  0.47000000000E+01 0.  1.
<mgrwt>
<rscale>  2 0.17915424E+03</rscale>
<asrwt>0</asrwt>
<pdfrwt beam="2">  1        2 0.24779600E+00 0.17915424E+03</pdfrwt>
<pdfrwt beam="1">  1       -2 0.30801855E-02 0.17915424E+03</pdfrwt>
<totfact> 0.48191859E+03</totfact>
</mgrwt>
</event>
<event>
12    1  0.1093377E-001  0.1934859E+03  0.7546771E-02  0.1155354E+00
         -1   -1    0    0    0  501 -0.00000000000E+00  0.00000000000E+00  0.17181130452E+03  0.17181130452E+03  0.00000000000E+00 0. -1.
          1   -1    0    0  503    0  0.00000000000E+00 -0.00000000000E+00 -0.22048519897E+03  0.22048519897E+03  0.00000000000E+00 0.  1.
          6    2    1    2  503    0  0.85943310686E+02 -0.61154996319E+01 -0.45541425947E+02  0.19836660215E+03  0.17277625816E+03 0.  0.
         24    2    3    3    0    0  0.48269790879E+02  0.31560762302E+02  0.32273205797E+02  0.10394201997E+03  0.80226736650E+02 0.  0.
         -6    2    1    2    0  501 -0.85943310686E+02  0.61154996319E+01 -0.31324685016E+01  0.19392990134E+03  0.17371051289E+03 0.  0.
        -24    2    5    5    0    0 -0.15512368630E+02  0.64400339555E+01 -0.61759526614E+02  0.10217018870E+03  0.79639190809E+02 0.  0.
          2    1    4    4  502    0  0.13554538028E+02 -0.70579606955E+01  0.47442761828E+02  0.49843314097E+02  0.00000000000E+00 0. -1.
         -1    1    4    4    0  502  0.34715252851E+02  0.38618722997E+02 -0.15169556031E+02  0.54098705868E+02  0.00000000000E+00 0.  1.
          5    1    3    3  503    0  0.37673519807E+02 -0.37676261934E+02 -0.77814631744E+02  0.94424582188E+02  0.47000000000E+01 0. -1.
         11    1    6    6    0    0 -0.14035667676E+02 -0.57637532931E+01  0.16809887051E+02  0.22644935898E+02  0.00000000000E+00 0. -1.
        -12    1    6    6    0    0 -0.14767009541E+01  0.12203787249E+02 -0.78569413666E+02  0.79525252799E+02  0.00000000000E+00 0.  1.
         -5    1    5    5    0  501 -0.70430942056E+02 -0.32453432358E+00  0.58627058113E+02  0.91759712643E+02  0.47000000000E+01 0.  1.
<mgrwt>
<rscale>  2 0.19348589E+03</rscale>
<asrwt>0</asrwt>
<pdfrwt beam="2">  1        1 0.33920800E-01 0.19348589E+03</pdfrwt>
<pdfrwt beam="1">  1       -1 0.26432509E-01 0.19348589E+03</pdfrwt>
<totfact> 0.16272060E+03</totfact>
</mgrwt>
</event>
<event>
12    1  0.1093377E-001  0.1946887E+03  0.7546771E-02  0.1154299E+00
          2   -1    0    0  503    0  0.00000000000E+00  0.00000000000E+00  0.49454527718E+03  0.49454527718E+03  0.00000000000E+00 0. -1.
         -2   -1    0    0    0  501 -0.00000000000E+00 -0.00000000000E+00 -0.76648902975E+02  0.76648902975E+02  0.00000000000E+00 0.  1.
          6    2    1    2  503    0  0.78734668200E+02  0.34948324117E+02  0.20835648249E+03  0.28415544689E+03  0.17294901233E+03 0.  0.
         24    2    3    3    0    0  0.98443938735E+02  0.62453526715E+02  0.10296461203E+03  0.17336497855E+03  0.76564041070E+02 0.  0.
         -6    2    1    2    0  501 -0.78734668200E+02 -0.34948324117E+02  0.20953989172E+03  0.28703873327E+03  0.17624907047E+03 0.  0.
        -24    2    5    5    0    0 -0.84639055421E+02 -0.81217633951E+02  0.12043469022E+03  0.18635339295E+03  0.80392777595E+02 0.  0.
          4    1    4    4  502    0  0.92918463165E+02  0.56468643658E+02  0.11536433930E+03  0.15852911182E+03  0.00000000000E+00 0. -1.
         -3    1    4    4    0  502  0.55254755694E+01  0.59848830565E+01 -0.12399727263E+02  0.14835866732E+02  0.00000000000E+00 0.  1.
          5    1    3    3  503    0 -0.19709270535E+02 -0.27505202598E+02  0.10539187046E+03  0.11079046833E+03  0.47000000000E+01 0. -1.
         11    1    6    6    0    0 -0.56943963084E+02 -0.34536272222E+02  0.11355046898E+03  0.13163995608E+03  0.00000000000E+00 0. -1.
        -12    1    6    6    0    0 -0.27695092337E+02 -0.46681361728E+02  0.68842212373E+01  0.54713436873E+02  0.00000000000E+00 0.  1.
         -5    1    5    5    0  501  0.59043872212E+01  0.46269309834E+02  0.89105201500E+02  0.10068534032E+03  0.47000000000E+01 0.  1.
<mgrwt>
<rscale>  2 0.19468873E+03</rscale>
<asrwt>0</asrwt>
<pdfrwt beam="1">  1        2 0.76083887E-01 0.19468873E+03</pdfrwt>
<pdfrwt beam="2">  1       -2 0.11792139E-01 0.19468873E+03</pdfrwt>
<totfact> 0.31609650E+03</totfact>
</mgrwt>
</event>
<event>
12    1  0.1093377E-001  0.2103109E+03  0.7546771E-02  0.1141320E+00
         -2   -1    0    0    0  501 -0.00000000000E+00  0.00000000000E+00  0.37683785606E+02  0.37683785606E+02  0.00000000000E+00 0.  1.
          2   -1    0    0  503    0  0.00000000000E+00 -0.00000000000E+00 -0.12021323855E+04  0.12021323855E+04  0.00000000000E+00 0. -1.
          6    2    1    2  503    0  0.62970327169E+02 -0.10277079554E+03 -0.48658167341E+03  0.53003413409E+03  0.17218408720E+03 0.  0.
         24    2    3    3    0    0  0.79024241747E+02 -0.15011820439E+02 -0.33071690090E+03  0.35038090369E+03  0.83204108034E+02 0.  0.
         -6    2    1    2    0  501 -0.62970327169E+02  0.10277079554E+03 -0.67786692646E+03  0.70978203699E+03  0.17251049686E+03 0.  0.
        -24    2    5    5    0    0 -0.27409278231E+01  0.10686921875E+03 -0.57486224659E+03  0.59029801424E+03  0.80972837751E+02 0.  0.
          4    1    4    4  502    0  0.62129706301E+02 -0.30531485714E+01 -0.32194640519E+03  0.32790076232E+03  0.00000000000E+00 0. -1.
         -3    1    4    4    0  502  0.16894535445E+02 -0.11958671868E+02 -0.87704957144E+01  0.22480141366E+02  0.00000000000E+00 0.  1.
          5    1    3    3  503    0 -0.16053914578E+02 -0.87758975098E+02 -0.15586477251E+03  0.17965323040E+03  0.47000000000E+01 0. -1.
         11    1    6    6    0    0 -0.21945238599E+02  0.10537811748E+03 -0.53846451307E+03  0.54911763128E+03  0.00000000000E+00 0. -1.
        -12    1    6    6    0    0  0.19204310776E+02  0.14911012719E+01 -0.36397733518E+02  0.41180382959E+02  0.00000000000E+00 0.  1.
         -5    1    5    5    0  501 -0.60229399346E+02 -0.40984232182E+01 -0.10300467986E+03  0.11948402275E+03  0.47000000000E+01 0.  1.
<mgrwt>
<rscale>  2 0.21031091E+03</rscale>
<asrwt>0</asrwt>
<pdfrwt beam="2">  1        2 0.18494347E+00 0.21031091E+03</pdfrwt>
<pdfrwt beam="1">  1       -2 0.57975048E-02 0.21031091E+03</pdfrwt>
<totfact> 0.30972322E+03</totfact>
</mgrwt>
</event>
<event>
12    1  0.1093377E-001  0.2328553E+03  0.7546771E-02  0.1124646E+00
          1   -1    0    0  503    0  0.00000000000E+00  0.00000000000E+00  0.22341048886E+03  0.22341048886E+03  0.00000000000E+00 0.  1.
         -1   -1    0    0    0  501 -0.00000000000E+00 -0.00000000000E+00 -0.32005834391E+03  0.32005834391E+03  0.00000000000E+00 0. -1.
          6    2    1    2  503    0  0.15337407614E+03 -0.24104672291E+02  0.85254908433E+02  0.24805890075E+03  0.17366685455E+03 0.  0.
         24    2    3    3    0    0  0.77162783198E+02  0.33963091160E+02  0.98901222747E+02  0.15116546330E+03  0.77213721341E+02 0.  0.
         -6    2    1    2    0  501 -0.15337407614E+03  0.24104672291E+02 -0.18190276349E+03  0.29540993202E+03  0.17341790597E+03 0.  0.
        -24    2    5    5    0    0 -0.43061889427E+02  0.25103444023E+02 -0.15326755392E+03  0.18134047375E+03  0.83119883970E+02 0.  0.
          2    1    4    4  502    0  0.59081736562E+02  0.24767656309E+01  0.98461701892E+02  0.11485422370E+03  0.00000000000E+00 0. -1.
         -1    1    4    4    0  502  0.18081046636E+02  0.31486325529E+02  0.43952085500E+00  0.36311239601E+02  0.00000000000E+00 0.  1.
          5    1    3    3  503    0  0.76211292947E+02 -0.58067763451E+02 -0.13646314314E+02  0.96893437441E+02  0.47000000000E+01 0. -1.
         11    1    6    6    0    0 -0.24809356787E+02 -0.29046787428E+02 -0.77870293048E+02  0.86735244183E+02  0.00000000000E+00 0. -1.
        -12    1    6    6    0    0 -0.18252532641E+02  0.54150231450E+02 -0.75397260875E+02  0.94605229566E+02  0.00000000000E+00 0.  1.
         -5    1    5    5    0  501 -0.11031218672E+03 -0.99877173172E+00 -0.28635209566E+02  0.11406945827E+03  0.47000000000E+01 0.  1.
<mgrwt>
<rscale>  2 0.23285532E+03</rscale>
<asrwt>0</asrwt>
<pdfrwt beam="1">  1        1 0.34370845E-01 0.23285532E+03</pdfrwt>
<pdfrwt beam="2">  1       -1 0.49239745E-01 0.23285532E+03</pdfrwt>
<totfact> 0.54086121E+02</totfact>
</mgrwt>
</event>
<event>
12    1  0.1093377E-001  0.2883494E+03  0.7546771E-02  0.1091214E+00
         -2   -1    0    0    0  501 -0.00000000000E+00  0.00000000000E+00  0.41743092472E+02  0.41743092472E+02  0.00000000000E+00 0.  1.
          2   -1    0    0  503    0  0.00000000000E+00 -0.00000000000E+00 -0.22499478427E+04  0.22499478427E+04  0.00000000000E+00 0. -1.
          6    2    1    2  503    0 -0.47625892199E+02  0.22569347494E+03 -0.71542833407E+03  0.77128814840E+03  0.17274818792E+03 0.  0.
         24    2    3    3    0    0 -0.79626271613E+01  0.17554400808E+03 -0.33801252560E+03  0.38846583178E+03  0.75987714735E+02 0.  0.
         -6    2    1    2    0  501  0.47625892199E+02 -0.22569347494E+03 -0.14927764162E+04  0.15204027868E+04  0.17331311304E+03 0.  0.
        -24    2    5    5    0    0 -0.15223452699E+02 -0.17168564210E+03 -0.12367936077E+04  0.12513002517E+04  0.79913569652E+02 0.  0.
          4    1    4    4  502    0 -0.18516553936E+02  0.11909588793E+03 -0.15314745600E+03  0.19488672754E+03  0.00000000000E+00 0. -1.
         -3    1    4    4    0  502  0.10553926775E+02  0.56448120153E+02 -0.18486506961E+03  0.19357910424E+03  0.00000000000E+00 0.  1.
          5    1    3    3  503    0 -0.39663265038E+02  0.50149466858E+02 -0.37741580847E+03  0.38282231662E+03  0.47000000000E+01 0. -1.
         13    1    6    6    0    0  0.28032199876E+02 -0.27869711283E+02 -0.28610290337E+03  0.28882069931E+03  0.00000000000E+00 0. -1.
        -14    1    6    6    0    0 -0.43255652574E+02 -0.14381593082E+03 -0.95069070434E+03  0.96247955239E+03  0.00000000000E+00 0.  1.
         -5    1    5    5    0  501  0.62849344898E+02 -0.54007832843E+02 -0.25598280845E+03  0.26910253507E+03  0.47000000000E+01 0.  1.
<mgrwt>
<rscale>  2 0.28834944E+03</rscale>
<asrwt>0</asrwt>
<pdfrwt beam="2">  1        2 0.34614588E+00 0.28834944E+03</pdfrwt>
<pdfrwt beam="1">  1       -2 0.64220132E-02 0.28834944E+03</pdfrwt>
<totfact> 0.72789129E+02</totfact>
</mgrwt>
</event>
<event>
12    1  0.1093377E-001  0.4001060E+03  0.7546771E-02  0.1043743E+00
          1   -1    0    0  503    0  0.00000000000E+00  0.00000000000E+00  0.10417753523E+04  0.10417753523E+04  0.00000000000E+00 0.  1.
         -1   -1    0    0    0  501 -0.00000000000E+00 -0.00000000000E+00 -0.15366680167E+03  0.15366680167E+03  0.00000000000E+00 0. -1.
          6    2    1    2  503    0  0.35907436690E+03  0.22974372938E+02  0.44336822660E+03  0.59643803199E+03  0.17233896504E+03 0.  0.
         24    2    3    3    0    0  0.20085700609E+03 -0.23318628134E+01  0.15253732626E+03  0.26435695541E+03  0.79170635293E+02 0.  0.
         -6    2    1    2    0  501 -0.35907436690E+03 -0.22974372938E+02  0.44474032399E+03  0.59900412193E+03  0.17762251979E+03 0.  0.
        -24    2    5    5    0    0 -0.25562257452E+03 -0.97294002053E+01  0.19531688109E+03  0.32861209817E+03  0.66329972033E+02 0.  0.
          4    1    4    4  502    0  0.17436650038E+03 -0.30381176685E+02  0.11943786796E+03  0.21352305883E+03  0.00000000000E+00 0. -1.
         -3    1    4    4    0  502  0.26490505711E+02  0.28049313872E+02  0.33099458304E+02  0.50833896580E+02  0.00000000000E+00 0.  1.
          5    1    3    3  503    0  0.15821736081E+03  0.25306235751E+02  0.29083090034E+03  0.33208107658E+03  0.47000000000E+01 0. -1.
         13    1    6    6    0    0 -0.92366635315E+02  0.46498195892E+01  0.33678956437E+02  0.98425038726E+02  0.00000000000E+00 0. -1.
        -14    1    6    6    0    0 -0.16325593921E+03 -0.14379219794E+02  0.16163792465E+03  0.23018705944E+03  0.00000000000E+00 0.  1.
         -5    1    5    5    0  501 -0.10345179238E+03 -0.13244972732E+02  0.24942344290E+03  0.27039202376E+03  0.47000000000E+01 0.  1.
<mgrwt>
<rscale>  2 0.40010598E+03</rscale>
<asrwt>0</asrwt>
<pdfrwt beam="1">  1        1 0.16027313E+00 0.40010598E+03</pdfrwt>
<pdfrwt beam="2">  1       -1 0.23641047E-01 0.40010598E+03</pdfrwt>
<totfact> 0.22563495E+02</totfact>
</mgrwt>
</event>
<event>
12    1  0.1093377E-001  0.1752380E+03  0.7546771E-02  0.1172493E+00
          4   -1    0    0  503    0  0.00000000000E+00  0.00000000000E+00  0.18533284681E+03  0.18533284681E+03  0.00000000000E+00 0.  1.
         -4   -1    0    0    0  501 -0.00000000000E+00 -0.00000000000E+00 -0.24335434639E+03  0.24335434639E+03  0.00000000000E+00 0. -1.
          6    2    1    2  503    0  0.31274406994E+02 -0.92832022888E+01 -0.15016586032E+03  0.23125975588E+03  0.17282078204E+03 0.  0.
         24    2    3    3    0    0 -0.36169529211E+02 -0.36240112308E+02 -0.60405689256E+02  0.11569878566E+03  0.84355089500E+02 0.  0.
         -6    2    1    2    0  501 -0.31274406994E+02  0.92832022888E+01  0.92144360740E+02  0.19742743732E+03  0.17153059031E+03 0.  0.
        -24    2    5    5    0    0 -0.30154653150E+02 -0.11816581953E+00 -0.17562188610E+02  0.87212844175E+02  0.79927045801E+02 0.  0.
          4    1    4    4  502    0  0.73626651948E+01 -0.41902939344E+02 -0.57736589306E+02  0.71718748659E+02  0.00000000000E+00 0. -1.
         -3    1    4    4    0  502 -0.43532194406E+02  0.56628270357E+01 -0.26690999495E+01  0.43980036998E+02  0.00000000000E+00 0.  1.
          5    1    3    3  503    0  0.67443936205E+02  0.26956910019E+02 -0.89760171068E+02  0.11556097022E+03  0.47000000000E+01 0. -1.
         11    1    6    6    0    0  0.23301338370E+02  0.10728434543E+02 -0.20128973135E+02  0.32607165425E+02  0.00000000000E+00 0. -1.
        -12    1    6    6    0    0 -0.53455991521E+02 -0.10846600363E+02  0.25667845247E+01  0.54605678750E+02  0.00000000000E+00 0.  1.
         -5    1    5    5    0  501 -0.11197538438E+01  0.94013681083E+01  0.10970654935E+03  0.11021459314E+03  0.47000000000E+01 0.  1.
<mgrwt>
<rscale>  2 0.17523797E+03</rscale>
<asrwt>0</asrwt>
<pdfrwt beam="1">  1        4 0.28512746E-01 0.17523797E+03</pdfrwt>
<pdfrwt beam="2">  1       -4 0.37439130E-01 0.17523797E+03</pdfrwt>
<totfact> 0.14144809E+02</totfact>
</mgrwt>
</event>
<event>
12    1  0.1093377E-001  0.1945113E+03  0.7546771E-02  0.1154454E+00
          4   -1    0    0  503    0  0.00000000000E+00  0.00000000000E+00  0.34813607399E+03  0.34813607399E+03  0.00000000000E+00 0.  1.
         -4   -1    0    0    0  501 -0.00000000000E+00 -0.00000000000E+00 -0.10952250744E+03  0.10952250744E+03  0.00000000000E+00 0. -1.
          6    2    1    2  503    0 -0.58031549505E+02 -0.47236279268E+02  0.13408173755E+03  0.23111947843E+03  0.17274077153E+03 0.  0.
         24    2    3    3    0    0 -0.48536870906E+02 -0.19969968848E+02  0.16334496499E+03  0.18974282938E+03  0.81031698855E+02 0.  0.
         -6    2    1    2    0  501  0.58031549505E+02  0.47236279268E+02  0.10453182901E+03  0.22653910300E+03  0.18653186081E+03 0.  0.
        -24    2    5    5    0    0 -0.29386009035E+02  0.10206048103E+02  0.98710461528E+02  0.13130756474E+03  0.80809779092E+02 0.  0.
          4    1    4    4  502    0 -0.23361219576E+02 -0.51079987761E+02  0.10329582028E+03  0.11757949743E+03  0.00000000000E+00 0. -1.
         -3    1    4    4    0  502 -0.25175651330E+02  0.31110018912E+02  0.60049144716E+02  0.72163331947E+02  0.00000000000E+00 0.  1.
          5    1    3    3  503    0 -0.94946785984E+01 -0.27266310419E+02 -0.29263227448E+02  0.41376649045E+02  0.47000000000E+01 0. -1.
         11    1    6    6    0    0 -0.30763609214E+02  0.43480162914E+02  0.62268056616E+02  0.81940436255E+02  0.00000000000E+00 0. -1.
        -12    1    6    6    0    0  0.13776001795E+01 -0.33274114810E+02  0.36442404912E+02  0.49367128481E+02  0.00000000000E+00 0.  1.
         -5    1    5    5    0  501  0.87417558539E+02  0.37030231164E+02  0.58213674787E+01  0.95231538265E+02  0.47000000000E+01 0.  1.
<mgrwt>
<rscale>  2 0.19451134E+03</rscale>
<asrwt>0</asrwt>
<pdfrwt beam="1">  1        4 0.53559396E-01 0.19451134E+03</pdfrwt>
<pdfrwt beam="2">  1       -4 0.16849617E-01 0.19451134E+03</pdfrwt>
<totfact> 0.18289771E+02</totfact>
</mgrwt>
</event>
<event>
12    1  0.1093377E-001  0.2022111E+03  0.7546771E-02  0.1147887E+00
         -2   -1    0    0    0  501 -0.00000000000E+00  0.00000000000E+00  0.11243047771E+03  0.11243047771E+03  0.00000000000E+00 0. -1.
          2   -1    0    0  503    0  0.00000000000E+00 -0.00000000000E+00 -0.53049229007E+03  0.53049229007E+03  0.00000000000E+00 0.  1.
          6    2    1    2  503    0  0.91039806424E+01 -0.10604762975E+03 -0.29733914308E+02  0.20571671349E+03  0.17351160858E+03 0.  0.
         24    2    3    3    0    0 -0.39944386339E+01  0.67421478147E+01  0.15686475751E+02  0.83331239095E+02  0.81465439240E+02 0.  0.
         -6    2    1    2    0  501 -0.91039806424E+01  0.10604762975E+03 -0.38832789806E+03  0.43720605429E+03  0.17035725773E+03 0.  0.
        -24    2    5    5    0    0 -0.21654852447E+02  0.10406006155E+03 -0.14910355856E+03  0.19759835529E+03  0.74268498010E+02 0.  0.
          2    1    4    4  502    0  0.13005367992E+02 -0.14984991789E+02 -0.26390192961E+02  0.33017144941E+02  0.00000000000E+00 0. -1.
         -1    1    4    4    0  502 -0.16999806626E+02  0.21727139604E+02  0.42076668712E+02  0.50314094154E+02  0.00000000000E+00 0.  1.
          5    1    3    3  503    0  0.13098419276E+02 -0.11278977756E+03 -0.45420390060E+02  0.12238547440E+03  0.47000000000E+01 0. -1.
         11    1    6    6    0    0 -0.96393045261E+01 -0.10029993012E+02 -0.92219731437E+01  0.16690168970E+02  0.00000000000E+00 0. -1.
        -12    1    6    6    0    0 -0.12015547921E+02  0.11409005456E+03 -0.13988158541E+03  0.18090818632E+03  0.00000000000E+00 0.  1.
         -5    1    5    5    0  501  0.12550871804E+02  0.19875681987E+01 -0.23922433950E+03  0.23960769900E+03  0.47000000000E+01 0.  1.
<mgrwt>
<rscale>  2 0.20221108E+03</rscale>
<asrwt>0</asrwt>
<pdfrwt beam="2">  1        2 0.81614198E-01 0.20221108E+03</pdfrwt>
<pdfrwt beam="1">  1       -2 0.17296997E-01 0.20221108E+03</pdfrwt>
<totfact> 0.15604878E+03</totfact>
</mgrwt>
</event>
<event>
12    1  0.1093377E-001  0.2063183E+03  0.7546771E-02  0.1144515E+00
         -1   -1    0    0    0  501 -0.00000000000E+00  0.00000000000E+00  0.60607318353E+03  0.60607318353E+03  0.00000000000E+00 0. -1.
          1   -1    0    0  503    0  0.00000000000E+00 -0.00000000000E+00 -0.71516283438E+02  0.71516283438E+02  0.00000000000E+00 0.  1.
          6    2    1    2  503    0  0.11184913300E+03 -0.16336685111E+02  0.31250876524E+03  0.37441705470E+03  0.17247981523E+03 0.  0.
         24    2    3    3    0    0  0.68741717167E+02 -0.33247621406E+02  0.30842065371E+03  0.32769412968E+03  0.80183009338E+02 0.  0.
         -6    2    1    2    0  501 -0.11184913300E+03  0.16336685111E+02  0.22204813485E+03  0.30317241227E+03  0.17271659312E+03 0.  0.
        -24    2    5    5    0    0 -0.74439494309E+02 -0.49285656034E+02  0.17924831964E+03  0.21622595227E+03  0.81568303527E+02 0.  0.
          2    1    4    4  502    0  0.34947630748E+01 -0.13001572634E+02  0.19374099782E+03  0.19420820914E+03  0.00000000000E+00 0. -1.
         -1    1    4    4    0  502  0.65246954093E+02 -0.20246048773E+02  0.11467965589E+03  0.13348592054E+03  0.00000000000E+00 0.  1.
          5    1    3    3  503    0  0.43107415831E+02  0.16910936295E+02  0.40881115357E+01  0.46722925015E+02  0.47000000000E+01 0. -1.
         13    1    6    6    0    0 -0.31880238780E+02  0.93309027725E+01  0.14477827467E+02  0.36235657292E+02  0.00000000000E+00 0. -1.
        -14    1    6    6    0    0 -0.42559255529E+02 -0.58616558807E+02  0.16477049217E+03  0.17999029498E+03  0.00000000000E+00 0.  1.
         -5    1    5    5    0  501 -0.37409638689E+02  0.65622341145E+02  0.42799815214E+02  0.86946460000E+02  0.47000000000E+01 0.  1.
<mgrwt>
<rscale>  2 0.20631832E+03</rscale>
<asrwt>0</asrwt>
<pdfrwt beam="2">  1        1 0.11002506E-01 0.20631832E+03</pdfrwt>
<pdfrwt beam="1">  1       -1 0.93242025E-01 0.20631832E+03</pdfrwt>
<totfact> 0.66237164E+02</totfact>
</mgrwt>
</event>
<event>
12    1  0.1093377E-001  0.2635409E+03  0.7546771E-02  0.1105034E+00
          2   -1    0    0  503    0  0.00000000000E+00  0.00000000000E+00  0.25061275908E+04  0.25061275908E+04  0.00000000000E+00 0.  1.
         -2   -1    0    0    0  501 -0.00000000000E+00 -0.00000000000E+00 -0.27950019485E+02  0.27950019485E+02  0.00000000000E+00 0. -1.
          6    2    1    2  503    0  0.19847186512E+03 -0.76393611752E+00  0.13551990685E+04  0.13805690456E+04  0.17324753843E+03 0.  0.
         24    2    3    3    0    0  0.90652632518E+02  0.14831033072E+02  0.10467704993E+04  0.10534322817E+04  0.74520028520E+02 0.  0.
         -6    2    1    2    0  501 -0.19847186512E+03  0.76393611752E+00  0.11229785028E+04  0.11535085647E+04  0.17352125568E+03 0.  0.
        -24    2    5    5    0    0 -0.18446816940E+03 -0.28897862089E+02  0.10760937721E+04  0.10960960770E+04  0.92656417645E+02 0.  0.
          4    1    4    4  502    0  0.47101621822E+02  0.43824320079E+02  0.48917197018E+03  0.49338458652E+03  0.00000000000E+00 0. -1.
         -3    1    4    4    0  502  0.43551010696E+02 -0.28993287006E+02  0.55759852911E+03  0.56004769520E+03  0.00000000000E+00 0.  1.
          5    1    3    3  503    0  0.10781923260E+03 -0.15594969190E+02  0.30842856923E+03  0.32713676390E+03  0.47000000000E+01 0. -1.
         11    1    6    6    0    0 -0.21182459365E+02 -0.29326161772E+02  0.97953934107E+02  0.10442075252E+03  0.00000000000E+00 0. -1.
        -12    1    6    6    0    0 -0.16328571004E+03  0.42829968287E+00  0.97813983801E+03  0.99167532451E+03  0.00000000000E+00 0.  1.
         -5    1    5    5    0  501 -0.14003695716E+02  0.29661798206E+02  0.46884730716E+02  0.57412487673E+02  0.47000000000E+01 0.  1.
<mgrwt>
<rscale>  2 0.26354092E+03</rscale>
<asrwt>0</asrwt>
<pdfrwt beam="1">  1        2 0.38555791E+00 0.26354092E+03</pdfrwt>
<pdfrwt beam="2">  1       -2 0.43000050E-02 0.26354092E+03</pdfrwt>
<totfact> 0.98136497E+02</totfact>
</mgrwt>
</event>
<event>
12    1  0.1093377E-001  0.2853000E+03  0.7546771E-02  0.1092829E+00
         -2   -1    0    0    0  501 -0.00000000000E+00  0.00000000000E+00  0.83460040742E+02  0.83460040742E+02  0.00000000000E+00 0. -1.
          2   -1    0    0  503    0  0.00000000000E+00 -0.00000000000E+00 -0.10255044753E+04  0.10255044753E+04  0.00000000000E+00 0.  1.
          6    2    1    2  503    0  0.12611211888E+03  0.18672918666E+03 -0.59321662209E+03  0.65811202186E+03  0.17445176101E+03 0.  0.
         24    2    3    3    0    0  0.10074520872E+03  0.43534156531E+02 -0.33177940534E+03  0.35891341711E+03  0.81831823327E+02 0.  0.
         -6    2    1    2    0  501 -0.12611211888E+03 -0.18672918666E+03 -0.34882781243E+03  0.45085249414E+03  0.17554222589E+03 0.  0.
        -24    2    5    5    0    0 -0.42630561199E+02 -0.15520543721E+03 -0.29728188943E+03  0.34769247558E+03  0.81286181515E+02 0.  0.
          4    1    4    4  502    0  0.32646155355E+02 -0.35179265074E+01 -0.20427938821E+03  0.20690146378E+03  0.00000000000E+00 0. -1.
         -3    1    4    4    0  502  0.68099053365E+02  0.47052083039E+02 -0.12750001713E+03  0.15201195333E+03  0.00000000000E+00 0.  1.
          5    1    3    3  503    0  0.25366910156E+02  0.14319503013E+03 -0.26143721675E+03  0.29919860476E+03  0.47000000000E+01 0. -1.
         11    1    6    6    0    0 -0.57187775329E+01 -0.66702998564E+01  0.40837696705E+01  0.96888849393E+01  0.00000000000E+00 0. -1.
        -12    1    6    6    0    0 -0.36911783666E+02 -0.14853513735E+03 -0.30136565910E+03  0.33800359064E+03  0.00000000000E+00 0.  1.
         -5    1    5    5    0  501 -0.83481557676E+02 -0.31523749449E+02 -0.51545923002E+02  0.10316001856E+03  0.47000000000E+01 0.  1.
<mgrwt>
<rscale>  2 0.28529998E+03</rscale>
<asrwt>0</asrwt>
<pdfrwt beam="2">  1        2 0.15776991E+00 0.28529998E+03</pdfrwt>
<pdfrwt beam="1">  1       -2 0.12840007E-01 0.28529998E+03</pdfrwt>
<totfact> 0.11220848E+03</totfact>
</mgrwt>
</event>
<event>
12    1  0.1093377E-001  0.1760814E+03  0.7546771E-02  0.1171650E+00
          1   -1    0    0  503    0  0.00000000000E+00  0.00000000000E+00  0.86684931894E+02  0.86684931894E+02  0.00000000000E+00 0. -1.
         -1   -1    0    0    0  501 -0.00000000000E+00 -0.00000000000E+00 -0.37552670726E+03  0.37552670726E+03  0.00000000000E+00 0.  1.
          6    2    1    2  503    0 -0.33271909210E+02 -0.16171676471E+02 -0.93177275910E+02  0.19823439336E+03  0.17101557503E+03 0.  0.
         24    2    3    3    0    0  0.14891586900E+02 -0.61994854573E+02 -0.30906327376E+02  0.10702448688E+03  0.80211709661E+02 0.  0.
         -6    2    1    2    0  501  0.33271909210E+02  0.16171676471E+02 -0.19566449945E+03  0.26397724579E+03  0.17329410516E+03 0.  0.
        -24    2    5    5    0    0  0.58600145986E+02  0.54777195999E+02 -0.81707846342E+02  0.14093207317E+03  0.82165435452E+02 0.  0.
          4    1    4    4  502    0  0.13932649035E+02 -0.80411243174E+02 -0.15663238588E+02  0.83098879541E+02  0.00000000000E+00 0. -1.
         -3    1    4    4    0  502  0.95893786582E+00  0.18416388600E+02 -0.15243088787E+02  0.23925607342E+02  0.00000000000E+00 0.  1.
          5    1    3    3  503    0 -0.48163496110E+02  0.45823178102E+02 -0.62270948535E+02  0.91209906481E+02  0.47000000000E+01 0. -1.
         13    1    6    6    0    0  0.15091448582E+02 -0.14843954630E+02 -0.47479111558E+02  0.51984236492E+02  0.00000000000E+00 0. -1.
        -14    1    6    6    0    0  0.43508697404E+02  0.69621150629E+02 -0.34228734784E+02  0.88947836677E+02  0.00000000000E+00 0.  1.
         -5    1    5    5    0  501 -0.25328236776E+02 -0.38605519527E+02 -0.11395665311E+03  0.12304517262E+03  0.47000000000E+01 0.  1.
<mgrwt>
<rscale>  2 0.17608137E+03</rscale>
<asrwt>0</asrwt>
<pdfrwt beam="1">  1        1 0.13336144E-01 0.17608137E+03</pdfrwt>
<pdfrwt beam="2">  1       -1 0.57773339E-01 0.17608137E+03</pdfrwt>
<totfact> 0.13463199E+03</totfact>
</mgrwt>
</event>
<event>
12    1  0.1093377E-001  0.1970916E+03  0.7546771E-02  0.1152216E+00
          1   -1    0    0  503    0  0.00000000000E+00  0.00000000000E+00  0.17909728192E+03  0.17909728192E+03  0.00000000000E+00 0.  1.
         -1   -1    0    0    0  501 -0.00000000000E+00 -0.00000000000E+00 -0.25968699316E+03  0.25968699316E+03  0.00000000000E+00 0. -1.
          6    2    1    2  503    0 -0.11723204975E+02 -0.94629744857E+02  0.48755048420E+02  0.20309042037E+03  0.17255851748E+03 0.  0.
         24    2    3    3    0    0  0.51619883929E+01 -0.40781537299E+02 -0.39703768562E+02  0.98058084809E+02  0.79681985730E+02 0.  0.
         -6    2    1    2    0  501  0.11723204975E+02  0.94629744857E+02 -0.12934475965E+03  0.23569385470E+03  0.17242187839E+03 0.  0.
        -24    2    5    5    0    0  0.43415150092E+02  0.84056544462E+02 -0.25691430195E+02  0.12668800780E+03  0.80246020524E+02 0.  0.
          2    1    4    4  502    0  0.42396219727E+01 -0.26637279317E+02 -0.64267488389E+02  0.69698128437E+02  0.00000000000E+00 0. -1.
         -1    1    4    4    0  502  0.92236642019E+00 -0.14144257982E+02  0.24563719827E+02  0.28359956372E+02  0.00000000000E+00 0.  1.
          5    1    3    3  503    0 -0.16885193368E+02 -0.53848207558E+02  0.88458816982E+02  0.10503233556E+03  0.47000000000E+01 0. -1.
         11    1    6    6    0    0  0.34566541628E+02  0.17041193652E+02 -0.42153477034E+02  0.57115354391E+02  0.00000000000E+00 0. -1.
        -12    1    6    6    0    0  0.88486084646E+01  0.67015350810E+02  0.16462046839E+02  0.69572653407E+02  0.00000000000E+00 0.  1.
         -5    1    5    5    0  501 -0.31691945117E+02  0.10573200395E+02 -0.10365332946E+03  0.10900584691E+03  0.47000000000E+01 0.  1.
<mgrwt>
<rscale>  2 0.19709157E+03</rscale>
<asrwt>0</asrwt>
<pdfrwt beam="1">  1        1 0.27553428E-01 0.19709157E+03</pdfrwt>
<pdfrwt beam="2">  1       -1 0.39951845E-01 0.19709157E+03</pdfrwt>
<totfact> 0.10409417E+03</totfact>
</mgrwt>
</event>
<event>
12    1  0.1093377E-001  0.2218638E+03  0.7546771E-02  0.1132501E+00
          2   -1    0    0  503    0  0.00000000000E+00  0.00000000000E+00  0.20222998433E+04  0.20222998433E+04  0.00000000000E+00 0. -1.
         -2   -1    0    0    0  501 -0.00000000000E+00 -0.00000000000E+00 -0.24994909245E+02  0.24994909245E+02  0.00000000000E+00 0.  1.
          6    2    1    2  503    0  0.13678193149E+03  0.28715186609E+02  0.83540464518E+03  0.86450340223E+03  0.17300679913E+03 0.  0.
         24    2    3    3    0    0  0.12828287491E+03 -0.22488946971E+02  0.73756470670E+03  0.75364835804E+03  0.83796791610E+02 0.  0.
         -6    2    1    2    0  501 -0.13678193149E+03 -0.28715186609E+02  0.11619002888E+04  0.11827913503E+04  0.17160780395E+03 0.  0.
        -24    2    5    5    0    0 -0.54125888128E+00 -0.24111363005E+02  0.50511861241E+03  0.51199557171E+03  0.80081221621E+02 0.  0.
          4    1    4    4  502    0  0.89233658512E+02  0.17481010766E+02  0.56476969816E+03  0.57204286859E+03  0.00000000000E+00 0. -1.
         -3    1    4    4    0  502  0.39049216398E+02 -0.39969957737E+02  0.17279500854E+03  0.18160548945E+03  0.00000000000E+00 0.  1.
          5    1    3    3  503    0  0.84990565808E+01  0.51204133580E+02  0.97839938487E+02  0.11085504419E+03  0.47000000000E+01 0. -1.
         11    1    6    6    0    0 -0.38293518119E+02  0.33865157928E+00  0.20878549966E+03  0.21226844580E+03  0.00000000000E+00 0. -1.
        -12    1    6    6    0    0  0.37752259238E+02 -0.24450014584E+02  0.29633311275E+03  0.29972712591E+03  0.00000000000E+00 0.  1.
         -5    1    5    5    0  501 -0.13624067261E+03 -0.46038236045E+01  0.65678167642E+03  0.67079577856E+03  0.47000000000E+01 0.  1.
<mgrwt>
<rscale>  2 0.22186384E+03</rscale>
<asrwt>0</asrwt>
<pdfrwt beam="1">  1        2 0.31112292E+00 0.22186384E+03</pdfrwt>
<pdfrwt beam="2">  1       -2 0.38453722E-02 0.22186384E+03</pdfrwt>
<totfact> 0.21148486E+03</totfact>
</mgrwt>
</event>
<event>
12    1  0.1093377E-001  0.2033657E+03  0.7546771E-02  0.1146930E+00
         -2   -1    0    0    0  501 -0.00000000000E+00  0.00000000000E+00  0.15146346932E+03  0.15146346932E+03  0.00000000000E+00 0. -1.
          2   -1    0    0  503    0  0.00000000000E+00 -0.00000000000E+00 -0.27318497413E+03  0.27318497413E+03  0.00000000000E+00 0.  1.
          6    2    1    2  503    0  0.63342144222E+02  0.87650520470E+02 -0.56299594165E+02  0.21130597339E+03  0.17258542555E+03 0.  0.
         24    2    3    3    0    0  0.33112719884E+02  0.12015579156E+03 -0.71165086015E+02  0.16425829978E+03  0.79890256693E+02 0.  0.
         -6    2    1    2    0  501 -0.63342144222E+02 -0.87650520470E+02 -0.65421910649E+02  0.21334247005E+03  0.17187245900E+03 0.  0.
        -24    2    5    5    0    0  0.15842195734E+02  0.26454230335E+01 -0.34353400670E+02  0.89201987457E+02  0.80739488480E+02 0.  0.
          4    1    4    4  502    0 -0.43638452974E+01  0.95977343218E+02 -0.71326936447E+02  0.11965878747E+03  0.00000000000E+00 0. -1.
         -3    1    4    4    0  502  0.37476565181E+02  0.24178448342E+02  0.16185043190E+00  0.44599512302E+02  0.00000000000E+00 0.  1.
          5    1    3    3  503    0  0.30229424338E+02 -0.32505271091E+02  0.14865491850E+02  0.47047673613E+02  0.47000000000E+01 0. -1.
         11    1    6    6    0    0  0.98050447314E+01 -0.15171828699E+02  0.22767252612E+02  0.29063225557E+02  0.00000000000E+00 0. -1.
        -12    1    6    6    0    0  0.60371510025E+01  0.17817251733E+02 -0.57120653282E+02  0.60138761900E+02  0.00000000000E+00 0.  1.
         -5    1    5    5    0  501 -0.79184339955E+02 -0.90295943503E+02 -0.31068509979E+02  0.12414048260E+03  0.47000000000E+01 0.  1.
<mgrwt>
<rscale>  2 0.20336567E+03</rscale>
<asrwt>0</asrwt>
<pdfrwt beam="2">  1        2 0.42028457E-01 0.20336567E+03</pdfrwt>
<pdfrwt beam="1">  1       -2 0.23302072E-01 0.20336567E+03</pdfrwt>
<totfact> 0.19297330E+03</totfact>
</mgrwt>
</event>
<event>
12    1  0.1093377E-001  0.2650436E+03  0.7546771E-02  0.1104150E+00
          3   -1    0    0  503    0  0.00000000000E+00  0.00000000000E+00  0.34850771832E+03  0.34850771832E+03  0.00000000000E+00 0. -1.
         -3   -1    0    0    0  501 -0.00000000000E+00 -0.00000000000E+00 -0.20204350700E+03  0.20204350700E+03  0.00000000000E+00 0.  1.
          6    2    1    2  503    0 -0.19683675263E+03  0.24860867862E+02  0.60024654702E+02  0.27222899877E+03  0.17647350698E+03 0.  0.
         24    2    3    3    0    0 -0.12420230435E+03  0.33198428430E+02 -0.31941494623E+02  0.15464864066E+03  0.79797211245E+02 0.  0.
         -6    2    1    2    0  501  0.19683675263E+03 -0.24860867862E+02  0.86439556617E+02  0.27832222655E+03  0.17501055656E+03 0.  0.
        -24    2    5    5    0    0  0.39478234281E+02  0.23269972383E+02  0.63301500747E+02  0.11208221720E+03  0.80345011168E+02 0.  0.
          2    1    4    4  502    0  0.19280988281E+01 -0.15396337823E+02  0.91921931459E+00  0.15543800938E+02  0.00000000000E+00 0. -1.
         -1    1    4    4    0  502 -0.12613040318E+03  0.48594766253E+02 -0.32860713937E+02  0.13910483972E+03  0.00000000000E+00 0.  1.
          5    1    3    3  503    0 -0.72634448279E+02 -0.83375605676E+01  0.91966149325E+02  0.11758035812E+03  0.47000000000E+01 0. -1.
         11    1    6    6    0    0 -0.12193377334E+02 -0.10616648605E+02  0.44726094755E+02  0.47558545294E+02  0.00000000000E+00 0. -1.
        -12    1    6    6    0    0  0.51671611615E+02  0.33886620988E+02  0.18575405992E+02  0.64523671909E+02  0.00000000000E+00 0.  1.
         -5    1    5    5    0  501  0.15735851835E+03 -0.48130840245E+02  0.23138055870E+02  0.16624000935E+03  0.47000000000E+01 0.  1.
<mgrwt>
<rscale>  2 0.26504357E+03</rscale>
<asrwt>0</asrwt>
<pdfrwt beam="1">  1        3 0.53616572E-01 0.26504357E+03</pdfrwt>
<pdfrwt beam="2">  1       -3 0.31083616E-01 0.26504357E+03</pdfrwt>
<totfact> 0.87108181E+01</totfact>
</mgrwt>
</event>
<event>
12    1  0.1093377E-001  0.1898000E+03  0.7546771E-02  0.1158642E+00
          2   -1    0    0  503    0  0.00000000000E+00  0.00000000000E+00  0.16637702295E+04  0.16637702295E+04  0.00000000000E+00 0. -1.
         -2   -1    0    0    0  501 -0.00000000000E+00 -0.00000000000E+00 -0.24446404714E+02  0.24446404714E+02  0.00000000000E+00 0.  1.
          6    2    1    2  503    0  0.28414513814E+02 -0.72933326298E+02  0.53682283123E+03  0.56960940322E+03  0.17363601420E+03 0.  0.
         24    2    3    3    0    0 -0.47809416245E+02 -0.49182257216E+02  0.36307148195E+03  0.37833519646E+03  0.81314114191E+02 0.  0.
         -6    2    1    2    0  501 -0.28414513814E+02  0.72933326298E+02  0.11025009936E+04  0.11186072310E+04  0.17218316339E+03 0.  0.
        -24    2    5    5    0    0  0.18322376129E+02  0.56757618359E+02  0.34285536160E+03  0.35733883774E+03  0.81142524447E+02 0.  0.
          4    1    4    4  502    0 -0.30332322336E+02 -0.19938760876E+02  0.32589306774E+03  0.32790836458E+03  0.00000000000E+00 0. -1.
         -3    1    4    4    0  502 -0.17477093910E+02 -0.29243496340E+02  0.37178414216E+02  0.50426831879E+02  0.00000000000E+00 0.  1.
          5    1    3    3  503    0  0.76223930059E+02 -0.23751069082E+02  0.17375134927E+03  0.19127420676E+03  0.47000000000E+01 0. -1.
         11    1    6    6    0    0 -0.26422095146E+02  0.29626981719E+01  0.14639910755E+03  0.14879382844E+03  0.00000000000E+00 0. -1.
        -12    1    6    6    0    0  0.44744471275E+02  0.53794920187E+02  0.19645625405E+03  0.20854500930E+03  0.00000000000E+00 0.  1.
         -5    1    5    5    0  501 -0.46736889943E+02  0.16175707940E+02  0.75964563196E+03  0.76126839325E+03  0.47000000000E+01 0.  1.
<mgrwt>
<rscale>  2 0.18979998E+03</rscale>
<asrwt>0</asrwt>
<pdfrwt beam="1">  1        2 0.25596456E+00 0.18979998E+03</pdfrwt>
<pdfrwt beam="2">  1       -2 0.37609867E-02 0.18979998E+03</pdfrwt>
<totfact> 0.33617336E+03</totfact>
</mgrwt>
</event>
<event>
12    1  0.1093377E-001  0.2275507E+03  0.7546771E-02  0.1128376E+00
          2   -1    0    0  503    0  0.00000000000E+00  0.00000000000E+00  0.11400738177E+04  0.11400738177E+04  0.00000000000E+00 0. -1.
         -2   -1    0    0    0  501 -0.00000000000E+00 -0.00000000000E+00 -0.49814063523E+02  0.49814063523E+02  0.00000000000E+00 0.  1.
          6    2    1    2  503    0  0.11196023027E+03  0.10114202416E+03  0.36891115717E+03  0.43357242382E+03  0.17065990331E+03 0.  0.
         24    2    3    3    0    0  0.82775822822E+02  0.93131261447E+02  0.14497047158E+03  0.20754715395E+03  0.80833871489E+02 0.  0.
         -6    2    1    2    0  501 -0.11196023027E+03 -0.10114202416E+03  0.72134859698E+03  0.75631545737E+03  0.17001314798E+03 0.  0.
        -24    2    5    5    0    0  0.62881343769E+01 -0.37036740290E+02  0.21925823239E+03  0.23649915580E+03  0.80289585011E+02 0.  0.
          4    1    4    4  502    0  0.13752594707E+02  0.61730349088E+02  0.30439371772E+02  0.70187785359E+02  0.00000000000E+00 0. -1.
         -3    1    4    4    0  502  0.69023228115E+02  0.31400912359E+02  0.11453109981E+03  0.13735936859E+03  0.00000000000E+00 0.  1.
          5    1    3    3  503    0  0.29184407453E+02  0.80107627159E+01  0.22394068559E+03  0.22602526987E+03  0.47000000000E+01 0. -1.
         11    1    6    6    0    0  0.27425340336E+02 -0.54639685908E+02  0.15136950291E+03  0.16324941342E+03  0.00000000000E+00 0. -1.
        -12    1    6    6    0    0 -0.21137205959E+02  0.17602945619E+02  0.67888729472E+02  0.73249742385E+02  0.00000000000E+00 0.  1.
         -5    1    5    5    0  501 -0.11824836465E+03 -0.64105283873E+02  0.50209036459E+03  0.51981630157E+03  0.47000000000E+01 0.  1.
<mgrwt>
<rscale>  2 0.22755070E+03</rscale>
<asrwt>0</asrwt>
<pdfrwt beam="1">  1        2 0.17539595E+00 0.22755070E+03</pdfrwt>
<pdfrwt beam="2">  1       -2 0.76637029E-02 0.22755070E+03</pdfrwt>
<totfact> 0.21857982E+03</totfact>
</mgrwt>
</event>
<event>
12    1  0.1093377E-001  0.2015049E+03  0.7546771E-02  0.1148476E+00
          1   -1    0    0  503    0  0.00000000000E+00  0.00000000000E+00  0.12455939226E+04  0.12455939226E+04  0.00000000000E+00 0. -1.
         -1   -1    0    0    0  501 -0.00000000000E+00 -0.00000000000E+00 -0.34666434012E+02  0.34666434012E+02  0.00000000000E+00 0.  1.
          6    2    1    2  503    0  0.10339124643E+03  0.35750815559E+01  0.44736090666E+03  0.49039304055E+03  0.17219472224E+03 0.  0.
         24    2    3    3    0    0  0.20519781803E+02 -0.52535078228E+02  0.25883116066E+03  0.27689459839E+03  0.80598095487E+02 0.  0.
         -6    2    1    2    0  501 -0.10339124643E+03 -0.35750815559E+01  0.76356658196E+03  0.78986731609E+03  0.17364884365E+03 0.  0.
        -24    2    5    5    0    0  0.47116384695E+01  0.34185939751E+02  0.31734370061E+03  0.32916233642E+03  0.80311527116E+02 0.  0.
          4    1    4    4  502    0  0.62823237828E+01 -0.50313523496E+01  0.19908887697E+03  0.19925150698E+03  0.00000000000E+00 0. -1.
         -3    1    4    4    0  502  0.14237458020E+02 -0.47503725878E+02  0.59742283694E+02  0.77643091413E+02  0.00000000000E+00 0.  1.
          5    1    3    3  503    0  0.82871464630E+02  0.56110159784E+02  0.18852974600E+03  0.21349844217E+03  0.47000000000E+01 0. -1.
         13    1    6    6    0    0 -0.28569884989E+00 -0.16712787200E+01  0.26777400463E+03  0.26777937252E+03  0.00000000000E+00 0. -1.
        -14    1    6    6    0    0  0.49973373194E+01  0.35857218471E+02  0.49569695983E+02  0.61382963896E+02  0.00000000000E+00 0.  1.
         -5    1    5    5    0  501 -0.10810288490E+03 -0.37761021307E+02  0.44622288135E+03  0.46070497967E+03  0.47000000000E+01 0.  1.
<mgrwt>
<rscale>  2 0.20150490E+03</rscale>
<asrwt>0</asrwt>
<pdfrwt beam="1">  1        1 0.19162980E+00 0.20150490E+03</pdfrwt>
<pdfrwt beam="2">  1       -1 0.53332985E-02 0.20150490E+03</pdfrwt>
<totfact> 0.16993975E+03</totfact>
</mgrwt>
</event>
<event>
12    1  0.1093377E-001  0.1964939E+03  0.7546771E-02  0.1152731E+00
         -1   -1    0    0    0  501 -0.00000000000E+00  0.00000000000E+00  0.63802264853E+02  0.63802264853E+02  0.00000000000E+00 0. -1.
          1   -1    0    0  503    0  0.00000000000E+00 -0.00000000000E+00 -0.61131781575E+03  0.61131781575E+03  0.00000000000E+00 0.  1.
          6    2    1    2  503    0  0.81024069508E+02 -0.46755604839E+02 -0.24018202459E+03  0.31047081477E+03  0.17307147503E+03 0.  0.
         24    2    3    3    0    0  0.92115305304E+02 -0.82300655854E+02 -0.22730304693E+03  0.27079179981E+03  0.80018099676E+02 0.  0.
         -6    2    1    2    0  501 -0.81024069508E+02  0.46755604839E+02 -0.30733352631E+03  0.36464926583E+03  0.17252305426E+03 0.  0.
        -24    2    5    5    0    0 -0.26222359641E+00 -0.15161905009E+02 -0.76201725382E+02  0.11206214585E+03  0.80754377316E+02 0.  0.
          2    1    4    4  502    0  0.64530758976E+02 -0.79512070127E+02 -0.11012817073E+03  0.15038152193E+03  0.00000000000E+00 0. -1.
         -1    1    4    4    0  502  0.27584546328E+02 -0.27885857264E+01 -0.11717487620E+03  0.12041027788E+03  0.00000000000E+00 0.  1.
          5    1    3    3  503    0 -0.11091235795E+02  0.35545051015E+02 -0.12878977661E+02  0.39679014966E+02  0.47000000000E+01 0. -1.
         11    1    6    6    0    0  0.12885972543E+00 -0.36858723645E+02 -0.81740104850E+02  0.89666196832E+02  0.00000000000E+00 0. -1.
        -12    1    6    6    0    0 -0.39108332183E+00  0.21696818636E+02  0.55383794678E+01  0.22395949014E+02  0.00000000000E+00 0.  1.
         -5    1    5    5    0  501 -0.80761845912E+02  0.61917509848E+02 -0.23113180093E+03  0.25258711998E+03  0.47000000000E+01 0.  1.
<mgrwt>
<rscale>  2 0.19649387E+03</rscale>
<asrwt>0</asrwt>
<pdfrwt beam="2">  1        1 0.94048892E-01 0.19649387E+03</pdfrwt>
<pdfrwt beam="1">  1       -1 0.98157333E-02 0.19649387E+03</pdfrwt>
<totfact> 0.21330291E+03</totfact>
</mgrwt>
</event>
<event>
12    1  0.1093377E-001  0.1842820E+03  0.7546771E-02  0.1163722E+00
          1   -1    0    0  503    0  0.00000000000E+00  0.00000000000E+00  0.32448152809E+03  0.32448152809E+03  0.00000000000E+00 0.  1.
         -1   -1    0    0    0  501 -0.00000000000E+00 -0.00000000000E+00 -0.12286461178E+03  0.12286461178E+03  0.00000000000E+00 0. -1.
          6    2    1    2  503    0  0.56218200844E+02 -0.38798610367E+02  0.18736331390E+03  0.26350114027E+03  0.17222665665E+03 0.  0.
         24    2    3    3    0    0  0.46512081214E+02 -0.68340139502E+02  0.19920224088E+03  0.22989815091E+03  0.79610794833E+02 0.  0.
         -6    2    1    2    0  501 -0.56218200844E+02  0.38798610367E+02  0.14253602409E+02  0.18384499959E+03  0.17008821365E+03 0.  0.
        -24    2    5    5    0    0  0.28013331102E+02  0.48790588580E+02  0.14972219608E+02  0.98889734817E+02  0.79935874542E+02 0.  0.
          4    1    4    4  502    0  0.48297576561E+02 -0.14721817263E+02  0.48822680658E+02  0.70235617402E+02  0.00000000000E+00 0. -1.
         -3    1    4    4    0  502 -0.17854953472E+01 -0.53618322240E+02  0.15037956022E+03  0.15966253351E+03  0.00000000000E+00 0.  1.
          5    1    3    3  503    0  0.97061196301E+01  0.29541529136E+02 -0.11838926987E+02  0.33602989363E+02  0.47000000000E+01 0. -1.
         11    1    6    6    0    0 -0.24810656708E+02  0.15960468037E+01  0.12933156632E+02  0.28024678270E+02  0.00000000000E+00 0. -1.
        -12    1    6    6    0    0  0.52823987810E+02  0.47194541777E+02  0.20390629759E+01  0.70865056547E+02  0.00000000000E+00 0.  1.
         -5    1    5    5    0  501 -0.84231531946E+02 -0.99919782138E+01 -0.71861719889E+00  0.84955264777E+02  0.47000000000E+01 0.  1.
<mgrwt>
<rscale>  2 0.18428200E+03</rscale>
<asrwt>0</asrwt>
<pdfrwt beam="1">  1        1 0.49920235E-01 0.18428200E+03</pdfrwt>
<pdfrwt beam="2">  1       -1 0.18902248E-01 0.18428200E+03</pdfrwt>
<totfact> 0.17360115E+03</totfact>
</mgrwt>
</event>
<event>
12    1  0.1093377E-001  0.1933172E+03  0.7546771E-02  0.1155503E+00
         -2   -1    0    0    0  501 -0.00000000000E+00  0.00000000000E+00  0.11191292815E+03  0.11191292815E+03  0.00000000000E+00 0.  1.
          2   -1    0    0  503    0  0.00000000000E+00 -0.00000000000E+00 -0.34089706954E+03  0.34089706954E+03  0.00000000000E+00 0. -1.
          6    2    1    2  503    0  0.52211391352E+02 -0.69579207741E+02 -0.82254663425E+02  0.21027744225E+03  0.17286838209E+03 0.  0.
         24    2    3    3    0    0  0.98773147234E+02 -0.72389992234E+02 -0.68074953789E+02  0.16129732602E+03  0.79913593704E+02 0.  0.
         -6    2    1    2    0  501 -0.52211391352E+02  0.69579207741E+02 -0.14672947797E+03  0.24253255544E+03  0.17240999160E+03 0.  0.
        -24    2    5    5    0    0 -0.20357840707E+02  0.11134242690E+03 -0.94797390616E+02  0.16852007770E+03  0.81245883689E+02 0.  0.
          2    1    4    4  502    0  0.55640701771E+02 -0.20136109725E+02 -0.72279094986E+02  0.93411017447E+02  0.00000000000E+00 0. -1.
         -1    1    4    4    0  502  0.43132445463E+02 -0.52253882509E+02  0.42041411973E+01  0.67886308576E+02  0.00000000000E+00 0.  1.
          5    1    3    3  503    0 -0.46561755882E+02  0.28107844936E+01 -0.14179709637E+02  0.48980116228E+02  0.47000000000E+01 0. -1.
         11    1    6    6    0    0 -0.50366095853E+02  0.55809670280E+02 -0.41278590895E+02  0.85763541057E+02  0.00000000000E+00 0. -1.
        -12    1    6    6    0    0  0.30008255146E+02  0.55532756617E+02 -0.53518799721E+02  0.82756536648E+02  0.00000000000E+00 0.  1.
         -5    1    5    5    0  501 -0.31853550645E+02 -0.41763219156E+02 -0.51932087355E+02  0.74012477732E+02  0.47000000000E+01 0.  1.
<mgrwt>
<rscale>  2 0.19331723E+03</rscale>
<asrwt>0</asrwt>
<pdfrwt beam="2">  1        2 0.52445704E-01 0.19331723E+03</pdfrwt>
<pdfrwt beam="1">  1       -2 0.17217373E-01 0.19331723E+03</pdfrwt>
<totfact> 0.25469468E+03</totfact>
</mgrwt>
</event>
<event>
12    1  0.1093377E-001  0.1783053E+03  0.7546771E-02  0.1169453E+00
         -2   -1    0    0    0  501 -0.00000000000E+00  0.00000000000E+00  0.35488242853E+02  0.35488242853E+02  0.00000000000E+00 0. -1.
          2   -1    0    0  503    0  0.00000000000E+00 -0.00000000000E+00 -0.90541858311E+03  0.90541858311E+03  0.00000000000E+00 0.  1.
          6    2    1    2  503    0 -0.44821244274E+01 -0.40562440278E+02 -0.38696172323E+03  0.42612035532E+03  0.17370601880E+03 0.  0.
         24    2    3    3    0    0  0.46777382337E+02 -0.49901025950E+00 -0.11956770374E+03  0.15088542454E+03  0.79256564723E+02 0.  0.
         -6    2    1    2    0  501  0.44821244274E+01  0.40562440278E+02 -0.48296861703E+03  0.51478647065E+03  0.17343882013E+03 0.  0.
        -24    2    5    5    0    0 -0.16683800605E+02  0.91235568532E+02 -0.35002793921E+03  0.37087303789E+03  0.80155934524E+02 0.  0.
          4    1    4    4  502    0 -0.15291779608E+02 -0.11095870549E+01  0.90840644961E+00  0.15358870704E+02  0.00000000000E+00 0. -1.
         -3    1    4    4    0  502  0.62069161945E+02  0.61057679536E+00 -0.12047611019E+03  0.13552655383E+03  0.00000000000E+00 0.  1.
          5    1    3    3  503    0 -0.51259506764E+02 -0.40063430018E+02 -0.26739401950E+03  0.27523493078E+03  0.47000000000E+01 0. -1.
         11    1    6    6    0    0  0.14513013223E+02  0.22682441078E+02 -0.23402923649E+02  0.35676568240E+02  0.00000000000E+00 0. -1.
        -12    1    6    6    0    0 -0.31196813828E+02  0.68553127455E+02 -0.32662501556E+03  0.33519646965E+03  0.00000000000E+00 0.  1.
         -5    1    5    5    0  501  0.21165925032E+02 -0.50673128254E+02 -0.13294067781E+03  0.14391343275E+03  0.47000000000E+01 0.  1.
<mgrwt>
<rscale>  2 0.17830527E+03</rscale>
<asrwt>0</asrwt>
<pdfrwt beam="2">  1        2 0.13929515E+00 0.17830527E+03</pdfrwt>
<pdfrwt beam="1">  1       -2 0.54597302E-02 0.17830527E+03</pdfrwt>
<totfact> 0.50747976E+03</totfact>
</mgrwt>
</event>
<event>
12    1  0.1093377E-001  0.2335171E+03  0.7546771E-02  0.1124188E+00
         -1   -1    0    0    0  501 -0.00000000000E+00  0.00000000000E+00  0.31437895823E+02  0.31437895823E+02  0.00000000000E+00 0.  1.
          1   -1    0    0  503    0  0.00000000000E+00 -0.00000000000E+00 -0.20362372041E+04  0.20362372041E+04  0.00000000000E+00 0. -1.
          6    2    1    2  503    0  0.11441251220E+03 -0.10679214277E+03 -0.60481986944E+03  0.64837037086E+03  0.17344243609E+03 0.  0.
         24    2    3    3    0    0  0.44694831519E+02 -0.71805455057E+02 -0.16515467986E+03  0.20181444799E+03  0.79368455949E+02 0.  0.
         -6    2    1    2    0  501 -0.11441251220E+03  0.10679214277E+03 -0.13999794388E+04  0.14193047291E+04  0.17317245760E+03 0.  0.
        -24    2    5    5    0    0 -0.13196204847E+02  0.17840971730E+02 -0.31866808360E+03  0.32961973391E+03  0.81285800614E+02 0.  0.
          2    1    4    4  502    0  0.52410616788E+02 -0.78618554302E+02 -0.10696303893E+03  0.14271945042E+03  0.00000000000E+00 0. -1.
         -1    1    4    4    0  502 -0.77157852686E+01  0.68130992453E+01 -0.58191640931E+02  0.59094997570E+02  0.00000000000E+00 0.  1.
          5    1    3    3  503    0  0.69717680677E+02 -0.34986687717E+02 -0.43966518959E+03  0.44655592287E+03  0.47000000000E+01 0. -1.
         13    1    6    6    0    0 -0.12223965286E+02  0.85646576586E+01 -0.31986773070E+03  0.32021577699E+03  0.00000000000E+00 0. -1.
        -14    1    6    6    0    0 -0.97223956049E+00  0.92763140719E+01  0.11996471038E+01  0.94039569170E+01  0.00000000000E+00 0.  1.
         -5    1    5    5    0  501 -0.10121630735E+03  0.88951171043E+02 -0.10813113552E+04  0.10896849951E+04  0.47000000000E+01 0.  1.
<mgrwt>
<rscale>  2 0.23351714E+03</rscale>
<asrwt>0</asrwt>
<pdfrwt beam="2">  1        1 0.31326729E+00 0.23351714E+03</pdfrwt>
<pdfrwt beam="1">  1       -1 0.48365989E-02 0.23351714E+03</pdfrwt>
<totfact> 0.59429258E+02</totfact>
</mgrwt>
</event>
<event>
12    1  0.1093377E-001  0.1827590E+03  0.7546771E-02  0.1165159E+00
          1   -1    0    0  503    0  0.00000000000E+00  0.00000000000E+00  0.29165365671E+04  0.29165365671E+04  0.00000000000E+00 0.  1.
         -1   -1    0    0    0  501 -0.00000000000E+00 -0.00000000000E+00 -0.13207372976E+02  0.13207372976E+02  0.00000000000E+00 0. -1.
          6    2    1    2  503    0  0.12796627433E+02 -0.56540491143E+02  0.19951973780E+04  0.20036788588E+04  0.17480220592E+03 0.  0.
         24    2    3    3    0    0 -0.17454710409E+02 -0.38141111528E+02  0.18967243355E+04  0.18989281514E+04  0.81274275152E+02 0.  0.
         -6    2    1    2    0  501 -0.12796627433E+02  0.56540491143E+02  0.90813181611E+03  0.92606508127E+03  0.17185039568E+03 0.  0.
        -24    2    5    5    0    0  0.51288594326E+02  0.66785957049E+02  0.55001810486E+03  0.56208787676E+03  0.79573749139E+02 0.  0.
          2    1    4    4  502    0 -0.41876109968E+02 -0.44983944758E+02  0.10293471889E+04  0.10311802942E+04  0.00000000000E+00 0. -1.
         -1    1    4    4    0  502  0.24421399559E+02  0.68428332301E+01  0.86737714666E+03  0.86774785720E+03  0.00000000000E+00 0.  1.
          5    1    3    3  503    0  0.30251337842E+02 -0.18399379615E+02  0.98473042494E+02  0.10475070744E+03  0.47000000000E+01 0. -1.
         11    1    6    6    0    0  0.15343242892E+02  0.15464710766E+02  0.24244673234E+02  0.32594118515E+02  0.00000000000E+00 0. -1.
        -12    1    6    6    0    0  0.35945351434E+02  0.51321246283E+02  0.52577343163E+03  0.52949375824E+03  0.00000000000E+00 0.  1.
         -5    1    5    5    0  501 -0.64085221759E+02 -0.10245465906E+02  0.35811371125E+03  0.36397720451E+03  0.47000000000E+01 0.  1.
<mgrwt>
<rscale>  2 0.18275899E+03</rscale>
<asrwt>0</asrwt>
<pdfrwt beam="1">  1        1 0.44869742E+00 0.18275899E+03</pdfrwt>
<pdfrwt beam="2">  1       -1 0.20319059E-02 0.18275899E+03</pdfrwt>
<totfact> 0.56366048E+02</totfact>
</mgrwt>
</event>
<event>
12    1  0.1093377E-001  0.2056105E+03  0.7546771E-02  0.1145090E+00
         -2   -1    0    0    0  501 -0.00000000000E+00  0.00000000000E+00  0.43541646429E+02  0.43541646429E+02  0.00000000000E+00 0. -1.
          2   -1    0    0  503    0  0.00000000000E+00 -0.00000000000E+00 -0.11026681256E+04  0.11026681256E+04  0.00000000000E+00 0.  1.
          6    2    1    2  503    0 -0.13955167416E+02 -0.11029906673E+03 -0.33262593350E+03  0.39131234157E+03  0.17356470324E+03 0.  0.
         24    2    3    3    0    0 -0.64217643649E+02 -0.39563842951E+02 -0.24235168012E+03  0.26600743655E+03  0.79601608137E+02 0.  0.
         -6    2    1    2    0  501  0.13955167416E+02  0.11029906673E+03 -0.72650054569E+03  0.75489743047E+03  0.17235561155E+03 0.  0.
        -24    2    5    5    0    0  0.30429141376E+01  0.80982255475E+02 -0.22451295457E+03  0.25191414613E+03  0.80543685175E+02 0.  0.
          4    1    4    4  502    0 -0.58518634618E+02 -0.43820454656E+02 -0.24694551692E+03  0.25753980502E+03  0.00000000000E+00 0. -1.
         -3    1    4    4    0  502 -0.56990090307E+01  0.42566117052E+01  0.45938368004E+01  0.84676315277E+01  0.00000000000E+00 0.  1.
          5    1    3    3  503    0  0.50262476233E+02 -0.70735223774E+02 -0.90274253380E+02  0.12530490502E+03  0.47000000000E+01 0. -1.
         13    1    6    6    0    0 -0.63118401466E+00 -0.16378358860E+02 -0.25185415526E+02  0.30049196120E+02  0.00000000000E+00 0. -1.
        -14    1    6    6    0    0  0.36740981522E+01  0.97360614335E+02 -0.19932753904E+03  0.22186495001E+03  0.00000000000E+00 0.  1.
         -5    1    5    5    0  501  0.10912253278E+02  0.29316811250E+02 -0.50198759112E+03  0.50298328434E+03  0.47000000000E+01 0.  1.
<mgrwt>
<rscale>  2 0.20561054E+03</rscale>
<asrwt>0</asrwt>
<pdfrwt beam="2">  1        2 0.16964125E+00 0.20561054E+03</pdfrwt>
<pdfrwt beam="1">  1       -2 0.66987148E-02 0.20561054E+03</pdfrwt>
<totfact> 0.28277605E+03</totfact>
</mgrwt>
</event>
<event>
12    1  0.1093377E-001  0.1741790E+03  0.7546771E-02  0.1173559E+00
         -2   -1    0    0    0  501 -0.00000000000E+00  0.00000000000E+00  0.66927308291E+02  0.66927308291E+02  0.00000000000E+00 0. -1.
          2   -1    0    0  503    0  0.00000000000E+00 -0.00000000000E+00 -0.68092725687E+03  0.68092725687E+03  0.00000000000E+00 0.  1.
          6    2    1    2  503    0  0.19840589347E+02 -0.33165169729E+02 -0.87792767706E+02  0.19273337670E+03  0.16716760142E+03 0.  0.
         24    2    3    3    0    0 -0.38447473050E+02  0.17077659832E+02 -0.31861890194E+02  0.97485315310E+02  0.81965553771E+02 0.  0.
         -6    2    1    2    0  501 -0.19840589347E+02  0.33165169729E+02 -0.52620718087E+03  0.55512118846E+03  0.17254552791E+03 0.  0.
        -24    2    5    5    0    0 -0.28087397971E+02  0.84540100718E+02 -0.38923639835E+03  0.40852487660E+03  0.86323058576E+02 0.  0.
          2    1    4    4  502    0  0.84790843129E+01  0.38061154912E+02 -0.23148933865E+02  0.45347762052E+02  0.00000000000E+00 0. -1.
         -1    1    4    4    0  502 -0.46926557363E+02 -0.20983495080E+02 -0.87129563289E+01  0.52137553257E+02  0.00000000000E+00 0.  1.
          5    1    3    3  503    0  0.58288062397E+02 -0.50242829562E+02 -0.55930877512E+02  0.95248061395E+02  0.47000000000E+01 0. -1.
         11    1    6    6    0    0 -0.31934086510E+02  0.86837331606E+02 -0.39232219162E+03  0.40308461901E+03  0.00000000000E+00 0. -1.
        -12    1    6    6    0    0  0.38466885388E+01 -0.22972308879E+01  0.30857932734E+01  0.54402575852E+01  0.00000000000E+00 0.  1.
         -5    1    5    5    0  501  0.82468086243E+01 -0.51374930989E+02 -0.13697078252E+03  0.14659631186E+03  0.47000000000E+01 0.  1.
<mgrwt>
<rscale>  2 0.17417896E+03</rscale>
<asrwt>0</asrwt>
<pdfrwt beam="2">  1        2 0.10475804E+00 0.17417896E+03</pdfrwt>
<pdfrwt beam="1">  1       -2 0.10296509E-01 0.17417896E+03</pdfrwt>
<totfact> 0.27119307E+03</totfact>
</mgrwt>
</event>
<event>
12    1  0.1093377E-001  0.1728167E+03  0.7546771E-02  0.1174942E+00
         -1   -1    0    0    0  501 -0.00000000000E+00  0.00000000000E+00  0.18809228284E+02  0.18809228284E+02  0.00000000000E+00 0. -1.
          1   -1    0    0  503    0  0.00000000000E+00 -0.00000000000E+00 -0.23692547220E+04  0.23692547220E+04  0.00000000000E+00 0.  1.
          6    2    1    2  503    0  0.39607276407E+01  0.64191086211E+00 -0.48730403551E+03  0.51688031029E+03  0.17229025718E+03 0.  0.
         24    2    3    3    0    0 -0.54997199940E+02 -0.31532086450E+02 -0.28607146396E+03  0.30468266378E+03  0.83520528257E+02 0.  0.
         -6    2    1    2    0  501 -0.39607276407E+01 -0.64191086211E+00 -0.18631414582E+04  0.18711836400E+04  0.17325132586E+03 0.  0.
        -24    2    5    5    0    0 -0.48871826726E+00  0.36363421930E+02 -0.51175592124E+03  0.51927890629E+03  0.80211734155E+02 0.  0.
          2    1    4    4  502    0 -0.26463422048E+00 -0.46760337869E+02 -0.15313963837E+03  0.16011979287E+03  0.00000000000E+00 0. -1.
         -1    1    4    4    0  502 -0.54732565719E+02  0.15228251420E+02 -0.13293182559E+03  0.14456287091E+03  0.00000000000E+00 0.  1.
          5    1    3    3  503    0  0.58957927580E+02  0.32173997312E+02 -0.20123257155E+03  0.21219764650E+03  0.47000000000E+01 0. -1.
         11    1    6    6    0    0  0.39683601820E+02  0.22221238374E+02 -0.26494222084E+03  0.26881769300E+03  0.00000000000E+00 0. -1.
        -12    1    6    6    0    0 -0.40172320087E+02  0.14142183556E+02 -0.24681370040E+03  0.25046121329E+03  0.00000000000E+00 0.  1.
         -5    1    5    5    0  501 -0.34720093735E+01 -0.37005332792E+02 -0.13513855370E+04  0.13519047337E+04  0.47000000000E+01 0.  1.
<mgrwt>
<rscale>  2 0.17281671E+03</rscale>
<asrwt>0</asrwt>
<pdfrwt beam="2">  1        1 0.36450057E+00 0.17281671E+03</pdfrwt>
<pdfrwt beam="1">  1       -1 0.28937286E-02 0.17281671E+03</pdfrwt>
<totfact> 0.78114914E+02</totfact>
</mgrwt>
</event>
<event>
12    1  0.1093377E-001  0.1918730E+03  0.7546771E-02  0.1156783E+00
          2   -1    0    0  503    0  0.00000000000E+00  0.00000000000E+00  0.21728899047E+03  0.21728899047E+03  0.00000000000E+00 0. -1.
         -2   -1    0    0    0  501 -0.00000000000E+00 -0.00000000000E+00 -0.17291040461E+03  0.17291040461E+03  0.00000000000E+00 0.  1.
          6    2    1    2  503    0  0.21928078446E+02  0.79435542053E+02 -0.56163376985E+01  0.19049988790E+03  0.17166192961E+03 0.  0.
         24    2    3    3    0    0 -0.51571048333E+02  0.43428672219E+02 -0.12874235284E+02  0.10819932053E+03  0.83640447347E+02 0.  0.
         -6    2    1    2    0  501 -0.21928078446E+02 -0.79435542053E+02  0.49994923560E+02  0.19969950718E+03  0.17489869874E+03 0.  0.
        -24    2    5    5    0    0 -0.42798682163E+02  0.17353358491E+02  0.10034096616E+02  0.92822797564E+02  0.79890690365E+02 0.  0.
          2    1    4    4  502    0 -0.17386822723E+01  0.51234172461E+02  0.10943483348E+02  0.52418730160E+02  0.00000000000E+00 0. -1.
         -1    1    4    4    0  502 -0.49832366061E+02 -0.78055002422E+01 -0.23817718632E+02  0.55780590371E+02  0.00000000000E+00 0.  1.
          5    1    3    3  503    0  0.73499126780E+02  0.36006869834E+02  0.72578975857E+01  0.82300567373E+02  0.47000000000E+01 0. -1.
         13    1    6    6    0    0  0.10670990752E+02  0.34068432147E+02  0.88851724045E+01  0.36789596373E+02  0.00000000000E+00 0. -1.
        -14    1    6    6    0    0 -0.53469672915E+02 -0.16715073656E+02  0.11489242116E+01  0.56033201192E+02  0.00000000000E+00 0.  1.
         -5    1    5    5    0  501  0.20870603716E+02 -0.96788900544E+02  0.39960826944E+02  0.10687670961E+03  0.47000000000E+01 0.  1.
<mgrwt>
<rscale>  2 0.19187303E+03</rscale>
<asrwt>0</asrwt>
<pdfrwt beam="1">  1        2 0.33429075E-01 0.19187303E+03</pdfrwt>
<pdfrwt beam="2">  1       -2 0.26601601E-01 0.19187303E+03</pdfrwt>
<totfact> 0.19536904E+03</totfact>
</mgrwt>
</event>
<event>
12    1  0.1093377E-001  0.1737398E+03  0.7546771E-02  0.1174003E+00
          2   -1    0    0  503    0  0.00000000000E+00  0.00000000000E+00  0.13554938444E+04  0.13554938444E+04  0.00000000000E+00 0.  1.
         -2   -1    0    0    0  501 -0.00000000000E+00 -0.00000000000E+00 -0.56639711225E+02  0.56639711225E+02  0.00000000000E+00 0. -1.
          6    2    1    2  503    0  0.72002205032E+00 -0.17619485706E+01  0.99386121002E+02  0.20014606903E+03  0.17371593193E+03 0.  0.
         24    2    3    3    0    0  0.58784561398E+01 -0.25934088707E+02  0.13330847165E+03  0.15791198712E+03  0.80361146443E+02 0.  0.
         -6    2    1    2    0  501 -0.72002205032E+00  0.17619485706E+01  0.11994680122E+04  0.12119874866E+04  0.17374271940E+03 0.  0.
        -24    2    5    5    0    0  0.74229552993E+01 -0.54457385325E+02  0.99162207492E+03  0.99646731303E+03  0.81314570505E+02 0.  0.
          2    1    4    4  502    0 -0.62439273668E+01  0.27539038287E+02  0.60514131101E+02  0.66778329731E+02  0.00000000000E+00 0. -1.
         -1    1    4    4    0  502  0.12122383507E+02 -0.53473126994E+02  0.72794340553E+02  0.91133657388E+02  0.00000000000E+00 0.  1.
          5    1    3    3  503    0 -0.51584340895E+01  0.24172140136E+02 -0.33922350652E+02  0.42234081910E+02  0.47000000000E+01 0. -1.
         13    1    6    6    0    0 -0.27170019647E+02 -0.42010350615E+02  0.32461591001E+03  0.32844873048E+03  0.00000000000E+00 0. -1.
        -14    1    6    6    0    0  0.34592974946E+02 -0.12447034710E+02  0.66700616492E+03  0.66801858254E+03  0.00000000000E+00 0.  1.
         -5    1    5    5    0  501 -0.81429773496E+01  0.56219333896E+02  0.20784593728E+03  0.21552017360E+03  0.47000000000E+01 0.  1.
<mgrwt>
<rscale>  2 0.17373975E+03</rscale>
<asrwt>0</asrwt>
<pdfrwt beam="1">  1        2 0.20853749E+00 0.17373975E+03</pdfrwt>
<pdfrwt beam="2">  1       -2 0.87138028E-02 0.17373975E+03</pdfrwt>
<totfact> 0.13578261E+03</totfact>
</mgrwt>
</event>
<event>
12    1  0.1093377E-001  0.1815871E+03  0.7546771E-02  0.1166276E+00
         -2   -1    0    0    0  501 -0.00000000000E+00  0.00000000000E+00  0.14910959854E+02  0.14910959854E+02  0.00000000000E+00 0.  1.
          2   -1    0    0  503    0  0.00000000000E+00 -0.00000000000E+00 -0.24549275904E+04  0.24549275904E+04  0.00000000000E+00 0. -1.
          6    2    1    2  503    0 -0.73939407982E+01 -0.55073612097E+02 -0.16049389252E+04  0.16151047606E+04  0.17218205735E+03 0.  0.
         24    2    3    3    0    0 -0.34674016397E+02 -0.18932980961E+02 -0.40117185861E+03  0.41047718809E+03  0.77407471393E+02 0.  0.
         -6    2    1    2    0  501  0.73939407982E+01  0.55073612097E+02 -0.83507770535E+03  0.85473378969E+03  0.17357218716E+03 0.  0.
        -24    2    5    5    0    0  0.23288198257E+02  0.10110854177E+03 -0.65963048579E+03  0.67259192460E+03  0.80636479630E+02 0.  0.
          2    1    4    4  502    0 -0.27965553472E+02  0.15083908370E+02 -0.32768176175E+03  0.32921867118E+03  0.00000000000E+00 0. -1.
         -1    1    4    4    0  502 -0.67084629255E+01 -0.34016889331E+02 -0.73490096855E+02  0.81258516909E+02  0.00000000000E+00 0.  1.
          5    1    3    3  503    0  0.27280075599E+02 -0.36140631136E+02 -0.12037670666E+04  0.12046275725E+04  0.47000000000E+01 0. -1.
         13    1    6    6    0    0 -0.45535902103E+01 -0.10092033230E+02 -0.14147674156E+03  0.14190931160E+03  0.00000000000E+00 0. -1.
        -14    1    6    6    0    0  0.27841788468E+02  0.11120057500E+03 -0.51815374424E+03  0.53068261299E+03  0.00000000000E+00 0.  1.
         -5    1    5    5    0  501 -0.15894257459E+02 -0.46034929672E+02 -0.17544721955E+03  0.18214186509E+03  0.47000000000E+01 0.  1.
<mgrwt>
<rscale>  2 0.18158711E+03</rscale>
<asrwt>0</asrwt>
<pdfrwt beam="2">  1        2 0.37768087E+00 0.18158711E+03</pdfrwt>
<pdfrwt beam="1">  1       -2 0.22939957E-02 0.18158711E+03</pdfrwt>
<totfact> 0.26965201E+03</totfact>
</mgrwt>
</event>
<event>
12    1  0.1093377E-001  0.3174012E+03  0.7546771E-02  0.1076852E+00
          1   -1    0    0  503    0  0.00000000000E+00  0.00000000000E+00  0.69906531953E+03  0.69906531953E+03  0.00000000000E+00 0.  1.
         -1   -1    0    0    0  501 -0.00000000000E+00 -0.00000000000E+00 -0.30269705614E+03  0.30269705614E+03  0.00000000000E+00 0. -1.
          6    2    1    2  503    0  0.11677755669E+03 -0.23940942156E+03  0.56070282396E+03  0.64426289245E+03  0.17243302736E+03 0.  0.
         24    2    3    3    0    0  0.10692117794E+03 -0.26026320883E+03  0.50793857686E+03  0.58648586919E+03  0.82431794441E+02 0.  0.
         -6    2    1    2    0  501 -0.11677755669E+03  0.23940942156E+03 -0.16433456057E+03  0.35749948321E+03  0.17276042320E+03 0.  0.
        -24    2    5    5    0    0 -0.14968694466E+03  0.16172611347E+03 -0.14093003152E+03  0.26982060233E+03  0.66184337134E+02 0.  0.
          2    1    4    4  502    0  0.12600188033E+02 -0.13718559872E+03  0.25370923643E+03  0.28869885674E+03  0.00000000000E+00 0. -1.
         -1    1    4    4    0  502  0.94320989902E+02 -0.12307761011E+03  0.25422934042E+03  0.29778701244E+03  0.00000000000E+00 0.  1.
          5    1    3    3  503    0  0.98563787524E+01  0.20853787272E+02  0.52764247101E+02  0.57777023269E+02  0.47000000000E+01 0. -1.
         13    1    6    6    0    0 -0.50904012368E+02  0.31461965677E+02 -0.68652096260E+02  0.91072411192E+02  0.00000000000E+00 0. -1.
        -14    1    6    6    0    0 -0.98782932288E+02  0.13026414779E+03 -0.72277935257E+02  0.17874819114E+03  0.00000000000E+00 0.  1.
         -5    1    5    5    0  501  0.32909387968E+02  0.77683308094E+02 -0.23404529052E+02  0.87678880884E+02  0.47000000000E+01 0.  1.
<mgrwt>
<rscale>  2 0.31740118E+03</rscale>
<asrwt>0</asrwt>
<pdfrwt beam="1">  1        1 0.10754851E+00 0.31740118E+03</pdfrwt>
<pdfrwt beam="2">  1       -1 0.46568778E-01 0.31740118E+03</pdfrwt>
<totfact> 0.13294923E+02</totfact>
</mgrwt>
</event>
<event>
12    1  0.1093377E-001  0.1906322E+03  0.7546771E-02  0.1157892E+00
          2   -1    0    0  503    0  0.00000000000E+00  0.00000000000E+00  0.82077094601E+03  0.82077094601E+03  0.00000000000E+00 0. -1.
         -2   -1    0    0    0  501 -0.00000000000E+00 -0.00000000000E+00 -0.44335866912E+02  0.44335866912E+02  0.00000000000E+00 0.  1.
          6    2    1    2  503    0  0.87001454163E+02 -0.10540833442E+02  0.36828149385E+03  0.41354558568E+03  0.16645819455E+03 0.  0.
         24    2    3    3    0    0  0.10058246094E+03  0.32461939784E+02  0.20195948428E+03  0.24115421955E+03  0.78721758964E+02 0.  0.
         -6    2    1    2    0  501 -0.87001454163E+02  0.10540833442E+02  0.40815358525E+03  0.45156122724E+03  0.17215641317E+03 0.  0.
        -24    2    5    5    0    0 -0.47951124773E+02 -0.49613707823E+02  0.14594905691E+03  0.17968478151E+03  0.78896534283E+02 0.  0.
          4    1    4    4  502    0  0.10438480256E+03  0.47258508654E+02  0.16246168153E+03  0.19880480782E+03  0.00000000000E+00 0. -1.
         -3    1    4    4    0  502 -0.38023416243E+01 -0.14796568870E+02  0.39497802749E+02  0.42349411733E+02  0.00000000000E+00 0.  1.
          5    1    3    3  503    0 -0.13581006774E+02 -0.43002773226E+02  0.16632200957E+03  0.17239136613E+03  0.47000000000E+01 0. -1.
         13    1    6    6    0    0 -0.27814500367E+02 -0.62402704977E+02  0.13892800670E+03  0.15481839382E+03  0.00000000000E+00 0. -1.
        -14    1    6    6    0    0 -0.20136624406E+02  0.12788997154E+02  0.70210502112E+01  0.24866387690E+02  0.00000000000E+00 0.  1.
         -5    1    5    5    0  501 -0.39050329390E+02  0.60154541265E+02  0.26220452834E+03  0.27187644573E+03  0.47000000000E+01 0.  1.
<mgrwt>
<rscale>  2 0.19063221E+03</rscale>
<asrwt>0</asrwt>
<pdfrwt beam="1">  1        2 0.12627244E+00 0.19063221E+03</pdfrwt>
<pdfrwt beam="2">  1       -2 0.68209032E-02 0.19063221E+03</pdfrwt>
<totfact> 0.41109695E+03</totfact>
</mgrwt>
</event>
<event>
12    1  0.1093377E-001  0.2322283E+03  0.7546771E-02  0.1125081E+00
          2   -1    0    0  503    0  0.00000000000E+00  0.00000000000E+00  0.11189820235E+04  0.11189820235E+04  0.00000000000E+00 0. -1.
         -2   -1    0    0    0  501 -0.00000000000E+00 -0.00000000000E+00 -0.49352499065E+02  0.49352499065E+02  0.00000000000E+00 0.  1.
          6    2    1    2  503    0  0.25273732282E+02 -0.15364421362E+03  0.62127239793E+03  0.66280397935E+03  0.17054153948E+03 0.  0.
         24    2    3    3    0    0  0.35882480938E+02 -0.17915402406E+03  0.57489387686E+03  0.60861585156E+03  0.80787179326E+02 0.  0.
         -6    2    1    2    0  501 -0.25273732282E+02  0.15364421362E+03  0.44835712652E+03  0.50553054323E+03  0.17404514160E+03 0.  0.
        -24    2    5    5    0    0  0.41639842819E+02  0.81358216106E+02  0.32870308446E+03  0.35047612778E+03  0.80216971838E+02 0.  0.
          4    1    4    4  502    0 -0.12364417386E+02 -0.34464339698E+02  0.20936018984E+03  0.21253789925E+03  0.00000000000E+00 0. -1.
         -3    1    4    4    0  502  0.48246898324E+02 -0.14468968437E+03  0.36553368702E+03  0.39607795231E+03  0.00000000000E+00 0.  1.
          5    1    3    3  503    0 -0.10608748656E+02  0.25509810440E+02  0.46378521073E+02  0.54188127793E+02  0.47000000000E+01 0. -1.
         13    1    6    6    0    0  0.10254124600E+02  0.80285133454E+02  0.28746466600E+03  0.29864156430E+03  0.00000000000E+00 0. -1.
        -14    1    6    6    0    0  0.31385718219E+02  0.10730826521E+01  0.41238418456E+02  0.51834563481E+02  0.00000000000E+00 0.  1.
         -5    1    5    5    0  501 -0.66913575101E+02  0.72285997518E+02  0.11965404206E+03  0.15505441546E+03  0.47000000000E+01 0.  1.
<mgrwt>
<rscale>  2 0.23222832E+03</rscale>
<asrwt>0</asrwt>
<pdfrwt beam="1">  1        2 0.17215106E+00 0.23222832E+03</pdfrwt>
<pdfrwt beam="2">  1       -2 0.75926930E-02 0.23222832E+03</pdfrwt>
<totfact> 0.22813307E+03</totfact>
</mgrwt>
</event>
<event>
12    1  0.1093377E-001  0.1757785E+03  0.7546771E-02  0.1171952E+00
          1   -1    0    0  503    0  0.00000000000E+00  0.00000000000E+00  0.55447633494E+02  0.55447633494E+02  0.00000000000E+00 0.  1.
         -1   -1    0    0    0  501 -0.00000000000E+00 -0.00000000000E+00 -0.63456188990E+03  0.63456188990E+03  0.00000000000E+00 0. -1.
          6    2    1    2  503    0 -0.29729739930E+02 -0.23131413830E+02 -0.41017623168E+03  0.44630698327E+03  0.17183265854E+03 0.  0.
         24    2    3    3    0    0  0.10826763624E+02 -0.25154154908E+02 -0.39402924096E+03  0.40235545575E+03  0.76687154864E+02 0.  0.
         -6    2    1    2    0  501  0.29729739930E+02  0.23131413830E+02 -0.16893802473E+03  0.24370254012E+03  0.17155743097E+03 0.  0.
        -24    2    5    5    0    0  0.51611863826E+02  0.41160748016E+02 -0.37294675443E+02  0.10895853970E+03  0.78250104750E+02 0.  0.
          2    1    4    4  502    0 -0.27149025952E+02  0.10526152781E+02 -0.15518213774E+03  0.15789035872E+03  0.00000000000E+00 0. -1.
         -1    1    4    4    0  502  0.37975789575E+02 -0.35680307689E+02 -0.23884710322E+03  0.24446509704E+03  0.00000000000E+00 0.  1.
          5    1    3    3  503    0 -0.40556503554E+02  0.20227410772E+01 -0.16146990713E+02  0.43951527517E+02  0.47000000000E+01 0. -1.
         13    1    6    6    0    0  0.37673077593E+02  0.22011735974E+02 -0.61295398462E+02  0.75238973734E+02  0.00000000000E+00 0. -1.
        -14    1    6    6    0    0  0.13938786233E+02  0.19149012041E+02  0.24000723019E+02  0.33719565971E+02  0.00000000000E+00 0.  1.
         -5    1    5    5    0  501 -0.21882123896E+02 -0.18029334185E+02 -0.13164334929E+03  0.13474400042E+03  0.47000000000E+01 0.  1.
<mgrwt>
<rscale>  2 0.17577853E+03</rscale>
<asrwt>0</asrwt>
<pdfrwt beam="1">  1        1 0.85304050E-02 0.17577853E+03</pdfrwt>
<pdfrwt beam="2">  1       -1 0.97624908E-01 0.17577853E+03</pdfrwt>
<totfact> 0.84108893E+02</totfact>
</mgrwt>
</event>
<event>
12    1  0.1093377E-001  0.1989661E+03  0.7546771E-02  0.1150614E+00
          2   -1    0    0  503    0  0.00000000000E+00  0.00000000000E+00  0.19540517257E+03  0.19540517257E+03  0.00000000000E+00 0.  1.
         -2   -1    0    0    0  501 -0.00000000000E+00 -0.00000000000E+00 -0.29377604303E+03  0.29377604303E+03  0.00000000000E+00 0. -1.
          6    2    1    2  503    0  0.49020665266E+02  0.78765750220E+02  0.86631544638E+02  0.21928171455E+03  0.17880821228E+03 0.  0.
         24    2    3    3    0    0  0.29097456418E+02  0.21617093570E+02  0.12134335406E+03  0.14935387373E+03  0.79173286660E+02 0.  0.
         -6    2    1    2    0  501 -0.49020665266E+02 -0.78765750220E+02 -0.18500241510E+03  0.26989950106E+03  0.17324196388E+03 0.  0.
        -24    2    5    5    0    0 -0.35502069763E+02 -0.18181548449E+02 -0.18580472738E+03  0.20764252046E+03  0.83672300817E+02 0.  0.
          2    1    4    4  502    0  0.57449305396E+01 -0.26357119296E+02  0.16251425401E+02  0.31493027673E+02  0.00000000000E+00 0. -1.
         -1    1    4    4    0  502  0.23352525879E+02  0.47974212865E+02  0.10509192866E+03  0.11786084606E+03  0.00000000000E+00 0.  1.
          5    1    3    3  503    0  0.19923208848E+02  0.57148656651E+02 -0.34711809419E+02  0.69927840814E+02  0.47000000000E+01 0. -1.
         11    1    6    6    0    0  0.22926839835E+02  0.75462312790E+01 -0.84667212648E+02  0.88040459386E+02  0.00000000000E+00 0. -1.
        -12    1    6    6    0    0 -0.58428909598E+02 -0.25727779728E+02 -0.10113751473E+03  0.11960206107E+03  0.00000000000E+00 0.  1.
         -5    1    5    5    0  501 -0.13518595503E+02 -0.60584201772E+02  0.80231227828E+00  0.62256980602E+02  0.47000000000E+01 0.  1.
<mgrwt>
<rscale>  2 0.19896614E+03</rscale>
<asrwt>0</asrwt>
<pdfrwt beam="1">  1        2 0.30062334E-01 0.19896614E+03</pdfrwt>
<pdfrwt beam="2">  1       -2 0.45196314E-01 0.19896614E+03</pdfrwt>
<totfact> 0.81934704E+02</totfact>
</mgrwt>
</event>
<event>
12    1  0.1093377E-001  0.2412767E+03  0.7546771E-02  0.1118945E+00
         -2   -1    0    0    0  501 -0.00000000000E+00  0.00000000000E+00  0.20683380776E+03  0.20683380776E+03  0.00000000000E+00 0.  1.
          2   -1    0    0  503    0  0.00000000000E+00 -0.00000000000E+00 -0.46669468681E+03  0.46669468681E+03  0.00000000000E+00 0. -1.
          6    2    1    2  503    0 -0.14603159096E+03 -0.84882240520E+02 -0.34202028812E+03  0.41842479245E+03  0.17196281322E+03 0.  0.
         24    2    3    3    0    0 -0.17168291805E+03 -0.67173952352E+02 -0.24627039024E+03  0.31761949994E+03  0.79029598323E+02 0.  0.
         -6    2    1    2    0  501  0.14603159096E+03  0.84882240520E+02  0.82159409078E+02  0.25510370213E+03  0.17261955284E+03 0.  0.
        -24    2    5    5    0    0  0.13506005888E+03  0.11135812785E+03  0.31193160104E+02  0.19644370161E+03  0.83518037118E+02 0.  0.
          2    1    4    4  502    0 -0.59305090177E+02  0.13709054139E+02 -0.59451350843E+02  0.85085222003E+02  0.00000000000E+00 0. -1.
         -1    1    4    4    0  502 -0.11237782788E+03 -0.80883006490E+02 -0.18681903939E+03  0.23253427794E+03  0.00000000000E+00 0.  1.
          5    1    3    3  503    0  0.25651327087E+02 -0.17708288169E+02 -0.95749897888E+02  0.10080529250E+03  0.47000000000E+01 0. -1.
         13    1    6    6    0    0  0.87078588157E+02  0.10356748155E+03  0.50098295714E+02  0.14428701599E+03  0.00000000000E+00 0. -1.
        -14    1    6    6    0    0  0.47981470723E+02  0.77906462928E+01 -0.18905135610E+02  0.52156685620E+02  0.00000000000E+00 0.  1.
         -5    1    5    5    0  501  0.10971532085E+02 -0.26475887327E+02  0.50966248973E+02  0.58660000515E+02  0.47000000000E+01 0.  1.
<mgrwt>
<rscale>  2 0.24127675E+03</rscale>
<asrwt>0</asrwt>
<pdfrwt beam="2">  1        2 0.71799183E-01 0.24127675E+03</pdfrwt>
<pdfrwt beam="1">  1       -2 0.31820586E-01 0.24127675E+03</pdfrwt>
<totfact> 0.62003002E+02</totfact>
</mgrwt>
</event>
<event>
12    1  0.1093377E-001  0.2034148E+03  0.7546771E-02  0.1146889E+00
          2   -1    0    0  503    0  0.00000000000E+00  0.00000000000E+00  0.92189767540E+03  0.92189767540E+03  0.00000000000E+00 0. -1.
         -2   -1    0    0    0  501 -0.00000000000E+00 -0.00000000000E+00 -0.57764924474E+02  0.57764924474E+02  0.00000000000E+00 0.  1.
          6    2    1    2  503    0 -0.12240319797E+02  0.10627352888E+03  0.66613346752E+03  0.69699630643E+03  0.17500333213E+03 0.  0.
         24    2    3    3    0    0 -0.61350723003E+02  0.57723856776E+02  0.25872752735E+03  0.28375231984E+03  0.80495284044E+02 0.  0.
         -6    2    1    2    0  501  0.12240319797E+02 -0.10627352888E+03  0.19799928340E+03  0.28266629344E+03  0.17103399911E+03 0.  0.
        -24    2    5    5    0    0  0.11711501213E+02 -0.11421076762E+03  0.21872854826E+03  0.25997109947E+03  0.81003308779E+02 0.  0.
          4    1    4    4  502    0 -0.67282434858E+01 -0.19445569684E+02  0.65113911213E+02  0.68287779831E+02  0.00000000000E+00 0. -1.
         -3    1    4    4    0  502 -0.54622479517E+02  0.77169426461E+02  0.19361361613E+03  0.21546454001E+03  0.00000000000E+00 0.  1.
          5    1    3    3  503    0  0.49110403206E+02  0.48549672100E+02  0.40740594018E+03  0.41324398659E+03  0.47000000000E+01 0. -1.
         13    1    6    6    0    0  0.99503783286E+01 -0.12645386832E+03  0.18743396793E+03  0.22632075286E+03  0.00000000000E+00 0. -1.
        -14    1    6    6    0    0  0.17611228846E+01  0.12243100702E+02  0.31294580326E+02  0.33650346601E+02  0.00000000000E+00 0.  1.
         -5    1    5    5    0  501  0.52881858418E+00  0.79372387409E+01 -0.20729264859E+02  0.22695193974E+02  0.47000000000E+01 0.  1.
<mgrwt>
<rscale>  2 0.20341481E+03</rscale>
<asrwt>0</asrwt>
<pdfrwt beam="1">  1        2 0.14183040E+00 0.20341481E+03</pdfrwt>
<pdfrwt beam="2">  1       -2 0.88869121E-02 0.20341481E+03</pdfrwt>
<totfact> 0.23433917E+03</totfact>
</mgrwt>
</event>
<event>
12    1  0.1093377E-001  0.2521539E+03  0.7546771E-02  0.1111951E+00
         -1   -1    0    0    0  501 -0.00000000000E+00  0.00000000000E+00  0.90329751917E+03  0.90329751917E+03  0.00000000000E+00 0. -1.
          1   -1    0    0  503    0  0.00000000000E+00 -0.00000000000E+00 -0.82711820568E+02  0.82711820568E+02  0.00000000000E+00 0.  1.
          6    2    1    2  503    0  0.15480843785E+03 -0.98455010749E+02  0.22029243298E+03  0.33499048935E+03  0.17329405746E+03 0.  0.
         24    2    3    3    0    0  0.10357725741E+03  0.10040220904E+02  0.10057455636E+03  0.16543132821E+03  0.80145047756E+02 0.  0.
         -6    2    1    2    0  501 -0.15480843785E+03  0.98455010749E+02  0.60029326562E+03  0.65101885040E+03  0.17266875007E+03 0.  0.
        -24    2    5    5    0    0 -0.93869170556E+02 -0.28444651380E+01  0.39870486834E+03  0.41727721946E+03  0.79593929929E+02 0.  0.
          4    1    4    4  502    0  0.83266886888E+02 -0.28153962715E+02  0.71552560092E+02  0.11333926471E+03  0.00000000000E+00 0. -1.
         -3    1    4    4    0  502  0.20310370518E+02  0.38194183619E+02  0.29021996263E+02  0.52092063503E+02  0.00000000000E+00 0.  1.
          5    1    3    3  503    0  0.51231180441E+02 -0.10849523165E+03  0.11971787663E+03  0.16955916114E+03  0.47000000000E+01 0. -1.
         11    1    6    6    0    0 -0.52436378240E+02  0.36354316324E+02  0.17036600507E+03  0.18192247184E+03  0.00000000000E+00 0. -1.
        -12    1    6    6    0    0 -0.41432792316E+02 -0.39198781462E+02  0.22833886327E+03  0.23535474762E+03  0.00000000000E+00 0.  1.
         -5    1    5    5    0  501 -0.60939267291E+02  0.10129947589E+03  0.20158839729E+03  0.23374163094E+03  0.47000000000E+01 0.  1.
<mgrwt>
<rscale>  2 0.25215395E+03</rscale>
<asrwt>0</asrwt>
<pdfrwt beam="2">  1        1 0.12724896E-01 0.25215395E+03</pdfrwt>
<pdfrwt beam="1">  1       -1 0.13896884E+00 0.25215395E+03</pdfrwt>
<totfact> 0.21449968E+02</totfact>
</mgrwt>
</event>
<event>
12    1  0.1093377E-001  0.1853729E+03  0.7546771E-02  0.1162702E+00
         -1   -1    0    0    0  501 -0.00000000000E+00  0.00000000000E+00  0.94667459647E+02  0.94667459647E+02  0.00000000000E+00 0. -1.
          1   -1    0    0  503    0  0.00000000000E+00 -0.00000000000E+00 -0.36303494331E+03  0.36303494331E+03  0.00000000000E+00 0.  1.
          6    2    1    2  503    0  0.63914366155E+02  0.18864031768E+02 -0.13670282281E+03  0.23022390102E+03  0.17284237021E+03 0.  0.
         24    2    3    3    0    0  0.54063510551E+02  0.74720270361E+02 -0.11385805076E+03  0.16889746010E+03  0.84004251853E+02 0.  0.
         -6    2    1    2    0  501 -0.63914366155E+02 -0.18864031768E+02 -0.13166466085E+03  0.22747850194E+03  0.17311842199E+03 0.  0.
        -24    2    5    5    0    0 -0.11967711116E+02  0.53861686731E+02 -0.67841834201E+02  0.11755612795E+03  0.78566031748E+02 0.  0.
          2    1    4    4  502    0  0.36209840720E+02  0.16091881205E+02 -0.97829486762E+02  0.10554956033E+03  0.00000000000E+00 0. -1.
         -1    1    4    4    0  502  0.17853669831E+02  0.58628389156E+02 -0.16028563997E+02  0.63347899770E+02  0.00000000000E+00 0.  1.
          5    1    3    3  503    0  0.98508556040E+01 -0.55856238593E+02 -0.22844772051E+02  0.61326440920E+02  0.47000000000E+01 0. -1.
         13    1    6    6    0    0  0.21170130834E+02  0.28501695068E+01  0.57078824565E+01  0.22110581808E+02  0.00000000000E+00 0. -1.
        -14    1    6    6    0    0 -0.33137841950E+02  0.51011517224E+02 -0.73549716658E+02  0.95445546145E+02  0.00000000000E+00 0.  1.
         -5    1    5    5    0  501 -0.51946655039E+02 -0.72725718498E+02 -0.63822826653E+02  0.10992237399E+03  0.47000000000E+01 0.  1.
<mgrwt>
<rscale>  2 0.18537287E+03</rscale>
<asrwt>0</asrwt>
<pdfrwt beam="2">  1        1 0.55851530E-01 0.18537287E+03</pdfrwt>
<pdfrwt beam="1">  1       -1 0.14564225E-01 0.18537287E+03</pdfrwt>
<totfact> 0.22829981E+03</totfact>
</mgrwt>
</event>
<event>
12    1  0.1093377E-001  0.2096329E+03  0.7546771E-02  0.1141857E+00
          2   -1    0    0  503    0  0.00000000000E+00  0.00000000000E+00  0.55828218600E+03  0.55828218600E+03  0.00000000000E+00 0.  1.
         -2   -1    0    0    0  501 -0.00000000000E+00 -0.00000000000E+00 -0.83694186417E+02  0.83694186417E+02  0.00000000000E+00 0. -1.
          6    2    1    2  503    0 -0.10022705327E+03  0.62533885351E+02  0.15958534770E+03  0.26389023545E+03  0.17382354312E+03 0.  0.
         24    2    3    3    0    0 -0.82898279625E+02  0.21108369646E+02  0.17964576639E+03  0.21448507231E+03  0.80084685339E+02 0.  0.
         -6    2    1    2    0  501  0.10022705327E+03 -0.62533885351E+02  0.31500265189E+03  0.37808613697E+03  0.17252972859E+03 0.  0.
        -24    2    5    5    0    0  0.11229387549E+03 -0.44081053069E+02  0.13931184521E+03  0.20095492919E+03  0.80137629354E+02 0.  0.
          2    1    4    4  502    0 -0.50740585285E+02  0.48293806771E+02  0.80158393550E+02  0.10645312031E+03  0.00000000000E+00 0. -1.
         -1    1    4    4    0  502 -0.32157694341E+02 -0.27185437125E+02  0.99487372842E+02  0.10803195200E+03  0.00000000000E+00 0.  1.
          5    1    3    3  503    0 -0.17328773645E+02  0.41425515705E+02 -0.20060418691E+02  0.49405163146E+02  0.47000000000E+01 0. -1.
         13    1    6    6    0    0  0.49948409215E+02 -0.10979145837E+01  0.97757319669E+01  0.50907896588E+02  0.00000000000E+00 0. -1.
        -14    1    6    6    0    0  0.62345466275E+02 -0.42983138485E+02  0.12953611324E+03  0.15004703260E+03  0.00000000000E+00 0.  1.
         -5    1    5    5    0  501 -0.12066822221E+02 -0.18452832282E+02  0.17569080668E+03  0.17713120778E+03  0.47000000000E+01 0.  1.
<mgrwt>
<rscale>  2 0.20963288E+03</rscale>
<asrwt>0</asrwt>
<pdfrwt beam="1">  1        2 0.85889565E-01 0.20963288E+03</pdfrwt>
<pdfrwt beam="2">  1       -2 0.12876029E-01 0.20963288E+03</pdfrwt>
<totfact> 0.23980920E+03</totfact>
</mgrwt>
</event>
<event>
12    1  0.1246326E-001  0.1837391E+03  0.7546771E-02  0.1164233E+00
          2   -1    0    0  503    0  0.00000000000E+00  0.00000000000E+00  0.97707821247E+03  0.97707821247E+03  0.00000000000E+00 0.  1.
         -2   -1    0    0    0  501 -0.00000000000E+00 -0.00000000000E+00 -0.59492026115E+02  0.59492026115E+02  0.00000000000E+00 0. -1.
          6    2    1    2  503    0 -0.82165644195E+01  0.41044030070E+02  0.12868126779E+03  0.22736843413E+03  0.18271675299E+03 0.  0.
         24    2    3    3    0    0  0.15072530016E+02 -0.25953053587E+02  0.13667188014E+03  0.15583570719E+03  0.68591709856E+02 0.  0.
         -6    2    1    2    0  501  0.82165644195E+01 -0.41044030070E+02  0.78890491856E+03  0.80920180445E+03  0.17516981894E+03 0.  0.
        -24    2    5    5    0    0  0.51601809516E+02  0.32119197469E+02  0.37009796099E+03  0.38181849282E+03  0.71543491225E+02 0.  0.
          4    1    4    4  502    0  0.18828078787E+02 -0.48492191962E+02  0.95384852805E+02  0.10864740851E+03  0.00000000000E+00 0. -1.
         -3    1    4    4    0  502 -0.37555487704E+01  0.22539138375E+02  0.41287027337E+02  0.47188298673E+02  0.00000000000E+00 0.  1.
          5    1    3    3  503    0 -0.23289094436E+02  0.66997083657E+02 -0.79906123500E+01  0.71532726943E+02  0.47000000000E+01 0. -1.
         11    1    6    6    0    0  0.14285475511E+02  0.72899867561E+01  0.99107305546E+01  0.18853150867E+02  0.00000000000E+00 0. -1.
        -12    1    6    6    0    0  0.37316334004E+02  0.24829210713E+02  0.36018723044E+03  0.36296534195E+03  0.00000000000E+00 0.  1.
         -5    1    5    5    0  501 -0.43385245096E+02 -0.73163227539E+02  0.41880695757E+03  0.42738331164E+03  0.47000000000E+01 0.  1.
<mgrwt>
<rscale>  2 0.18373912E+03</rscale>
<asrwt>0</asrwt>
<pdfrwt beam="1">  1        2 0.15031971E+00 0.18373912E+03</pdfrwt>
<pdfrwt beam="2">  1       -2 0.91526201E-02 0.18373912E+03</pdfrwt>
<totfact> 0.20645201E+03</totfact>
</mgrwt>
</event>
<event>
12    1  0.1093377E-001  0.2589695E+03  0.7546771E-02  0.1107764E+00
          4   -1    0    0  503    0  0.00000000000E+00  0.00000000000E+00  0.49017656572E+03  0.49017656572E+03  0.00000000000E+00 0. -1.
         -4   -1    0    0    0  501 -0.00000000000E+00 -0.00000000000E+00 -0.14692233097E+03  0.14692233097E+03  0.00000000000E+00 0.  1.
          6    2    1    2  503    0  0.34873538889E+02 -0.19069646797E+03  0.88587508049E+02  0.27445671804E+03  0.17290875305E+03 0.  0.
         24    2    3    3    0    0  0.30586132862E+02 -0.18485449992E+03  0.12354223615E+03  0.23845069830E+03  0.80556525156E+02 0.  0.
         -6    2    1    2    0  501 -0.34873538889E+02  0.19069646797E+03  0.25466672670E+03  0.36264217865E+03  0.17050777530E+03 0.  0.
        -24    2    5    5    0    0  0.20396510637E+01  0.16204392626E+03  0.11251385217E+03  0.21293218742E+03  0.80114638456E+02 0.  0.
          2    1    4    4  502    0  0.52549301769E+02 -0.13750892670E+03  0.11206973137E+03  0.18501286098E+03  0.00000000000E+00 0. -1.
         -1    1    4    4    0  502 -0.21963168907E+02 -0.47345573213E+02  0.11472504774E+02  0.53437837317E+02  0.00000000000E+00 0.  1.
          5    1    3    3  503    0  0.42874060275E+01 -0.58419680571E+01 -0.34954728096E+02  0.36006019740E+02  0.47000000000E+01 0. -1.
         13    1    6    6    0    0 -0.36820660347E+02  0.10618106809E+03  0.63660476321E+02  0.12916205517E+03  0.00000000000E+00 0. -1.
        -14    1    6    6    0    0  0.38860311411E+02  0.55862858163E+02  0.48853375853E+02  0.83770132250E+02  0.00000000000E+00 0.  1.
         -5    1    5    5    0  501 -0.36913189953E+02  0.28652541717E+02  0.14215287452E+03  0.14970999123E+03  0.47000000000E+01 0.  1.
<mgrwt>
<rscale>  2 0.25896951E+03</rscale>
<asrwt>0</asrwt>
<pdfrwt beam="1">  1        4 0.75411778E-01 0.25896951E+03</pdfrwt>
<pdfrwt beam="2">  1       -4 0.22603436E-01 0.25896951E+03</pdfrwt>
<totfact> 0.53480129E+01</totfact>
</mgrwt>
</event>
<event>
12    1  0.1093377E-001  0.1869987E+03  0.7546771E-02  0.1161197E+00
          1   -1    0    0  503    0  0.00000000000E+00  0.00000000000E+00  0.73644580321E+03  0.73644580321E+03  0.00000000000E+00 0. -1.
         -1   -1    0    0    0  501 -0.00000000000E+00 -0.00000000000E+00 -0.49320402101E+02  0.49320402101E+02  0.00000000000E+00 0.  1.
          6    2    1    2  503    0 -0.15297604385E+02  0.74628988115E+02  0.26450858884E+03  0.32285958781E+03  0.16873060570E+03 0.  0.
         24    2    3    3    0    0 -0.69733228033E+01  0.11215454726E+03  0.24026662646E+03  0.27717344119E+03  0.80435035955E+02 0.  0.
         -6    2    1    2    0  501  0.15297604385E+02 -0.74628988115E+02  0.42261681227E+03  0.46290661751E+03  0.17284115236E+03 0.  0.
        -24    2    5    5    0    0  0.28506616560E+02  0.17151365646E+02  0.28022701065E+03  0.29292115652E+03  0.78541899083E+02 0.  0.
          4    1    4    4  502    0 -0.33022706596E+02  0.99203850804E+02  0.21310966812E+03  0.23737656542E+03  0.00000000000E+00 0. -1.
         -3    1    4    4    0  502  0.26049383792E+02  0.12950696453E+02  0.27156958339E+02  0.39796875767E+02  0.00000000000E+00 0.  1.
          5    1    3    3  503    0 -0.83242815817E+01 -0.37525559142E+02  0.24241962386E+02  0.45686146622E+02  0.47000000000E+01 0. -1.
         13    1    6    6    0    0  0.32547771069E+02 -0.25226487244E+02  0.11009859401E+03  0.11754757957E+03  0.00000000000E+00 0. -1.
        -14    1    6    6    0    0 -0.40411545084E+01  0.42377852890E+02  0.17012841664E+03  0.17537357695E+03  0.00000000000E+00 0.  1.
         -5    1    5    5    0  501 -0.13209012175E+02 -0.91780353762E+02  0.14238980162E+03  0.16998546098E+03  0.47000000000E+01 0.  1.
<mgrwt>
<rscale>  2 0.18699866E+03</rscale>
<asrwt>0</asrwt>
<pdfrwt beam="1">  1        1 0.11329935E+00 0.18699866E+03</pdfrwt>
<pdfrwt beam="2">  1       -1 0.75877547E-02 0.18699866E+03</pdfrwt>
<totfact> 0.24201036E+03</totfact>
</mgrwt>
</event>
<event>
12    1  0.1093377E-001  0.1725894E+03  0.7546771E-02  0.1175174E+00
          1   -1    0    0  503    0  0.00000000000E+00  0.00000000000E+00  0.13120630987E+02  0.13120630987E+02  0.00000000000E+00 0. -1.
         -1   -1    0    0    0  501 -0.00000000000E+00 -0.00000000000E+00 -0.26353830990E+04  0.26353830990E+04  0.00000000000E+00 0.  1.
          6    2    1    2  503    0  0.60489470504E+01  0.16912879280E+01 -0.81758861310E+03  0.83558680832E+03  0.17237959203E+03 0.  0.
         24    2    3    3    0    0  0.43697562158E+02  0.24254693389E+02 -0.74061935569E+03  0.74685754555E+03  0.82349233323E+02 0.  0.
         -6    2    1    2    0  501 -0.60489470504E+01 -0.16912879280E+01 -0.18046738550E+04  0.18129169217E+04  0.17257054226E+03 0.  0.
        -24    2    5    5    0    0  0.10480126590E+02  0.56746610326E+02 -0.74725065344E+03  0.75374077237E+03  0.80072479871E+02 0.  0.
          4    1    4    4  502    0  0.64306933228E+02  0.34490048671E+02 -0.53468145260E+03  0.53963802764E+03  0.00000000000E+00 0. -1.
         -3    1    4    4    0  502 -0.20609371070E+02 -0.10235355283E+02 -0.20593790309E+03  0.20721951791E+03  0.00000000000E+00 0.  1.
          5    1    3    3  503    0 -0.37648615108E+02 -0.22563405461E+02 -0.76969257408E+02  0.88729262769E+02  0.47000000000E+01 0. -1.
         13    1    6    6    0    0 -0.29521983037E+02  0.46478296696E+00 -0.20685009596E+03  0.20894670542E+03  0.00000000000E+00 0. -1.
        -14    1    6    6    0    0  0.40002109627E+02  0.56281827359E+02 -0.54040055748E+03  0.54479406695E+03  0.00000000000E+00 0.  1.
         -5    1    5    5    0  501 -0.16529073641E+02 -0.58437898253E+02 -0.10574232015E+04  0.10591761493E+04  0.47000000000E+01 0.  1.
<mgrwt>
<rscale>  2 0.17258937E+03</rscale>
<asrwt>0</asrwt>
<pdfrwt beam="1">  1        1 0.20185591E-02 0.17258937E+03</pdfrwt>
<pdfrwt beam="2">  1       -1 0.40544346E+00 0.17258937E+03</pdfrwt>
<totfact> 0.49195670E+01</totfact>
</mgrwt>
</event>
<event>
12    1  0.1093377E-001  0.1941459E+03  0.7546771E-02  0.1154774E+00
         -1   -1    0    0    0  501 -0.00000000000E+00  0.00000000000E+00  0.94332790055E+03  0.94332790055E+03  0.00000000000E+00 0.  1.
          1   -1    0    0  503    0  0.00000000000E+00 -0.00000000000E+00 -0.41800563711E+02  0.41800563711E+02  0.00000000000E+00 0. -1.
          6    2    1    2  503    0  0.40633580991E+02  0.75349097512E+02  0.35043525492E+03  0.40129222444E+03  0.17578966725E+03 0.  0.
         24    2    3    3    0    0 -0.37440751244E+02  0.12122159236E+02  0.21117091157E+03  0.22950778276E+03  0.80820244088E+02 0.  0.
         -6    2    1    2    0  501 -0.40633580991E+02 -0.75349097512E+02  0.55109208192E+03  0.58383623982E+03  0.17272434040E+03 0.  0.
        -24    2    5    5    0    0 -0.32561531800E+01 -0.24195715534E+02  0.10906165216E+03  0.13726403800E+03  0.79692766128E+02 0.  0.
          2    1    4    4  502    0 -0.35362599950E+02  0.33667498146E+02  0.62707669309E+02  0.79474937539E+02  0.00000000000E+00 0. -1.
         -1    1    4    4    0  502 -0.20781512937E+01 -0.21545338910E+02  0.14846324226E+03  0.15003284522E+03  0.00000000000E+00 0.  1.
          5    1    3    3  503    0  0.78074332235E+02  0.63226938276E+02  0.13926434335E+03  0.17178444169E+03  0.47000000000E+01 0. -1.
         11    1    6    6    0    0  0.20478029329E+02 -0.46478547582E+02  0.67079574314E+02  0.84138423806E+02  0.00000000000E+00 0. -1.
        -12    1    6    6    0    0 -0.23734182509E+02  0.22282832048E+02  0.41982077842E+02  0.53125614193E+02  0.00000000000E+00 0.  1.
         -5    1    5    5    0  501 -0.37377427811E+02 -0.51153381978E+02  0.44203042976E+03  0.44657220182E+03  0.47000000000E+01 0.  1.
<mgrwt>
<rscale>  2 0.19414593E+03</rscale>
<asrwt>0</asrwt>
<pdfrwt beam="2">  1        1 0.64308567E-02 0.19414593E+03</pdfrwt>
<pdfrwt beam="1">  1       -1 0.14512735E+00 0.19414593E+03</pdfrwt>
<totfact> 0.48334873E+02</totfact>
</mgrwt>
</event>
<event>
12    1  0.1093377E-001  0.2468347E+03  0.7546771E-02  0.1115322E+00
          1   -1    0    0  503    0  0.00000000000E+00  0.00000000000E+00  0.59853166708E+03  0.59853166708E+03  0.00000000000E+00 0. -1.
         -1   -1    0    0    0  501 -0.00000000000E+00 -0.00000000000E+00 -0.10681060414E+03  0.10681060414E+03  0.00000000000E+00 0.  1.
          6    2    1    2  503    0  0.17583872905E+03  0.86395945397E+01  0.32217684329E+03  0.40579418090E+03  0.17284992816E+03 0.  0.
         24    2    3    3    0    0  0.19750434908E+03  0.14755447977E+02  0.31681163779E+03  0.38217897002E+03  0.80408084990E+02 0.  0.
         -6    2    1    2    0  501 -0.17583872905E+03 -0.86395945397E+01  0.16954421965E+03  0.29954809033E+03  0.17317596477E+03 0.  0.
        -24    2    5    5    0    0 -0.43461748205E+02 -0.21647661805E+02  0.14683445518E+02  0.95350087797E+02  0.80737171439E+02 0.  0.
          4    1    4    4  502    0  0.16805217420E+03  0.73244207487E+01  0.30734000077E+03  0.35036132274E+03  0.00000000000E+00 0. -1.
         -3    1    4    4    0  502  0.29452174880E+02  0.74310272278E+01  0.94716370200E+01  0.31817647283E+02  0.00000000000E+00 0.  1.
          5    1    3    3  503    0 -0.21665620031E+02 -0.61158534369E+01  0.53652054988E+01  0.23615210874E+02  0.47000000000E+01 0. -1.
         13    1    6    6    0    0 -0.50978593045E+02 -0.36037365341E+02  0.33212607320E+02  0.70714821180E+02  0.00000000000E+00 0. -1.
        -14    1    6    6    0    0  0.75168448398E+01  0.14389703536E+02 -0.18529161802E+02  0.24635266617E+02  0.00000000000E+00 0.  1.
         -5    1    5    5    0  501 -0.13237698085E+03  0.13008067265E+02  0.15486077413E+03  0.20419800253E+03  0.47000000000E+01 0.  1.
<mgrwt>
<rscale>  2 0.24683472E+03</rscale>
<asrwt>0</asrwt>
<pdfrwt beam="1">  1        1 0.92081793E-01 0.24683472E+03</pdfrwt>
<pdfrwt beam="2">  1       -1 0.16432401E-01 0.24683472E+03</pdfrwt>
<totfact> 0.98151036E+02</totfact>
</mgrwt>
</event>
<event>
12    1  0.1093377E-001  0.1871963E+03  0.7546771E-02  0.1161015E+00
          1   -1    0    0  503    0  0.00000000000E+00  0.00000000000E+00  0.79966071656E+03  0.79966071656E+03  0.00000000000E+00 0.  1.
         -1   -1    0    0    0  501 -0.00000000000E+00 -0.00000000000E+00 -0.44385609332E+02  0.44385609332E+02  0.00000000000E+00 0. -1.
          6    2    1    2  503    0  0.27110817317E+02 -0.67850865102E+02  0.32891297184E+03  0.37816178933E+03  0.17170864729E+03 0.  0.
         24    2    3    3    0    0 -0.33864753836E+02 -0.15737241475E+02  0.94669109378E+02  0.13052066361E+03  0.81724666033E+02 0.  0.
         -6    2    1    2    0  501 -0.27110817317E+02  0.67850865102E+02  0.42636213539E+03  0.46588453656E+03  0.17298842332E+03 0.  0.
        -24    2    5    5    0    0 -0.71563288824E+02  0.45275416428E+02  0.38050841946E+03  0.39798515239E+03  0.80214441380E+02 0.  0.
          2    1    4    4  502    0 -0.29894967460E+02  0.19442778159E+02  0.75070201442E+01  0.36442914996E+02  0.00000000000E+00 0. -1.
         -1    1    4    4    0  502 -0.39697863756E+01 -0.35180019634E+02  0.87162089234E+02  0.94077748618E+02  0.00000000000E+00 0.  1.
          5    1    3    3  503    0  0.60975571153E+02 -0.52113623627E+02  0.23424386246E+03  0.24764112571E+03  0.47000000000E+01 0. -1.
         13    1    6    6    0    0  0.47274260097E+00  0.22599189111E+01 -0.38971506695E+01  0.45297353556E+01  0.00000000000E+00 0. -1.
        -14    1    6    6    0    0 -0.72036031425E+02  0.43015497517E+02  0.38440557013E+03  0.39345541704E+03  0.00000000000E+00 0.  1.
         -5    1    5    5    0  501  0.44452471507E+02  0.22575448674E+02  0.45853715928E+02  0.67899384168E+02  0.47000000000E+01 0.  1.
<mgrwt>
<rscale>  2 0.18719634E+03</rscale>
<asrwt>0</asrwt>
<pdfrwt beam="1">  1        1 0.12302471E+00 0.18719634E+03</pdfrwt>
<pdfrwt beam="2">  1       -1 0.68285559E-02 0.18719634E+03</pdfrwt>
<totfact> 0.25092005E+03</totfact>
</mgrwt>
</event>
<event>
12    1  0.1093377E-001  0.1945824E+03  0.7546771E-02  0.1154392E+00
         -1   -1    0    0    0  501 -0.00000000000E+00  0.00000000000E+00  0.19486831946E+02  0.19486831946E+02  0.00000000000E+00 0.  1.
          1   -1    0    0  503    0  0.00000000000E+00 -0.00000000000E+00 -0.19689519064E+04  0.19689519064E+04  0.00000000000E+00 0. -1.
          6    2    1    2  503    0  0.38963576819E+02 -0.79991757540E+02 -0.10866113421E+04  0.11038140186E+04  0.17252343980E+03 0.  0.
         24    2    3    3    0    0  0.81490211229E+02 -0.25039088332E+02 -0.82064450897E+03  0.82887992320E+03  0.79478968984E+02 0.  0.
         -6    2    1    2    0  501 -0.38963576819E+02  0.79991757540E+02 -0.86285373235E+03  0.88462471975E+03  0.17357272181E+03 0.  0.
        -24    2    5    5    0    0 -0.81846909261E+02  0.44268021923E+02 -0.38908369057E+03  0.40755521959E+03  0.77823932223E+02 0.  0.
          4    1    4    4  502    0  0.25638584628E+02  0.28992193566E+02 -0.29233501090E+03  0.29488581333E+03  0.00000000000E+00 0. -1.
         -3    1    4    4    0  502  0.55851626601E+02 -0.54031281897E+02 -0.52830949808E+03  0.53399410987E+03  0.00000000000E+00 0.  1.
          5    1    3    3  503    0 -0.42526634410E+02 -0.54952669208E+02 -0.26596683312E+03  0.27493409539E+03  0.47000000000E+01 0. -1.
         13    1    6    6    0    0 -0.19128181412E+02  0.50268364030E+02 -0.23523114401E+03  0.24130165117E+03  0.00000000000E+00 0. -1.
        -14    1    6    6    0    0 -0.62718727849E+02 -0.60003421066E+01 -0.15385254656E+03  0.16625356841E+03  0.00000000000E+00 0.  1.
         -5    1    5    5    0  501  0.42883332442E+02  0.35723735617E+02 -0.47377004179E+03  0.47706950016E+03  0.47000000000E+01 0.  1.
<mgrwt>
<rscale>  2 0.19458242E+03</rscale>
<asrwt>0</asrwt>
<pdfrwt beam="2">  1        1 0.30291570E+00 0.19458242E+03</pdfrwt>
<pdfrwt beam="1">  1       -1 0.29979739E-02 0.19458242E+03</pdfrwt>
<totfact> 0.13410411E+03</totfact>
</mgrwt>
</event>
<event>
12    1  0.1093377E-001  0.2055410E+03  0.7546771E-02  0.1145146E+00
         -3   -1    0    0    0  501 -0.00000000000E+00  0.00000000000E+00  0.67898200243E+03  0.67898200243E+03  0.00000000000E+00 0. -1.
          3   -1    0    0  503    0  0.00000000000E+00 -0.00000000000E+00 -0.82650405693E+02  0.82650405693E+02  0.00000000000E+00 0.  1.
          6    2    1    2  503    0 -0.10678793149E+03 -0.32597939919E+02  0.48842625838E+03  0.53024673187E+03  0.17359463930E+03 0.  0.
         24    2    3    3    0    0 -0.10973570119E+03  0.21227029105E+02  0.24101847269E+03  0.27699089471E+03  0.78367982601E+02 0.  0.
         -6    2    1    2    0  501  0.10678793149E+03  0.32597939919E+02  0.10790533836E+03  0.23138567625E+03  0.17155022917E+03 0.  0.
        -24    2    5    5    0    0  0.13228768368E+03 -0.93804627899E+00  0.57218295547E+02  0.16530870567E+03  0.80945189112E+02 0.  0.
          2    1    4    4  502    0 -0.87692287755E+02  0.49381762469E+02  0.17288243521E+03  0.20004207607E+03  0.00000000000E+00 0. -1.
         -1    1    4    4    0  502 -0.22043413435E+02 -0.28154733364E+02  0.68136037483E+02  0.76948818643E+02  0.00000000000E+00 0.  1.
          5    1    3    3  503    0  0.29477697014E+01 -0.53824969024E+02  0.24740778569E+03  0.25325583716E+03  0.47000000000E+01 0. -1.
         13    1    6    6    0    0  0.31065461077E+02 -0.22085372164E+02  0.48284246658E+02  0.61515811065E+02  0.00000000000E+00 0. -1.
        -14    1    6    6    0    0  0.10122222260E+03  0.21147325885E+02  0.89340488883E+01  0.10379289460E+03  0.00000000000E+00 0.  1.
         -5    1    5    5    0  501 -0.25499752191E+02  0.33535986198E+02  0.50687042817E+02  0.66076970585E+02  0.47000000000E+01 0.  1.
<mgrwt>
<rscale>  2 0.20554101E+03</rscale>
<asrwt>0</asrwt>
<pdfrwt beam="2">  1        3 0.12715447E-01 0.20554101E+03</pdfrwt>
<pdfrwt beam="1">  1       -3 0.10445877E+00 0.20554101E+03</pdfrwt>
<totfact> 0.98673163E+01</totfact>
</mgrwt>
</event>
<event>
12    1  0.1093377E-001  0.1754193E+03  0.7546771E-02  0.1172311E+00
         -2   -1    0    0    0  501 -0.00000000000E+00  0.00000000000E+00  0.33281098544E+03  0.33281098544E+03  0.00000000000E+00 0. -1.
          2   -1    0    0  503    0  0.00000000000E+00 -0.00000000000E+00 -0.93503806491E+02  0.93503806491E+02  0.00000000000E+00 0.  1.
          6    2    1    2  503    0  0.23649337247E+02 -0.12993615031E+02  0.97806567411E+02  0.20167140650E+03  0.17429029344E+03 0.  0.
         24    2    3    3    0    0  0.67452030437E+02  0.22998939838E+02  0.23139088591E+02  0.10780201676E+03  0.77505675618E+02 0.  0.
         -6    2    1    2    0  501 -0.23649337247E+02  0.12993615031E+02  0.14150061153E+03  0.22464338543E+03  0.17237778966E+03 0.  0.
        -24    2    5    5    0    0 -0.27519604654E+02 -0.14726532979E+02  0.16520237943E+03  0.18766705007E+03  0.83384027837E+02 0.  0.
          4    1    4    4  502    0  0.16376147470E+02 -0.27607276514E+02 -0.53676855197E+00  0.32103396128E+02  0.00000000000E+00 0. -1.
         -3    1    4    4    0  502  0.51075882967E+02  0.50606216351E+02  0.23675857143E+02  0.75698620632E+02  0.00000000000E+00 0.  1.
          5    1    3    3  503    0 -0.43802693190E+02 -0.35992554869E+02  0.74667478820E+02  0.93869389740E+02  0.47000000000E+01 0. -1.
         11    1    6    6    0    0  0.28685625634E+02 -0.64351185570E+01  0.35674272657E+02  0.46226935854E+02  0.00000000000E+00 0. -1.
        -12    1    6    6    0    0 -0.56205230288E+02 -0.82914144219E+01  0.12952810677E+03  0.14144011421E+03  0.00000000000E+00 0.  1.
         -5    1    5    5    0  501  0.38702674076E+01  0.27720148010E+02 -0.23701767892E+02  0.36976335361E+02  0.47000000000E+01 0.  1.
<mgrwt>
<rscale>  2 0.17541934E+03</rscale>
<asrwt>0</asrwt>
<pdfrwt beam="2">  1        2 0.14385201E-01 0.17541934E+03</pdfrwt>
<pdfrwt beam="1">  1       -2 0.51201689E-01 0.17541934E+03</pdfrwt>
<totfact> 0.14761796E+03</totfact>
</mgrwt>
</event>
<event>
12    1  0.1093377E-001  0.1860690E+03  0.7546771E-02  0.1162055E+00
          2   -1    0    0  503    0  0.00000000000E+00  0.00000000000E+00  0.26217813617E+04  0.26217813617E+04  0.00000000000E+00 0.  1.
         -2   -1    0    0    0  501 -0.00000000000E+00 -0.00000000000E+00 -0.13507722181E+02  0.13507722181E+02  0.00000000000E+00 0. -1.
          6    2    1    2  503    0  0.32455515052E+02 -0.62270417133E+02  0.15019720803E+04  0.15134663781E+04  0.17242210454E+03 0.  0.
         24    2    3    3    0    0  0.24463320517E+02 -0.10739786114E+03  0.12380875407E+04  0.12455904709E+04  0.80635650731E+02 0.  0.
         -6    2    1    2    0  501 -0.32455515052E+02  0.62270417133E+02  0.11063015592E+04  0.11218227058E+04  0.17219778777E+03 0.  0.
        -24    2    5    5    0    0 -0.21632733841E+01  0.15618891028E+02  0.24392449418E+03  0.25764085167E+03  0.81431075618E+02 0.  0.
          2    1    4    4  502    0 -0.27399015643E+02 -0.25223711291E+02  0.25375673143E+03  0.25647498984E+03  0.00000000000E+00 0. -1.
         -1    1    4    4    0  502  0.51862336160E+02 -0.82174149846E+02  0.98433080923E+03  0.98911548103E+03  0.00000000000E+00 0.  1.
          5    1    3    3  503    0  0.79921945345E+01  0.45127444004E+02  0.26388453968E+03  0.26787590720E+03  0.47000000000E+01 0. -1.
         11    1    6    6    0    0 -0.10868461310E+02  0.47675461778E+02  0.12696582174E+03  0.13605658013E+03  0.00000000000E+00 0. -1.
        -12    1    6    6    0    0  0.87051879262E+01 -0.32056570750E+02  0.11695867244E+03  0.12158427153E+03  0.00000000000E+00 0.  1.
         -5    1    5    5    0  501 -0.30292241668E+02  0.46651526105E+02  0.86237706502E+03  0.86418185416E+03  0.47000000000E+01 0.  1.
<mgrwt>
<rscale>  2 0.18606900E+03</rscale>
<asrwt>0</asrwt>
<pdfrwt beam="1">  1        2 0.40335057E+00 0.18606900E+03</pdfrwt>
<pdfrwt beam="2">  1       -2 0.20781132E-02 0.18606900E+03</pdfrwt>
<totfact> 0.25289695E+03</totfact>
</mgrwt>
</event>
<event>
12    1  0.1093377E-001  0.1816157E+03  0.7546771E-02  0.1166248E+00
          2   -1    0    0  503    0  0.00000000000E+00  0.00000000000E+00  0.88659048762E+03  0.88659048762E+03  0.00000000000E+00 0.  1.
         -2   -1    0    0    0  501 -0.00000000000E+00 -0.00000000000E+00 -0.13228305521E+03  0.13228305521E+03  0.00000000000E+00 0. -1.
          6    2    1    2  503    0 -0.31420875346E+02 -0.36597094760E+02  0.80928942588E+03  0.82950700915E+03  0.17551605232E+03 0.  0.
         24    2    3    3    0    0  0.22862509926E+02  0.17918341812E+02  0.22749056576E+03  0.24262488948E+03  0.79190391793E+02 0.  0.
         -6    2    1    2    0  501  0.31420875346E+02  0.36597094760E+02 -0.54981993475E+02  0.18936653368E+03  0.17467125041E+03 0.  0.
        -24    2    5    5    0    0  0.22699356198E+02  0.91377054950E+02 -0.50495317838E+02  0.13351736902E+03  0.80075487911E+02 0.  0.
          2    1    4    4  502    0  0.11025512832E+02  0.47474871728E+02  0.17066282674E+03  0.17748584679E+03  0.00000000000E+00 0. -1.
         -1    1    4    4    0  502  0.11836997093E+02 -0.29556529916E+02  0.56827739012E+02  0.65139042686E+02  0.00000000000E+00 0.  1.
          5    1    3    3  503    0 -0.54283385272E+02 -0.54515436572E+02  0.58179886013E+03  0.58688211967E+03  0.47000000000E+01 0. -1.
         11    1    6    6    0    0 -0.16883404168E+02  0.73844761412E+02 -0.48966236149E+02  0.90198616436E+02  0.00000000000E+00 0. -1.
        -12    1    6    6    0    0  0.39582760366E+02  0.17532293538E+02 -0.15290816890E+01  0.43318752588E+02  0.00000000000E+00 0.  1.
         -5    1    5    5    0  501  0.87215191482E+01 -0.54779960190E+02 -0.44866756367E+01  0.55849164658E+02  0.47000000000E+01 0.  1.
<mgrwt>
<rscale>  2 0.18161567E+03</rscale>
<asrwt>0</asrwt>
<pdfrwt beam="1">  1        2 0.13639853E+00 0.18161567E+03</pdfrwt>
<pdfrwt beam="2">  1       -2 0.20351240E-01 0.18161567E+03</pdfrwt>
<totfact> 0.63850992E+02</totfact>
</mgrwt>
</event>
<event>
12    1  0.1093377E-001  0.2770429E+03  0.7546771E-02  0.1097315E+00
         -2   -1    0    0    0  501 -0.00000000000E+00  0.00000000000E+00  0.68312689484E+02  0.68312689484E+02  0.00000000000E+00 0.  1.
          2   -1    0    0  503    0  0.00000000000E+00 -0.00000000000E+00 -0.11823629332E+04  0.11823629332E+04  0.00000000000E+00 0. -1.
          6    2    1    2  503    0 -0.61028896408E+02 -0.20743441126E+03 -0.69609776483E+03  0.74912649026E+03  0.17287232002E+03 0.  0.
         24    2    3    3    0    0 -0.99031190397E+02 -0.10313427938E+03 -0.37098415010E+03  0.40555168858E+03  0.79994226258E+02 0.  0.
         -6    2    1    2    0  501  0.61028896408E+02  0.20743441126E+03 -0.41795247890E+03  0.50154913244E+03  0.17353298379E+03 0.  0.
        -24    2    5    5    0    0 -0.18249766558E+02  0.13047226271E+03 -0.31513616480E+03  0.35054726770E+03  0.78844906040E+02 0.  0.
          2    1    4    4  502    0 -0.74892540908E+02 -0.98156454819E+02 -0.35577721328E+03  0.37659130074E+03  0.00000000000E+00 0. -1.
         -1    1    4    4    0  502 -0.24138649488E+02 -0.49778245619E+01 -0.15206936818E+02  0.28960387841E+02  0.00000000000E+00 0.  1.
          5    1    3    3  503    0  0.38002293989E+02 -0.10430013188E+03 -0.32511361473E+03  0.34357480167E+03  0.47000000000E+01 0. -1.
         13    1    6    6    0    0  0.13804981876E+02  0.17160928430E+02 -0.12480026179E+03  0.12672876679E+03  0.00000000000E+00 0. -1.
        -14    1    6    6    0    0 -0.32054748434E+02  0.11331133428E+03 -0.19033590301E+03  0.22381850090E+03  0.00000000000E+00 0.  1.
         -5    1    5    5    0  501  0.79278662966E+02  0.76962148556E+02 -0.10281631409E+03  0.15100186474E+03  0.47000000000E+01 0.  1.
<mgrwt>
<rscale>  2 0.27704286E+03</rscale>
<asrwt>0</asrwt>
<pdfrwt beam="2">  1        2 0.18190199E+00 0.27704286E+03</pdfrwt>
<pdfrwt beam="1">  1       -2 0.10509644E-01 0.27704286E+03</pdfrwt>
<totfact> 0.12541890E+03</totfact>
</mgrwt>
</event>
<event>
12    1  0.1093377E-001  0.1773048E+03  0.7546771E-02  0.1170437E+00
         -2   -1    0    0    0  501 -0.00000000000E+00  0.00000000000E+00  0.23707816830E+03  0.23707816830E+03  0.00000000000E+00 0. -1.
          2   -1    0    0  503    0  0.00000000000E+00 -0.00000000000E+00 -0.13268066996E+03  0.13268066996E+03  0.00000000000E+00 0.  1.
          6    2    1    2  503    0  0.25523699186E+02 -0.28915557304E+02  0.47637699875E+02  0.18340715641E+03  0.17286198512E+03 0.  0.
         24    2    3    3    0    0  0.54059717399E+02 -0.15979744881E+02 -0.27924966317E+02  0.10147153473E+03  0.79616978872E+02 0.  0.
         -6    2    1    2    0  501 -0.25523699186E+02  0.28915557304E+02  0.56759798467E+02  0.18635168184E+03  0.17325618583E+03 0.  0.
        -24    2    5    5    0    0 -0.29166163334E+02  0.80815856847E+02  0.62994930211E+02  0.13374107925E+03  0.80848297720E+02 0.  0.
          4    1    4    4  502    0 -0.20139092899E+02 -0.11522346146E+02 -0.58038454564E+01  0.23917193514E+02  0.00000000000E+00 0. -1.
         -3    1    4    4    0  502  0.74198810298E+02 -0.44573987350E+01 -0.22121120861E+02  0.77554341215E+02  0.00000000000E+00 0.  1.
          5    1    3    3  503    0 -0.28536018213E+02 -0.12935812423E+02  0.75562666192E+02  0.81935621682E+02  0.47000000000E+01 0. -1.
         13    1    6    6    0    0 -0.33754735622E+02  0.62710793913E+02  0.80959665767E+02  0.10782621820E+03  0.00000000000E+00 0. -1.
        -14    1    6    6    0    0  0.45885722879E+01  0.18105062934E+02 -0.17964735556E+02  0.25914861047E+02  0.00000000000E+00 0.  1.
         -5    1    5    5    0  501  0.36424641484E+01 -0.51900299543E+02 -0.62351317440E+01  0.52610602597E+02  0.47000000000E+01 0.  1.
<mgrwt>
<rscale>  2 0.17730477E+03</rscale>
<asrwt>0</asrwt>
<pdfrwt beam="2">  1        2 0.20412411E-01 0.17730477E+03</pdfrwt>
<pdfrwt beam="1">  1       -2 0.36473564E-01 0.17730477E+03</pdfrwt>
<totfact> 0.18942114E+03</totfact>
</mgrwt>
</event>
<event>
12    1  0.1093377E-001  0.1819362E+03  0.7546771E-02  0.1165942E+00
          1   -1    0    0  503    0  0.00000000000E+00  0.00000000000E+00  0.32783528041E+04  0.32783528041E+04  0.00000000000E+00 0.  1.
         -1   -1    0    0    0  501 -0.00000000000E+00 -0.00000000000E+00 -0.44303347260E+02  0.44303347260E+02  0.00000000000E+00 0. -1.
          6    2    1    2  503    0 -0.23602063147E+02 -0.45563962334E+02  0.15806853773E+03  0.24132375572E+03  0.17498102871E+03 0.  0.
         24    2    3    3    0    0 -0.69205622261E+02  0.88826377844E+01  0.95124561391E+02  0.14630717282E+03  0.86537779225E+02 0.  0.
         -6    2    1    2    0  501  0.23602063147E+02  0.45563962334E+02  0.30759809191E+04  0.30813323956E+04  0.17411945793E+03 0.  0.
        -24    2    5    5    0    0 -0.51306560587E+02  0.37044022650E+02  0.20300917567E+04  0.20327189676E+04  0.81665403344E+02 0.  0.
          4    1    4    4  502    0 -0.38419589597E+02  0.38902606803E+02  0.17220389063E+02  0.57323812507E+02  0.00000000000E+00 0. -1.
         -3    1    4    4    0  502 -0.30786032665E+02 -0.30019969019E+02  0.77904172328E+02  0.88983360317E+02  0.00000000000E+00 0.  1.
          5    1    3    3  503    0  0.45603559114E+02 -0.54446600118E+02  0.62943976337E+02  0.95016582897E+02  0.47000000000E+01 0. -1.
         13    1    6    6    0    0 -0.85146512530E+01  0.52288239689E+01  0.25064140995E+02  0.26982421127E+02  0.00000000000E+00 0. -1.
        -14    1    6    6    0    0 -0.42791909334E+02  0.31815198681E+02  0.20050276157E+04  0.20057365465E+04  0.00000000000E+00 0.  1.
         -5    1    5    5    0  501  0.74908623734E+02  0.85199396839E+01  0.10458891624E+04  0.10486134280E+04  0.47000000000E+01 0.  1.
<mgrwt>
<rscale>  2 0.18193615E+03</rscale>
<asrwt>0</asrwt>
<pdfrwt beam="1">  1        1 0.50436178E+00 0.18193615E+03</pdfrwt>
<pdfrwt beam="2">  1       -1 0.68159022E-02 0.18193615E+03</pdfrwt>
<totfact> 0.52515878E+01</totfact>
</mgrwt>
</event>
<event>
12    1  0.1093377E-001  0.1754904E+03  0.7546771E-02  0.1172240E+00
         -2   -1    0    0    0  501 -0.00000000000E+00  0.00000000000E+00  0.61665980010E+02  0.61665980010E+02  0.00000000000E+00 0. -1.
          2   -1    0    0  503    0  0.00000000000E+00 -0.00000000000E+00 -0.54263569949E+03  0.54263569949E+03  0.00000000000E+00 0.  1.
          6    2    1    2  503    0  0.29731521460E+01 -0.25670324593E+02 -0.15631808612E+03  0.23566563426E+03  0.17445670501E+03 0.  0.
         24    2    3    3    0    0 -0.24643215186E+01  0.42725769748E+02 -0.38125616993E+02  0.98920829602E+02  0.80623840004E+02 0.  0.
         -6    2    1    2    0  501 -0.29731521460E+01  0.25670324593E+02 -0.32465163335E+03  0.36863604524E+03  0.17270218763E+03 0.  0.
        -24    2    5    5    0    0  0.28253488648E+02  0.75472595781E+02 -0.19144669348E+03  0.22296169843E+03  0.81029070027E+02 0.  0.
          4    1    4    4  502    0  0.32176950246E+02  0.46233589675E+02 -0.20968475267E+02  0.60104724410E+02  0.00000000000E+00 0. -1.
         -3    1    4    4    0  502 -0.34641271764E+02 -0.35078199274E+01 -0.17157141726E+02  0.38816105192E+02  0.00000000000E+00 0.  1.
          5    1    3    3  503    0  0.54374736646E+01 -0.68396094341E+02 -0.11819246913E+03  0.13674480465E+03  0.47000000000E+01 0. -1.
         13    1    6    6    0    0 -0.12736811608E+02  0.97209297760E+01  0.43319631531E+00  0.16028428017E+02  0.00000000000E+00 0. -1.
        -14    1    6    6    0    0  0.40990300256E+02  0.65751666005E+02 -0.19187988980E+03  0.20693327042E+03  0.00000000000E+00 0.  1.
         -5    1    5    5    0  501 -0.31226640794E+02 -0.49802271188E+02 -0.13320493987E+03  0.14567434680E+03  0.47000000000E+01 0.  1.
<mgrwt>
<rscale>  2 0.17549044E+03</rscale>
<asrwt>0</asrwt>
<pdfrwt beam="2">  1        2 0.83482413E-01 0.17549044E+03</pdfrwt>
<pdfrwt beam="1">  1       -2 0.94870741E-02 0.17549044E+03</pdfrwt>
<totfact> 0.40117655E+03</totfact>
</mgrwt>
</event>
<event>
12    1  0.1093377E-001  0.2401978E+03  0.7546771E-02  0.1119661E+00
          1   -1    0    0  503    0  0.00000000000E+00  0.00000000000E+00  0.81024283064E+03  0.81024283064E+03  0.00000000000E+00 0. -1.
         -1   -1    0    0    0  501 -0.00000000000E+00 -0.00000000000E+00 -0.13580833429E+03  0.13580833429E+03  0.00000000000E+00 0.  1.
          6    2    1    2  503    0 -0.14081512745E+03  0.88278591889E+02  0.11416770125E+02  0.24106882518E+03  0.17424645170E+03 0.  0.
         24    2    3    3    0    0 -0.16330633421E+03  0.10129068235E+03  0.31452838335E+02  0.20792213743E+03  0.72894259532E+02 0.  0.
         -6    2    1    2    0  501  0.14081512745E+03 -0.88278591889E+02  0.66301772623E+03  0.70498233975E+03  0.17258500559E+03 0.  0.
        -24    2    5    5    0    0  0.65214436431E+02 -0.13735720355E+02  0.47403650841E+03  0.48816883724E+03  0.95690175139E+02 0.  0.
          4    1    4    4  502    0 -0.15975064622E+03  0.90316196166E+02  0.46160246094E+02  0.18923015768E+03  0.00000000000E+00 0. -1.
         -3    1    4    4    0  502 -0.35556879886E+01  0.10974486179E+02 -0.14707407758E+02  0.18691979749E+02  0.00000000000E+00 0.  1.
          5    1    3    3  503    0  0.22491206758E+02 -0.13012090456E+02 -0.20036068210E+02  0.33146687750E+02  0.47000000000E+01 0. -1.
         11    1    6    6    0    0 -0.24920741924E+02 -0.28097653782E+01  0.81646962431E+02  0.85411735925E+02  0.00000000000E+00 0. -1.
        -12    1    6    6    0    0  0.90135178356E+02 -0.10925954977E+02  0.39238954598E+03  0.40275710132E+03  0.00000000000E+00 0.  1.
         -5    1    5    5    0  501  0.75600691018E+02 -0.74542871533E+02  0.18898121782E+03  0.21681350250E+03  0.47000000000E+01 0.  1.
<mgrwt>
<rscale>  2 0.24019783E+03</rscale>
<asrwt>0</asrwt>
<pdfrwt beam="1">  1        1 0.12465274E+00 0.24019783E+03</pdfrwt>
<pdfrwt beam="2">  1       -1 0.20893591E-01 0.24019783E+03</pdfrwt>
<totfact> 0.42775000E+02</totfact>
</mgrwt>
</event>
<event>
12    1  0.1093377E-001  0.2026209E+03  0.7546771E-02  0.1147546E+00
          2   -1    0    0  503    0  0.00000000000E+00  0.00000000000E+00  0.48690752178E+03  0.48690752178E+03  0.00000000000E+00 0.  1.
         -2   -1    0    0    0  501 -0.00000000000E+00 -0.00000000000E+00 -0.11937629382E+03  0.11937629382E+03  0.00000000000E+00 0. -1.
          6    2    1    2  503    0 -0.58656022678E+02  0.88766281098E+02  0.19411690268E+02  0.20343114190E+03  0.17230041822E+03 0.  0.
         24    2    3    3    0    0  0.47913126890E+01  0.16754704288E+02 -0.91292516155E+01  0.10319189348E+03  0.10129929345E+03 0.  0.
         -6    2    1    2    0  501  0.58656022678E+02 -0.88766281098E+02  0.34811953769E+03  0.40285267370E+03  0.17257775792E+03 0.  0.
        -24    2    5    5    0    0  0.18422106236E+02  0.19994037767E+02  0.17409979245E+03  0.19368160323E+03  0.80390858630E+02 0.  0.
          2    1    4    4  502    0  0.94572253813E+01  0.38838042710E+02 -0.45388827156E+02  0.60481222739E+02  0.00000000000E+00 0. -1.
         -1    1    4    4    0  502 -0.46659126923E+01 -0.22083338422E+02  0.36259575540E+02  0.42710670745E+02  0.00000000000E+00 0.  1.
          5    1    3    3  503    0 -0.63447335367E+02  0.72011576809E+02  0.28540941883E+02  0.10023924842E+03  0.47000000000E+01 0. -1.
         13    1    6    6    0    0  0.12746282552E+02 -0.27583856264E+02  0.33925840243E+02  0.45544478057E+02  0.00000000000E+00 0. -1.
        -14    1    6    6    0    0  0.56758236835E+01  0.47577894031E+02  0.14017395221E+03  0.14813712517E+03  0.00000000000E+00 0.  1.
         -5    1    5    5    0  501  0.40233916442E+02 -0.10876031886E+03  0.17401974524E+03  0.20917107048E+03  0.47000000000E+01 0.  1.
<mgrwt>
<rscale>  2 0.20262086E+03</rscale>
<asrwt>0</asrwt>
<pdfrwt beam="1">  1        2 0.74908848E-01 0.20262086E+03</pdfrwt>
<pdfrwt beam="2">  1       -2 0.18365584E-01 0.20262086E+03</pdfrwt>
<totfact> 0.15527381E+03</totfact>
</mgrwt>
</event>
<event>
12    1  0.1093377E-001  0.2658225E+03  0.7546771E-02  0.1103695E+00
         -2   -1    0    0    0  501 -0.00000000000E+00  0.00000000000E+00  0.46564625854E+02  0.46564625854E+02  0.00000000000E+00 0. -1.
          2   -1    0    0  503    0  0.00000000000E+00 -0.00000000000E+00 -0.16041414102E+04  0.16041414102E+04  0.00000000000E+00 0.  1.
          6    2    1    2  503    0 -0.12972736999E+03  0.15443227348E+03 -0.97064077196E+03  0.10063852844E+04  0.17317423235E+03 0.  0.
         24    2    3    3    0    0 -0.91283872647E+02  0.15483567555E+03 -0.55124139800E+03  0.58520125082E+03  0.79288039876E+02 0.  0.
         -6    2    1    2    0  501  0.12972736999E+03 -0.15443227348E+03 -0.58693601241E+03  0.64432075173E+03  0.17313818420E+03 0.  0.
        -24    2    5    5    0    0  0.17047748830E+02 -0.54726869329E+02 -0.34699196951E+03  0.36106627539E+03  0.81729874309E+02 0.  0.
          4    1    4    4  502    0 -0.75662114663E+02  0.10334920763E+03 -0.26976291631E+03  0.29862659849E+03  0.00000000000E+00 0. -1.
         -3    1    4    4    0  502 -0.15621757985E+02  0.51486467912E+02 -0.28147848169E+03  0.28657465233E+03  0.00000000000E+00 0.  1.
          5    1    3    3  503    0 -0.38443497343E+02 -0.40340207096E+00 -0.41939937396E+03  0.42118403353E+03  0.47000000000E+01 0. -1.
         13    1    6    6    0    0  0.20268794172E+02 -0.21660191193E+02 -0.29483030742E+02  0.41823880755E+02  0.00000000000E+00 0. -1.
        -14    1    6    6    0    0 -0.32210453416E+01 -0.33066678136E+02 -0.31750893876E+03  0.31924239463E+03  0.00000000000E+00 0.  1.
         -5    1    5    5    0  501  0.11267962116E+03 -0.99705404146E+02 -0.23994404290E+03  0.28325447634E+03  0.47000000000E+01 0.  1.
<mgrwt>
<rscale>  2 0.26582248E+03</rscale>
<asrwt>0</asrwt>
<pdfrwt beam="2">  1        2 0.24679093E+00 0.26582248E+03</pdfrwt>
<pdfrwt beam="1">  1       -2 0.71637904E-02 0.26582248E+03</pdfrwt>
<totfact> 0.13508960E+03</totfact>
</mgrwt>
</event>
<event>
12    1  0.1093377E-001  0.3530165E+03  0.7546771E-02  0.1061384E+00
         -2   -1    0    0    0  501 -0.00000000000E+00  0.00000000000E+00  0.26553730054E+03  0.26553730054E+03  0.00000000000E+00 0. -1.
          2   -1    0    0  503    0  0.00000000000E+00 -0.00000000000E+00 -0.79454901652E+03  0.79454901652E+03  0.00000000000E+00 0.  1.
          6    2    1    2  503    0  0.29037443794E+03  0.10334451562E+03 -0.60375715058E+03  0.69954197144E+03  0.17273931169E+03 0.  0.
         24    2    3    3    0    0  0.29891516163E+03  0.77150607071E+02 -0.50727259867E+03  0.59909087107E+03  0.79258390229E+02 0.  0.
         -6    2    1    2    0  501 -0.29037443794E+03 -0.10334451562E+03  0.74745434605E+02  0.36054434563E+03  0.17148743993E+03 0.  0.
        -24    2    5    5    0    0 -0.27386670440E+03 -0.53561333263E+02  0.92340529012E+02  0.30502364805E+03  0.81491498773E+02 0.  0.
          4    1    4    4  502    0  0.24680954783E+03  0.44951740734E+02 -0.35265682163E+03  0.43278452576E+03  0.00000000000E+00 0. -1.
         -3    1    4    4    0  502  0.52105613797E+02  0.32198866336E+02 -0.15461577703E+03  0.16630634531E+03  0.00000000000E+00 0.  1.
          5    1    3    3  503    0 -0.85407236846E+01  0.26193908548E+02 -0.96484551914E+02  0.10045110036E+03  0.47000000000E+01 0. -1.
         11    1    6    6    0    0 -0.11545942145E+03 -0.62697068037E+02  0.31652377819E+02  0.13514315877E+03  0.00000000000E+00 0. -1.
        -12    1    6    6    0    0 -0.15840728295E+03  0.91357347740E+01  0.60688151193E+02  0.16988048928E+03  0.00000000000E+00 0.  1.
         -5    1    5    5    0  501 -0.16507733539E+02 -0.49783182355E+02 -0.17595094407E+02  0.55520697575E+02  0.47000000000E+01 0.  1.
<mgrwt>
<rscale>  2 0.35301646E+03</rscale>
<asrwt>0</asrwt>
<pdfrwt beam="2">  1        2 0.12223831E+00 0.35301646E+03</pdfrwt>
<pdfrwt beam="1">  1       -2 0.40851892E-01 0.35301646E+03</pdfrwt>
<totfact> 0.20483695E+02</totfact>
</mgrwt>
</event>
<event>
12    1  0.1093377E-001  0.2002937E+03  0.7546771E-02  0.1149491E+00
         -1   -1    0    0    0  501 -0.00000000000E+00  0.00000000000E+00  0.64579686213E+03  0.64579686213E+03  0.00000000000E+00 0. -1.
          1   -1    0    0  503    0  0.00000000000E+00 -0.00000000000E+00 -0.96787554528E+02  0.96787554528E+02  0.00000000000E+00 0.  1.
          6    2    1    2  503    0  0.31355007493E+02 -0.97525424430E+02  0.51980648997E+02  0.20658137877E+03  0.17169604911E+03 0.  0.
         24    2    3    3    0    0  0.12096687886E+02 -0.72708362057E+02 -0.35470878497E+02  0.11354037104E+03  0.78742598785E+02 0.  0.
         -6    2    1    2    0  501 -0.31355007493E+02  0.97525424430E+02  0.49702865860E+03  0.53600303788E+03  0.17253238607E+03 0.  0.
        -24    2    5    5    0    0 -0.36001966435E+02  0.87490803096E+02  0.17664705074E+03  0.21539618751E+03  0.78997182506E+02 0.  0.
          2    1    4    4  502    0  0.41713319734E+02 -0.46499426866E+02 -0.32911441571E+01  0.62554211465E+02  0.00000000000E+00 0. -1.
         -1    1    4    4    0  502 -0.29616631848E+02 -0.26208935191E+02 -0.32179734340E+02  0.50986159574E+02  0.00000000000E+00 0.  1.
          5    1    3    3  503    0  0.19258319607E+02 -0.24817062373E+02  0.87451527494E+02  0.93041007733E+02  0.47000000000E+01 0. -1.
         13    1    6    6    0    0 -0.52216038407E+02  0.29999169247E+02  0.11341198311E+03  0.12840849946E+03  0.00000000000E+00 0. -1.
        -14    1    6    6    0    0  0.16214071972E+02  0.57491633849E+02  0.63235067635E+02  0.86987688044E+02  0.00000000000E+00 0.  1.
         -5    1    5    5    0  501  0.46469589422E+01  0.10034621334E+02  0.32038160786E+03  0.32060685038E+03  0.47000000000E+01 0.  1.
<mgrwt>
<rscale>  2 0.20029370E+03</rscale>
<asrwt>0</asrwt>
<pdfrwt beam="2">  1        1 0.14890393E-01 0.20029370E+03</pdfrwt>
<pdfrwt beam="1">  1       -1 0.99353361E-01 0.20029370E+03</pdfrwt>
<totfact> 0.38639096E+02</totfact>
</mgrwt>
</event>
<event>
12    1  0.1093377E-001  0.2031148E+03  0.7546771E-02  0.1147137E+00
          3   -1    0    0  503    0  0.00000000000E+00  0.00000000000E+00  0.12992373232E+03  0.12992373232E+03  0.00000000000E+00 0.  1.
         -3   -1    0    0    0  501 -0.00000000000E+00 -0.00000000000E+00 -0.45660235003E+03  0.45660235003E+03  0.00000000000E+00 0. -1.
          6    2    1    2  503    0 -0.10133421244E+03 -0.19147781389E+02 -0.32527638552E+03  0.38357263655E+03  0.17517985154E+03 0.  0.
         24    2    3    3    0    0 -0.98774832575E+02 -0.67091363024E+02 -0.29701103860E+03  0.32766058702E+03  0.69915554021E+02 0.  0.
         -6    2    1    2    0  501  0.10133421244E+03  0.19147781389E+02 -0.14022321826E+01  0.20295344580E+03  0.17479380642E+03 0.  0.
        -24    2    5    5    0    0  0.57185370739E+02 -0.58924859984E+02  0.14221901583E+02  0.11179061834E+03  0.74515596445E+02 0.  0.
          4    1    4    4  502    0 -0.85492326077E+02 -0.81726873860E+02 -0.24600158612E+03  0.27295604060E+03  0.00000000000E+00 0. -1.
         -3    1    4    4    0  502 -0.13282506498E+02  0.14635510836E+02 -0.51009452484E+02  0.54704546420E+02  0.00000000000E+00 0.  1.
          5    1    3    3  503    0 -0.25593798675E+01  0.47943581635E+02 -0.28265346923E+02  0.55912049524E+02  0.47000000000E+01 0. -1.
         11    1    6    6    0    0  0.84235596446E+01 -0.14593303616E+02 -0.28602800593E+02  0.33197003920E+02  0.00000000000E+00 0. -1.
        -12    1    6    6    0    0  0.48761811094E+02 -0.44331556368E+02  0.42824702175E+02  0.78593614420E+02  0.00000000000E+00 0.  1.
         -5    1    5    5    0  501  0.44148841703E+02  0.78072641373E+02 -0.15624133765E+02  0.91162827461E+02  0.47000000000E+01 0.  1.
<mgrwt>
<rscale>  2 0.20311483E+03</rscale>
<asrwt>0</asrwt>
<pdfrwt beam="1">  1        3 0.19988267E-01 0.20311483E+03</pdfrwt>
<pdfrwt beam="2">  1       -3 0.70246514E-01 0.20311483E+03</pdfrwt>
<totfact> 0.10849698E+02</totfact>
</mgrwt>
</event>
<event>
12    1  0.1093377E-001  0.2651132E+03  0.7546771E-02  0.1104109E+00
          2   -1    0    0  503    0  0.00000000000E+00  0.00000000000E+00  0.50252226663E+03  0.50252226663E+03  0.00000000000E+00 0. -1.
         -2   -1    0    0    0  501 -0.00000000000E+00 -0.00000000000E+00 -0.16276117968E+03  0.16276117968E+03  0.00000000000E+00 0.  1.
          6    2    1    2  503    0 -0.16552381675E+03  0.11467968515E+03  0.29422682368E+03  0.39554654697E+03  0.17128363304E+03 0.  0.
         24    2    3    3    0    0 -0.46432296723E+02 -0.82174568189E+01  0.92193349132E+02  0.13073319292E+03  0.79800183776E+02 0.  0.
         -6    2    1    2    0  501  0.16552381675E+03 -0.11467968515E+03  0.45534263264E+02  0.26973689934E+03  0.17359453228E+03 0.  0.
        -24    2    5    5    0    0  0.15296711482E+03 -0.21530017602E+02  0.17455608370E+02  0.17152777457E+03  0.72488615040E+02 0.  0.
          4    1    4    4  502    0  0.22231129482E+02  0.49484031918E+01  0.22372425020E+02  0.31925463402E+02  0.00000000000E+00 0. -1.
         -3    1    4    4    0  502 -0.68663426205E+02 -0.13165860011E+02  0.69820924112E+02  0.98807729515E+02  0.00000000000E+00 0.  1.
          5    1    3    3  503    0 -0.11909152003E+03  0.12289714197E+03  0.20203347455E+03  0.26481335405E+03  0.47000000000E+01 0. -1.
         11    1    6    6    0    0  0.66138410633E+02 -0.23733674014E+02  0.41236912896E+02  0.81474288143E+02  0.00000000000E+00 0. -1.
        -12    1    6    6    0    0  0.86828704189E+02  0.22036564120E+01 -0.23781304525E+02  0.90053486427E+02  0.00000000000E+00 0.  1.
         -5    1    5    5    0  501  0.12556701928E+02 -0.93149667546E+02  0.28078654893E+02  0.98209124769E+02  0.47000000000E+01 0.  1.
<mgrwt>
<rscale>  2 0.26511320E+03</rscale>
<asrwt>0</asrwt>
<pdfrwt beam="1">  1        2 0.77311117E-01 0.26511320E+03</pdfrwt>
<pdfrwt beam="2">  1       -2 0.25040182E-01 0.26511320E+03</pdfrwt>
<totfact> 0.87942136E+02</totfact>
</mgrwt>
</event>
<event>
12    1  0.1093377E-001  0.2657868E+03  0.7546771E-02  0.1103715E+00
         -2   -1    0    0    0  501 -0.00000000000E+00  0.00000000000E+00  0.26563735645E+02  0.26563735645E+02  0.00000000000E+00 0.  1.
          2   -1    0    0  503    0  0.00000000000E+00 -0.00000000000E+00 -0.26745612437E+04  0.26745612437E+04  0.00000000000E+00 0. -1.
          6    2    1    2  503    0 -0.11780887522E+03 -0.16382545253E+03 -0.12265736103E+04  0.12552239850E+04  0.17431787360E+03 0.  0.
         24    2    3    3    0    0 -0.10461068654E+02 -0.10518825689E+03 -0.44236956841E+03  0.46152382650E+03  0.78354349123E+02 0.  0.
         -6    2    1    2    0  501  0.11780887522E+03  0.16382545253E+03 -0.14214238977E+04  0.14459009943E+04  0.17165686228E+03 0.  0.
        -24    2    5    5    0    0  0.14386929166E+03  0.13872780446E+03 -0.13329370880E+04  0.13501876581E+04  0.79634506190E+02 0.  0.
          2    1    4    4  502    0 -0.26943601647E+02 -0.95445356668E+01 -0.52734509209E+02  0.59983200084E+02  0.00000000000E+00 0. -1.
         -1    1    4    4    0  502  0.16482532993E+02 -0.95643721219E+02 -0.38963505920E+03  0.40154062642E+03  0.00000000000E+00 0.  1.
          5    1    3    3  503    0 -0.10734780656E+03 -0.58637195640E+02 -0.78420404189E+03  0.79370015850E+03  0.47000000000E+01 0. -1.
         11    1    6    6    0    0  0.10599792984E+03  0.82643724741E+02 -0.10808516258E+04  0.10891766539E+04  0.00000000000E+00 0. -1.
        -12    1    6    6    0    0  0.37871361821E+02  0.56084079718E+02 -0.25208546216E+03  0.26101100413E+03  0.00000000000E+00 0.  1.
         -5    1    5    5    0  501 -0.26060416447E+02  0.25097648066E+02 -0.88486809737E+02  0.95713336277E+02  0.47000000000E+01 0.  1.
<mgrwt>
<rscale>  2 0.26578678E+03</rscale>
<asrwt>0</asrwt>
<pdfrwt beam="2">  1        2 0.41147104E+00 0.26578678E+03</pdfrwt>
<pdfrwt beam="1">  1       -2 0.40867277E-02 0.26578678E+03</pdfrwt>
<totfact> 0.85455065E+02</totfact>
</mgrwt>
</event>
<event>
12    1  0.1093377E-001  0.2431681E+03  0.7546771E-02  0.1117700E+00
         -3   -1    0    0    0  501 -0.00000000000E+00  0.00000000000E+00  0.62729563197E+02  0.62729563197E+02  0.00000000000E+00 0. -1.
          3   -1    0    0  503    0  0.00000000000E+00 -0.00000000000E+00 -0.10725081016E+04  0.10725081016E+04  0.00000000000E+00 0.  1.
          6    2    1    2  503    0  0.77986772049E+02  0.15273786372E+03 -0.30756446220E+03  0.39214845035E+03  0.17255062178E+03 0.  0.
         24    2    3    3    0    0  0.83870559164E+02  0.13616818646E+03 -0.32348341604E+03  0.36796837081E+03  0.71994137027E+02 0.  0.
         -6    2    1    2    0  501 -0.77986772049E+02 -0.15273786372E+03 -0.70221407621E+03  0.74308921445E+03  0.17223873019E+03 0.  0.
        -24    2    5    5    0    0 -0.30457135591E+02 -0.96331623929E+02 -0.21359780118E+03  0.24891446352E+03  0.78274967938E+02 0.  0.
          2    1    4    4  502    0  0.31198645328E+02  0.99439931664E+02 -0.24710526234E+03  0.26818401547E+03  0.00000000000E+00 0. -1.
         -1    1    4    4    0  502  0.52671913836E+02  0.36728254798E+02 -0.76378153702E+02  0.99784355339E+02  0.00000000000E+00 0.  1.
          5    1    3    3  503    0 -0.58837871152E+01  0.16569677256E+02  0.15918953840E+02  0.24180079540E+02  0.47000000000E+01 0. -1.
         13    1    6    6    0    0  0.17421101962E+01  0.13198401841E+02 -0.17264016315E+02  0.21800894900E+02  0.00000000000E+00 0. -1.
        -14    1    6    6    0    0 -0.32199245788E+02 -0.10953002577E+03 -0.19633378486E+03  0.22711356862E+03  0.00000000000E+00 0.  1.
         -5    1    5    5    0  501 -0.47529636458E+02 -0.56406239788E+02 -0.48861627503E+03  0.49417475093E+03  0.47000000000E+01 0.  1.
<mgrwt>
<rscale>  2 0.24316808E+03</rscale>
<asrwt>0</asrwt>
<pdfrwt beam="2">  1        3 0.16500124E+00 0.24316808E+03</pdfrwt>
<pdfrwt beam="1">  1       -3 0.96507024E-02 0.24316808E+03</pdfrwt>
<totfact> 0.52244205E+01</totfact>
</mgrwt>
</event>
<event>
12    1  0.1093377E-001  0.2526012E+03  0.7546771E-02  0.1111672E+00
          2   -1    0    0  503    0  0.00000000000E+00  0.00000000000E+00  0.15153887159E+04  0.15153887159E+04  0.00000000000E+00 0. -1.
         -2   -1    0    0    0  501 -0.00000000000E+00 -0.00000000000E+00 -0.43704183142E+02  0.43704183142E+02  0.00000000000E+00 0.  1.
          6    2    1    2  503    0 -0.14892184303E+03 -0.10795310959E+03  0.88470014726E+03  0.92003568376E+03  0.17303097880E+03 0.  0.
         24    2    3    3    0    0 -0.11835516691E+03 -0.29046608485E+02  0.72176546071E+03  0.73637741499E+03  0.80340936229E+02 0.  0.
         -6    2    1    2    0  501  0.14892184303E+03  0.10795310959E+03  0.58698438552E+03  0.63905721530E+03  0.17323933269E+03 0.  0.
        -24    2    5    5    0    0  0.10670531209E+02  0.93399819979E+01  0.22832832361E+03  0.24220178206E+03  0.79541086053E+02 0.  0.
          2    1    4    4  502    0 -0.88289641719E+02  0.16561057181E+02  0.49830494092E+03  0.50633698620E+03  0.00000000000E+00 0. -1.
         -1    1    4    4    0  502 -0.30065525190E+02 -0.45607665665E+02  0.22346051979E+03  0.23004042879E+03  0.00000000000E+00 0.  1.
          5    1    3    3  503    0 -0.30566676119E+02 -0.78906501104E+02  0.16293468655E+03  0.18365826877E+03  0.47000000000E+01 0. -1.
         13    1    6    6    0    0 -0.24416698618E+02  0.22129612945E+02  0.16836718706E+03  0.17156166419E+03  0.00000000000E+00 0. -1.
        -14    1    6    6    0    0  0.35087229827E+02 -0.12789630947E+02  0.59961136554E+02  0.70640117876E+02  0.00000000000E+00 0.  1.
         -5    1    5    5    0  501  0.13825131182E+03  0.98613127592E+02  0.35865606190E+03  0.39685543324E+03  0.47000000000E+01 0.  1.
<mgrwt>
<rscale>  2 0.25260121E+03</rscale>
<asrwt>0</asrwt>
<pdfrwt beam="1">  1        2 0.23313669E+00 0.25260121E+03</pdfrwt>
<pdfrwt beam="2">  1       -2 0.67237216E-02 0.25260121E+03</pdfrwt>
<totfact> 0.16630580E+03</totfact>
</mgrwt>
</event>
<event>
12    1  0.1093377E-001  0.1844673E+03  0.7546771E-02  0.1163548E+00
          2   -1    0    0  503    0  0.00000000000E+00  0.00000000000E+00  0.14316664233E+04  0.14316664233E+04  0.00000000000E+00 0.  1.
         -2   -1    0    0    0  501 -0.00000000000E+00 -0.00000000000E+00 -0.33508957458E+02  0.33508957458E+02  0.00000000000E+00 0. -1.
          6    2    1    2  503    0  0.36732040356E+02  0.47673598646E+02  0.30293417255E+03  0.35445355908E+03  0.17391434054E+03 0.  0.
         24    2    3    3    0    0 -0.16039819259E+02  0.16008580925E+02  0.56355051674E+02  0.10026682581E+03  0.79774645370E+02 0.  0.
         -6    2    1    2    0  501 -0.36732040356E+02 -0.47673598646E+02  0.10952232933E+04  0.11107218217E+04  0.17483388745E+03 0.  0.
        -24    2    5    5    0    0 -0.75607494622E+02  0.15198086885E+02  0.68762770836E+03  0.69645089507E+03  0.79148650306E+02 0.  0.
          4    1    4    4  502    0  0.26171816335E+02  0.28638256104E+02  0.24268212197E+02  0.45760898223E+02  0.00000000000E+00 0. -1.
         -3    1    4    4    0  502 -0.42211635594E+02 -0.12629675179E+02  0.32086839477E+02  0.54505927588E+02  0.00000000000E+00 0.  1.
          5    1    3    3  503    0  0.52771859615E+02  0.31665017721E+02  0.24657912088E+03  0.25418673327E+03  0.47000000000E+01 0. -1.
         11    1    6    6    0    0 -0.52804904519E+02  0.37415563507E+01  0.16680999309E+03  0.17500837403E+03  0.00000000000E+00 0. -1.
        -12    1    6    6    0    0 -0.22802590103E+02  0.11456530535E+02  0.52081771527E+03  0.52144252104E+03  0.00000000000E+00 0.  1.
         -5    1    5    5    0  501  0.38875454265E+02 -0.62871685532E+02  0.40759558491E+03  0.41427092659E+03  0.47000000000E+01 0.  1.
<mgrwt>
<rscale>  2 0.18446729E+03</rscale>
<asrwt>0</asrwt>
<pdfrwt beam="1">  1        2 0.22025633E+00 0.18446729E+03</pdfrwt>
<pdfrwt beam="2">  1       -2 0.51552253E-02 0.18446729E+03</pdfrwt>
<totfact> 0.27702556E+03</totfact>
</mgrwt>
</event>
<event>
12    1  0.1093377E-001  0.1856361E+03  0.7546771E-02  0.1162457E+00
         -2   -1    0    0    0  501 -0.00000000000E+00  0.00000000000E+00  0.15874612729E+02  0.15874612729E+02  0.00000000000E+00 0. -1.
          2   -1    0    0  503    0  0.00000000000E+00 -0.00000000000E+00 -0.21734611621E+04  0.21734611621E+04  0.00000000000E+00 0.  1.
          6    2    1    2  503    0 -0.12351658449E+01  0.64448480343E+02 -0.10369919555E+04  0.10533630930E+04  0.17339653316E+03 0.  0.
         24    2    3    3    0    0 -0.58205847699E+02  0.12668696636E+02 -0.72939732369E+03  0.73624584008E+03  0.80554730798E+02 0.  0.
         -6    2    1    2    0  501  0.12351658449E+01 -0.64448480343E+02 -0.11205945939E+04  0.11359726818E+04  0.17477573558E+03 0.  0.
        -24    2    5    5    0    0  0.13162116342E+02 -0.14074820321E+02 -0.18449256334E+03  0.19842862453E+03  0.70463261575E+02 0.  0.
          4    1    4    4  502    0 -0.77397586032E+02  0.16243505028E+02 -0.63048056002E+03  0.63542110001E+03  0.00000000000E+00 0. -1.
         -3    1    4    4    0  502  0.19191738334E+02 -0.35748083926E+01 -0.98916763673E+02  0.10082474007E+03  0.00000000000E+00 0.  1.
          5    1    3    3  503    0  0.56970681854E+02  0.51779783707E+02 -0.30759463181E+03  0.31711725293E+03  0.47000000000E+01 0. -1.
         11    1    6    6    0    0 -0.24863646136E+02 -0.90306324891E+01 -0.33746263357E+02  0.42878473771E+02  0.00000000000E+00 0. -1.
        -12    1    6    6    0    0  0.38025762478E+02 -0.50441878323E+01 -0.15074629998E+03  0.15555015076E+03  0.00000000000E+00 0.  1.
         -5    1    5    5    0  501 -0.11926950497E+02 -0.50373660021E+02 -0.93610203053E+03  0.93754405728E+03  0.47000000000E+01 0.  1.
<mgrwt>
<rscale>  2 0.18563608E+03</rscale>
<asrwt>0</asrwt>
<pdfrwt beam="2">  1        2 0.33437850E+00 0.18563608E+03</pdfrwt>
<pdfrwt beam="1">  1       -2 0.24422491E-02 0.18563608E+03</pdfrwt>
<totfact> 0.34660060E+03</totfact>
</mgrwt>
</event>
<event>
12    1  0.1093377E-001  0.1948794E+03  0.7546771E-02  0.1154133E+00
          4   -1    0    0  503    0  0.00000000000E+00  0.00000000000E+00  0.16375989397E+03  0.16375989397E+03  0.00000000000E+00 0.  1.
         -4   -1    0    0    0  501 -0.00000000000E+00 -0.00000000000E+00 -0.23394734661E+03  0.23394734661E+03  0.00000000000E+00 0. -1.
          6    2    1    2  503    0 -0.16139454066E+02  0.88798622033E+02 -0.16547111429E+02  0.19557113626E+03  0.17270953995E+03 0.  0.
         24    2    3    3    0    0 -0.48185794885E+02  0.68629993133E+02 -0.66153544238E+02  0.13298815353E+03  0.79231374956E+02 0.  0.
         -6    2    1    2    0  501  0.16139454066E+02 -0.88798622033E+02 -0.53640341206E+02  0.20213610432E+03  0.17273112404E+03 0.  0.
        -24    2    5    5    0    0  0.18495328802E+01 -0.12319153282E+03 -0.69782439138E+02  0.16127375630E+03  0.77201432170E+02 0.  0.
          4    1    4    4  502    0 -0.51595950345E+02  0.33599787032E+02 -0.74664966290E+02  0.96777812394E+02  0.00000000000E+00 0. -1.
         -3    1    4    4    0  502  0.34101554603E+01  0.35030206101E+02  0.85114220516E+01  0.36210341135E+02  0.00000000000E+00 0.  1.
          5    1    3    3  503    0  0.32046340819E+02  0.20168628900E+02  0.49606432809E+02  0.62582982732E+02  0.47000000000E+01 0. -1.
         13    1    6    6    0    0 -0.90665063157E+01 -0.24542549292E+02  0.15504472811E+02  0.30412611523E+02  0.00000000000E+00 0. -1.
        -14    1    6    6    0    0  0.10916039196E+02 -0.98648983527E+02 -0.85286911949E+02  0.13086114478E+03  0.00000000000E+00 0.  1.
         -5    1    5    5    0  501  0.14289921186E+02  0.34392910786E+02  0.16142097932E+02  0.40862348017E+02  0.47000000000E+01 0.  1.
<mgrwt>
<rscale>  2 0.19487942E+03</rscale>
<asrwt>0</asrwt>
<pdfrwt beam="1">  1        4 0.25193830E-01 0.19487942E+03</pdfrwt>
<pdfrwt beam="2">  1       -4 0.35991899E-01 0.19487942E+03</pdfrwt>
<totfact> 0.19579786E+02</totfact>
</mgrwt>
</event>
<event>
12    1  0.1093377E-001  0.1806218E+03  0.7546771E-02  0.1167203E+00
         -2   -1    0    0    0  501 -0.00000000000E+00  0.00000000000E+00  0.13871360181E+03  0.13871360181E+03  0.00000000000E+00 0. -1.
          2   -1    0    0  503    0  0.00000000000E+00 -0.00000000000E+00 -0.24105022954E+03  0.24105022954E+03  0.00000000000E+00 0.  1.
          6    2    1    2  503    0 -0.25866599642E+02  0.46349895830E+02 -0.80730594707E+02  0.19770960996E+03  0.17249425245E+03 0.  0.
         24    2    3    3    0    0 -0.30652050540E+02  0.54700709681E+02 -0.11789474136E+03  0.15903273795E+03  0.86374335631E+02 0.  0.
         -6    2    1    2    0  501  0.25866599642E+02 -0.46349895830E+02 -0.21606033026E+02  0.18205422139E+03  0.17279908866E+03 0.  0.
        -24    2    5    5    0    0 -0.17339753471E+02  0.18471096291E+02  0.29434531722E+02  0.88803059370E+02  0.79860774145E+02 0.  0.
          2    1    4    4  502    0 -0.29076485119E+02  0.15161200800E+02 -0.11474275395E+03  0.11933651402E+03  0.00000000000E+00 0. -1.
         -1    1    4    4    0  502 -0.15755654210E+01  0.39539508881E+02 -0.31519874176E+01  0.39696223921E+02  0.00000000000E+00 0.  1.
          5    1    3    3  503    0  0.47854508980E+01 -0.83508138511E+01  0.37164146656E+02  0.38676872016E+02  0.47000000000E+01 0. -1.
         11    1    6    6    0    0  0.23828713786E+02 -0.94003268727E+01  0.29523470829E+02  0.39087198363E+02  0.00000000000E+00 0. -1.
        -12    1    6    6    0    0 -0.41168467258E+02  0.27871423163E+02 -0.88939107184E-01  0.49715861007E+02  0.00000000000E+00 0.  1.
         -5    1    5    5    0  501  0.43206353114E+02 -0.64820992121E+02 -0.51040564748E+02  0.93251162023E+02  0.47000000000E+01 0.  1.
<mgrwt>
<rscale>  2 0.18062184E+03</rscale>
<asrwt>0</asrwt>
<pdfrwt beam="2">  1        2 0.37084650E-01 0.18062184E+03</pdfrwt>
<pdfrwt beam="1">  1       -2 0.21340554E-01 0.18062184E+03</pdfrwt>
<totfact> 0.25602177E+03</totfact>
</mgrwt>
</event>
<event>
12    1  0.1093377E-001  0.2078181E+03  0.7546771E-02  0.1143306E+00
         -2   -1    0    0    0  501 -0.00000000000E+00  0.00000000000E+00  0.50025247235E+02  0.50025247235E+02  0.00000000000E+00 0. -1.
          2   -1    0    0  503    0  0.00000000000E+00 -0.00000000000E+00 -0.11740283606E+04  0.11740283606E+04  0.00000000000E+00 0.  1.
          6    2    1    2  503    0  0.11200536147E+03  0.46767989284E+02 -0.88144830139E+03  0.90616037315E+03  0.17158982496E+03 0.  0.
         24    2    3    3    0    0  0.52766754874E+02 -0.39177616254E+02 -0.39847356192E+03  0.41201206688E+03  0.81569281431E+02 0.  0.
         -6    2    1    2    0  501 -0.11200536147E+03 -0.46767989284E+02 -0.24255481195E+03  0.31789323465E+03  0.16580357663E+03 0.  0.
        -24    2    5    5    0    0 -0.11989827038E+03 -0.29894948963E+02 -0.10852232614E+03  0.18249089068E+03  0.79098209201E+02 0.  0.
          4    1    4    4  502    0 -0.11621250768E+02 -0.32213378942E+02 -0.20872317554E+03  0.21151387487E+03  0.00000000000E+00 0. -1.
         -3    1    4    4    0  502  0.64388005642E+02 -0.69642373121E+01 -0.18975038637E+03  0.20049819201E+03  0.00000000000E+00 0.  1.
          5    1    3    3  503    0  0.59238606592E+02  0.85945605538E+02 -0.48297473947E+03  0.49414830627E+03  0.47000000000E+01 0. -1.
         13    1    6    6    0    0 -0.10941217086E+03 -0.15852278414E+01 -0.10575258949E+03  0.15217472282E+03  0.00000000000E+00 0. -1.
        -14    1    6    6    0    0 -0.10486099514E+02 -0.28309721121E+02 -0.27697366470E+01  0.30316167866E+02  0.00000000000E+00 0.  1.
         -5    1    5    5    0  501  0.78929089114E+01 -0.16873040321E+02 -0.13403248581E+03  0.13540234397E+03  0.47000000000E+01 0.  1.
<mgrwt>
<rscale>  2 0.20781810E+03</rscale>
<asrwt>0</asrwt>
<pdfrwt beam="2">  1        2 0.18061976E+00 0.20781810E+03</pdfrwt>
<pdfrwt beam="1">  1       -2 0.76961913E-02 0.20781810E+03</pdfrwt>
<totfact> 0.20753625E+03</totfact>
</mgrwt>
</event>
<event>
12    1  0.1093377E-001  0.1847604E+03  0.7546771E-02  0.1163274E+00
          1   -1    0    0  503    0  0.00000000000E+00  0.00000000000E+00  0.11373315612E+04  0.11373315612E+04  0.00000000000E+00 0. -1.
         -1   -1    0    0    0  501 -0.00000000000E+00 -0.00000000000E+00 -0.65468497697E+02  0.65468497697E+02  0.00000000000E+00 0.  1.
          6    2    1    2  503    0  0.50574647394E+02  0.36213928167E+02  0.93390474647E+02  0.20704028002E+03  0.17399612997E+03 0.  0.
         24    2    3    3    0    0  0.92774877262E+01  0.66781898339E+02  0.83130865769E+01  0.10754099280E+03  0.83367043843E+02 0.  0.
         -6    2    1    2    0  501 -0.50574647394E+02 -0.36213928167E+02  0.97847258884E+03  0.99575977886E+03  0.17395311591E+03 0.  0.
        -24    2    5    5    0    0 -0.12310789629E+01 -0.83069101730E+02  0.55587590601E+03  0.56769408136E+03  0.79853340040E+02 0.  0.
          4    1    4    4  502    0 -0.20756511908E+02  0.73013397265E+02  0.11214624187E+02  0.76730416149E+02  0.00000000000E+00 0. -1.
         -3    1    4    4    0  502  0.30033999634E+02 -0.62314989268E+01 -0.29015376099E+01  0.30810576648E+02  0.00000000000E+00 0.  1.
          5    1    3    3  503    0  0.41297159668E+02 -0.30567970172E+02  0.85077388070E+02  0.99499287223E+02  0.47000000000E+01 0. -1.
         11    1    6    6    0    0 -0.35815028133E+02 -0.69196244194E+02  0.38410166423E+03  0.39192464188E+03  0.00000000000E+00 0. -1.
        -12    1    6    6    0    0  0.34583949170E+02 -0.13872857536E+02  0.17177424178E+03  0.17576943948E+03  0.00000000000E+00 0.  1.
         -5    1    5    5    0  501 -0.49343568431E+02  0.46855173563E+02  0.42259668283E+03  0.42806569750E+03  0.47000000000E+01 0.  1.
<mgrwt>
<rscale>  2 0.18476042E+03</rscale>
<asrwt>0</asrwt>
<pdfrwt beam="1">  1        1 0.17497407E+00 0.18476042E+03</pdfrwt>
<pdfrwt beam="2">  1       -1 0.10072077E-01 0.18476042E+03</pdfrwt>
<totfact> 0.77099480E+02</totfact>
</mgrwt>
</event>
<event>
12    1  0.1093377E-001  0.2271978E+03  0.7546771E-02  0.1128628E+00
         -2   -1    0    0    0  501 -0.00000000000E+00  0.00000000000E+00  0.20288523718E+03  0.20288523718E+03  0.00000000000E+00 0.  1.
          2   -1    0    0  503    0  0.00000000000E+00 -0.00000000000E+00 -0.26395496616E+03  0.26395496616E+03  0.00000000000E+00 0. -1.
          6    2    1    2  503    0 -0.12080935063E+03  0.84447011531E+02 -0.74830724928E+02  0.23878697043E+03  0.17231768016E+03 0.  0.
         24    2    3    3    0    0 -0.98258705518E+02  0.98388891507E+02 -0.10976244514E+03  0.19468229166E+03  0.80735699291E+02 0.  0.
         -6    2    1    2    0  501  0.12080935063E+03 -0.84447011531E+02  0.13760995954E+02  0.22805323291E+03  0.17347251965E+03 0.  0.
        -24    2    5    5    0    0  0.12925561381E+03 -0.86546513173E+02 -0.26110256085E+02  0.18697338374E+03  0.10039914397E+03 0.  0.
          4    1    4    4  502    0 -0.97700247096E+02  0.47360269976E+02 -0.63366130413E+02  0.12571236987E+03  0.00000000000E+00 0. -1.
         -3    1    4    4    0  502 -0.55845842141E+00  0.51028621531E+02 -0.46396314726E+02  0.68969921787E+02  0.00000000000E+00 0.  1.
          5    1    3    3  503    0 -0.22550645117E+02 -0.13941879976E+02  0.34931720210E+02  0.44104678769E+02  0.47000000000E+01 0. -1.
         11    1    6    6    0    0  0.11758995892E+03 -0.33902949763E+02 -0.44172861925E+02  0.13010784055E+03  0.00000000000E+00 0. -1.
        -12    1    6    6    0    0  0.11665654893E+02 -0.52643563410E+02  0.18062605839E+02  0.56865543190E+02  0.00000000000E+00 0.  1.
         -5    1    5    5    0  501 -0.84462631788E+01  0.20995016414E+01  0.39871252039E+02  0.41079849172E+02  0.47000000000E+01 0.  1.
<mgrwt>
<rscale>  2 0.22719784E+03</rscale>
<asrwt>0</asrwt>
<pdfrwt beam="2">  1        2 0.40608456E-01 0.22719784E+03</pdfrwt>
<pdfrwt beam="1">  1       -2 0.31213114E-01 0.22719784E+03</pdfrwt>
<totfact> 0.11916379E+03</totfact>
</mgrwt>
</event>
<event>
12    1  0.1093377E-001  0.1965342E+03  0.7546771E-02  0.1152696E+00
         -2   -1    0    0    0  501 -0.00000000000E+00  0.00000000000E+00  0.17278390832E+02  0.17278390832E+02  0.00000000000E+00 0.  1.
          2   -1    0    0  503    0  0.00000000000E+00 -0.00000000000E+00 -0.22355785280E+04  0.22355785280E+04  0.00000000000E+00 0. -1.
          6    2    1    2  503    0  0.68790314758E+02 -0.67972765001E+02 -0.11031008172E+04  0.11205003974E+04  0.17128141605E+03 0.  0.
         24    2    3    3    0    0  0.16136868491E+02 -0.50387276824E+02 -0.29247896252E+03  0.30796638822E+03  0.80623052314E+02 0.  0.
         -6    2    1    2    0  501 -0.68790314758E+02  0.67972765001E+02 -0.11151993201E+04  0.11323565215E+04  0.17090747257E+03 0.  0.
        -24    2    5    5    0    0 -0.93972527675E+02  0.21256368981E+02 -0.96612308132E+03  0.97404549708E+03  0.78026616803E+02 0.  0.
          2    1    4    4  502    0 -0.10435994629E+02 -0.41599549893E+02 -0.26600695096E+03  0.26944225818E+03  0.00000000000E+00 0. -1.
         -1    1    4    4    0  502  0.26572863121E+02 -0.87877269305E+01 -0.26472011564E+02  0.38524130039E+02  0.00000000000E+00 0.  1.
          5    1    3    3  503    0  0.52653446267E+02 -0.17585488177E+02 -0.81062185464E+03  0.81253400914E+03  0.47000000000E+01 0. -1.
         13    1    6    6    0    0 -0.95203892557E+01 -0.22412116220E+02 -0.11019726000E+03  0.11285555758E+03  0.00000000000E+00 0. -1.
        -14    1    6    6    0    0 -0.84452138419E+02  0.43668485201E+02 -0.85592582132E+03  0.86118993950E+03  0.00000000000E+00 0.  1.
         -5    1    5    5    0  501  0.25182212917E+02  0.46716396019E+02 -0.14907623873E+03  0.15831102444E+03  0.47000000000E+01 0.  1.
<mgrwt>
<rscale>  2 0.19653421E+03</rscale>
<asrwt>0</asrwt>
<pdfrwt beam="2">  1        2 0.34393522E+00 0.19653421E+03</pdfrwt>
<pdfrwt beam="1">  1       -2 0.26582135E-02 0.19653421E+03</pdfrwt>
<totfact> 0.28364183E+03</totfact>
</mgrwt>
</event>
<event>
12    1  0.1093377E-001  0.3164688E+03  0.7546771E-02  0.1077286E+00
          1   -1    0    0  503    0  0.00000000000E+00  0.00000000000E+00  0.18125675093E+04  0.18125675093E+04  0.00000000000E+00 0. -1.
         -1   -1    0    0    0  501 -0.00000000000E+00 -0.00000000000E+00 -0.65753537325E+02  0.65753537325E+02  0.00000000000E+00 0.  1.
          6    2    1    2  503    0  0.23996823583E+03  0.11280130814E+03  0.12473113781E+04  0.12866874433E+04  0.17166832388E+03 0.  0.
         24    2    3    3    0    0  0.45265453124E+02  0.35000193763E+02  0.28781867602E+03  0.30454156698E+03  0.81437098059E+02 0.  0.
         -6    2    1    2    0  501 -0.23996823583E+03 -0.11280130814E+03  0.49950259390E+03  0.59163360338E+03  0.17383495047E+03 0.  0.
        -24    2    5    5    0    0 -0.15984790031E+03  0.69288050631E+00  0.28098717360E+03  0.33265237253E+03  0.78434545360E+02 0.  0.
          4    1    4    4  502    0  0.48801493965E+02 -0.70767174473E+01  0.93702134801E+02  0.10588557885E+03  0.00000000000E+00 0. -1.
         -3    1    4    4    0  502 -0.35360408403E+01  0.42076911210E+02  0.19411654122E+03  0.19865598812E+03  0.00000000000E+00 0.  1.
          5    1    3    3  503    0  0.19470278270E+03  0.77801114378E+02  0.95949270209E+03  0.98214587631E+03  0.47000000000E+01 0. -1.
         13    1    6    6    0    0 -0.15364401350E+02  0.16716237964E+02  0.93326451370E+01  0.24547824868E+02  0.00000000000E+00 0. -1.
        -14    1    6    6    0    0 -0.14448349896E+03 -0.16023357458E+02  0.27165452846E+03  0.30810454766E+03  0.00000000000E+00 0.  1.
         -5    1    5    5    0  501 -0.80120335513E+02 -0.11349418865E+03  0.21851542030E+03  0.25898123084E+03  0.47000000000E+01 0.  1.
<mgrwt>
<rscale>  2 0.31646878E+03</rscale>
<asrwt>0</asrwt>
<pdfrwt beam="1">  1        1 0.27885650E+00 0.31646878E+03</pdfrwt>
<pdfrwt beam="2">  1       -1 0.10115930E-01 0.31646878E+03</pdfrwt>
<totfact> 0.26580193E+02</totfact>
</mgrwt>
</event>
<event>
12    1  0.1093377E-001  0.7257282E+03  0.7546771E-02  0.9674218E-01
         -2   -1    0    0    0  501 -0.00000000000E+00  0.00000000000E+00  0.84499902059E+03  0.84499902059E+03  0.00000000000E+00 0. -1.
          2   -1    0    0  503    0  0.00000000000E+00 -0.00000000000E+00 -0.65593020320E+03  0.65593020320E+03  0.00000000000E+00 0.  1.
          6    2    1    2  503    0  0.65823656178E+03  0.25165814145E+03 -0.72855983804E+02  0.72947560652E+03  0.17383749511E+03 0.  0.
         24    2    3    3    0    0  0.17219200174E+03  0.55686830354E+02  0.12030016381E+02  0.19855961303E+03  0.80808972848E+02 0.  0.
         -6    2    1    2    0  501 -0.65823656178E+03 -0.25165814145E+03  0.26192480119E+03  0.77145361727E+03  0.17299968411E+03 0.  0.
        -24    2    5    5    0    0 -0.20275159162E+03 -0.10661847009E+03  0.14162182030E+03  0.27850538315E+03  0.70942246875E+02 0.  0.
          4    1    4    4  502    0  0.14262047676E+03  0.35043352072E+02  0.40801138946E+02  0.15242496467E+03  0.00000000000E+00 0. -1.
         -3    1    4    4    0  502  0.29571524981E+02  0.20643478281E+02 -0.28771122564E+02  0.46134648356E+02  0.00000000000E+00 0.  1.
          5    1    3    3  503    0  0.48604456004E+03  0.19597131110E+03 -0.84886000185E+02  0.53091599349E+03  0.47000000000E+01 0. -1.
         13    1    6    6    0    0 -0.56911707085E+02  0.26307895969E+01  0.25420728189E+02  0.62386511995E+02  0.00000000000E+00 0. -1.
        -14    1    6    6    0    0 -0.14583988454E+03 -0.10924925969E+03  0.11620109211E+03  0.21611887116E+03  0.00000000000E+00 0.  1.
         -5    1    5    5    0  501 -0.45548497016E+03 -0.14503967136E+03  0.12030298089E+03  0.49294823412E+03  0.47000000000E+01 0.  1.
<mgrwt>
<rscale>  2 0.72572815E+03</rscale>
<asrwt>0</asrwt>
<pdfrwt beam="2">  1        2 0.10091234E+00 0.72572815E+03</pdfrwt>
<pdfrwt beam="1">  1       -2 0.12999985E+00 0.72572815E+03</pdfrwt>
<totfact> 0.19618687E+01</totfact>
</mgrwt>
</event>
<event>
12    1  0.1093377E-001  0.1767704E+03  0.7546771E-02  0.1170966E+00
          1   -1    0    0  503    0  0.00000000000E+00  0.00000000000E+00  0.56651472711E+03  0.56651472711E+03  0.00000000000E+00 0.  1.
         -1   -1    0    0    0  501 -0.00000000000E+00 -0.00000000000E+00 -0.56885339865E+02  0.56885339865E+02  0.00000000000E+00 0. -1.
          6    2    1    2  503    0 -0.28532813926E+02 -0.21660984801E+02  0.20324308286E+03  0.27061262879E+03  0.17504320724E+03 0.  0.
         24    2    3    3    0    0  0.82333839092E+01  0.35980018271E+02  0.17801784398E+03  0.19758769323E+03  0.77383418201E+02 0.  0.
         -6    2    1    2    0  501  0.28532813926E+02  0.21660984801E+02  0.30638630439E+03  0.35278743819E+03  0.17118145136E+03 0.  0.
        -24    2    5    5    0    0  0.21331098688E+02  0.39561704073E+02  0.69642803085E+02  0.11521244821E+03  0.80022771757E+02 0.  0.
          2    1    4    4  502    0  0.32183953787E+02  0.32770889540E+02  0.52463827156E+02  0.69729414471E+02  0.00000000000E+00 0. -1.
         -1    1    4    4    0  502 -0.23950569878E+02  0.32091287314E+01  0.12555401683E+03  0.12785827876E+03  0.00000000000E+00 0.  1.
          5    1    3    3  503    0 -0.36766197835E+02 -0.57641003072E+02  0.25225238872E+02  0.73024935567E+02  0.47000000000E+01 0. -1.
         11    1    6    6    0    0  0.10304856882E+02  0.64033638011E+02  0.51453191496E+02  0.82788452018E+02  0.00000000000E+00 0. -1.
        -12    1    6    6    0    0  0.11026241806E+02 -0.24471933938E+02  0.18189611588E+02  0.32423996188E+02  0.00000000000E+00 0.  1.
         -5    1    5    5    0  501  0.72017152373E+01 -0.17900719272E+02  0.23674350131E+03  0.23757498998E+03  0.47000000000E+01 0.  1.
<mgrwt>
<rscale>  2 0.17677041E+03</rscale>
<asrwt>0</asrwt>
<pdfrwt beam="1">  1        1 0.87156108E-01 0.17677041E+03</pdfrwt>
<pdfrwt beam="2">  1       -1 0.87515911E-02 0.17677041E+03</pdfrwt>
<totfact> 0.28146522E+03</totfact>
</mgrwt>
</event>
<event>
12    1  0.1093377E-001  0.1746754E+03  0.7546771E-02  0.1173058E+00
          2   -1    0    0  503    0  0.00000000000E+00  0.00000000000E+00  0.88976270659E+03  0.88976270659E+03  0.00000000000E+00 0. -1.
         -2   -1    0    0    0  501 -0.00000000000E+00 -0.00000000000E+00 -0.36111023282E+02  0.36111023282E+02  0.00000000000E+00 0.  1.
          6    2    1    2  503    0 -0.17355371214E+02 -0.13615557432E+02  0.53083918958E+03  0.55885370632E+03  0.17332232274E+03 0.  0.
         24    2    3    3    0    0 -0.15917432503E+01 -0.15867972422E+02  0.11172364141E+03  0.13940943343E+03  0.81844314922E+02 0.  0.
         -6    2    1    2    0  501  0.17355371214E+02  0.13615557432E+02  0.32281249373E+03  0.36702002355E+03  0.17323163471E+03 0.  0.
        -24    2    5    5    0    0  0.54936619997E+02  0.28735617288E+02  0.11254198763E+03  0.15283145662E+03  0.82752566332E+02 0.  0.
          4    1    4    4  502    0  0.38557119891E+02  0.33891250113E+01  0.47806049785E+02  0.61510617446E+02  0.00000000000E+00 0. -1.
         -3    1    4    4    0  502 -0.40148863141E+02 -0.19257097433E+02  0.63917591621E+02  0.77898815984E+02  0.00000000000E+00 0.  1.
          5    1    3    3  503    0 -0.15763627963E+02  0.22524149897E+01  0.41911554817E+03  0.41944427289E+03  0.47000000000E+01 0. -1.
         11    1    6    6    0    0  0.42367126319E+02  0.11299329157E+02  0.12178175617E+03  0.12943509712E+03  0.00000000000E+00 0. -1.
        -12    1    6    6    0    0  0.12569493678E+02  0.17436288130E+02 -0.92397685354E+01  0.23396359496E+02  0.00000000000E+00 0.  1.
         -5    1    5    5    0  501 -0.37581248783E+02 -0.15120059855E+02  0.21027050609E+03  0.21418856693E+03  0.47000000000E+01 0.  1.
<mgrwt>
<rscale>  2 0.17467542E+03</rscale>
<asrwt>0</asrwt>
<pdfrwt beam="1">  1        2 0.13688655E+00 0.17467542E+03</pdfrwt>
<pdfrwt beam="2">  1       -2 0.55555427E-02 0.17467542E+03</pdfrwt>
<totfact> 0.50538764E+03</totfact>
</mgrwt>
</event>
<event>
12    1  0.1093377E-001  0.2196983E+03  0.7546771E-02  0.1134108E+00
         -2   -1    0    0    0  501 -0.00000000000E+00  0.00000000000E+00  0.47142908727E+02  0.47142908727E+02  0.00000000000E+00 0. -1.
          2   -1    0    0  503    0  0.00000000000E+00 -0.00000000000E+00 -0.10303022606E+04  0.10303022606E+04  0.00000000000E+00 0.  1.
          6    2    1    2  503    0  0.89620415962E+02 -0.99829291092E+02 -0.44898338258E+03  0.49985918642E+03  0.17399833935E+03 0.  0.
         24    2    3    3    0    0  0.11329030902E+03 -0.25249181577E+02 -0.29495387092E+03  0.32703084084E+03  0.80493289163E+02 0.  0.
         -6    2    1    2    0  501 -0.89620415962E+02  0.99829291092E+02 -0.53417596927E+03  0.57758598288E+03  0.17396521251E+03 0.  0.
        -24    2    5    5    0    0 -0.11953061557E+03  0.11649437155E+03 -0.45801500385E+03  0.49395029911E+03  0.79690950391E+02 0.  0.
          2    1    4    4  502    0  0.83930674669E+02 -0.50718828120E+02 -0.17097297315E+03  0.19710026693E+03  0.00000000000E+00 0. -1.
         -1    1    4    4    0  502  0.29359634356E+02  0.25469646543E+02 -0.12398089777E+03  0.12993057391E+03  0.00000000000E+00 0.  1.
          5    1    3    3  503    0 -0.23669893063E+02 -0.74580109515E+02 -0.15402951166E+03  0.17282834558E+03  0.47000000000E+01 0. -1.
         11    1    6    6    0    0  0.57581636745E+01  0.27343919082E+02 -0.42192754667E+02  0.50607063796E+02  0.00000000000E+00 0. -1.
        -12    1    6    6    0    0 -0.12528877925E+03  0.89150452467E+02 -0.41582224918E+03  0.44334323531E+03  0.00000000000E+00 0.  1.
         -5    1    5    5    0  501  0.29910199612E+02 -0.16665080457E+02 -0.76160965414E+02  0.83635683774E+02  0.47000000000E+01 0.  1.
<mgrwt>
<rscale>  2 0.21969835E+03</rscale>
<asrwt>0</asrwt>
<pdfrwt beam="2">  1        2 0.15850803E+00 0.21969835E+03</pdfrwt>
<pdfrwt beam="1">  1       -2 0.72527558E-02 0.21969835E+03</pdfrwt>
<totfact> 0.27623038E+03</totfact>
</mgrwt>
</event>
<event>
12    1  0.1093377E-001  0.1910894E+03  0.7546771E-02  0.1157482E+00
          1   -1    0    0  503    0  0.00000000000E+00  0.00000000000E+00  0.40420619495E+03  0.40420619495E+03  0.00000000000E+00 0.  1.
         -1   -1    0    0    0  501 -0.00000000000E+00 -0.00000000000E+00 -0.18598537784E+03  0.18598537784E+03  0.00000000000E+00 0. -1.
          6    2    1    2  503    0  0.23625180354E+02 -0.79522880585E+02  0.32134411926E+03  0.37504777817E+03  0.17469045549E+03 0.  0.
         24    2    3    3    0    0 -0.48524907672E+02 -0.76968423357E+02  0.19690124568E+03  0.23110237449E+03  0.79745859367E+02 0.  0.
         -6    2    1    2    0  501 -0.23625180354E+02  0.79522880585E+02 -0.10312330215E+03  0.21514379462E+03  0.16961839297E+03 0.  0.
        -24    2    5    5    0    0  0.30989048996E+02  0.96205705393E+01 -0.13177505094E+02  0.88726298185E+02  0.81521977491E+02 0.  0.
          4    1    4    4  502    0 -0.24383716274E+02 -0.53470837059E+02  0.41133579356E+02  0.71733307366E+02  0.00000000000E+00 0. -1.
         -3    1    4    4    0  502 -0.24141191398E+02 -0.23497586298E+02  0.15576766632E+03  0.15936906712E+03  0.00000000000E+00 0.  1.
          5    1    3    3  503    0  0.72150088026E+02 -0.25544572281E+01  0.12444287359E+03  0.14394540368E+03  0.47000000000E+01 0. -1.
         13    1    6    6    0    0 -0.53185177730E+01 -0.21674365356E+02 -0.30470164789E+02  0.37768977841E+02  0.00000000000E+00 0. -1.
        -14    1    6    6    0    0  0.36307566769E+02  0.31294935895E+02  0.17292659695E+02  0.50957320344E+02  0.00000000000E+00 0.  1.
         -5    1    5    5    0  501 -0.54614229350E+02  0.69902310046E+02 -0.89945797059E+02  0.12641749644E+03  0.47000000000E+01 0.  1.
<mgrwt>
<rscale>  2 0.19108945E+03</rscale>
<asrwt>0</asrwt>
<pdfrwt beam="1">  1        1 0.62185568E-01 0.19108945E+03</pdfrwt>
<pdfrwt beam="2">  1       -1 0.28613135E-01 0.19108945E+03</pdfrwt>
<totfact> 0.66545636E+02</totfact>
</mgrwt>
</event>
<event>
12    1  0.1093377E-001  0.1937409E+03  0.7546771E-02  0.1155130E+00
         -2   -1    0    0    0  501 -0.00000000000E+00  0.00000000000E+00  0.98531739835E+02  0.98531739835E+02  0.00000000000E+00 0. -1.
          2   -1    0    0  503    0  0.00000000000E+00 -0.00000000000E+00 -0.41754994537E+03  0.41754994537E+03  0.00000000000E+00 0.  1.
          6    2    1    2  503    0  0.45868566028E+02 -0.75411430488E+02 -0.23500055967E+03  0.30381626479E+03  0.17113810360E+03 0.  0.
         24    2    3    3    0    0  0.93770149862E+02 -0.62632206372E+02 -0.18793040439E+03  0.23529210977E+03  0.85609028406E+02 0.  0.
         -6    2    1    2    0  501 -0.45868566028E+02  0.75411430488E+02 -0.84017645864E+02  0.21226542042E+03  0.17380113547E+03 0.  0.
        -24    2    5    5    0    0 -0.16822943805E+02  0.10403740517E+03 -0.10223175307E+03  0.16735508421E+03  0.80309400211E+02 0.  0.
          2    1    4    4  502    0  0.26814681765E+00 -0.42948261039E+02 -0.37160129700E+02  0.56793487904E+02  0.00000000000E+00 0. -1.
         -1    1    4    4    0  502  0.93502003044E+02 -0.19683945333E+02 -0.15077027469E+03  0.17849862187E+03  0.00000000000E+00 0.  1.
          5    1    3    3  503    0 -0.47901583834E+02 -0.12779224116E+02 -0.47070155277E+02  0.68524155016E+02  0.47000000000E+01 0. -1.
         11    1    6    6    0    0  0.30264444402E+02  0.28809613260E+02 -0.19834984776E+02  0.46253184022E+02  0.00000000000E+00 0. -1.
        -12    1    6    6    0    0 -0.47087388207E+02  0.75227791914E+02 -0.82396768291E+02  0.12110190019E+03  0.00000000000E+00 0.  1.
         -5    1    5    5    0  501 -0.29045622223E+02 -0.28625974686E+02  0.18214107204E+02  0.44910336208E+02  0.47000000000E+01 0.  1.
<mgrwt>
<rscale>  2 0.19374091E+03</rscale>
<asrwt>0</asrwt>
<pdfrwt beam="2">  1        2 0.64238453E-01 0.19374091E+03</pdfrwt>
<pdfrwt beam="1">  1       -2 0.15158729E-01 0.19374091E+03</pdfrwt>
<totfact> 0.25285977E+03</totfact>
</mgrwt>
</event>
<event>
12    1  0.1093377E-001  0.1800582E+03  0.7546771E-02  0.1167747E+00
         -1   -1    0    0    0  501 -0.00000000000E+00  0.00000000000E+00  0.36370223905E+03  0.36370223905E+03  0.00000000000E+00 0.  1.
          1   -1    0    0  503    0  0.00000000000E+00 -0.00000000000E+00 -0.11669924685E+03  0.11669924685E+03  0.00000000000E+00 0. -1.
          6    2    1    2  503    0  0.43421700127E+02 -0.19977252535E+02  0.23942218679E+03  0.29867545851E+03  0.17204508516E+03 0.  0.
         24    2    3    3    0    0  0.85724392356E+02  0.10456634847E+02  0.20053562914E+03  0.23348348326E+03  0.82716296717E+02 0.  0.
         -6    2    1    2    0  501 -0.43421700127E+02  0.19977252535E+02  0.75808054099E+01  0.18172602739E+03  0.17516376839E+03 0.  0.
        -24    2    5    5    0    0 -0.34651876395E+02 -0.34378589608E+02 -0.36680448457E+02  0.11092619704E+03  0.92609534764E+02 0.  0.
          4    1    4    4  502    0  0.96112011866E+02 -0.25129378045E+01  0.19217102256E+03  0.21488028200E+03  0.00000000000E+00 0. -1.
         -3    1    4    4    0  502 -0.10387619510E+02  0.12969572651E+02  0.83646065859E+01  0.18603201261E+02  0.00000000000E+00 0.  1.
          5    1    3    3  503    0 -0.42302692229E+02 -0.30433887382E+02  0.38886557646E+02  0.65191975247E+02  0.47000000000E+01 0. -1.
         11    1    6    6    0    0 -0.89374810891E+01 -0.19912978915E+02 -0.65888713170E+02  0.69409853917E+02  0.00000000000E+00 0. -1.
        -12    1    6    6    0    0 -0.25714395306E+02 -0.14465610693E+02  0.29208264713E+02  0.41516343122E+02  0.00000000000E+00 0.  1.
         -5    1    5    5    0  501 -0.87698237312E+01  0.54355842143E+02  0.44261253867E+02  0.70799830348E+02  0.47000000000E+01 0.  1.
<mgrwt>
<rscale>  2 0.18005817E+03</rscale>
<asrwt>0</asrwt>
<pdfrwt beam="2">  1        1 0.17953730E-01 0.18005817E+03</pdfrwt>
<pdfrwt beam="1">  1       -1 0.55954190E-01 0.18005817E+03</pdfrwt>
<totfact> 0.97162984E+02</totfact>
</mgrwt>
</event>
<event>
12    1  0.1093377E-001  0.2480352E+03  0.7546771E-02  0.1114553E+00
         -2   -1    0    0    0  501 -0.00000000000E+00  0.00000000000E+00  0.63565055759E+02  0.63565055759E+02  0.00000000000E+00 0.  1.
          2   -1    0    0  503    0  0.00000000000E+00 -0.00000000000E+00 -0.10657286048E+04  0.10657286048E+04  0.00000000000E+00 0. -1.
          6    2    1    2  503    0 -0.17614212596E+03  0.20097267387E+02 -0.32994536787E+03  0.41277180861E+03  0.17345509940E+03 0.  0.
         24    2    3    3    0    0 -0.60435877847E+02  0.34814433866E+02 -0.80984955809E+02  0.13780288743E+03  0.86985818267E+02 0.  0.
         -6    2    1    2    0  501  0.17614212596E+03 -0.20097267387E+02 -0.67221818121E+03  0.71652185199E+03  0.17348294595E+03 0.  0.
        -24    2    5    5    0    0  0.90516015445E+02  0.49422231993E+02 -0.27897147672E+03  0.30807374979E+03  0.80303452110E+02 0.  0.
          2    1    4    4  502    0 -0.67069160261E+02  0.56661693221E+02 -0.70857390109E+02  0.11282548236E+03  0.00000000000E+00 0. -1.
         -1    1    4    4    0  502  0.66332824141E+01 -0.21847259355E+02 -0.10127565700E+02  0.24977405068E+02  0.00000000000E+00 0.  1.
          5    1    3    3  503    0 -0.11570624811E+03 -0.14717166479E+02 -0.24896041207E+03  0.27496892118E+03  0.47000000000E+01 0. -1.
         11    1    6    6    0    0  0.26250028007E+01  0.33970574604E+02 -0.13025393858E+03  0.13463647015E+03  0.00000000000E+00 0. -1.
        -12    1    6    6    0    0  0.87891012644E+02  0.15451657388E+02 -0.14871753814E+03  0.17343727964E+03  0.00000000000E+00 0.  1.
         -5    1    5    5    0  501  0.85626110515E+02 -0.69519499380E+02 -0.39324670450E+03  0.40844810221E+03  0.47000000000E+01 0.  1.
<mgrwt>
<rscale>  2 0.24803518E+03</rscale>
<asrwt>0</asrwt>
<pdfrwt beam="2">  1        2 0.16395824E+00 0.24803518E+03</pdfrwt>
<pdfrwt beam="1">  1       -2 0.97792396E-02 0.24803518E+03</pdfrwt>
<totfact> 0.16467670E+03</totfact>
</mgrwt>
</event>
<event>
12    1  0.1093377E-001  0.1759365E+03  0.7546771E-02  0.1171795E+00
          1   -1    0    0  503    0  0.00000000000E+00  0.00000000000E+00  0.66948505648E+03  0.66948505648E+03  0.00000000000E+00 0. -1.
         -1   -1    0    0    0  501 -0.00000000000E+00 -0.00000000000E+00 -0.79411947132E+02  0.79411947132E+02  0.00000000000E+00 0.  1.
          6    2    1    2  503    0 -0.22884545841E+02 -0.36697952434E+02  0.53490702962E+03  0.56242678940E+03  0.16830900435E+03 0.  0.
         24    2    3    3    0    0  0.23914010636E+02 -0.12696823471E+02  0.13717078216E+03  0.16120070398E+03  0.80229385223E+02 0.  0.
         -6    2    1    2    0  501  0.22884545841E+02  0.36697952434E+02  0.55166079731E+02  0.18647021422E+03  0.17279294628E+03 0.  0.
        -24    2    5    5    0    0  0.41126605750E+02  0.75824221165E+02  0.73451428398E+02  0.13935247201E+03  0.81137469188E+02 0.  0.
          2    1    4    4  502    0 -0.52872948339E+01  0.28950539463E+02  0.76877326128E+02  0.82317753215E+02  0.00000000000E+00 0. -1.
         -1    1    4    4    0  502  0.29201305470E+02 -0.41647362935E+02  0.60293456032E+02  0.78882950761E+02  0.00000000000E+00 0.  1.
          5    1    3    3  503    0 -0.46798556477E+02 -0.24001128962E+02  0.39773624746E+03  0.40122608542E+03  0.47000000000E+01 0. -1.
         13    1    6    6    0    0 -0.17313417404E+02  0.17890172643E+02  0.46528729150E+02  0.52770591580E+02  0.00000000000E+00 0. -1.
        -14    1    6    6    0    0  0.58440023153E+02  0.57934048522E+02  0.26922699248E+02  0.86581880432E+02  0.00000000000E+00 0.  1.
         -5    1    5    5    0  501 -0.18242059909E+02 -0.39126268732E+02 -0.18285348667E+02  0.47117742204E+02  0.47000000000E+01 0.  1.
<mgrwt>
<rscale>  2 0.17593652E+03</rscale>
<asrwt>0</asrwt>
<pdfrwt beam="1">  1        1 0.10299770E+00 0.17593652E+03</pdfrwt>
<pdfrwt beam="2">  1       -1 0.12217223E-01 0.17593652E+03</pdfrwt>
<totfact> 0.13361247E+03</totfact>
</mgrwt>
</event>
<event>
12    1  0.1093377E-001  0.1975253E+03  0.7546771E-02  0.1151844E+00
          2   -1    0    0  503    0  0.00000000000E+00  0.00000000000E+00  0.45778256916E+03  0.45778256916E+03  0.00000000000E+00 0.  1.
         -2   -1    0    0    0  501 -0.00000000000E+00 -0.00000000000E+00 -0.10440535415E+03  0.10440535415E+03  0.00000000000E+00 0. -1.
          6    2    1    2  503    0 -0.56173437546E+02 -0.75804359563E+02  0.56473536052E+02  0.20577343235E+03  0.17393012727E+03 0.  0.
         24    2    3    3    0    0  0.33062479394E+02 -0.27906926738E+02  0.49311873832E+02  0.10413391076E+03  0.80872036985E+02 0.  0.
         -6    2    1    2    0  501  0.56173437546E+02  0.75804359563E+02  0.29690367896E+03  0.35641449095E+03  0.17314080618E+03 0.  0.
        -24    2    5    5    0    0 -0.22725595886E+02  0.67790989208E+02  0.10120359789E+03  0.14520397201E+03  0.75696461839E+02 0.  0.
          2    1    4    4  502    0  0.12408728859E+02 -0.18088180559E+02 -0.20896075848E+02  0.30295293590E+02  0.00000000000E+00 0. -1.
         -1    1    4    4    0  502  0.20653750535E+02 -0.98187461785E+01  0.70207949680E+02  0.73838617173E+02  0.00000000000E+00 0.  1.
          5    1    3    3  503    0 -0.89235916941E+02 -0.47897432826E+02  0.71616622201E+01  0.10163952159E+03  0.47000000000E+01 0. -1.
         13    1    6    6    0    0 -0.97913632405E+01  0.55220929187E+01 -0.11318714793E+02  0.15952354336E+02  0.00000000000E+00 0. -1.
        -14    1    6    6    0    0 -0.12934232646E+02  0.62268896290E+02  0.11252231269E+03  0.12925161767E+03  0.00000000000E+00 0.  1.
         -5    1    5    5    0  501  0.78899033432E+02  0.80133703550E+01  0.19570008107E+03  0.21121051894E+03  0.47000000000E+01 0.  1.
<mgrwt>
<rscale>  2 0.19752526E+03</rscale>
<asrwt>0</asrwt>
<pdfrwt beam="1">  1        2 0.70428086E-01 0.19752526E+03</pdfrwt>
<pdfrwt beam="2">  1       -2 0.16062362E-01 0.19752526E+03</pdfrwt>
<totfact> 0.20790246E+03</totfact>
</mgrwt>
</event>
<event>
12    1  0.1093377E-001  0.1819090E+03  0.7546771E-02  0.1165968E+00
         -1   -1    0    0    0  501 -0.00000000000E+00  0.00000000000E+00  0.74201213785E+01  0.74201213785E+01  0.00000000000E+00 0.  1.
          1   -1    0    0  503    0  0.00000000000E+00 -0.00000000000E+00 -0.48560880303E+04  0.48560880303E+04  0.00000000000E+00 0. -1.
          6    2    1    2  503    0  0.54605080057E+02  0.11351576845E+02 -0.31182674358E+04  0.31235645980E+04  0.17307057321E+03 0.  0.
         24    2    3    3    0    0  0.94155627613E+02  0.38462202389E+02 -0.25187571003E+04  0.25221213635E+04  0.81327848525E+02 0.  0.
         -6    2    1    2    0  501 -0.54605080057E+02 -0.11351576845E+02 -0.17304004731E+04  0.17399435537E+04  0.17322586333E+03 0.  0.
        -24    2    5    5    0    0 -0.49512620386E+02  0.61983285899E+00 -0.17202429875E+04  0.17227821928E+04  0.79313705055E+02 0.  0.
          4    1    4    4  502    0  0.40085714246E+02  0.48510811565E+02 -0.18628720354E+04  0.18639346511E+04  0.00000000000E+00 0. -1.
         -3    1    4    4    0  502  0.54069913368E+02 -0.10048609176E+02 -0.65588506486E+03  0.65818671240E+03  0.00000000000E+00 0.  1.
          5    1    3    3  503    0 -0.39550547556E+02 -0.27110625543E+02 -0.59951033558E+03  0.60144323448E+03  0.47000000000E+01 0. -1.
         11    1    6    6    0    0  0.17397041864E+02  0.16727904591E+01 -0.13488996381E+03  0.13601749017E+03  0.00000000000E+00 0. -1.
        -12    1    6    6    0    0 -0.66909662250E+02 -0.10529576001E+01 -0.15853530237E+04  0.15867647026E+04  0.00000000000E+00 0.  1.
         -5    1    5    5    0  501 -0.50924596712E+01 -0.11971409704E+02 -0.10157485542E+02  0.17161360912E+02  0.47000000000E+01 0.  1.
<mgrwt>
<rscale>  2 0.18190897E+03</rscale>
<asrwt>0</asrwt>
<pdfrwt beam="2">  1        1 0.74709055E+00 0.18190897E+03</pdfrwt>
<pdfrwt beam="1">  1       -1 0.11415570E-02 0.18190897E+03</pdfrwt>
<totfact> 0.30296707E+01</totfact>
</mgrwt>
</event>
<event>
12    1  0.1093377E-001  0.3246666E+03  0.7546771E-02  0.1073521E+00
         -4   -1    0    0    0  501 -0.00000000000E+00  0.00000000000E+00  0.90962006444E+03  0.90962006444E+03  0.00000000000E+00 0. -1.
          4   -1    0    0  503    0  0.00000000000E+00 -0.00000000000E+00 -0.11996919901E+03  0.11996919901E+03  0.00000000000E+00 0.  1.
          6    2    1    2  503    0  0.69977936894E+02  0.26707471115E+03  0.48701407341E+03  0.58401727401E+03  0.16633597223E+03 0.  0.
         24    2    3    3    0    0  0.12049069785E+02  0.16532385289E+03  0.19161862332E+03  0.26622873939E+03  0.81748935520E+02 0.  0.
         -6    2    1    2    0  501 -0.69977936894E+02 -0.26707471115E+03  0.30263679202E+03  0.44557198944E+03  0.17526995437E+03 0.  0.
        -24    2    5    5    0    0  0.82235450743E+01 -0.12251840569E+03  0.21274927052E+03  0.25818508021E+03  0.79491490806E+02 0.  0.
          4    1    4    4  502    0 -0.26684027810E+02  0.18094101217E+02  0.39900035083E+02  0.51297628002E+02  0.00000000000E+00 0. -1.
         -3    1    4    4    0  502  0.38733097595E+02  0.14722975168E+03  0.15171858824E+03  0.21493111139E+03  0.00000000000E+00 0.  1.
          5    1    3    3  503    0  0.57928867109E+02  0.10175085826E+03  0.29539545009E+03  0.31778853461E+03  0.47000000000E+01 0. -1.
         11    1    6    6    0    0 -0.28949275528E+02 -0.38490877901E+02  0.11151332355E+03  0.12146945939E+03  0.00000000000E+00 0. -1.
        -12    1    6    6    0    0  0.37172820603E+02 -0.84027527788E+02  0.10123594697E+03  0.13671562082E+03  0.00000000000E+00 0.  1.
         -5    1    5    5    0  501 -0.78201481969E+02 -0.14455630546E+03  0.89887521501E+02  0.18738690923E+03  0.47000000000E+01 0.  1.
<mgrwt>
<rscale>  2 0.32466656E+03</rscale>
<asrwt>0</asrwt>
<pdfrwt beam="2">  1        4 0.18456800E-01 0.32466656E+03</pdfrwt>
<pdfrwt beam="1">  1       -4 0.13994154E+00 0.32466656E+03</pdfrwt>
<totfact> 0.18262220E+01</totfact>
</mgrwt>
</event>
<event>
12    1  0.1093377E-001  0.2019873E+03  0.7546771E-02  0.1148073E+00
         -1   -1    0    0    0  501 -0.00000000000E+00  0.00000000000E+00  0.15654516615E+03  0.15654516615E+03  0.00000000000E+00 0.  1.
          1   -1    0    0  503    0  0.00000000000E+00 -0.00000000000E+00 -0.26466364103E+03  0.26466364103E+03  0.00000000000E+00 0. -1.
          6    2    1    2  503    0  0.96682688821E+02 -0.45132908292E+02 -0.28242614834E+02  0.20471167366E+03  0.17240853318E+03 0.  0.
         24    2    3    3    0    0  0.12835486284E+03 -0.87454533591E+01 -0.34761468543E+02  0.15580606113E+03  0.80719980304E+02 0.  0.
         -6    2    1    2    0  501 -0.96682688821E+02  0.45132908292E+02 -0.79875860038E+02  0.21649713352E+03  0.17060578559E+03 0.  0.
        -24    2    5    5    0    0 -0.32683000364E+02  0.13715958188E+02  0.21246651901E+02  0.92679375109E+02  0.82956255532E+02 0.  0.
          2    1    4    4  502    0  0.76380708694E+01 -0.14132863600E+01 -0.33987995918E+02  0.34864328065E+02  0.00000000000E+00 0. -1.
         -1    1    4    4    0  502  0.12071679197E+03 -0.73321669991E+01 -0.77347262529E+00  0.12094173306E+03  0.00000000000E+00 0.  1.
          5    1    3    3  503    0 -0.31672174020E+02 -0.36387454932E+02  0.65188537091E+01  0.48905612534E+02  0.47000000000E+01 0. -1.
         11    1    6    6    0    0  0.13292702069E+02  0.12156740044E+02 -0.22754621339E+02  0.29021630710E+02  0.00000000000E+00 0. -1.
        -12    1    6    6    0    0 -0.45975702432E+02  0.15592181439E+01  0.44001273239E+02  0.63657744400E+02  0.00000000000E+00 0.  1.
         -5    1    5    5    0  501 -0.63999688457E+02  0.31416950104E+02 -0.10112251194E+03  0.12381775841E+03  0.47000000000E+01 0.  1.
<mgrwt>
<rscale>  2 0.20198730E+03</rscale>
<asrwt>0</asrwt>
<pdfrwt beam="2">  1        1 0.40717483E-01 0.20198730E+03</pdfrwt>
<pdfrwt beam="1">  1       -1 0.24083872E-01 0.20198730E+03</pdfrwt>
<totfact> 0.15124739E+03</totfact>
</mgrwt>
</event>
<event>
12    1  0.1093377E-001  0.2548796E+03  0.7546771E-02  0.1110259E+00
          2   -1    0    0  503    0  0.00000000000E+00  0.00000000000E+00  0.15318544047E+04  0.15318544047E+04  0.00000000000E+00 0. -1.
         -2   -1    0    0    0  501 -0.00000000000E+00 -0.00000000000E+00 -0.42498393111E+02  0.42498393111E+02  0.00000000000E+00 0.  1.
          6    2    1    2  503    0 -0.15423528841E+03  0.10439460108E+03  0.70763414660E+03  0.75203813055E+03  0.17357565337E+03 0.  0.
         24    2    3    3    0    0 -0.15494544300E+03  0.11222508529E+03  0.71237199855E+03  0.74172512692E+03  0.77972684387E+02 0.  0.
         -6    2    1    2    0  501  0.15423528841E+03 -0.10439460108E+03  0.78172186497E+03  0.82231466725E+03  0.17442930047E+03 0.  0.
        -24    2    5    5    0    0  0.59929363320E+02 -0.14956145740E+01  0.19974470337E+03  0.22381544789E+03  0.81250493797E+02 0.  0.
          4    1    4    4  502    0 -0.62765664603E+02  0.92960577314E+02  0.36865152638E+03  0.38533770318E+03  0.00000000000E+00 0. -1.
         -3    1    4    4    0  502 -0.92179778397E+02  0.19264507977E+02  0.34372047217E+03  0.35638742374E+03  0.00000000000E+00 0.  1.
          5    1    3    3  503    0  0.71015458770E+00 -0.78304842143E+01 -0.47378519573E+01  0.10313003624E+02  0.47000000000E+01 0. -1.
         11    1    6    6    0    0  0.25824105093E+01  0.33146957195E+01  0.14277873863E+03  0.14284055537E+03  0.00000000000E+00 0. -1.
        -12    1    6    6    0    0  0.57346952811E+02 -0.48103102935E+01  0.56965964731E+02  0.80974892526E+02  0.00000000000E+00 0.  1.
         -5    1    5    5    0  501  0.94305925092E+02 -0.10289898650E+03  0.58197716161E+03  0.59849921935E+03  0.47000000000E+01 0.  1.
<mgrwt>
<rscale>  2 0.25487964E+03</rscale>
<asrwt>0</asrwt>
<pdfrwt beam="1">  1        2 0.23566987E+00 0.25487964E+03</pdfrwt>
<pdfrwt beam="2">  1       -2 0.65382155E-02 0.25487964E+03</pdfrwt>
<totfact> 0.17017377E+03</totfact>
</mgrwt>
</event>
<event>
12    1  0.1093377E-001  0.1722329E+03  0.7546771E-02  0.1175539E+00
          1   -1    0    0  503    0  0.00000000000E+00  0.00000000000E+00  0.30102122302E+03  0.30102122302E+03  0.00000000000E+00 0. -1.
         -1   -1    0    0    0  501 -0.00000000000E+00 -0.00000000000E+00 -0.98843243790E+02  0.98843243790E+02  0.00000000000E+00 0.  1.
          6    2    1    2  503    0  0.71473607450E+01 -0.10212674397E+02  0.11114010947E+03  0.20382149028E+03  0.17039862818E+03 0.  0.
         24    2    3    3    0    0  0.36277632030E+02  0.50774522433E+02  0.52635005628E+02  0.11430641860E+03  0.80008717040E+02 0.  0.
         -6    2    1    2    0  501 -0.71473607450E+01  0.10212674397E+02  0.91037869763E+02  0.19604297653E+03  0.17317497346E+03 0.  0.
        -24    2    5    5    0    0  0.14549101895E+02  0.32010776484E+02  0.12218681392E+03  0.15201752403E+03  0.83326730044E+02 0.  0.
          2    1    4    4  502    0  0.36460572847E+02  0.59402555790E+02  0.67558082279E+02  0.97067664482E+02  0.00000000000E+00 0. -1.
         -1    1    4    4    0  502 -0.18294081770E+00 -0.86280333571E+01 -0.14923076650E+02  0.17238754121E+02  0.00000000000E+00 0.  1.
          5    1    3    3  503    0 -0.29130271285E+02 -0.60987196830E+02  0.58505103837E+02  0.89515071677E+02  0.47000000000E+01 0. -1.
         13    1    6    6    0    0 -0.30417766975E+01  0.38223140434E+02  0.11876987774E+02  0.40141296799E+02  0.00000000000E+00 0. -1.
        -14    1    6    6    0    0  0.17590878593E+02 -0.62123639507E+01  0.11030982614E+03  0.11187622723E+03  0.00000000000E+00 0.  1.
         -5    1    5    5    0  501 -0.21696462640E+02 -0.21798102087E+02 -0.31148944155E+02  0.44025452498E+02  0.47000000000E+01 0.  1.
<mgrwt>
<rscale>  2 0.17223293E+03</rscale>
<asrwt>0</asrwt>
<pdfrwt beam="1">  1        1 0.46310957E-01 0.17223293E+03</pdfrwt>
<pdfrwt beam="2">  1       -1 0.15206653E-01 0.17223293E+03</pdfrwt>
<totfact> 0.26910189E+03</totfact>
</mgrwt>
</event>
<event>
12    1  0.1093377E-001  0.1990045E+03  0.7546771E-02  0.1150582E+00
          2   -1    0    0  503    0  0.00000000000E+00  0.00000000000E+00  0.30305043928E+04  0.30305043928E+04  0.00000000000E+00 0. -1.
         -2   -1    0    0    0  501 -0.00000000000E+00 -0.00000000000E+00 -0.16030785594E+02  0.16030785594E+02  0.00000000000E+00 0.  1.
          6    2    1    2  503    0  0.40642782265E+02  0.87389929107E+02  0.85559887158E+03  0.87855528428E+03  0.17470295652E+03 0.  0.
         24    2    3    3    0    0  0.15590164787E+02  0.98356990495E+02  0.36472788148E+03  0.38690059956E+03  0.82149227592E+02 0.  0.
         -6    2    1    2    0  501 -0.40642782265E+02 -0.87389929107E+02  0.21588747356E+04  0.21679798941E+04  0.17351617138E+03 0.  0.
        -24    2    5    5    0    0 -0.87496581372E+02 -0.28869969405E+02  0.14325214199E+04  0.14377531530E+04  0.80792224999E+02 0.  0.
          4    1    4    4  502    0 -0.32291700121E+02  0.35777815256E+02  0.10604969906E+03  0.11648752994E+03  0.00000000000E+00 0. -1.
         -3    1    4    4    0  502  0.47881864908E+02  0.62579175239E+02  0.25867818242E+03  0.27041306962E+03  0.00000000000E+00 0.  1.
          5    1    3    3  503    0  0.25052617479E+02 -0.10967061388E+02  0.49087099010E+03  0.49165468472E+03  0.47000000000E+01 0. -1.
         11    1    6    6    0    0 -0.88073933129E+02 -0.51503065014E+01  0.13092465672E+04  0.13122157281E+04  0.00000000000E+00 0. -1.
        -12    1    6    6    0    0  0.57735175658E+00 -0.23719662903E+02  0.12327485273E+03  0.12553742493E+03  0.00000000000E+00 0.  1.
         -5    1    5    5    0  501  0.46853799107E+02 -0.58519959703E+02  0.72635331570E+03  0.73022674108E+03  0.47000000000E+01 0.  1.
<mgrwt>
<rscale>  2 0.19900449E+03</rscale>
<asrwt>0</asrwt>
<pdfrwt beam="1">  1        2 0.46623099E+00 0.19900449E+03</pdfrwt>
<pdfrwt beam="2">  1       -2 0.24662771E-02 0.19900449E+03</pdfrwt>
<totfact> 0.11491429E+03</totfact>
</mgrwt>
</event>
<event>
12    1  0.1093377E-001  0.2028282E+03  0.7546771E-02  0.1147375E+00
          1   -1    0    0  503    0  0.00000000000E+00  0.00000000000E+00  0.10104166201E+04  0.10104166201E+04  0.00000000000E+00 0. -1.
         -1   -1    0    0    0  501 -0.00000000000E+00 -0.00000000000E+00 -0.40959002547E+02  0.40959002547E+02  0.00000000000E+00 0.  1.
          6    2    1    2  503    0 -0.83346423916E+02  0.65033688189E+02  0.44399971332E+03  0.48810494217E+03  0.17301642166E+03 0.  0.
         24    2    3    3    0    0 -0.42787433135E+02 -0.37259683070E+01  0.36219975025E+03  0.37370981093E+03  0.81398503829E+02 0.  0.
         -6    2    1    2    0  501  0.83346423916E+02 -0.65033688189E+02  0.52545790418E+03  0.56327068043E+03  0.17318153303E+03 0.  0.
        -24    2    5    5    0    0 -0.51577020535E+01 -0.11459434934E+02  0.11954446294E+03  0.14435422968E+03  0.79933375178E+02 0.  0.
          4    1    4    4  502    0 -0.29370909657E+02 -0.18834436928E+02  0.34615391174E+03  0.34790791449E+03  0.00000000000E+00 0. -1.
         -3    1    4    4    0  502 -0.13416523479E+02  0.15108468621E+02  0.16045838509E+02  0.25801896438E+02  0.00000000000E+00 0.  1.
          5    1    3    3  503    0 -0.40558990781E+02  0.68759656496E+02  0.81799963071E+02  0.11439513125E+03  0.47000000000E+01 0. -1.
         11    1    6    6    0    0  0.32523177598E+02  0.13453090076E+02  0.44133201292E+02  0.56448934179E+02  0.00000000000E+00 0. -1.
        -12    1    6    6    0    0 -0.37680879652E+02 -0.24912525010E+02  0.75411261650E+02  0.87905295503E+02  0.00000000000E+00 0.  1.
         -5    1    5    5    0  501  0.88504125970E+02 -0.53574253256E+02  0.40591344124E+03  0.41891645074E+03  0.47000000000E+01 0.  1.
<mgrwt>
<rscale>  2 0.20282815E+03</rscale>
<asrwt>0</asrwt>
<pdfrwt beam="1">  1        1 0.15544869E+00 0.20282815E+03</pdfrwt>
<pdfrwt beam="2">  1       -1 0.63013858E-02 0.20282815E+03</pdfrwt>
<totfact> 0.19430546E+03</totfact>
</mgrwt>
</event>
<event>
12    1  0.1093377E-001  0.3117015E+03  0.7546771E-02  0.1079533E+00
         -4   -1    0    0    0  501 -0.00000000000E+00  0.00000000000E+00  0.68703376125E+02  0.68703376125E+02  0.00000000000E+00 0. -1.
          4   -1    0    0  503    0  0.00000000000E+00 -0.00000000000E+00 -0.14141828847E+04  0.14141828847E+04  0.00000000000E+00 0.  1.
          6    2    1    2  503    0 -0.11444890439E+03  0.23357221073E+03 -0.67637140501E+03  0.74498284579E+03  0.17281965648E+03 0.  0.
         24    2    3    3    0    0 -0.13295653364E+03  0.22201313094E+03 -0.51522943706E+03  0.58230227381E+03  0.81530945811E+02 0.  0.
         -6    2    1    2    0  501  0.11444890439E+03 -0.23357221073E+03 -0.66910810359E+03  0.73790341506E+03  0.17070813198E+03 0.  0.
        -24    2    5    5    0    0  0.35232942046E+02 -0.18289153425E+03 -0.34422367011E+03  0.39964953884E+03  0.80864982082E+02 0.  0.
          2    1    4    4  502    0 -0.40096270535E+02  0.14545963419E+03 -0.27923297770E+03  0.31739135452E+03  0.00000000000E+00 0. -1.
         -1    1    4    4    0  502 -0.92860263101E+02  0.76553496747E+02 -0.23599645937E+03  0.26491091929E+03  0.00000000000E+00 0.  1.
          5    1    3    3  503    0  0.18507629246E+02  0.11559079795E+02 -0.16114196795E+03  0.16268057198E+03  0.47000000000E+01 0. -1.
         11    1    6    6    0    0  0.55103409172E+02 -0.75838104153E+02 -0.17220896947E+03  0.19607073446E+03  0.00000000000E+00 0. -1.
        -12    1    6    6    0    0 -0.19870467126E+02 -0.10705343010E+03 -0.17201470064E+03  0.20357880439E+03  0.00000000000E+00 0.  1.
         -5    1    5    5    0  501  0.79215962344E+02 -0.50680676481E+02 -0.32488443348E+03  0.33825387622E+03  0.47000000000E+01 0.  1.
<mgrwt>
<rscale>  2 0.31170146E+03</rscale>
<asrwt>0</asrwt>
<pdfrwt beam="2">  1        4 0.21756656E+00 0.31170146E+03</pdfrwt>
<pdfrwt beam="1">  1       -4 0.10569752E-01 0.31170146E+03</pdfrwt>
<totfact> 0.14257342E+01</totfact>
</mgrwt>
</event>
<event>
12    1  0.1093377E-001  0.1828013E+03  0.7546771E-02  0.1165119E+00
          1   -1    0    0  503    0  0.00000000000E+00  0.00000000000E+00  0.52108373032E+02  0.52108373032E+02  0.00000000000E+00 0. -1.
         -1   -1    0    0    0  501 -0.00000000000E+00 -0.00000000000E+00 -0.64135583772E+03  0.64135583772E+03  0.00000000000E+00 0.  1.
          6    2    1    2  503    0 -0.11611744710E+02  0.56330722876E+02 -0.29726394585E+03  0.34869566634E+03  0.17295904506E+03 0.  0.
         24    2    3    3    0    0  0.47198691238E+02  0.50613208326E+02 -0.11155402005E+03  0.15375561430E+03  0.80044214210E+02 0.  0.
         -6    2    1    2    0  501  0.11611744710E+02 -0.56330722876E+02 -0.29198351884E+03  0.34476854441E+03  0.17407754303E+03 0.  0.
        -24    2    5    5    0    0  0.36375924736E+02 -0.94003486371E+02 -0.15116914568E+03  0.19683856297E+03  0.75719521359E+02 0.  0.
          4    1    4    4  502    0  0.32372386727E+02 -0.11362216919E+02 -0.13616973378E+02  0.36911967703E+02  0.00000000000E+00 0. -1.
         -3    1    4    4    0  502  0.14826304511E+02  0.61975425244E+02 -0.97937046674E+02  0.11684364660E+03  0.00000000000E+00 0.  1.
          5    1    3    3  503    0 -0.58810435947E+02  0.57175145504E+01 -0.18570992580E+03  0.19494005204E+03  0.47000000000E+01 0. -1.
         11    1    6    6    0    0  0.37262100168E+02 -0.66255414772E+02 -0.15102463018E+03  0.16907596818E+03  0.00000000000E+00 0. -1.
        -12    1    6    6    0    0 -0.88617543213E+00 -0.27748071600E+02 -0.14451549833E+00  0.27762594784E+02  0.00000000000E+00 0.  1.
         -5    1    5    5    0  501 -0.24764180026E+02  0.37672763495E+02 -0.14081437316E+03  0.14792998144E+03  0.47000000000E+01 0.  1.
<mgrwt>
<rscale>  2 0.18280134E+03</rscale>
<asrwt>0</asrwt>
<pdfrwt beam="1">  1        1 0.80166729E-02 0.18280134E+03</pdfrwt>
<pdfrwt beam="2">  1       -1 0.98670127E-01 0.18280134E+03</pdfrwt>
<totfact> 0.89412745E+02</totfact>
</mgrwt>
</event>
<event>
12    1  0.1093377E-001  0.2690575E+03  0.7546771E-02  0.1101820E+00
         -1   -1    0    0    0  501 -0.00000000000E+00  0.00000000000E+00  0.57346286675E+02  0.57346286675E+02  0.00000000000E+00 0. -1.
          1   -1    0    0  503    0  0.00000000000E+00 -0.00000000000E+00 -0.12983997655E+04  0.12983997655E+04  0.00000000000E+00 0.  1.
          6    2    1    2  503    0 -0.16073499358E+03  0.12899319949E+03 -0.73352740517E+03  0.78132684878E+03  0.17301504795E+03 0.  0.
         24    2    3    3    0    0 -0.60088494993E+02  0.53685700838E+01 -0.38180760504E+03  0.39513819738E+03  0.81961570145E+02 0.  0.
         -6    2    1    2    0  501  0.16073499358E+03 -0.12899319949E+03 -0.50752607368E+03  0.57441920342E+03  0.17291536112E+03 0.  0.
        -24    2    5    5    0    0  0.65267280598E+01 -0.57371971669E+02 -0.19214558936E+03  0.21609430989E+03  0.80266318867E+02 0.  0.
          4    1    4    4  502    0  0.97377401278E+01 -0.16471915308E+02 -0.28451966109E+02  0.34287927208E+02  0.00000000000E+00 0. -1.
         -3    1    4    4    0  502 -0.69826235121E+02  0.21840485392E+02 -0.35335563894E+03  0.36085027017E+03  0.00000000000E+00 0.  1.
          5    1    3    3  503    0 -0.10064649859E+03  0.12362462941E+03 -0.35171980013E+03  0.38618865141E+03  0.47000000000E+01 0. -1.
         11    1    6    6    0    0  0.36503879510E+02 -0.50092948557E+02 -0.15978670595E+03  0.17138736276E+03  0.00000000000E+00 0. -1.
        -12    1    6    6    0    0 -0.29977151450E+02 -0.72790231121E+01 -0.32358883411E+02  0.44706947135E+02  0.00000000000E+00 0.  1.
         -5    1    5    5    0  501  0.15420826552E+03 -0.71621227823E+02 -0.31538048432E+03  0.35832489352E+03  0.47000000000E+01 0.  1.
<mgrwt>
<rscale>  2 0.26905751E+03</rscale>
<asrwt>0</asrwt>
<pdfrwt beam="2">  1        1 0.19975380E+00 0.26905751E+03</pdfrwt>
<pdfrwt beam="1">  1       -1 0.88225060E-02 0.26905751E+03</pdfrwt>
<totfact> 0.72586968E+02</totfact>
</mgrwt>
</event>
<event>
12    1  0.1093377E-001  0.2220998E+03  0.7546771E-02  0.1132327E+00
         -2   -1    0    0    0  501 -0.00000000000E+00  0.00000000000E+00  0.25934521837E+03  0.25934521837E+03  0.00000000000E+00 0.  1.
          2   -1    0    0  503    0  0.00000000000E+00 -0.00000000000E+00 -0.21619109459E+03  0.21619109459E+03  0.00000000000E+00 0. -1.
          6    2    1    2  503    0 -0.55517257051E+01  0.14167914276E+03  0.10391416054E+03  0.24424023173E+03  0.16956219179E+03 0.  0.
         24    2    3    3    0    0  0.50863433195E+02  0.11274525882E+03  0.10513268824E+03  0.18065238224E+03  0.79270542125E+02 0.  0.
         -6    2    1    2    0  501  0.55517257051E+01 -0.14167914276E+03 -0.60760036760E+02  0.23129608123E+03  0.17234353476E+03 0.  0.
        -24    2    5    5    0    0 -0.14358068345E+02 -0.12105196313E+03 -0.10425971024E+03  0.17898745832E+03  0.79414678438E+02 0.  0.
          4    1    4    4  502    0  0.36314462818E+02  0.49944472091E+02  0.55158577470E+01  0.61996896607E+02  0.00000000000E+00 0. -1.
         -3    1    4    4    0  502  0.14548970377E+02  0.62800786734E+02  0.99616830495E+02  0.11865548563E+03  0.00000000000E+00 0.  1.
          5    1    3    3  503    0 -0.56415158900E+02  0.28933883937E+02 -0.12185277012E+01  0.63587849493E+02  0.47000000000E+01 0. -1.
         13    1    6    6    0    0  0.32086579348E+02 -0.63167103403E+02 -0.57746829651E+02  0.91402012349E+02  0.00000000000E+00 0. -1.
        -14    1    6    6    0    0 -0.46444647693E+02 -0.57884859729E+02 -0.46512880587E+02  0.87585445969E+02  0.00000000000E+00 0.  1.
         -5    1    5    5    0  501  0.19909794050E+02 -0.20627179630E+02  0.43499673478E+02  0.52308622915E+02  0.47000000000E+01 0.  1.
<mgrwt>
<rscale>  2 0.22209981E+03</rscale>
<asrwt>0</asrwt>
<pdfrwt beam="2">  1        2 0.33260169E-01 0.22209981E+03</pdfrwt>
<pdfrwt beam="1">  1       -2 0.39899264E-01 0.22209981E+03</pdfrwt>
<totfact> 0.93493455E+02</totfact>
</mgrwt>
</event>
<event>
12    1  0.1093377E-001  0.1938230E+03  0.7546771E-02  0.1155058E+00
         -2   -1    0    0    0  501 -0.00000000000E+00  0.00000000000E+00  0.98116706625E+02  0.98116706625E+02  0.00000000000E+00 0. -1.
          2   -1    0    0  503    0  0.00000000000E+00 -0.00000000000E+00 -0.10140787522E+04  0.10140787522E+04  0.00000000000E+00 0.  1.
          6    2    1    2  503    0  0.83001492828E+02  0.25459888600E+02 -0.19455742836E+02  0.19502457398E+03  0.17354712555E+03 0.  0.
         24    2    3    3    0    0  0.47579727459E+02 -0.34436073465E+02  0.36413749895E+02  0.10566172962E+03  0.79929758569E+02 0.  0.
         -6    2    1    2    0  501 -0.83001492828E+02 -0.25459888600E+02 -0.89650630276E+03  0.91717088486E+03  0.17303591366E+03 0.  0.
        -24    2    5    5    0    0  0.11420122975E+02 -0.49821191179E+02 -0.42017639370E+03  0.43093926633E+03  0.80918966547E+02 0.  0.
          4    1    4    4  502    0  0.42203507353E+02  0.77355815887E+00  0.51836096115E+02  0.66848450136E+02  0.00000000000E+00 0. -1.
         -3    1    4    4    0  502  0.53762201059E+01 -0.35209631624E+02 -0.15422346220E+02  0.38813279488E+02  0.00000000000E+00 0.  1.
          5    1    3    3  503    0  0.35421765369E+02  0.59895962065E+02 -0.55869492731E+02  0.89362844357E+02  0.47000000000E+01 0. -1.
         13    1    6    6    0    0  0.12588774166E+02  0.17276037983E+02 -0.18943924711E+03  0.19064146210E+03  0.00000000000E+00 0. -1.
        -14    1    6    6    0    0 -0.11686511914E+01 -0.67097229161E+02 -0.23073714659E+03  0.24029780424E+03  0.00000000000E+00 0.  1.
         -5    1    5    5    0  501 -0.94421615803E+02  0.24361302579E+02 -0.47632990906E+03  0.48623161853E+03  0.47000000000E+01 0.  1.
<mgrwt>
<rscale>  2 0.19382303E+03</rscale>
<asrwt>0</asrwt>
<pdfrwt beam="2">  1        2 0.15601211E+00 0.19382303E+03</pdfrwt>
<pdfrwt beam="1">  1       -2 0.15094878E-01 0.19382303E+03</pdfrwt>
<totfact> 0.87725279E+02</totfact>
</mgrwt>
</event>
<event>
12    1  0.1093377E-001  0.2248777E+03  0.7546771E-02  0.1130298E+00
          1   -1    0    0  503    0  0.00000000000E+00  0.00000000000E+00  0.21337601384E+03  0.21337601384E+03  0.00000000000E+00 0. -1.
         -1   -1    0    0    0  501 -0.00000000000E+00 -0.00000000000E+00 -0.31128534276E+03  0.31128534276E+03  0.00000000000E+00 0.  1.
          6    2    1    2  503    0 -0.11286218916E+03  0.94818358885E+02 -0.17670735917E+03  0.28424060669E+03  0.16684974314E+03 0.  0.
         24    2    3    3    0    0 -0.14235384817E+03  0.78758811995E+02 -0.17331145323E+03  0.25016291348E+03  0.77955467460E+02 0.  0.
         -6    2    1    2    0  501  0.11286218916E+03 -0.94818358885E+02  0.78798030251E+02  0.24042074991E+03  0.17281380874E+03 0.  0.
        -24    2    5    5    0    0  0.14022224537E+03 -0.94178227110E+02  0.93550136642E+02  0.20897719592E+03  0.79925113645E+02 0.  0.
          4    1    4    4  502    0 -0.70350272678E+02  0.72200409317E+02 -0.65032771624E+02  0.11996383354E+03  0.00000000000E+00 0. -1.
         -3    1    4    4    0  502 -0.72003575488E+02  0.65584026775E+01 -0.10827868161E+03  0.13019907995E+03  0.00000000000E+00 0.  1.
          5    1    3    3  503    0  0.29491659010E+02  0.16059546890E+02 -0.33959059450E+01  0.34077693212E+02  0.47000000000E+01 0. -1.
         13    1    6    6    0    0  0.22158031922E+02  0.61280126206E+01  0.37970645606E+02  0.44388070977E+02  0.00000000000E+00 0. -1.
        -14    1    6    6    0    0  0.11806421344E+03 -0.10030623973E+03  0.55579491036E+02  0.16458912494E+03  0.00000000000E+00 0.  1.
         -5    1    5    5    0  501 -0.27360056211E+02 -0.64013177505E+00 -0.14752106391E+02  0.31443553990E+02  0.47000000000E+01 0.  1.
<mgrwt>
<rscale>  2 0.22487769E+03</rscale>
<asrwt>0</asrwt>
<pdfrwt beam="1">  1        1 0.32827079E-01 0.22487769E+03</pdfrwt>
<pdfrwt beam="2">  1       -1 0.47890053E-01 0.22487769E+03</pdfrwt>
<totfact> 0.60310955E+02</totfact>
</mgrwt>
</event>
<event>
12    1  0.1093377E-001  0.1851488E+03  0.7546771E-02  0.1162911E+00
          2   -1    0    0  503    0  0.00000000000E+00  0.00000000000E+00  0.25917239074E+04  0.25917239074E+04  0.00000000000E+00 0.  1.
         -2   -1    0    0    0  501 -0.00000000000E+00 -0.00000000000E+00 -0.16534201269E+02  0.16534201269E+02  0.00000000000E+00 0. -1.
          6    2    1    2  503    0  0.60246950251E+02  0.38373031802E+02  0.18450837737E+04  0.18539127688E+04  0.16600071661E+03 0.  0.
         24    2    3    3    0    0 -0.28129397093E+02  0.23032381571E+02  0.83487363289E+03  0.83971735724E+03  0.82398443986E+02 0.  0.
         -6    2    1    2    0  501 -0.60246950251E+02 -0.38373031802E+02  0.73010593253E+03  0.75434533992E+03  0.17572715946E+03 0.  0.
        -24    2    5    5    0    0 -0.74198382532E+01 -0.21247653963E+02  0.14804830019E+03  0.16962561246E+03  0.79674540562E+02 0.  0.
          4    1    4    4  502    0 -0.69647770405E+01 -0.28703289059E+02  0.42858567748E+03  0.42960222283E+03  0.00000000000E+00 0. -1.
         -3    1    4    4    0  502 -0.21164620053E+02  0.51735670630E+02  0.40628795542E+03  0.41011513441E+03  0.00000000000E+00 0.  1.
          5    1    3    3  503    0  0.88376347344E+02  0.15340650230E+02  0.10102101408E+04  0.10141954116E+04  0.47000000000E+01 0. -1.
         13    1    6    6    0    0 -0.38989198760E+02  0.75750043285E+01  0.63809630457E+02  0.75161208410E+02  0.00000000000E+00 0. -1.
        -14    1    6    6    0    0  0.31569360506E+02 -0.28822658292E+02  0.84238669735E+02  0.94464404050E+02  0.00000000000E+00 0.  1.
         -5    1    5    5    0  501 -0.52827111998E+02 -0.17125377839E+02  0.58205763233E+03  0.58471972746E+03  0.47000000000E+01 0.  1.
<mgrwt>
<rscale>  2 0.18514875E+03</rscale>
<asrwt>0</asrwt>
<pdfrwt beam="1">  1        2 0.39872643E+00 0.18514875E+03</pdfrwt>
<pdfrwt beam="2">  1       -2 0.25437253E-02 0.18514875E+03</pdfrwt>
<totfact> 0.19521263E+03</totfact>
</mgrwt>
</event>
<event>
12    1  0.1093377E-001  0.1843404E+03  0.7546771E-02  0.1163667E+00
         -1   -1    0    0    0  501 -0.00000000000E+00  0.00000000000E+00  0.17972583107E+02  0.17972583107E+02  0.00000000000E+00 0. -1.
          1   -1    0    0  503    0  0.00000000000E+00 -0.00000000000E+00 -0.19134161726E+04  0.19134161726E+04  0.00000000000E+00 0.  1.
          6    2    1    2  503    0  0.43566019963E+01  0.53509535565E+02 -0.86139126274E+03  0.88162026236E+03  0.17993645850E+03 0.  0.
         24    2    3    3    0    0  0.27907446210E+02 -0.14469133502E+02 -0.24155386415E+03  0.25760405071E+03  0.83805705515E+02 0.  0.
         -6    2    1    2    0  501 -0.43566019963E+01 -0.53509535565E+02 -0.10340523268E+04  0.10497684934E+04  0.17282194533E+03 0.  0.
        -24    2    5    5    0    0 -0.38087602776E+02 -0.72613483008E+02 -0.95241223068E+03  0.95927022537E+03  0.79918237747E+02 0.  0.
          4    1    4    4  502    0  0.10824935493E+02 -0.24742117539E+02 -0.16455727877E+02  0.31625031046E+02  0.00000000000E+00 0. -1.
         -3    1    4    4    0  502  0.17082510717E+02  0.10272984037E+02 -0.22509813628E+03  0.22597901966E+03  0.00000000000E+00 0.  1.
          5    1    3    3  503    0 -0.23550844214E+02  0.67978669067E+02 -0.61983739859E+03  0.62401621165E+03  0.47000000000E+01 0. -1.
         13    1    6    6    0    0  0.18821487150E+02 -0.14823464418E+02 -0.92893975536E+02  0.95933696722E+02  0.00000000000E+00 0. -1.
        -14    1    6    6    0    0 -0.56909089926E+02 -0.57790018591E+02 -0.85951825515E+03  0.86333652865E+03  0.00000000000E+00 0.  1.
         -5    1    5    5    0  501  0.33731000780E+02  0.19103947443E+02 -0.81640096087E+02  0.90498267998E+02  0.47000000000E+01 0.  1.
<mgrwt>
<rscale>  2 0.18434035E+03</rscale>
<asrwt>0</asrwt>
<pdfrwt beam="2">  1        1 0.29437172E+00 0.18434035E+03</pdfrwt>
<pdfrwt beam="1">  1       -1 0.27650128E-02 0.18434035E+03</pdfrwt>
<totfact> 0.16403401E+03</totfact>
</mgrwt>
</event>
<event>
12    1  0.1093377E-001  0.1851037E+03  0.7546771E-02  0.1162953E+00
         -1   -1    0    0    0  501 -0.00000000000E+00  0.00000000000E+00  0.40925286431E+02  0.40925286431E+02  0.00000000000E+00 0. -1.
          1   -1    0    0  503    0  0.00000000000E+00 -0.00000000000E+00 -0.95264446689E+03  0.95264446689E+03  0.00000000000E+00 0.  1.
          6    2    1    2  503    0 -0.27388488640E+02 -0.51746974089E+02 -0.63175116041E+03  0.65870404770E+03  0.17706952063E+03 0.  0.
         24    2    3    3    0    0 -0.35040566233E+02 -0.86499628377E+02 -0.59431305111E+03  0.60683880597E+03  0.79594640025E+02 0.  0.
         -6    2    1    2    0  501  0.27388488640E+02  0.51746974089E+02 -0.27996802004E+03  0.33486570562E+03  0.17414094842E+03 0.  0.
        -24    2    5    5    0    0 -0.90037816958E+01  0.87037616184E+02 -0.12367119257E+03  0.17048622078E+03  0.78194455600E+02 0.  0.
          2    1    4    4  502    0  0.79461946521E+01 -0.55724814168E+02 -0.16618547350E+03  0.17545942131E+03  0.00000000000E+00 0. -1.
         -1    1    4    4    0  502 -0.42986760886E+02 -0.30774814209E+02 -0.42812757761E+03  0.43137938466E+03  0.00000000000E+00 0.  1.
          5    1    3    3  503    0  0.76520775933E+01  0.34752654288E+02 -0.37438109308E+02  0.51865241733E+02  0.47000000000E+01 0. -1.
         11    1    6    6    0    0  0.51582222113E+01  0.16552099726E+02 -0.88991988206E+02  0.90665060672E+02  0.00000000000E+00 0. -1.
        -12    1    6    6    0    0 -0.14162003907E+02  0.70485516458E+02 -0.34679204366E+02  0.79821160105E+02  0.00000000000E+00 0.  1.
         -5    1    5    5    0  501  0.36392270336E+02 -0.35290642094E+02 -0.15629682747E+03  0.16437948484E+03  0.47000000000E+01 0.  1.
<mgrwt>
<rscale>  2 0.18510365E+03</rscale>
<asrwt>0</asrwt>
<pdfrwt beam="2">  1        1 0.14656068E+00 0.18510365E+03</pdfrwt>
<pdfrwt beam="1">  1       -1 0.62961982E-02 0.18510365E+03</pdfrwt>
<totfact> 0.21467086E+03</totfact>
</mgrwt>
</event>
<event>
12    1  0.1093377E-001  0.1820652E+03  0.7546771E-02  0.1165819E+00
         -1   -1    0    0    0  501 -0.00000000000E+00  0.00000000000E+00  0.54682305128E+02  0.54682305128E+02  0.00000000000E+00 0.  1.
          1   -1    0    0  503    0  0.00000000000E+00 -0.00000000000E+00 -0.11445562248E+04  0.11445562248E+04  0.00000000000E+00 0. -1.
          6    2    1    2  503    0  0.31298618638E+02  0.46098514180E+02 -0.95813553257E+03  0.97551411182E+03  0.17464079433E+03 0.  0.
         24    2    3    3    0    0  0.10973319678E+02  0.95164187985E+02 -0.56048571218E+03  0.57430590180E+03  0.80662251848E+02 0.  0.
         -6    2    1    2    0  501 -0.31298618638E+02 -0.46098514180E+02 -0.13173838713E+03  0.22372441814E+03  0.17202597504E+03 0.  0.
        -24    2    5    5    0    0  0.28715879299E+02 -0.56412728530E+02 -0.30175211315E+02  0.10521158482E+03  0.78434281649E+02 0.  0.
          4    1    4    4  502    0 -0.18105083761E+02  0.55743331555E+02 -0.44524769561E+03  0.44908865886E+03  0.00000000000E+00 0. -1.
         -3    1    4    4    0  502  0.29078403438E+02  0.39420856430E+02 -0.11523801656E+03  0.12521724294E+03  0.00000000000E+00 0.  1.
          5    1    3    3  503    0  0.20325298960E+02 -0.49065673805E+02 -0.39764982040E+03  0.40120821002E+03  0.47000000000E+01 0. -1.
         11    1    6    6    0    0 -0.36173370825E+01 -0.48425360719E+02 -0.47276094184E+02  0.67772632896E+02  0.00000000000E+00 0. -1.
        -12    1    6    6    0    0  0.32333216381E+02 -0.79873678111E+01  0.17100882869E+02  0.37438951922E+02  0.00000000000E+00 0.  1.
         -5    1    5    5    0  501 -0.60014497937E+02  0.10314214350E+02 -0.10156317582E+03  0.11851283332E+03  0.47000000000E+01 0.  1.
<mgrwt>
<rscale>  2 0.18206523E+03</rscale>
<asrwt>0</asrwt>
<pdfrwt beam="2">  1        1 0.17608559E+00 0.18206523E+03</pdfrwt>
<pdfrwt beam="1">  1       -1 0.84126616E-02 0.18206523E+03</pdfrwt>
<totfact> 0.10039990E+03</totfact>
</mgrwt>
</event>
<event>
12    1  0.1093377E-001  0.2666248E+03  0.7546771E-02  0.1103227E+00
          2   -1    0    0  503    0  0.00000000000E+00  0.00000000000E+00  0.19144602864E+04  0.19144602864E+04  0.00000000000E+00 0.  1.
         -2   -1    0    0    0  501 -0.00000000000E+00 -0.00000000000E+00 -0.68046681761E+02  0.68046681761E+02  0.00000000000E+00 0. -1.
          6    2    1    2  503    0  0.19361847282E+03 -0.59175494406E+02  0.15906306994E+04  0.16127605465E+04  0.17291820719E+03 0.  0.
         24    2    3    3    0    0  0.65945999756E+02  0.15210698857E+02  0.92696759727E+03  0.93283086688E+03  0.79525213422E+02 0.  0.
         -6    2    1    2    0  501 -0.19361847282E+03  0.59175494406E+02  0.25578290524E+03  0.36974642164E+03  0.17406225769E+03 0.  0.
        -24    2    5    5    0    0 -0.18780536609E+03 -0.15785977572E+01  0.20448941605E+03  0.28988426566E+03  0.83328378728E+02 0.  0.
          4    1    4    4  502    0  0.48078998054E+02  0.46928962582E+02  0.54277865889E+03  0.54692100904E+03  0.00000000000E+00 0. -1.
         -3    1    4    4    0  502  0.17867001702E+02 -0.31718263725E+02  0.38418893838E+03  0.38590985784E+03  0.00000000000E+00 0.  1.
          5    1    3    3  503    0  0.12767247306E+03 -0.74386193263E+02  0.66366310209E+03  0.67992967960E+03  0.47000000000E+01 0. -1.
         13    1    6    6    0    0 -0.10812874206E+03 -0.28075522159E+02  0.71599915263E+02  0.13268989287E+03  0.00000000000E+00 0. -1.
        -14    1    6    6    0    0 -0.79676624027E+02  0.26496924402E+02  0.13288950079E+03  0.15719437280E+03  0.00000000000E+00 0.  1.
         -5    1    5    5    0  501 -0.58131067291E+01  0.60754092163E+02  0.51293489188E+02  0.79862155978E+02  0.47000000000E+01 0.  1.
<mgrwt>
<rscale>  2 0.26662476E+03</rscale>
<asrwt>0</asrwt>
<pdfrwt beam="1">  1        2 0.29453231E+00 0.26662476E+03</pdfrwt>
<pdfrwt beam="2">  1       -2 0.10468722E-01 0.26662476E+03</pdfrwt>
<totfact> 0.50954700E+02</totfact>
</mgrwt>
</event>
<event>
12    1  0.1093377E-001  0.1758187E+03  0.7546771E-02  0.1171912E+00
          4   -1    0    0  503    0  0.00000000000E+00  0.00000000000E+00  0.56649472627E+02  0.56649472627E+02  0.00000000000E+00 0. -1.
         -4   -1    0    0    0  501 -0.00000000000E+00 -0.00000000000E+00 -0.55147602362E+03  0.55147602362E+03  0.00000000000E+00 0.  1.
          6    2    1    2  503    0  0.57691909219E+02  0.22895409117E+02 -0.26149812968E+03  0.31021548989E+03  0.15491875998E+03 0.  0.
         24    2    3    3    0    0  0.81939938081E+02 -0.21132349037E+02 -0.17492245869E+03  0.20999649369E+03  0.79623684790E+02 0.  0.
         -6    2    1    2    0  501 -0.57691909219E+02 -0.22895409117E+02 -0.23332842131E+03  0.29791000635E+03  0.17451551091E+03 0.  0.
        -24    2    5    5    0    0 -0.95050936794E+02  0.70598478831E+00 -0.11082869446E+03  0.16759885635E+03  0.82287290246E+02 0.  0.
          4    1    4    4  502    0  0.72206645083E+02 -0.14618100012E+02 -0.61489942759E+02  0.95960937379E+02  0.00000000000E+00 0. -1.
         -3    1    4    4    0  502  0.97332929983E+01 -0.65142490250E+01 -0.11343251593E+03  0.11403555631E+03  0.00000000000E+00 0.  1.
          5    1    3    3  503    0 -0.24248028862E+02  0.44027758155E+02 -0.86575670993E+02  0.10021899620E+03  0.47000000000E+01 0. -1.
         11    1    6    6    0    0 -0.29343402904E+02  0.29408300980E+02 -0.81076740509E+01  0.42327506884E+02  0.00000000000E+00 0. -1.
        -12    1    6    6    0    0 -0.65707533890E+02 -0.28702316192E+02 -0.10272102041E+03  0.12527134947E+03  0.00000000000E+00 0.  1.
         -5    1    5    5    0  501  0.37359027575E+02 -0.23601393906E+02 -0.12249972685E+03  0.13031115000E+03  0.47000000000E+01 0.  1.
<mgrwt>
<rscale>  2 0.17581872E+03</rscale>
<asrwt>0</asrwt>
<pdfrwt beam="1">  1        4 0.87153033E-02 0.17581872E+03</pdfrwt>
<pdfrwt beam="2">  1       -4 0.84842467E-01 0.17581872E+03</pdfrwt>
<totfact> 0.20791839E+02</totfact>
</mgrwt>
</event>
<event>
12    1  0.1093377E-001  0.2230523E+03  0.7546771E-02  0.1131628E+00
          2   -1    0    0  503    0  0.00000000000E+00  0.00000000000E+00  0.18287056786E+04  0.18287056786E+04  0.00000000000E+00 0.  1.
         -2   -1    0    0    0  501 -0.00000000000E+00 -0.00000000000E+00 -0.34079131633E+02  0.34079131633E+02  0.00000000000E+00 0. -1.
          6    2    1    2  503    0 -0.14319576040E+03 -0.87729870993E+00  0.13117394993E+04  0.13303705544E+04  0.16946829411E+03 0.  0.
         24    2    3    3    0    0 -0.65325126568E+02  0.62190842660E+02  0.75866064089E+03  0.76826759264E+03  0.80833488071E+02 0.  0.
         -6    2    1    2    0  501  0.14319576040E+03  0.87729870993E+00  0.48288704770E+03  0.53241425580E+03  0.17256663494E+03 0.  0.
        -24    2    5    5    0    0  0.13778006710E+03  0.27687237978E+02  0.47751741439E+03  0.50414721599E+03  0.79947509715E+02 0.  0.
          4    1    4    4  502    0 -0.28121455050E+02  0.75143304710E+02  0.44912626595E+03  0.45623649048E+03  0.00000000000E+00 0. -1.
         -3    1    4    4    0  502 -0.37203671518E+02 -0.12952462050E+02  0.30953437493E+03  0.31203110216E+03  0.00000000000E+00 0.  1.
          5    1    3    3  503    0 -0.77870633834E+02 -0.63068141370E+02  0.55307885839E+03  0.56210296180E+03  0.47000000000E+01 0. -1.
         11    1    6    6    0    0  0.59003233014E+02 -0.18781224028E+02  0.11898105415E+03  0.13412906892E+03  0.00000000000E+00 0. -1.
        -12    1    6    6    0    0  0.78776834089E+02  0.46468462007E+02  0.35853636024E+03  0.37001814708E+03  0.00000000000E+00 0.  1.
         -5    1    5    5    0  501  0.54156932987E+01 -0.26809939269E+02  0.53696333047E+01  0.28267039805E+02  0.47000000000E+01 0.  1.
<mgrwt>
<rscale>  2 0.22305234E+03</rscale>
<asrwt>0</asrwt>
<pdfrwt beam="1">  1        2 0.28133926E+00 0.22305234E+03</pdfrwt>
<pdfrwt beam="2">  1       -2 0.52429448E-02 0.22305234E+03</pdfrwt>
<totfact> 0.16699164E+03</totfact>
</mgrwt>
</event>
<event>
12    1  0.1093377E-001  0.1986080E+03  0.7546771E-02  0.1150919E+00
         -2   -1    0    0    0  501 -0.00000000000E+00  0.00000000000E+00  0.12343598057E+03  0.12343598057E+03  0.00000000000E+00 0. -1.
          2   -1    0    0  503    0  0.00000000000E+00 -0.00000000000E+00 -0.36676211617E+03  0.36676211617E+03  0.00000000000E+00 0.  1.
          6    2    1    2  503    0 -0.80454627846E+02 -0.46635966568E+02 -0.32848798632E+02  0.19963158310E+03  0.17356804107E+03 0.  0.
         24    2    3    3    0    0 -0.11010779501E+03 -0.30067485953E+02  0.15226091273E+02  0.14057982689E+03  0.80641637124E+02 0.  0.
         -6    2    1    2    0  501  0.80454627846E+02  0.46635966568E+02 -0.21047733697E+03  0.29056651364E+03  0.17742696794E+03 0.  0.
        -24    2    5    5    0    0  0.92890023238E+02 -0.86701953241E+01 -0.76178212300E+02  0.14471811465E+03  0.80227700792E+02 0.  0.
          2    1    4    4  502    0 -0.86147147365E+02 -0.61447308435E+01  0.43285022308E+02  0.96605806618E+02  0.00000000000E+00 0. -1.
         -1    1    4    4    0  502 -0.23960647647E+02 -0.23922755110E+02 -0.28058931035E+02  0.43974020268E+02  0.00000000000E+00 0.  1.
          5    1    3    3  503    0  0.29653167166E+02 -0.16568480615E+02 -0.48074889905E+02  0.59051756216E+02  0.47000000000E+01 0. -1.
         13    1    6    6    0    0  0.91058259855E+02 -0.31165654901E+02 -0.75178968413E+02  0.12212609068E+03  0.00000000000E+00 0. -1.
        -14    1    6    6    0    0  0.18317633826E+01  0.22495459577E+02 -0.99924388708E+00  0.22592023969E+02  0.00000000000E+00 0.  1.
         -5    1    5    5    0  501 -0.12435395392E+02  0.55306161892E+02 -0.13429912467E+03  0.14584839899E+03  0.47000000000E+01 0.  1.
<mgrwt>
<rscale>  2 0.19860802E+03</rscale>
<asrwt>0</asrwt>
<pdfrwt beam="2">  1        2 0.56424940E-01 0.19860802E+03</pdfrwt>
<pdfrwt beam="1">  1       -2 0.18990151E-01 0.19860802E+03</pdfrwt>
<totfact> 0.19976836E+03</totfact>
</mgrwt>
</event>
<event>
12    1  0.1093377E-001  0.2457334E+03  0.7546771E-02  0.1116031E+00
         -1   -1    0    0    0  501 -0.00000000000E+00  0.00000000000E+00  0.75892080250E+03  0.75892080250E+03  0.00000000000E+00 0.  1.
          1   -1    0    0  503    0  0.00000000000E+00 -0.00000000000E+00 -0.41089274502E+03  0.41089274502E+03  0.00000000000E+00 0. -1.
          6    2    1    2  503    0 -0.14766994631E+03 -0.99717060103E+02 -0.35091703353E+03  0.42962804775E+03  0.17230087021E+03 0.  0.
         24    2    3    3    0    0 -0.49672342169E+01 -0.20463059949E+02 -0.14228996979E+03  0.16468918253E+03  0.80203996794E+02 0.  0.
         -6    2    1    2    0  501  0.14766994631E+03  0.99717060103E+02  0.69894509101E+03  0.74018549976E+03  0.16613376746E+03 0.  0.
        -24    2    5    5    0    0  0.12037748717E+02  0.11785703237E+02  0.27268605795E+03  0.28428324071E+03  0.78584124047E+02 0.  0.
          4    1    4    4  502    0 -0.31002151449E+02 -0.29290820270E+01 -0.12506748529E+03  0.12888595265E+03  0.00000000000E+00 0. -1.
         -3    1    4    4    0  502  0.26034917232E+02 -0.17533977922E+02 -0.17222484503E+02  0.35803229875E+02  0.00000000000E+00 0.  1.
          5    1    3    3  503    0 -0.14270271210E+03 -0.79254000153E+02 -0.20862706374E+03  0.26493886522E+03  0.47000000000E+01 0. -1.
         11    1    6    6    0    0 -0.36787123840E+01 -0.32057142005E+02  0.13967225030E+03  0.14335107527E+03  0.00000000000E+00 0. -1.
        -12    1    6    6    0    0  0.15716461101E+02  0.43842845242E+02  0.13301380766E+03  0.14093216544E+03  0.00000000000E+00 0.  1.
         -5    1    5    5    0  501  0.13563219760E+03  0.87931356865E+02  0.42625903306E+03  0.45590225905E+03  0.47000000000E+01 0.  1.
<mgrwt>
<rscale>  2 0.24573339E+03</rscale>
<asrwt>0</asrwt>
<pdfrwt beam="2">  1        1 0.63214269E-01 0.24573339E+03</pdfrwt>
<pdfrwt beam="1">  1       -1 0.11675705E+00 0.24573339E+03</pdfrwt>
<totfact> 0.42122058E+01</totfact>
</mgrwt>
</event>
<event>
12    1  0.1093377E-001  0.2873255E+03  0.7546771E-02  0.1091754E+00
          2   -1    0    0  503    0  0.00000000000E+00  0.00000000000E+00  0.63912719284E+03  0.63912719284E+03  0.00000000000E+00 0. -1.
         -2   -1    0    0    0  501 -0.00000000000E+00 -0.00000000000E+00 -0.13297844017E+03  0.13297844017E+03  0.00000000000E+00 0.  1.
          6    2    1    2  503    0  0.21716582503E+03  0.71165017492E+02  0.31902581325E+03  0.42983005125E+03  0.17535948268E+03 0.  0.
         24    2    3    3    0    0  0.46100480373E+02  0.32317586975E+02  0.57224257710E+02  0.11465610011E+03  0.81864063559E+02 0.  0.
         -6    2    1    2    0  501 -0.21716582503E+03 -0.71165017492E+02  0.18712293942E+03  0.34227558175E+03  0.17295121894E+03 0.  0.
        -24    2    5    5    0    0 -0.52888127568E+02 -0.39513731581E+02  0.19543500440E+02  0.10543402258E+03  0.79849205925E+02 0.  0.
          4    1    4    4  502    0  0.47005544145E+02 -0.16644290806E+02  0.23014835270E+02  0.54920271661E+02  0.00000000000E+00 0. -1.
         -3    1    4    4    0  502 -0.90506377175E+00  0.48961877781E+02  0.34209422440E+02  0.59735828444E+02  0.00000000000E+00 0.  1.
          5    1    3    3  503    0  0.17106534465E+03  0.38847430517E+02  0.26180155554E+03  0.31517395115E+03  0.47000000000E+01 0. -1.
         13    1    6    6    0    0  0.18392671233E+02  0.53947982475E+01  0.61366623266E+01  0.20125924270E+02  0.00000000000E+00 0. -1.
        -14    1    6    6    0    0 -0.71280798801E+02 -0.44908529829E+02  0.13406838113E+02  0.85308098310E+02  0.00000000000E+00 0.  1.
         -5    1    5    5    0  501 -0.16427769746E+03 -0.31651285911E+02  0.16757943898E+03  0.23684155917E+03  0.47000000000E+01 0.  1.
<mgrwt>
<rscale>  2 0.28732547E+03</rscale>
<asrwt>0</asrwt>
<pdfrwt beam="1">  1        2 0.98327259E-01 0.28732547E+03</pdfrwt>
<pdfrwt beam="2">  1       -2 0.20458222E-01 0.28732547E+03</pdfrwt>
<totfact> 0.94839843E+02</totfact>
</mgrwt>
</event>
<event>
12    1  0.1093377E-001  0.3116585E+03  0.7546771E-02  0.1079554E+00
          2   -1    0    0  503    0  0.00000000000E+00  0.00000000000E+00  0.15393865492E+04  0.15393865492E+04  0.00000000000E+00 0. -1.
         -2   -1    0    0    0  501 -0.00000000000E+00 -0.00000000000E+00 -0.81569313499E+02  0.81569313499E+02  0.00000000000E+00 0.  1.
          6    2    1    2  503    0 -0.13695383605E+03  0.22084431863E+03  0.34377596540E+03  0.46422417491E+03  0.17260823823E+03 0.  0.
         24    2    3    3    0    0 -0.93405872217E+02  0.12271428870E+03  0.94396349962E+02  0.19267636968E+03  0.66558687888E+02 0.  0.
         -6    2    1    2    0  501  0.13695383605E+03 -0.22084431863E+03  0.11140412703E+04  0.11567316878E+04  0.17149833619E+03 0.  0.
        -24    2    5    5    0    0  0.87717306221E+02 -0.16500853767E+03  0.53672607612E+03  0.57461761499E+03  0.84784310842E+02 0.  0.
          2    1    4    4  502    0 -0.61147249308E+02  0.33458939247E+02  0.21302150940E+02  0.72885309550E+02  0.00000000000E+00 0. -1.
         -1    1    4    4    0  502 -0.32258622909E+02  0.89255349449E+02  0.73094199023E+02  0.11979106013E+03  0.00000000000E+00 0.  1.
          5    1    3    3  503    0 -0.43547963831E+02  0.98130029937E+02  0.24937961544E+03  0.27154780523E+03  0.47000000000E+01 0. -1.
         13    1    6    6    0    0  0.31769165152E+02 -0.13601381487E+03  0.40901272874E+03  0.43220417624E+03  0.00000000000E+00 0. -1.
        -14    1    6    6    0    0  0.55948141069E+02 -0.28994722797E+02  0.12771334738E+03  0.14241343875E+03  0.00000000000E+00 0.  1.
         -5    1    5    5    0  501  0.49236529827E+02 -0.55835780964E+02  0.57731519422E+03  0.58211407283E+03  0.47000000000E+01 0.  1.
<mgrwt>
<rscale>  2 0.31165850E+03</rscale>
<asrwt>0</asrwt>
<pdfrwt beam="1">  1        2 0.23682868E+00 0.31165850E+03</pdfrwt>
<pdfrwt beam="2">  1       -2 0.12549126E-01 0.31165850E+03</pdfrwt>
<totfact> 0.59646371E+02</totfact>
</mgrwt>
</event>
<event>
12    1  0.1093377E-001  0.1743824E+03  0.7546771E-02  0.1173353E+00
          2   -1    0    0  503    0  0.00000000000E+00  0.00000000000E+00  0.41678459023E+03  0.41678459023E+03  0.00000000000E+00 0.  1.
         -2   -1    0    0    0  501 -0.00000000000E+00 -0.00000000000E+00 -0.79160347649E+02  0.79160347649E+02  0.00000000000E+00 0. -1.
          6    2    1    2  503    0 -0.15473924608E+02 -0.32339074663E+00  0.23687011465E+03  0.29327778410E+03  0.17223489923E+03 0.  0.
         24    2    3    3    0    0 -0.75147237876E+02 -0.53743890228E+01  0.17723056835E+03  0.20862920241E+03  0.80246360191E+02 0.  0.
         -6    2    1    2    0  501  0.15473924608E+02  0.32339074663E+00  0.10075412794E+03  0.20266715378E+03  0.17516573295E+03 0.  0.
        -24    2    5    5    0    0  0.41039519385E+01 -0.54125223195E+02  0.11101482533E+02  0.97056478813E+02  0.79688988937E+02 0.  0.
          4    1    4    4  502    0 -0.76989658877E+02 -0.18847985783E+02  0.88268779649E+02  0.11863402380E+03  0.00000000000E+00 0. -1.
         -3    1    4    4    0  502  0.18424210007E+01  0.13473596760E+02  0.88961788700E+02  0.89995178612E+02  0.00000000000E+00 0.  1.
          5    1    3    3  503    0  0.59673313268E+02  0.50509982762E+01  0.59639546299E+02  0.84648581693E+02  0.47000000000E+01 0. -1.
         11    1    6    6    0    0 -0.34838750378E+02 -0.23786836140E+02 -0.10026154408E+02  0.43359841716E+02  0.00000000000E+00 0. -1.
        -12    1    6    6    0    0  0.38942702316E+02 -0.30338387055E+02  0.21127636941E+02  0.53696637097E+02  0.00000000000E+00 0.  1.
         -5    1    5    5    0  501  0.11369972670E+02  0.54448613942E+02  0.89652645402E+02  0.10561067496E+03  0.47000000000E+01 0.  1.
<mgrwt>
<rscale>  2 0.17438243E+03</rscale>
<asrwt>0</asrwt>
<pdfrwt beam="1">  1        2 0.64120705E-01 0.17438243E+03</pdfrwt>
<pdfrwt beam="2">  1       -2 0.12178515E-01 0.17438243E+03</pdfrwt>
<totfact> 0.36047419E+03</totfact>
</mgrwt>
</event>
<event>
12    1  0.1093377E-001  0.1913905E+03  0.7546771E-02  0.1157213E+00
         -1   -1    0    0    0  501 -0.00000000000E+00  0.00000000000E+00  0.18242752904E+02  0.18242752904E+02  0.00000000000E+00 0. -1.
          1   -1    0    0  503    0  0.00000000000E+00 -0.00000000000E+00 -0.22737787817E+04  0.22737787817E+04  0.00000000000E+00 0.  1.
          6    2    1    2  503    0 -0.82215548009E+02 -0.14584865953E+02 -0.73201007549E+03  0.75642661020E+03  0.17137780295E+03 0.  0.
         24    2    3    3    0    0 -0.64812254630E+02 -0.61486498337E+02 -0.64596477120E+03  0.65678464047E+03  0.78194376374E+02 0.  0.
         -6    2    1    2    0  501  0.82215548009E+02  0.14584865953E+02 -0.15235259533E+04  0.15355949244E+04  0.17305584886E+03 0.  0.
        -24    2    5    5    0    0  0.10646987585E+02  0.76602777021E+00 -0.33129145960E+03  0.34112508506E+03  0.80612327289E+02 0.  0.
          2    1    4    4  502    0 -0.19858204942E+02 -0.69266286060E+02 -0.43666228073E+03  0.44256763788E+03  0.00000000000E+00 0. -1.
         -1    1    4    4    0  502 -0.44954049688E+02  0.77797877237E+01 -0.20930249047E+03  0.21421700259E+03  0.00000000000E+00 0.  1.
          5    1    3    3  503    0 -0.17403293379E+02  0.46901632383E+02 -0.86045304292E+02  0.99641969728E+02  0.47000000000E+01 0. -1.
         13    1    6    6    0    0  0.45028650672E+02 -0.51897156012E+01 -0.15893883009E+03  0.16527572187E+03  0.00000000000E+00 0. -1.
        -14    1    6    6    0    0 -0.34381663087E+02  0.59557433714E+01 -0.17235262951E+03  0.17584936319E+03  0.00000000000E+00 0.  1.
         -5    1    5    5    0  501  0.71568560424E+02  0.13818838183E+02 -0.11922344937E+04  0.11944698393E+04  0.47000000000E+01 0.  1.
<mgrwt>
<rscale>  2 0.19139047E+03</rscale>
<asrwt>0</asrwt>
<pdfrwt beam="2">  1        1 0.34981199E+00 0.19139047E+03</pdfrwt>
<pdfrwt beam="1">  1       -1 0.28065784E-02 0.19139047E+03</pdfrwt>
<totfact> 0.93959439E+02</totfact>
</mgrwt>
</event>
<event>
12    1  0.1093377E-001  0.1793501E+03  0.7546771E-02  0.1168434E+00
          2   -1    0    0  503    0  0.00000000000E+00  0.00000000000E+00  0.59385448203E+02  0.59385448203E+02  0.00000000000E+00 0. -1.
         -2   -1    0    0    0  501 -0.00000000000E+00 -0.00000000000E+00 -0.59719268836E+03  0.59719268836E+03  0.00000000000E+00 0.  1.
          6    2    1    2  503    0  0.39508214839E+01 -0.46136242595E+02 -0.36685318984E+03  0.40766725600E+03  0.17166003276E+03 0.  0.
         24    2    3    3    0    0 -0.22525677996E+02 -0.67032861075E+02 -0.14430604611E+03  0.18252953178E+03  0.86556249874E+02 0.  0.
         -6    2    1    2    0  501 -0.39508214839E+01  0.46136242595E+02 -0.17095405031E+03  0.24891088056E+03  0.17489190167E+03 0.  0.
        -24    2    5    5    0    0  0.49472407011E+02  0.50096896102E+02 -0.16215822735E+03  0.19442065556E+03  0.80912808349E+02 0.  0.
          4    1    4    4  502    0 -0.53570801580E+02 -0.24356490550E+02 -0.80781247193E+02  0.99943380531E+02  0.00000000000E+00 0. -1.
         -3    1    4    4    0  502  0.31045123585E+02 -0.42676370525E+02 -0.63524798922E+02  0.82586151246E+02  0.00000000000E+00 0.  1.
          5    1    3    3  503    0  0.26476499480E+02  0.20896618480E+02 -0.22254714373E+03  0.22513772422E+03  0.47000000000E+01 0. -1.
         13    1    6    6    0    0  0.42087015964E+02 -0.11298965671E+02 -0.49838284889E+02  0.66203007323E+02  0.00000000000E+00 0. -1.
        -14    1    6    6    0    0  0.73853910472E+01  0.61395861773E+02 -0.11231994246E+03  0.12821764824E+03  0.00000000000E+00 0.  1.
         -5    1    5    5    0  501 -0.53423228495E+02 -0.39606535073E+01 -0.87958229590E+01  0.54490225000E+02  0.47000000000E+01 0.  1.
<mgrwt>
<rscale>  2 0.17935010E+03</rscale>
<asrwt>0</asrwt>
<pdfrwt beam="1">  1        2 0.91362229E-02 0.17935010E+03</pdfrwt>
<pdfrwt beam="2">  1       -2 0.91875797E-01 0.17935010E+03</pdfrwt>
<totfact> 0.74032983E+02</totfact>
</mgrwt>
</event>
<event>
12    1  0.1093377E-001  0.2189311E+03  0.7546771E-02  0.1134682E+00
         -2   -1    0    0    0  501 -0.00000000000E+00  0.00000000000E+00  0.13395230472E+03  0.13395230472E+03  0.00000000000E+00 0. -1.
          2   -1    0    0  503    0  0.00000000000E+00 -0.00000000000E+00 -0.40285365132E+03  0.40285365132E+03  0.00000000000E+00 0.  1.
          6    2    1    2  503    0  0.12440025143E+03  0.11515176031E+02 -0.41529762136E+02  0.21658104542E+03  0.17197269044E+03 0.  0.
         24    2    3    3    0    0  0.61418029815E+02  0.56454313211E+02 -0.68411221111E+02  0.13453843986E+03  0.80381793708E+02 0.  0.
         -6    2    1    2    0  501 -0.12440025143E+03 -0.11515176031E+02 -0.22737158447E+03  0.32022491061E+03  0.18771823065E+03 0.  0.
        -24    2    5    5    0    0 -0.14202095242E+02 -0.18187633947E+02 -0.18369655598E+02  0.83809911948E+02  0.78448502574E+02 0.  0.
          4    1    4    4  502    0  0.43568136020E+02 -0.76877491919E+01 -0.86642766012E+01  0.45081633210E+02  0.00000000000E+00 0. -1.
         -3    1    4    4    0  502  0.17849893795E+02  0.64142062403E+02 -0.59746944510E+02  0.89456806651E+02  0.00000000000E+00 0.  1.
          5    1    3    3  503    0  0.62982221619E+02 -0.44939137181E+02  0.26881458975E+02  0.82042605561E+02  0.47000000000E+01 0. -1.
         11    1    6    6    0    0  0.30439000229E+02 -0.20698798803E+02 -0.50387364914E+01  0.37153221559E+02  0.00000000000E+00 0. -1.
        -12    1    6    6    0    0 -0.44641095471E+02  0.25111648561E+01 -0.13330919107E+02  0.46656690389E+02  0.00000000000E+00 0.  1.
         -5    1    5    5    0  501 -0.11019815619E+03  0.66724579156E+01 -0.20900192887E+03  0.23641499867E+03  0.47000000000E+01 0.  1.
<mgrwt>
<rscale>  2 0.21893107E+03</rscale>
<asrwt>0</asrwt>
<pdfrwt beam="2">  1        2 0.61977485E-01 0.21893107E+03</pdfrwt>
<pdfrwt beam="1">  1       -2 0.20608047E-01 0.21893107E+03</pdfrwt>
<totfact> 0.15733879E+03</totfact>
</mgrwt>
</event>
<event>
12    1  0.1093377E-001  0.1881177E+03  0.7546771E-02  0.1160170E+00
          4   -1    0    0  503    0  0.00000000000E+00  0.00000000000E+00  0.26562620156E+02  0.26562620156E+02  0.00000000000E+00 0.  1.
         -4   -1    0    0    0  501 -0.00000000000E+00 -0.00000000000E+00 -0.16465904229E+04  0.16465904229E+04  0.00000000000E+00 0. -1.
          6    2    1    2  503    0  0.57078874187E+02  0.29321255433E+02 -0.11667784138E+04  0.11814585034E+04  0.17422569943E+03 0.  0.
         24    2    3    3    0    0 -0.32163121347E+01  0.48294567100E+02 -0.35197388700E+03  0.36419232704E+03  0.80048260896E+02 0.  0.
         -6    2    1    2    0  501 -0.57078874187E+02 -0.29321255433E+02 -0.45324938894E+03  0.49169453970E+03  0.17947361337E+03 0.  0.
        -24    2    5    5    0    0 -0.12578636495E+02  0.21637020949E+02 -0.38905150048E+03  0.39831105096E+03  0.81634799679E+02 0.  0.
          4    1    4    4  502    0  0.32400211134E+02  0.46116107879E+02 -0.24594451799E+03  0.25231958904E+03  0.00000000000E+00 0. -1.
         -3    1    4    4    0  502 -0.35616523268E+02  0.21784592214E+01 -0.10602936901E+03  0.11187273800E+03  0.00000000000E+00 0.  1.
          5    1    3    3  503    0  0.60295186321E+02 -0.18973311667E+02 -0.81480452682E+03  0.81726617633E+03  0.47000000000E+01 0. -1.
         11    1    6    6    0    0 -0.38256170239E+02 -0.98642992027E+01 -0.26077023326E+03  0.26374600190E+03  0.00000000000E+00 0. -1.
        -12    1    6    6    0    0  0.25677533744E+02  0.31501320152E+02 -0.12828126721E+03  0.13456504906E+03  0.00000000000E+00 0.  1.
         -5    1    5    5    0  501 -0.44500237691E+02 -0.50958276383E+02 -0.64197888465E+02  0.93383488743E+02  0.47000000000E+01 0.  1.
<mgrwt>
<rscale>  2 0.18811765E+03</rscale>
<asrwt>0</asrwt>
<pdfrwt beam="1">  1        4 0.40865556E-02 0.18811765E+03</pdfrwt>
<pdfrwt beam="2">  1       -4 0.25332169E+00 0.18811765E+03</pdfrwt>
<totfact> 0.40528489E+01</totfact>
</mgrwt>
</event>
<event>
12    1  0.1093377E-001  0.2443828E+03  0.7546771E-02  0.1116907E+00
          1   -1    0    0  503    0  0.00000000000E+00  0.00000000000E+00  0.37306670378E+03  0.37306670378E+03  0.00000000000E+00 0. -1.
         -1   -1    0    0    0  501 -0.00000000000E+00 -0.00000000000E+00 -0.16469595846E+03  0.16469595846E+03  0.00000000000E+00 0.  1.
          6    2    1    2  503    0  0.12678927371E+03 -0.11700380783E+03  0.59252652404E+02  0.25157954160E+03  0.17325119902E+03 0.  0.
         24    2    3    3    0    0  0.11707581422E+03 -0.11308420197E+03 -0.95966518616E+01  0.18177960390E+03  0.80355122144E+02 0.  0.
         -6    2    1    2    0  501 -0.12678927371E+03  0.11700380783E+03  0.14911809292E+03  0.28618312064E+03  0.17291374130E+03 0.  0.
        -24    2    5    5    0    0 -0.11308666450E+03  0.28183512639E+01  0.10722338520E+03  0.16369501295E+03  0.50026654297E+02 0.  0.
          2    1    4    4  502    0  0.28352354507E+02 -0.41686436005E+02  0.32928318251E+02  0.60215355979E+02  0.00000000000E+00 0. -1.
         -1    1    4    4    0  502  0.88723459713E+02 -0.71397765970E+02 -0.42524970112E+02  0.12156424792E+03  0.00000000000E+00 0.  1.
          5    1    3    3  503    0  0.97134594887E+01 -0.39196058525E+01  0.68849304266E+02  0.69799937702E+02  0.47000000000E+01 0. -1.
         11    1    6    6    0    0 -0.20181037919E+02 -0.56106565605E+01  0.50112927361E+02  0.54314447868E+02  0.00000000000E+00 0. -1.
        -12    1    6    6    0    0 -0.92905626584E+02  0.84290078243E+01  0.57110457835E+02  0.10938056508E+03  0.00000000000E+00 0.  1.
         -5    1    5    5    0  501 -0.13702609206E+02  0.11418545656E+03  0.41894707724E+02  0.12248810769E+03  0.47000000000E+01 0.  1.
<mgrwt>
<rscale>  2 0.24438280E+03</rscale>
<asrwt>0</asrwt>
<pdfrwt beam="1">  1        1 0.57394877E-01 0.24438280E+03</pdfrwt>
<pdfrwt beam="2">  1       -1 0.25337840E-01 0.24438280E+03</pdfrwt>
<totfact> 0.90407839E+02</totfact>
</mgrwt>
</event>
<event>
12    1  0.1093377E-001  0.2546610E+03  0.7546771E-02  0.1110394E+00
          1   -1    0    0  503    0  0.00000000000E+00  0.00000000000E+00  0.19351405650E+04  0.19351405650E+04  0.00000000000E+00 0.  1.
         -1   -1    0    0    0  501 -0.00000000000E+00 -0.00000000000E+00 -0.34047143143E+02  0.34047143143E+02  0.00000000000E+00 0. -1.
          6    2    1    2  503    0  0.11959285112E+03  0.14272704280E+03  0.10749789741E+04  0.11048011149E+04  0.17416156282E+03 0.  0.
         24    2    3    3    0    0  0.82543937507E+02  0.15797129189E+03  0.66983480839E+03  0.69765385146E+03  0.79207292839E+02 0.  0.
         -6    2    1    2    0  501 -0.11959285112E+03 -0.14272704280E+03  0.82611444773E+03  0.86438659320E+03  0.17327908985E+03 0.  0.
        -24    2    5    5    0    0 -0.48522511430E+02 -0.60029371946E+01  0.22587893810E+03  0.24466953579E+03  0.80320717710E+02 0.  0.
          4    1    4    4  502    0  0.66475247291E+02  0.75737844721E+02  0.47490342100E+03  0.48547753697E+03  0.00000000000E+00 0. -1.
         -3    1    4    4    0  502  0.16068690216E+02  0.82233447169E+02  0.19493138739E+03  0.21217631449E+03  0.00000000000E+00 0.  1.
          5    1    3    3  503    0  0.37048913616E+02 -0.15244249094E+02  0.40514416569E+03  0.40714726344E+03  0.47000000000E+01 0. -1.
         13    1    6    6    0    0 -0.13585717992E+01 -0.20128693555E+00 -0.69277691455E+01  0.70625929444E+01  0.00000000000E+00 0. -1.
        -14    1    6    6    0    0 -0.47163939631E+02 -0.58016502590E+01  0.23280670725E+03  0.23760694284E+03  0.00000000000E+00 0.  1.
         -5    1    5    5    0  501 -0.71070339693E+02 -0.13672410560E+03  0.60023550962E+03  0.61971705741E+03  0.47000000000E+01 0.  1.
<mgrwt>
<rscale>  2 0.25466100E+03</rscale>
<asrwt>0</asrwt>
<pdfrwt beam="1">  1        1 0.29771385E+00 0.25466100E+03</pdfrwt>
<pdfrwt beam="2">  1       -1 0.52380235E-02 0.25466100E+03</pdfrwt>
<totfact> 0.61119427E+02</totfact>
</mgrwt>
</event>
<event>
12    1  0.1093377E-001  0.1923468E+03  0.7546771E-02  0.1156362E+00
         -4   -1    0    0    0  501 -0.00000000000E+00  0.00000000000E+00  0.13014387629E+03  0.13014387629E+03  0.00000000000E+00 0. -1.
          4   -1    0    0  503    0  0.00000000000E+00 -0.00000000000E+00 -0.34411522124E+03  0.34411522124E+03  0.00000000000E+00 0.  1.
          6    2    1    2  503    0  0.80775657499E+02  0.22716684268E+02 -0.80649885738E+01  0.19242939580E+03  0.17298344932E+03 0.  0.
         24    2    3    3    0    0  0.98997837525E+02  0.14909009744E+02  0.39793908488E+02  0.14041428593E+03  0.90054239959E+02 0.  0.
         -6    2    1    2    0  501 -0.80775657499E+02 -0.22716684268E+02 -0.20590635637E+03  0.28182970173E+03  0.17317562934E+03 0.  0.
        -24    2    5    5    0    0 -0.88852474547E+02 -0.61154776510E+02 -0.98753425247E+02  0.16760815141E+03  0.81887633372E+02 0.  0.
          2    1    4    4  502    0  0.37398091955E+00 -0.25210267423E+02  0.19853532022E+02  0.32091434668E+02  0.00000000000E+00 0. -1.
         -1    1    4    4    0  502  0.98623856605E+02  0.40119277168E+02  0.19940376466E+02  0.10832285126E+03  0.00000000000E+00 0.  1.
          5    1    3    3  503    0 -0.18222180026E+02  0.78076745241E+01 -0.47858897062E+02  0.52015109866E+02  0.47000000000E+01 0. -1.
         11    1    6    6    0    0 -0.38571469596E+02 -0.11868717804E+02  0.66010083270E+01  0.40892518142E+02  0.00000000000E+00 0. -1.
        -12    1    6    6    0    0 -0.50281004951E+02 -0.49286058706E+02 -0.10535443357E+03  0.12671563327E+03  0.00000000000E+00 0.  1.
         -5    1    5    5    0  501  0.80768170481E+01  0.38438092242E+02 -0.10715293112E+03  0.11422155032E+03  0.47000000000E+01 0.  1.
<mgrwt>
<rscale>  2 0.19234676E+03</rscale>
<asrwt>0</asrwt>
<pdfrwt beam="2">  1        4 0.52940803E-01 0.19234676E+03</pdfrwt>
<pdfrwt beam="1">  1       -4 0.20022135E-01 0.19234676E+03</pdfrwt>
<totfact> 0.13723427E+02</totfact>
</mgrwt>
</event>
<event>
12    1  0.1093377E-001  0.2194616E+03  0.7546771E-02  0.1134285E+00
          2   -1    0    0  503    0  0.00000000000E+00  0.00000000000E+00  0.42113963957E+02  0.42113963957E+02  0.00000000000E+00 0. -1.
         -2   -1    0    0    0  501 -0.00000000000E+00 -0.00000000000E+00 -0.13877233589E+04  0.13877233589E+04  0.00000000000E+00 0.  1.
          6    2    1    2  503    0 -0.97072572044E+02 -0.89182518338E+02 -0.36574541934E+03  0.42505086859E+03  0.17181944972E+03 0.  0.
         24    2    3    3    0    0  0.55356741781E+01 -0.76670372116E+02 -0.16750012845E+03  0.20142553157E+03  0.81283221460E+02 0.  0.
         -6    2    1    2    0  501  0.97072572044E+02  0.89182518338E+02 -0.97986397563E+03  0.10047864543E+04  0.17912510200E+03 0.  0.
        -24    2    5    5    0    0  0.21189578343E+02  0.67732811403E+02 -0.81383580172E+03  0.82092301803E+03  0.80926864539E+02 0.  0.
          4    1    4    4  502    0 -0.72668978878E-01 -0.86504304077E+02 -0.96780359740E+02  0.12980538485E+03  0.00000000000E+00 0. -1.
         -3    1    4    4    0  502  0.56083431569E+01  0.98339319608E+01 -0.70719768706E+02  0.71620146723E+02  0.00000000000E+00 0.  1.
          5    1    3    3  503    0 -0.10260824622E+03 -0.12512146222E+02 -0.19824529089E+03  0.22362533702E+03  0.47000000000E+01 0. -1.
         11    1    6    6    0    0 -0.19639736776E+02  0.25617750017E+01 -0.36572845774E+03  0.36626436730E+03  0.00000000000E+00 0. -1.
        -12    1    6    6    0    0  0.40829315119E+02  0.65171036401E+02 -0.44810734398E+03  0.45465865073E+03  0.00000000000E+00 0.  1.
         -5    1    5    5    0  501  0.75882993701E+02  0.21449706935E+02 -0.16602817392E+03  0.18386343626E+03  0.47000000000E+01 0.  1.
<mgrwt>
<rscale>  2 0.21946164E+03</rscale>
<asrwt>0</asrwt>
<pdfrwt beam="1">  1        2 0.64790724E-02 0.21946164E+03</pdfrwt>
<pdfrwt beam="2">  1       -2 0.21349587E+00 0.21946164E+03</pdfrwt>
<totfact> 0.13277289E+02</totfact>
</mgrwt>
</event>
<event>
12    1  0.1093377E-001  0.1988864E+03  0.7546771E-02  0.1150682E+00
         -2   -1    0    0    0  501 -0.00000000000E+00  0.00000000000E+00  0.15240139226E+03  0.15240139226E+03  0.00000000000E+00 0.  1.
          2   -1    0    0  503    0  0.00000000000E+00 -0.00000000000E+00 -0.31840676179E+03  0.31840676179E+03  0.00000000000E+00 0. -1.
          6    2    1    2  503    0 -0.92837235425E+02  0.27229832977E+02 -0.18434362876E+03  0.27146571446E+03  0.17421493788E+03 0.  0.
         24    2    3    3    0    0 -0.75310284930E+02  0.76881679261E+02 -0.82674491298E+02  0.15687425167E+03  0.78689438323E+02 0.  0.
         -6    2    1    2    0  501  0.92837235425E+02 -0.27229832977E+02  0.18338259220E+02  0.19934243959E+03  0.17332310978E+03 0.  0.
        -24    2    5    5    0    0  0.26529905395E+02 -0.76271559043E+02  0.18506073572E+02  0.11673571424E+03  0.82240899926E+02 0.  0.
          4    1    4    4  502    0 -0.82963394556E+02  0.49082812713E+02 -0.37813937195E+02  0.10354680674E+03  0.00000000000E+00 0. -1.
         -3    1    4    4    0  502  0.76531096259E+01  0.27798866548E+02 -0.44860554103E+02  0.53327444930E+02  0.00000000000E+00 0.  1.
          5    1    3    3  503    0 -0.17526950494E+02 -0.49651846284E+02 -0.10166913746E+03  0.11459146279E+03  0.47000000000E+01 0. -1.
         13    1    6    6    0    0  0.30925245742E+02  0.53244943853E+01 -0.48409950176E+01  0.31751477091E+02  0.00000000000E+00 0. -1.
        -14    1    6    6    0    0 -0.43953403477E+01 -0.81596053428E+02  0.23347068590E+02  0.84984237148E+02  0.00000000000E+00 0.  1.
         -5    1    5    5    0  501  0.66307330030E+02  0.49041726066E+02 -0.16781435246E+00  0.82606725349E+02  0.47000000000E+01 0.  1.
<mgrwt>
<rscale>  2 0.19888636E+03</rscale>
<asrwt>0</asrwt>
<pdfrwt beam="2">  1        2 0.48985656E-01 0.19888636E+03</pdfrwt>
<pdfrwt beam="1">  1       -2 0.23446368E-01 0.19888636E+03</pdfrwt>
<totfact> 0.16187728E+03</totfact>
</mgrwt>
</event>
<event>
12    1  0.1093377E-001  0.1881261E+03  0.7546771E-02  0.1160162E+00
         -2   -1    0    0    0  501 -0.00000000000E+00  0.00000000000E+00  0.63656453106E+02  0.63656453106E+02  0.00000000000E+00 0.  1.
          2   -1    0    0  503    0  0.00000000000E+00 -0.00000000000E+00 -0.64631565146E+03  0.64631565146E+03  0.00000000000E+00 0. -1.
          6    2    1    2  503    0  0.48125482811E+02  0.55217559450E+02 -0.15920566086E+03  0.24678996289E+03  0.17376363937E+03 0.  0.
         24    2    3    3    0    0  0.46095997506E+02  0.86176915422E+02 -0.54188710900E+02  0.13718498896E+03  0.79573884335E+02 0.  0.
         -6    2    1    2    0  501 -0.48125482811E+02 -0.55217559450E+02 -0.42345353749E+03  0.46318214167E+03  0.17279975978E+03 0.  0.
        -24    2    5    5    0    0 -0.64826554252E+02 -0.95861257039E+02 -0.29309953936E+03  0.32554097497E+03  0.81717340119E+02 0.  0.
          2    1    4    4  502    0  0.14609322111E+02 -0.14456835984E+02 -0.77199527919E+01  0.21955183222E+02  0.00000000000E+00 0. -1.
         -1    1    4    4    0  502  0.31486675395E+02  0.10063375141E+03 -0.46468758109E+02  0.11522980573E+03  0.00000000000E+00 0.  1.
          5    1    3    3  503    0  0.20294853053E+01 -0.30959355972E+02 -0.10501694996E+03  0.10960497394E+03  0.47000000000E+01 0. -1.
         13    1    6    6    0    0 -0.42172886740E+02 -0.10793777673E+03 -0.24477643667E+03  0.27082211869E+03  0.00000000000E+00 0. -1.
        -14    1    6    6    0    0 -0.22653667512E+02  0.12076519692E+02 -0.48323102687E+02  0.54718856283E+02  0.00000000000E+00 0.  1.
         -5    1    5    5    0  501  0.16701071441E+02  0.40643697590E+02 -0.13035399813E+03  0.13764116670E+03  0.47000000000E+01 0.  1.
<mgrwt>
<rscale>  2 0.18812609E+03</rscale>
<asrwt>0</asrwt>
<pdfrwt beam="2">  1        2 0.99433181E-01 0.18812609E+03</pdfrwt>
<pdfrwt beam="1">  1       -2 0.97933001E-02 0.18812609E+03</pdfrwt>
<totfact> 0.31293674E+03</totfact>
</mgrwt>
</event>
<event>
12    1  0.1093377E-001  0.1757784E+03  0.7546771E-02  0.1171952E+00
         -2   -1    0    0    0  501 -0.00000000000E+00  0.00000000000E+00  0.13923182170E+03  0.13923182170E+03  0.00000000000E+00 0. -1.
          2   -1    0    0  503    0  0.00000000000E+00 -0.00000000000E+00 -0.28760411031E+03  0.28760411031E+03  0.00000000000E+00 0.  1.
          6    2    1    2  503    0 -0.14662054060E+02  0.22852990574E+02 -0.17627929164E+03  0.24916172026E+03  0.17398258296E+03 0.  0.
         24    2    3    3    0    0 -0.22630596455E+02 -0.43341106038E+02 -0.15707599904E+03  0.17962027549E+03  0.72110876598E+02 0.  0.
         -6    2    1    2    0  501  0.14662054060E+02 -0.22852990574E+02  0.27907003032E+02  0.17767421175E+03  0.17335538554E+03 0.  0.
        -24    2    5    5    0    0  0.30435667051E+02 -0.16063691783E+02 -0.47736060038E+02  0.99964080908E+02  0.80806645898E+02 0.  0.
          4    1    4    4  502    0 -0.30005288234E+02 -0.15609512547E+02 -0.19412153417E+02  0.38997511513E+02  0.00000000000E+00 0. -1.
         -3    1    4    4    0  502  0.73746917790E+01 -0.27731593491E+02 -0.13766384562E+03  0.14062276397E+03  0.00000000000E+00 0.  1.
          5    1    3    3  503    0  0.79685423944E+01  0.66194096612E+02 -0.19203292600E+02  0.69541444771E+02  0.47000000000E+01 0. -1.
         13    1    6    6    0    0 -0.34683299965E+01  0.26216116443E+02  0.18480081389E+01  0.26509040126E+02  0.00000000000E+00 0. -1.
        -14    1    6    6    0    0  0.33903997047E+02 -0.42279808225E+02 -0.49584068177E+02  0.73455040782E+02  0.00000000000E+00 0.  1.
         -5    1    5    5    0  501 -0.15773612991E+02 -0.67892987910E+01  0.75643063070E+02  0.77710130842E+02  0.47000000000E+01 0.  1.
<mgrwt>
<rscale>  2 0.17577843E+03</rscale>
<asrwt>0</asrwt>
<pdfrwt beam="2">  1        2 0.44246786E-01 0.17577843E+03</pdfrwt>
<pdfrwt beam="1">  1       -2 0.21420280E-01 0.17577843E+03</pdfrwt>
<totfact> 0.21031465E+03</totfact>
</mgrwt>
</event>
<event>
12    1  0.1093377E-001  0.1770365E+03  0.7546771E-02  0.1170702E+00
         -1   -1    0    0    0  501 -0.00000000000E+00  0.00000000000E+00  0.35610817225E+03  0.35610817225E+03  0.00000000000E+00 0. -1.
          1   -1    0    0  503    0  0.00000000000E+00 -0.00000000000E+00 -0.10539323260E+03  0.10539323260E+03  0.00000000000E+00 0.  1.
          6    2    1    2  503    0 -0.17829221954E+02  0.35101583125E+02  0.21908814132E+03  0.28170139715E+03  0.17264431991E+03 0.  0.
         24    2    3    3    0    0 -0.19009985047E+01 -0.36977520894E+01  0.22506950433E+03  0.23907554328E+03  0.80520472230E+02 0.  0.
         -6    2    1    2    0  501  0.17829221954E+02 -0.35101583125E+02  0.31626798322E+02  0.17980000769E+03  0.17256241219E+03 0.  0.
        -24    2    5    5    0    0 -0.39164268209E+02 -0.62322518009E+02  0.37859302929E+02  0.11615905130E+03  0.81496393942E+02 0.  0.
          2    1    4    4  502    0 -0.32072055827E+02  0.14442338507E+01  0.39040553358E+02  0.50545695988E+02  0.00000000000E+00 0. -1.
         -1    1    4    4    0  502  0.30171057322E+02 -0.51419859401E+01  0.18602895097E+03  0.18852984729E+03  0.00000000000E+00 0.  1.
          5    1    3    3  503    0 -0.15928223449E+02  0.38799335215E+02 -0.59813630082E+01  0.42625853877E+02  0.47000000000E+01 0. -1.
         13    1    6    6    0    0 -0.33337445154E+02  0.11655187163E+02  0.82769665915E+01  0.36273086623E+02  0.00000000000E+00 0. -1.
        -14    1    6    6    0    0 -0.58268230545E+01 -0.73977705172E+02  0.29582336337E+02  0.79885964678E+02  0.00000000000E+00 0.  1.
         -5    1    5    5    0  501  0.56993490163E+02  0.27220934884E+02 -0.62325046064E+01  0.63640956392E+02  0.47000000000E+01 0.  1.
<mgrwt>
<rscale>  2 0.17703650E+03</rscale>
<asrwt>0</asrwt>
<pdfrwt beam="2">  1        1 0.16214344E-01 0.17703650E+03</pdfrwt>
<pdfrwt beam="1">  1       -1 0.54785872E-01 0.17703650E+03</pdfrwt>
<totfact> 0.11529788E+03</totfact>
</mgrwt>
</event>
<event>
12    1  0.1093377E-001  0.2045716E+03  0.7546771E-02  0.1145938E+00
          2   -1    0    0  503    0  0.00000000000E+00  0.00000000000E+00  0.80339042549E+03  0.80339042549E+03  0.00000000000E+00 0.  1.
         -2   -1    0    0    0  501 -0.00000000000E+00 -0.00000000000E+00 -0.59417062831E+02  0.59417062831E+02  0.00000000000E+00 0. -1.
          6    2    1    2  503    0  0.83500811683E+02 -0.40848231487E+02  0.20671529886E+03  0.28440794847E+03  0.17180134692E+03 0.  0.
         24    2    3    3    0    0  0.42021256381E+02 -0.64777113203E+02  0.55065637177E+02  0.12530780775E+03  0.81902148341E+02 0.  0.
         -6    2    1    2    0  501 -0.83500811683E+02  0.40848231487E+02  0.53725806380E+03  0.57839953985E+03  0.19302548282E+03 0.  0.
        -24    2    5    5    0    0 -0.25013417984E+02 -0.26784371054E+02  0.10613605513E+03  0.13807781598E+03  0.80358866700E+02 0.  0.
          2    1    4    4  502    0  0.62898007282E+02 -0.26222410510E+02  0.39600936129E+02  0.78816294478E+02  0.00000000000E+00 0. -1.
         -1    1    4    4    0  502 -0.20876750900E+02 -0.38554702693E+02  0.15464701048E+02  0.46491513273E+02  0.00000000000E+00 0.  1.
          5    1    3    3  503    0  0.41479555301E+02  0.23928881716E+02  0.15164966169E+03  0.15910014072E+03  0.47000000000E+01 0. -1.
         11    1    6    6    0    0 -0.37941685983E+02  0.20710237640E+00  0.12771830436E+02  0.40034161404E+02  0.00000000000E+00 0. -1.
        -12    1    6    6    0    0  0.12928267999E+02 -0.26991473430E+02  0.93364224690E+02  0.98043654580E+02  0.00000000000E+00 0.  1.
         -5    1    5    5    0  501 -0.58487393698E+02  0.67632602540E+02  0.43112200867E+03  0.44032172387E+03  0.47000000000E+01 0.  1.
<mgrwt>
<rscale>  2 0.20457158E+03</rscale>
<asrwt>0</asrwt>
<pdfrwt beam="1">  1        2 0.12359852E+00 0.20457158E+03</pdfrwt>
<pdfrwt beam="2">  1       -2 0.91410872E-02 0.20457158E+03</pdfrwt>
<totfact> 0.26824969E+03</totfact>
</mgrwt>
</event>
<event>
12    1  0.1093377E-001  0.2929020E+03  0.7546771E-02  0.1088844E+00
          2   -1    0    0  503    0  0.00000000000E+00  0.00000000000E+00  0.41014212157E+04  0.41014212157E+04  0.00000000000E+00 0. -1.
         -2   -1    0    0    0  501 -0.00000000000E+00 -0.00000000000E+00 -0.26270779017E+02  0.26270779017E+02  0.00000000000E+00 0.  1.
          6    2    1    2  503    0  0.12241682239E+03 -0.19521668867E+03  0.11403847356E+04  0.11789346780E+04  0.19056283925E+03 0.  0.
         24    2    3    3    0    0  0.14767599724E+03 -0.12592063494E+03  0.65615839330E+03  0.68910081880E+03  0.81559149732E+02 0.  0.
         -6    2    1    2    0  501 -0.12241682239E+03  0.19521668867E+03  0.29347657010E+04  0.29487573167E+04  0.17095192046E+03 0.  0.
        -24    2    5    5    0    0 -0.10137616500E+03  0.16864522275E+03  0.28413124722E+04  0.28492367257E+04  0.79843699228E+02 0.  0.
          2    1    4    4  502    0  0.73825136728E+02 -0.12082163974E+02  0.23664982473E+03  0.24819200036E+03  0.00000000000E+00 0. -1.
         -1    1    4    4    0  502  0.73850860514E+02 -0.11383847097E+03  0.41950856857E+03  0.44090881844E+03  0.00000000000E+00 0.  1.
          5    1    3    3  503    0 -0.25259174849E+02 -0.69296053728E+02  0.48422634234E+03  0.48983385917E+03  0.47000000000E+01 0. -1.
         11    1    6    6    0    0 -0.81943123776E+02  0.90102264537E+02  0.20983448024E+04  0.21018763055E+04  0.00000000000E+00 0. -1.
        -12    1    6    6    0    0 -0.19433041227E+02  0.78542958212E+02  0.74296766974E+03  0.74736042019E+03  0.00000000000E+00 0.  1.
         -5    1    5    5    0  501 -0.21040657391E+02  0.26571465919E+02  0.93453228820E+02  0.99520591042E+02  0.47000000000E+01 0.  1.
<mgrwt>
<rscale>  2 0.29290205E+03</rscale>
<asrwt>0</asrwt>
<pdfrwt beam="1">  1        2 0.63098737E+00 0.29290205E+03</pdfrwt>
<pdfrwt beam="2">  1       -2 0.40416616E-02 0.29290205E+03</pdfrwt>
<totfact> 0.10001135E+02</totfact>
</mgrwt>
</event>
<event>
12    1  0.1093377E-001  0.2246492E+03  0.7546771E-02  0.1130464E+00
          2   -1    0    0  503    0  0.00000000000E+00  0.00000000000E+00  0.24996797858E+03  0.24996797858E+03  0.00000000000E+00 0. -1.
         -2   -1    0    0    0  501 -0.00000000000E+00 -0.00000000000E+00 -0.31439942652E+03  0.31439942652E+03  0.00000000000E+00 0.  1.
          6    2    1    2  503    0  0.12166748636E+03  0.74599851024E+02  0.13660101825E+03  0.26277733025E+03  0.17327426843E+03 0.  0.
         24    2    3    3    0    0  0.10291023075E+03  0.10468017837E+03  0.15004114792E+03  0.22457539552E+03  0.79832993601E+02 0.  0.
         -6    2    1    2    0  501 -0.12166748636E+03 -0.74599851024E+02 -0.20103246619E+03  0.30159007485E+03  0.17370781725E+03 0.  0.
        -24    2    5    5    0    0  0.30689652535E+01 -0.39378795419E+01 -0.57688328116E+02  0.98804650089E+02  0.80059291999E+02 0.  0.
          4    1    4    4  502    0  0.11479671906E+03  0.93236166219E+02  0.12061246879E+03  0.19083667631E+03  0.00000000000E+00 0. -1.
         -3    1    4    4    0  502 -0.11886488309E+02  0.11444012151E+02  0.29428679135E+02  0.33738719212E+02  0.00000000000E+00 0.  1.
          5    1    3    3  503    0  0.18757255615E+02 -0.30080327346E+02 -0.13440129677E+02  0.38201934731E+02  0.47000000000E+01 0. -1.
         13    1    6    6    0    0 -0.17061716006E+02  0.27402473767E+02 -0.27063976637E+01  0.32393244820E+02  0.00000000000E+00 0. -1.
        -14    1    6    6    0    0  0.20130681260E+02 -0.31340353309E+02 -0.54981930453E+02  0.66411405269E+02  0.00000000000E+00 0.  1.
         -5    1    5    5    0  501 -0.12473645162E+03 -0.70661971482E+02 -0.14334413807E+03  0.20278542476E+03  0.47000000000E+01 0.  1.
<mgrwt>
<rscale>  2 0.22464917E+03</rscale>
<asrwt>0</asrwt>
<pdfrwt beam="1">  1        2 0.38456612E-01 0.22464917E+03</pdfrwt>
<pdfrwt beam="2">  1       -2 0.48369142E-01 0.22464917E+03</pdfrwt>
<totfact> 0.54918075E+02</totfact>
</mgrwt>
</event>
<event>
12    1  0.1093377E-001  0.2610192E+03  0.7546771E-02  0.1106532E+00
         -2   -1    0    0    0  501 -0.00000000000E+00  0.00000000000E+00  0.13513002668E+03  0.13513002668E+03  0.00000000000E+00 0.  1.
          2   -1    0    0  503    0  0.00000000000E+00 -0.00000000000E+00 -0.50564731667E+03  0.50564731667E+03  0.00000000000E+00 0. -1.
          6    2    1    2  503    0  0.86189814152E+02 -0.17497304334E+03 -0.16825662590E+03  0.31079122828E+03  0.17388687546E+03 0.  0.
         24    2    3    3    0    0  0.21047997631E+02 -0.41803605703E+02 -0.12129090324E+02  0.95441622419E+02  0.82288691835E+02 0.  0.
         -6    2    1    2    0  501 -0.86189814152E+02  0.17497304334E+03 -0.20226066409E+03  0.32998611507E+03  0.17302372652E+03 0.  0.
        -24    2    5    5    0    0  0.17457709149E+02  0.11166631742E+03 -0.10826590711E+03  0.17633828731E+03  0.81237595214E+02 0.  0.
          2    1    4    4  502    0  0.23990936611E+02  0.17316544317E+02  0.11448623052E+02  0.31725363927E+02  0.00000000000E+00 0. -1.
         -1    1    4    4    0  502 -0.29429389798E+01 -0.59120150020E+02 -0.23577713375E+02  0.63716258492E+02  0.00000000000E+00 0.  1.
          5    1    3    3  503    0  0.65141816521E+02 -0.13316943764E+03 -0.15612753558E+03  0.21534960586E+03  0.47000000000E+01 0. -1.
         11    1    6    6    0    0 -0.22962372612E+02  0.57664012139E+02 -0.84445529608E+02  0.10480198625E+03  0.00000000000E+00 0. -1.
        -12    1    6    6    0    0  0.40420081761E+02  0.54002305278E+02 -0.23820377500E+02  0.71536301059E+02  0.00000000000E+00 0.  1.
         -5    1    5    5    0  501 -0.10364752330E+03  0.63306725923E+02 -0.93994756979E+02  0.15364782775E+03  0.47000000000E+01 0.  1.
<mgrwt>
<rscale>  2 0.26101918E+03</rscale>
<asrwt>0</asrwt>
<pdfrwt beam="2">  1        2 0.77791895E-01 0.26101918E+03</pdfrwt>
<pdfrwt beam="1">  1       -2 0.20789235E-01 0.26101918E+03</pdfrwt>
<totfact> 0.12087345E+03</totfact>
</mgrwt>
</event>
<event>
12    1  0.1093377E-001  0.1744282E+03  0.7546771E-02  0.1173307E+00
          2   -1    0    0  503    0  0.00000000000E+00  0.00000000000E+00  0.17917976221E+04  0.17917976221E+04  0.00000000000E+00 0. -1.
         -2   -1    0    0    0  501 -0.00000000000E+00 -0.00000000000E+00 -0.18330594779E+03  0.18330594779E+03  0.00000000000E+00 0.  1.
          6    2    1    2  503    0 -0.25994866690E+01  0.30149338799E+02  0.17447510275E+04  0.17534032443E+04  0.17132147864E+03 0.  0.
         24    2    3    3    0    0 -0.24044395852E+02  0.10038679928E+02  0.40778637764E+03  0.41610713355E+03  0.78590767501E+02 0.  0.
         -6    2    1    2    0  501  0.25994866690E+01 -0.30149338799E+02 -0.13625935320E+03  0.22170032562E+03  0.17224599585E+03 0.  0.
        -24    2    5    5    0    0 -0.70534361891E+00 -0.64873815874E+02 -0.26748129063E+02  0.10667202727E+03  0.80338966243E+02 0.  0.
          4    1    4    4  502    0 -0.43673411367E+02 -0.18819632616E+02  0.25355336090E+03  0.25797451861E+03  0.00000000000E+00 0. -1.
         -3    1    4    4    0  502  0.19629015514E+02  0.28858312544E+02  0.15423301674E+03  0.15813261493E+03  0.00000000000E+00 0.  1.
          5    1    3    3  503    0  0.21444909183E+02  0.20110658872E+02  0.13369646499E+04  0.13372961107E+04  0.47000000000E+01 0. -1.
         11    1    6    6    0    0 -0.99154191816E+01  0.49040251946E+01  0.19524666985E+02  0.22440535232E+02  0.00000000000E+00 0. -1.
        -12    1    6    6    0    0  0.92100755627E+01 -0.69777841069E+02 -0.46272796048E+02  0.84231492034E+02  0.00000000000E+00 0.  1.
         -5    1    5    5    0  501  0.33048302879E+01  0.34724477075E+02 -0.10951122413E+03  0.11502829835E+03  0.47000000000E+01 0.  1.
<mgrwt>
<rscale>  2 0.17442818E+03</rscale>
<asrwt>0</asrwt>
<pdfrwt beam="1">  1        2 0.27566116E+00 0.17442818E+03</pdfrwt>
<pdfrwt beam="2">  1       -2 0.28200916E-01 0.17442818E+03</pdfrwt>
<totfact> 0.11418098E+02</totfact>
</mgrwt>
</event>
<event>
12    1  0.1093377E-001  0.1926400E+03  0.7546771E-02  0.1156102E+00
          1   -1    0    0  503    0  0.00000000000E+00  0.00000000000E+00  0.13807331032E+04  0.13807331032E+04  0.00000000000E+00 0.  1.
         -1   -1    0    0    0  501 -0.00000000000E+00 -0.00000000000E+00 -0.42044899491E+02  0.42044899491E+02  0.00000000000E+00 0. -1.
          6    2    1    2  503    0 -0.49068992284E+02 -0.68248292052E+02  0.24223051993E+03  0.30953903111E+03  0.17341623806E+03 0.  0.
         24    2    3    3    0    0 -0.22112588417E+02 -0.28805792011E+01  0.21971530399E+03  0.23518440421E+03  0.80867947133E+02 0.  0.
         -6    2    1    2    0  501  0.49068992284E+02  0.68248292052E+02  0.10964576838E+04  0.11132389716E+04  0.17325114763E+03 0.  0.
        -24    2    5    5    0    0 -0.28823157375E+02  0.63639567794E+02  0.79770503088E+03  0.80442889252E+03  0.76757786796E+02 0.  0.
          2    1    4    4  502    0 -0.24884391708E+02  0.22415176540E+02  0.33968337226E+02  0.47702421572E+02  0.00000000000E+00 0. -1.
         -1    1    4    4    0  502  0.27718032906E+01 -0.25295755741E+02  0.18574696676E+03  0.18748198264E+03  0.00000000000E+00 0.  1.
          5    1    3    3  503    0 -0.26956403866E+02 -0.65367712851E+02  0.22515215942E+02  0.74354626902E+02  0.47000000000E+01 0. -1.
         13    1    6    6    0    0 -0.41748403426E+02  0.30759217097E+01  0.32400512695E+03  0.32669819830E+03  0.00000000000E+00 0. -1.
        -14    1    6    6    0    0  0.12925246052E+02  0.60563646085E+02  0.47369990393E+03  0.47773069422E+03  0.00000000000E+00 0.  1.
         -5    1    5    5    0  501  0.77892149658E+02  0.46087242575E+01  0.29875265292E+03  0.30881007909E+03  0.47000000000E+01 0.  1.
<mgrwt>
<rscale>  2 0.19263998E+03</rscale>
<asrwt>0</asrwt>
<pdfrwt beam="1">  1        1 0.21242044E+00 0.19263998E+03</pdfrwt>
<pdfrwt beam="2">  1       -1 0.64684472E-02 0.19263998E+03</pdfrwt>
<totfact> 0.10307212E+03</totfact>
</mgrwt>
</event>
<event>
12    1  0.1093377E-001  0.1874507E+03  0.7546771E-02  0.1160781E+00
          2   -1    0    0  503    0  0.00000000000E+00  0.00000000000E+00  0.93065636153E+03  0.93065636153E+03  0.00000000000E+00 0. -1.
         -2   -1    0    0    0  501 -0.00000000000E+00 -0.00000000000E+00 -0.56706782460E+02  0.56706782460E+02  0.00000000000E+00 0.  1.
          6    2    1    2  503    0 -0.25750191810E+02 -0.66061934033E+02  0.15294494070E+03  0.24260845061E+03  0.17446906291E+03 0.  0.
         24    2    3    3    0    0  0.14351190652E+02  0.27689514518E+02  0.53540751576E+02  0.10012779299E+03  0.78653016227E+02 0.  0.
         -6    2    1    2    0  501  0.25750191810E+02  0.66061934033E+02  0.72100463838E+03  0.74475469339E+03  0.17258219276E+03 0.  0.
        -24    2    5    5    0    0  0.80316700353E+02  0.43993629225E+02  0.56879372372E+03  0.58149181803E+03  0.78868387309E+02 0.  0.
          4    1    4    4  502    0 -0.22440445480E+02 -0.13109194889E+02  0.31739876515E+02  0.41022485848E+02  0.00000000000E+00 0. -1.
         -3    1    4    4    0  502  0.36791636132E+02  0.40798709407E+02  0.21800875061E+02  0.59105307138E+02  0.00000000000E+00 0.  1.
          5    1    3    3  503    0 -0.40101382462E+02 -0.93751448551E+02  0.99404189121E+02  0.14248065762E+03  0.47000000000E+01 0. -1.
         11    1    6    6    0    0  0.28423630046E+02 -0.15849841210E+02  0.28497547718E+03  0.28682772321E+03  0.00000000000E+00 0. -1.
        -12    1    6    6    0    0  0.51893070307E+02  0.59843470435E+02  0.28381824655E+03  0.29466409482E+03  0.00000000000E+00 0.  1.
         -5    1    5    5    0  501 -0.54566508543E+02  0.22068304808E+02  0.15221091465E+03  0.16326287536E+03  0.47000000000E+01 0.  1.
<mgrwt>
<rscale>  2 0.18745069E+03</rscale>
<asrwt>0</asrwt>
<pdfrwt beam="1">  1        2 0.14317789E+00 0.18745069E+03</pdfrwt>
<pdfrwt beam="2">  1       -2 0.87241211E-02 0.18745069E+03</pdfrwt>
<totfact> 0.23789432E+03</totfact>
</mgrwt>
</event>
<event>
12    1  0.1093377E-001  0.2102249E+03  0.7546771E-02  0.1141388E+00
         -2   -1    0    0    0  501 -0.00000000000E+00  0.00000000000E+00  0.10652279219E+03  0.10652279219E+03  0.00000000000E+00 0. -1.
          2   -1    0    0  503    0  0.00000000000E+00 -0.00000000000E+00 -0.44771399816E+03  0.44771399816E+03  0.00000000000E+00 0.  1.
          6    2    1    2  503    0 -0.20531636287E+02 -0.11861689451E+03 -0.95376598607E+02  0.23063439445E+03  0.17205816630E+03 0.  0.
         24    2    3    3    0    0 -0.18481205485E+02 -0.26095535183E+02 -0.10681849767E+03  0.13726730575E+03  0.80059914247E+02 0.  0.
         -6    2    1    2    0  501  0.20531636287E+02  0.11861689451E+03 -0.24581460736E+03  0.32360239591E+03  0.17263306083E+03 0.  0.
        -24    2    5    5    0    0  0.78905607790E+02  0.72997339413E+02 -0.15362405472E+03  0.20523917378E+03  0.83474916964E+02 0.  0.
          2    1    4    4  502    0 -0.41480435052E+02 -0.31295218588E+02 -0.10004458403E+03  0.11273391678E+03  0.00000000000E+00 0. -1.
         -1    1    4    4    0  502  0.22999229568E+02  0.51996834054E+01 -0.67739136439E+01  0.24533388969E+02  0.00000000000E+00 0.  1.
          5    1    3    3  503    0 -0.20504308025E+01 -0.92521359331E+02  0.11441899065E+02  0.93367088704E+02  0.47000000000E+01 0. -1.
         11    1    6    6    0    0  0.21638088979E+02 -0.15563420266E+02 -0.13546749146E+02  0.29898852110E+02  0.00000000000E+00 0. -1.
        -12    1    6    6    0    0  0.57267518811E+02  0.88560759679E+02 -0.14007730558E+03  0.17534032167E+03  0.00000000000E+00 0.  1.
         -5    1    5    5    0  501 -0.58373971503E+02  0.45619555100E+02 -0.92190552639E+02  0.11836322213E+03  0.47000000000E+01 0.  1.
<mgrwt>
<rscale>  2 0.21022487E+03</rscale>
<asrwt>0</asrwt>
<pdfrwt beam="2">  1        2 0.68879078E-01 0.21022487E+03</pdfrwt>
<pdfrwt beam="1">  1       -2 0.16388122E-01 0.21022487E+03</pdfrwt>
<totfact> 0.20635858E+03</totfact>
</mgrwt>
</event>
<event>
12    1  0.1093377E-001  0.1808342E+03  0.7546771E-02  0.1166998E+00
          2   -1    0    0  503    0  0.00000000000E+00  0.00000000000E+00  0.18273301685E+04  0.18273301685E+04  0.00000000000E+00 0. -1.
         -2   -1    0    0    0  501 -0.00000000000E+00 -0.00000000000E+00 -0.18021894641E+02  0.18021894641E+02  0.00000000000E+00 0.  1.
          6    2    1    2  503    0 -0.30623039640E+02  0.44149968087E+02  0.82700917732E+03  0.84653273266E+03  0.17258765267E+03 0.  0.
         24    2    3    3    0    0  0.18923380793E+01 -0.38262205864E+02  0.45037618022E+03  0.45959149590E+03  0.83174888341E+02 0.  0.
         -6    2    1    2    0  501  0.30623039640E+02 -0.44149968087E+02  0.98229909656E+03  0.99881933051E+03  0.17274706841E+03 0.  0.
        -24    2    5    5    0    0  0.69198278040E+01 -0.98057639990E+01  0.92384371403E+03  0.92684372108E+03  0.73539365778E+02 0.  0.
          4    1    4    4  502    0  0.69631473177E+01 -0.46261486272E+02  0.44714311949E+03  0.44958378512E+03  0.00000000000E+00 0. -1.
         -3    1    4    4    0  502 -0.50708092384E+01  0.79992804081E+01  0.32330607297E+01  0.10007710780E+02  0.00000000000E+00 0.  1.
          5    1    3    3  503    0 -0.32515377719E+02  0.82412173951E+02  0.37663299710E+03  0.38694123676E+03  0.47000000000E+01 0. -1.
         13    1    6    6    0    0  0.26309118438E+02 -0.22887435059E+02  0.23212502591E+03  0.23472969997E+03  0.00000000000E+00 0. -1.
        -14    1    6    6    0    0 -0.19389290634E+02  0.13081671060E+02  0.69171868812E+03  0.69211402110E+03  0.00000000000E+00 0.  1.
         -5    1    5    5    0  501  0.23703211836E+02 -0.34344204088E+02  0.58455382535E+02  0.71975609432E+02  0.47000000000E+01 0.  1.
<mgrwt>
<rscale>  2 0.18083418E+03</rscale>
<asrwt>0</asrwt>
<pdfrwt beam="1">  1        2 0.28112757E+00 0.18083418E+03</pdfrwt>
<pdfrwt beam="2">  1       -2 0.27726006E-02 0.18083418E+03</pdfrwt>
<totfact> 0.43475935E+03</totfact>
</mgrwt>
</event>
<event>
12    1  0.1093377E-001  0.1899221E+03  0.7546771E-02  0.1158532E+00
         -1   -1    0    0    0  501 -0.00000000000E+00  0.00000000000E+00  0.10858506990E+04  0.10858506990E+04  0.00000000000E+00 0.  1.
          1   -1    0    0  503    0  0.00000000000E+00 -0.00000000000E+00 -0.34639955301E+02  0.34639955301E+02  0.00000000000E+00 0. -1.
          6    2    1    2  503    0  0.55846465482E+02  0.53033530756E+02  0.63646865572E+03  0.66392351732E+03  0.17254189070E+03 0.  0.
         24    2    3    3    0    0  0.89447130227E+02  0.28181902598E+02  0.30401281399E+03  0.32881818344E+03  0.83081874988E+02 0.  0.
         -6    2    1    2    0  501 -0.55846465482E+02 -0.53033530756E+02  0.41474208795E+03  0.45656713695E+03  0.17467446275E+03 0.  0.
        -24    2    5    5    0    0  0.35601215502E+02 -0.43836078788E+02  0.13527493720E+03  0.16233721014E+03  0.69749643834E+02 0.  0.
          2    1    4    4  502    0  0.66183644837E+02  0.14208078393E+00  0.89938917429E+02  0.11166603736E+03  0.00000000000E+00 0. -1.
         -1    1    4    4    0  502  0.23263485390E+02  0.28039821815E+02  0.21407389656E+03  0.21715214608E+03  0.00000000000E+00 0.  1.
          5    1    3    3  503    0 -0.33600664745E+02  0.24851628157E+02  0.33245584173E+03  0.33510533388E+03  0.47000000000E+01 0. -1.
         13    1    6    6    0    0  0.25420049325E+02 -0.54861182338E+02  0.13431786859E+03  0.14729975579E+03  0.00000000000E+00 0. -1.
        -14    1    6    6    0    0  0.10181166177E+02  0.11025103550E+02  0.95706861048E+00  0.15037454350E+02  0.00000000000E+00 0.  1.
         -5    1    5    5    0  501 -0.91447680983E+02 -0.91974519677E+01  0.27946715075E+03  0.29422992681E+03  0.47000000000E+01 0.  1.
<mgrwt>
<rscale>  2 0.18992214E+03</rscale>
<asrwt>0</asrwt>
<pdfrwt beam="2">  1        1 0.53292247E-02 0.18992214E+03</pdfrwt>
<pdfrwt beam="1">  1       -1 0.16705393E+00 0.18992214E+03</pdfrwt>
<totfact> 0.43020642E+02</totfact>
</mgrwt>
</event>
<event>
12    1  0.1093377E-001  0.2151319E+03  0.7546771E-02  0.1137565E+00
         -1   -1    0    0    0  501 -0.00000000000E+00  0.00000000000E+00  0.10176776348E+03  0.10176776348E+03  0.00000000000E+00 0.  1.
          1   -1    0    0  503    0  0.00000000000E+00 -0.00000000000E+00 -0.62532616726E+03  0.62532616726E+03  0.00000000000E+00 0. -1.
          6    2    1    2  503    0 -0.99289307624E+02  0.80148347331E+02 -0.72235305096E+02  0.22727213891E+03  0.17364492977E+03 0.  0.
         24    2    3    3    0    0 -0.13397666205E+03  0.50862043568E+02 -0.77166229385E+02  0.18136675623E+03  0.80016122475E+02 0.  0.
         -6    2    1    2    0  501  0.99289307624E+02 -0.80148347331E+02 -0.45132309869E+03  0.49982179182E+03  0.17276330624E+03 0.  0.
        -24    2    5    5    0    0  0.19674128858E+02 -0.72416094120E+02 -0.14814115410E+03  0.18623010515E+03  0.84289314209E+02 0.  0.
          2    1    4    4  502    0  0.53317013925E+01 -0.49311491176E+01 -0.19142896519E+02  0.20474221805E+02  0.00000000000E+00 0. -1.
         -1    1    4    4    0  502 -0.13930836345E+03  0.55793192685E+02 -0.58023332866E+02  0.16089253442E+03  0.00000000000E+00 0.  1.
          5    1    3    3  503    0  0.34687354429E+02  0.29286303763E+02  0.49309242892E+01  0.45905382688E+02  0.47000000000E+01 0. -1.
         13    1    6    6    0    0  0.32559322908E+02 -0.10357320177E+02 -0.10271960849E+03  0.10825295173E+03  0.00000000000E+00 0. -1.
        -14    1    6    6    0    0 -0.12885194050E+02 -0.62058773944E+02 -0.45421545609E+02  0.77977153414E+02  0.00000000000E+00 0.  1.
         -5    1    5    5    0  501  0.79615178766E+02 -0.77322532106E+01 -0.30318194458E+03  0.31359168667E+03  0.47000000000E+01 0.  1.
<mgrwt>
<rscale>  2 0.21513190E+03</rscale>
<asrwt>0</asrwt>
<pdfrwt beam="2">  1        1 0.96204025E-01 0.21513190E+03</pdfrwt>
<pdfrwt beam="1">  1       -1 0.15656579E-01 0.21513190E+03</pdfrwt>
<totfact> 0.99728342E+02</totfact>
</mgrwt>
</event>
<event>
12    1  0.1093377E-001  0.1892226E+03  0.7546771E-02  0.1159164E+00
         -2   -1    0    0    0  501 -0.00000000000E+00  0.00000000000E+00  0.85829921053E+02  0.85829921053E+02  0.00000000000E+00 0. -1.
          2   -1    0    0  503    0  0.00000000000E+00 -0.00000000000E+00 -0.41770402566E+03  0.41770402566E+03  0.00000000000E+00 0.  1.
          6    2    1    2  503    0 -0.74435311039E+02 -0.18706687659E+02 -0.15690446111E+03  0.24582656524E+03  0.17297726605E+03 0.  0.
         24    2    3    3    0    0 -0.47161089263E+02  0.55712476523E+02 -0.10406740114E+03  0.15045392725E+03  0.80487960990E+02 0.  0.
         -6    2    1    2    0  501  0.74435311039E+02  0.18706687659E+02 -0.17496964350E+03  0.25770738147E+03  0.17293976589E+03 0.  0.
        -24    2    5    5    0    0  0.37550428390E+02 -0.10568260267E+02 -0.14611633629E+02  0.90511991364E+02  0.80356691981E+02 0.  0.
          2    1    4    4  502    0 -0.64084283906E-02  0.30224047234E+02  0.33459787187E+01  0.30408693590E+02  0.00000000000E+00 0. -1.
         -1    1    4    4    0  502 -0.47154680835E+02  0.25488429290E+02 -0.10741337985E+03  0.12004523366E+03  0.00000000000E+00 0.  1.
          5    1    3    3  503    0 -0.27274221776E+02 -0.74419164182E+02 -0.52837059974E+02  0.95372637993E+02  0.47000000000E+01 0. -1.
         11    1    6    6    0    0 -0.22508880760E+01  0.28749738498E+02  0.83716049829E+01  0.30028282182E+02  0.00000000000E+00 0. -1.
        -12    1    6    6    0    0  0.39801316466E+02 -0.39317998765E+02 -0.22983238612E+02  0.60483709182E+02  0.00000000000E+00 0.  1.
         -5    1    5    5    0  501  0.36884882649E+02  0.29274947926E+02 -0.16035800987E+03  0.16719539011E+03  0.47000000000E+01 0.  1.
<mgrwt>
<rscale>  2 0.18922263E+03</rscale>
<asrwt>0</asrwt>
<pdfrwt beam="2">  1        2 0.64262158E-01 0.18922263E+03</pdfrwt>
<pdfrwt beam="1">  1       -2 0.13204603E-01 0.18922263E+03</pdfrwt>
<totfact> 0.31655606E+03</totfact>
</mgrwt>
</event>
<event>
12    1  0.1093377E-001  0.2160103E+03  0.7546771E-02  0.1136893E+00
         -2   -1    0    0    0  501 -0.00000000000E+00  0.00000000000E+00  0.65376627792E+03  0.65376627792E+03  0.00000000000E+00 0. -1.
          2   -1    0    0  503    0  0.00000000000E+00 -0.00000000000E+00 -0.72628996425E+02  0.72628996425E+02  0.00000000000E+00 0.  1.
          6    2    1    2  503    0 -0.80474510978E+02  0.99554008868E+02  0.24372734924E+03  0.32614133169E+03  0.17486566234E+03 0.  0.
         24    2    3    3    0    0 -0.49129601952E+02  0.10984895637E+03  0.25384501877E+03  0.29131395018E+03  0.77110394982E+02 0.  0.
         -6    2    1    2    0  501  0.80474510978E+02 -0.99554008868E+02  0.33740993225E+03  0.40025394266E+03  0.17312021440E+03 0.  0.
        -24    2    5    5    0    0  0.53401050841E+02 -0.63273128328E+02  0.33485080768E+03  0.35466980447E+03  0.82525425152E+02 0.  0.
          2    1    4    4  502    0 -0.17601090843E+02  0.19611279440E+02  0.14092991240E+03  0.14337238538E+03  0.00000000000E+00 0. -1.
         -1    1    4    4    0  502 -0.31528511109E+02  0.90237676931E+02  0.11291510637E+03  0.14794156480E+03  0.00000000000E+00 0.  1.
          5    1    3    3  503    0 -0.31344909026E+02 -0.10294947503E+02 -0.10117669522E+02  0.34827381505E+02  0.47000000000E+01 0. -1.
         13    1    6    6    0    0  0.65278367764E+02 -0.67450835349E+02  0.32609011903E+03  0.33933117484E+03  0.00000000000E+00 0. -1.
        -14    1    6    6    0    0 -0.11877316923E+02  0.41777070216E+01  0.87606886487E+01  0.15338629627E+02  0.00000000000E+00 0.  1.
         -5    1    5    5    0  501  0.27073460137E+02 -0.36280880541E+02  0.25591245746E+01  0.45584138197E+02  0.47000000000E+01 0.  1.
<mgrwt>
<rscale>  2 0.21601033E+03</rscale>
<asrwt>0</asrwt>
<pdfrwt beam="2">  1        2 0.11173692E-01 0.21601033E+03</pdfrwt>
<pdfrwt beam="1">  1       -2 0.10057942E+00 0.21601033E+03</pdfrwt>
<totfact> 0.47081121E+02</totfact>
</mgrwt>
</event>
<event>
12    1  0.1093377E-001  0.2865045E+03  0.7546771E-02  0.1092188E+00
          2   -1    0    0  503    0  0.00000000000E+00  0.00000000000E+00  0.22488749036E+04  0.22488749036E+04  0.00000000000E+00 0. -1.
         -2   -1    0    0    0  501 -0.00000000000E+00 -0.00000000000E+00 -0.37115825538E+02  0.37115825538E+02  0.00000000000E+00 0.  1.
          6    2    1    2  503    0  0.22343574454E+03  0.47871038516E+02  0.95884831423E+03  0.10007484591E+04  0.17289366823E+03 0.  0.
         24    2    3    3    0    0  0.55858545268E+02 -0.84400323965E+01  0.22414409410E+03  0.24505974314E+03  0.81377463470E+02 0.  0.
         -6    2    1    2    0  501 -0.22343574454E+03 -0.47871038516E+02  0.12529107638E+04  0.12852422700E+04  0.17276325474E+03 0.  0.
        -24    2    5    5    0    0 -0.11502038797E+03 -0.41703709658E+02  0.98915821893E+03  0.99997148560E+03  0.80870890275E+02 0.  0.
          2    1    4    4  502    0  0.40956811246E+01 -0.31782641877E+02  0.13950312476E+03  0.14313641307E+03  0.00000000000E+00 0. -1.
         -1    1    4    4    0  502  0.51762864143E+02  0.23342609480E+02  0.84640969345E+02  0.10192333007E+03  0.00000000000E+00 0.  1.
          5    1    3    3  503    0  0.16757719927E+03  0.56311070912E+02  0.73470422013E+03  0.75568871601E+03  0.47000000000E+01 0. -1.
         11    1    6    6    0    0 -0.85025931096E+02 -0.66278979184E+02  0.74146590932E+03  0.74926230836E+03  0.00000000000E+00 0. -1.
        -12    1    6    6    0    0 -0.29994456875E+02  0.24575269526E+02  0.24769230961E+03  0.25070917724E+03  0.00000000000E+00 0.  1.
         -5    1    5    5    0  501 -0.10841535657E+03 -0.61673288576E+01  0.26375254491E+03  0.28527078440E+03  0.47000000000E+01 0.  1.
<mgrwt>
<rscale>  2 0.28650453E+03</rscale>
<asrwt>0</asrwt>
<pdfrwt beam="1">  1        2 0.34598065E+00 0.28650453E+03</pdfrwt>
<pdfrwt beam="2">  1       -2 0.57101288E-02 0.28650453E+03</pdfrwt>
<totfact> 0.87404681E+02</totfact>
</mgrwt>
</event>
<event>
12    1  0.1093377E-001  0.1931158E+03  0.7546771E-02  0.1155681E+00
         -4   -1    0    0    0  501 -0.00000000000E+00  0.00000000000E+00  0.15668152855E+04  0.15668152855E+04  0.00000000000E+00 0.  1.
          4   -1    0    0  503    0  0.00000000000E+00 -0.00000000000E+00 -0.24226774678E+02  0.24226774678E+02  0.00000000000E+00 0. -1.
          6    2    1    2  503    0  0.62576084181E+02  0.58664739579E+02  0.87450943940E+03  0.89546487672E+03  0.17243337225E+03 0.  0.
         24    2    3    3    0    0  0.10229282348E+03  0.23092301874E+02  0.72532130036E+03  0.73696563844E+03  0.77654924815E+02 0.  0.
         -6    2    1    2    0  501 -0.62576084181E+02 -0.58664739579E+02  0.66807907147E+03  0.69557718350E+03  0.17361064049E+03 0.  0.
        -24    2    5    5    0    0 -0.13913732125E+02 -0.64585448054E+02  0.61005618818E+03  0.61947314759E+03  0.84932654557E+02 0.  0.
          4    1    4    4  502    0  0.59857672356E+02  0.36859863564E+02  0.25432855151E+03  0.26386474300E+03  0.00000000000E+00 0. -1.
         -3    1    4    4    0  502  0.42435151128E+02 -0.13767561690E+02  0.47099274885E+03  0.47310089545E+03  0.00000000000E+00 0.  1.
          5    1    3    3  503    0 -0.39716739303E+02  0.35572437705E+02  0.14918813904E+03  0.15849923828E+03  0.47000000000E+01 0. -1.
         11    1    6    6    0    0  0.29189979163E+02  0.88108667244E+00  0.17060174536E+03  0.17308317861E+03  0.00000000000E+00 0. -1.
        -12    1    6    6    0    0 -0.43103711288E+02 -0.65466534726E+02  0.43945444281E+03  0.44638996898E+03  0.00000000000E+00 0.  1.
         -5    1    5    5    0  501 -0.48662352056E+02  0.59207084745E+01  0.58022883295E+02  0.76104035914E+02  0.47000000000E+01 0.  1.
<mgrwt>
<rscale>  2 0.19311583E+03</rscale>
<asrwt>0</asrwt>
<pdfrwt beam="2">  1        4 0.37271973E-02 0.19311583E+03</pdfrwt>
<pdfrwt beam="1">  1       -4 0.24104843E+00 0.19311583E+03</pdfrwt>
<totfact> 0.55548863E+01</totfact>
</mgrwt>
</event>
<event>
12    1  0.1093377E-001  0.1943324E+03  0.7546771E-02  0.1154611E+00
          2   -1    0    0  503    0  0.00000000000E+00  0.00000000000E+00  0.14511113444E+03  0.14511113444E+03  0.00000000000E+00 0. -1.
         -2   -1    0    0    0  501 -0.00000000000E+00 -0.00000000000E+00 -0.27791990671E+03  0.27791990671E+03  0.00000000000E+00 0.  1.
          6    2    1    2  503    0  0.74115799514E+02  0.47843645727E+02 -0.11985172378E+03  0.22862316060E+03  0.17355675641E+03 0.  0.
         24    2    3    3    0    0  0.29652347492E+02  0.95506907598E+02 -0.68312026734E+02  0.14539326531E+03  0.80447731425E+02 0.  0.
         -6    2    1    2    0  501 -0.74115799514E+02 -0.47843645727E+02 -0.12957048490E+02  0.19440788055E+03  0.17275523940E+03 0.  0.
        -24    2    5    5    0    0 -0.58243789767E+02 -0.65621524467E+02 -0.66244950167E+02  0.13584454619E+03  0.79792379254E+02 0.  0.
          2    1    4    4  502    0 -0.19563057433E+02  0.70417049967E+02 -0.37630500833E+02  0.82202972788E+02  0.00000000000E+00 0. -1.
         -1    1    4    4    0  502  0.49215404926E+02  0.25089857631E+02 -0.30681525901E+02  0.63190292526E+02  0.00000000000E+00 0.  1.
          5    1    3    3  503    0  0.44463452022E+02 -0.47663261871E+02 -0.51539697043E+02  0.83229895285E+02  0.47000000000E+01 0. -1.
         13    1    6    6    0    0 -0.24967737006E+02 -0.18225029351E+02  0.16350527139E+02  0.34969691503E+02  0.00000000000E+00 0. -1.
        -14    1    6    6    0    0 -0.33276052760E+02 -0.47396495116E+02 -0.82595477306E+02  0.10087485469E+03  0.00000000000E+00 0.  1.
         -5    1    5    5    0  501 -0.15872009747E+02  0.17777878740E+02  0.53287901677E+02  0.58563334357E+02  0.47000000000E+01 0.  1.
<mgrwt>
<rscale>  2 0.19433237E+03</rscale>
<asrwt>0</asrwt>
<pdfrwt beam="1">  1        2 0.22324790E-01 0.19433237E+03</pdfrwt>
<pdfrwt beam="2">  1       -2 0.42756909E-01 0.19433237E+03</pdfrwt>
<totfact> 0.12694009E+03</totfact>
</mgrwt>
</event>
<event>
12    1  0.1093377E-001  0.3267580E+03  0.7546771E-02  0.1072580E+00
          1   -1    0    0  503    0  0.00000000000E+00  0.00000000000E+00  0.30825079982E+03  0.30825079982E+03  0.00000000000E+00 0. -1.
         -1   -1    0    0    0  501 -0.00000000000E+00 -0.00000000000E+00 -0.35049051219E+03  0.35049051219E+03  0.00000000000E+00 0.  1.
          6    2    1    2  503    0  0.57176595319E+01  0.27688891498E+03  0.14550599584E+02  0.32730644715E+03  0.17383218209E+03 0.  0.
         24    2    3    3    0    0 -0.38563186377E+02  0.26645146185E+03  0.76540168883E+01  0.28105294355E+03  0.80303625333E+02 0.  0.
         -6    2    1    2    0  501 -0.57176595319E+01 -0.27688891498E+03 -0.56790311958E+02  0.33143486486E+03  0.17298487577E+03 0.  0.
        -24    2    5    5    0    0 -0.69627577548E+02 -0.20175371302E+03 -0.46609124545E+02  0.23215987923E+03  0.78569960946E+02 0.  0.
          4    1    4    4  502    0 -0.56467654820E+02  0.11585923369E+03  0.11067330438E+02  0.12936167855E+03  0.00000000000E+00 0. -1.
         -3    1    4    4    0  502  0.17904468443E+02  0.15059222815E+03 -0.34133135502E+01  0.15169126501E+03  0.00000000000E+00 0.  1.
          5    1    3    3  503    0  0.44280845909E+02  0.10437453129E+02  0.68965826953E+01  0.46253503598E+02  0.47000000000E+01 0. -1.
         11    1    6    6    0    0 -0.50467687497E+02 -0.14028702421E+03  0.57111601144E+01  0.14919803616E+03  0.00000000000E+00 0. -1.
        -12    1    6    6    0    0 -0.19159890051E+02 -0.61466688803E+02 -0.52320284659E+02  0.82961843072E+02  0.00000000000E+00 0.  1.
         -5    1    5    5    0  501  0.63909918016E+02 -0.75135201962E+02 -0.10181187413E+02  0.99274985630E+02  0.47000000000E+01 0.  1.
<mgrwt>
<rscale>  2 0.32675795E+03</rscale>
<asrwt>0</asrwt>
<pdfrwt beam="1">  1        1 0.47423200E-01 0.32675795E+03</pdfrwt>
<pdfrwt beam="2">  1       -1 0.53921617E-01 0.32675795E+03</pdfrwt>
<totfact> 0.30273849E+02</totfact>
</mgrwt>
</event>
<event>
12    1  0.1093377E-001  0.3960402E+03  0.7546771E-02  0.1045160E+00
          2   -1    0    0  503    0  0.00000000000E+00  0.00000000000E+00  0.18851249866E+03  0.18851249866E+03  0.00000000000E+00 0. -1.
         -2   -1    0    0    0  501 -0.00000000000E+00 -0.00000000000E+00 -0.84008181311E+03  0.84008181311E+03  0.00000000000E+00 0.  1.
          6    2    1    2  503    0  0.10603641320E+03  0.34020559822E+03 -0.37633541620E+03  0.54650610000E+03  0.17336955288E+03 0.  0.
         24    2    3    3    0    0  0.62084524456E+02  0.10673535881E+03 -0.20779490583E+03  0.25518477423E+03  0.81814553174E+02 0.  0.
         -6    2    1    2    0  501 -0.10603641320E+03 -0.34020559822E+03 -0.27523389825E+03  0.48208821176E+03  0.17225497145E+03 0.  0.
        -24    2    5    5    0    0 -0.12472751359E+02 -0.59069369417E+02 -0.76142678077E+02  0.12508521190E+03  0.78764477279E+02 0.  0.
          4    1    4    4  502    0  0.27018217526E+02 -0.54375285356E+01 -0.62508067484E+02  0.68314049035E+02  0.00000000000E+00 0. -1.
         -3    1    4    4    0  502  0.35066306930E+02  0.11217288735E+03 -0.14528683835E+03  0.18687072520E+03  0.00000000000E+00 0.  1.
          5    1    3    3  503    0  0.43951888741E+02  0.23347023941E+03 -0.16854051037E+03  0.29132132577E+03  0.47000000000E+01 0. -1.
         13    1    6    6    0    0 -0.10323977089E+02 -0.26130984300E+02  0.12309517058E+02  0.30674697287E+02  0.00000000000E+00 0. -1.
        -14    1    6    6    0    0 -0.21487742698E+01 -0.32938385117E+02 -0.88452195135E+02  0.94410514611E+02  0.00000000000E+00 0.  1.
         -5    1    5    5    0  501 -0.93563661838E+02 -0.28113622880E+03 -0.19909122017E+03  0.35700299986E+03  0.47000000000E+01 0.  1.
<mgrwt>
<rscale>  2 0.39604020E+03</rscale>
<asrwt>0</asrwt>
<pdfrwt beam="1">  1        2 0.29001922E-01 0.39604020E+03</pdfrwt>
<pdfrwt beam="2">  1       -2 0.12924336E+00 0.39604020E+03</pdfrwt>
<totfact> 0.83920131E+01</totfact>
</mgrwt>
</event>
<event>
12    1  0.1093377E-001  0.2204652E+03  0.7546771E-02  0.1133537E+00
          1   -1    0    0  503    0  0.00000000000E+00  0.00000000000E+00  0.62044449990E+02  0.62044449990E+02  0.00000000000E+00 0. -1.
         -1   -1    0    0    0  501 -0.00000000000E+00 -0.00000000000E+00 -0.79654358576E+03  0.79654358576E+03  0.00000000000E+00 0.  1.
          6    2    1    2  503    0 -0.95799014664E+01 -0.13637570494E+03 -0.42229488894E+03  0.47634492422E+03  0.17286239091E+03 0.  0.
         24    2    3    3    0    0  0.10917170269E+01 -0.16521997221E+03 -0.39152964363E+03  0.43259031857E+03  0.80870827991E+02 0.  0.
         -6    2    1    2    0  501  0.95799014664E+01  0.13637570494E+03 -0.31220424683E+03  0.38224311153E+03  0.17305547425E+03 0.  0.
        -24    2    5    5    0    0  0.39030015703E+02  0.55014290417E+02 -0.26293862067E+03  0.28256271766E+03  0.78454170682E+02 0.  0.
          4    1    4    4  502    0  0.34720236614E+02 -0.12206183934E+03 -0.24000533301E+03  0.27149060264E+03  0.00000000000E+00 0. -1.
         -3    1    4    4    0  502 -0.33628519587E+02 -0.43158132875E+02 -0.15152431062E+03  0.16109971593E+03  0.00000000000E+00 0.  1.
          5    1    3    3  503    0 -0.10671618493E+02  0.28844267273E+02 -0.30765245315E+02  0.43754605644E+02  0.47000000000E+01 0. -1.
         11    1    6    6    0    0 -0.13600809571E+02 -0.93306044525E+01 -0.20760891306E+02  0.26515218427E+02  0.00000000000E+00 0. -1.
        -12    1    6    6    0    0  0.52630825275E+02  0.64344894869E+02 -0.24217772936E+03  0.25604749923E+03  0.00000000000E+00 0.  1.
         -5    1    5    5    0  501 -0.29450114237E+02  0.81361414521E+02 -0.49265626159E+02  0.99680393871E+02  0.47000000000E+01 0.  1.
<mgrwt>
<rscale>  2 0.22046518E+03</rscale>
<asrwt>0</asrwt>
<pdfrwt beam="1">  1        1 0.95453009E-02 0.22046518E+03</pdfrwt>
<pdfrwt beam="2">  1       -1 0.12254516E+00 0.22046518E+03</pdfrwt>
<totfact> 0.43024605E+02</totfact>
</mgrwt>
</event>
<event>
12    1  0.1093377E-001  0.3274630E+03  0.7546771E-02  0.1072265E+00
         -2   -1    0    0    0  501 -0.00000000000E+00  0.00000000000E+00  0.31746151500E+02  0.31746151500E+02  0.00000000000E+00 0.  1.
          2   -1    0    0  503    0  0.00000000000E+00 -0.00000000000E+00 -0.34017225078E+04  0.34017225078E+04  0.00000000000E+00 0. -1.
          6    2    1    2  503    0 -0.23117428479E+03  0.15510672705E+03 -0.15405017408E+04  0.15749007276E+04  0.17224123110E+03 0.  0.
         24    2    3    3    0    0 -0.73464632091E+02  0.12037045033E+03 -0.75838769033E+03  0.77627476922E+03  0.86974312287E+02 0.  0.
         -6    2    1    2    0  501  0.23117428479E+03 -0.15510672705E+03 -0.18294746155E+04  0.18585679317E+04  0.17262022252E+03 0.  0.
        -24    2    5    5    0    0  0.10248283423E+03 -0.64319659459E+02 -0.52832143593E+03  0.54790952166E+03  0.80259294496E+02 0.  0.
          4    1    4    4  502    0 -0.39859829627E+02  0.10527757766E+03 -0.68469663302E+03  0.69388879055E+03  0.00000000000E+00 0. -1.
         -3    1    4    4    0  502 -0.33604802464E+02  0.15092872670E+02 -0.73691057303E+02  0.82385978665E+02  0.00000000000E+00 0.  1.
          5    1    3    3  503    0 -0.15770965270E+03  0.34736276719E+02 -0.78211405046E+03  0.79862595838E+03  0.47000000000E+01 0. -1.
         11    1    6    6    0    0 -0.74204398706E+01 -0.23280756423E+02 -0.14477416581E+03  0.14682171377E+03  0.00000000000E+00 0. -1.
        -12    1    6    6    0    0  0.10990327410E+03 -0.41038903036E+02 -0.38354727012E+03  0.40108780789E+03  0.00000000000E+00 0.  1.
         -5    1    5    5    0  501  0.12869145056E+03 -0.90787067594E+02 -0.13011531796E+04  0.13106584100E+04  0.47000000000E+01 0.  1.
<mgrwt>
<rscale>  2 0.32746300E+03</rscale>
<asrwt>0</asrwt>
<pdfrwt beam="2">  1        2 0.52334190E+00 0.32746300E+03</pdfrwt>
<pdfrwt beam="1">  1       -2 0.48840235E-02 0.32746300E+03</pdfrwt>
<totfact> 0.23484264E+02</totfact>
</mgrwt>
</event>
<event>
12    1  0.1093377E-001  0.3275912E+03  0.7546771E-02  0.1072208E+00
          1   -1    0    0  503    0  0.00000000000E+00  0.00000000000E+00  0.84696214104E+03  0.84696214104E+03  0.00000000000E+00 0.  1.
         -1   -1    0    0    0  501 -0.00000000000E+00 -0.00000000000E+00 -0.13224608672E+03  0.13224608672E+03  0.00000000000E+00 0. -1.
          6    2    1    2  503    0  0.27591979041E+03  0.44027190081E+02  0.25681110778E+03  0.41599370081E+03  0.17037807907E+03 0.  0.
         24    2    3    3    0    0  0.17332452154E+03  0.60309739552E+02  0.90034002995E+02  0.21945463779E+03  0.79847115800E+02 0.  0.
         -6    2    1    2    0  501 -0.27591979041E+03 -0.44027190081E+02  0.45790494654E+03  0.56321452695E+03  0.17164946576E+03 0.  0.
        -24    2    5    5    0    0 -0.18247767585E+03 -0.96307931757E+02  0.30055648210E+03  0.37283245326E+03  0.78080211087E+02 0.  0.
          2    1    4    4  502    0  0.16910946147E+03  0.62879322133E+02  0.61678520069E+02  0.19067264867E+03  0.00000000000E+00 0. -1.
         -1    1    4    4    0  502  0.42150600653E+01 -0.25695825813E+01  0.28355482926E+02  0.28781989125E+02  0.00000000000E+00 0.  1.
          5    1    3    3  503    0  0.10259526887E+03 -0.16282549471E+02  0.16677710478E+03  0.19653906302E+03  0.47000000000E+01 0. -1.
         11    1    6    6    0    0 -0.52344960867E+02 -0.15863735961E+02  0.30956540749E+02  0.62848710902E+02  0.00000000000E+00 0. -1.
        -12    1    6    6    0    0 -0.13013271499E+03 -0.80444195796E+02  0.26959994135E+03  0.30998374235E+03  0.00000000000E+00 0.  1.
         -5    1    5    5    0  501 -0.93442114559E+02  0.52280741676E+02  0.15734846444E+03  0.19038207370E+03  0.47000000000E+01 0.  1.
<mgrwt>
<rscale>  2 0.32759124E+03</rscale>
<asrwt>0</asrwt>
<pdfrwt beam="1">  1        1 0.13030186E+00 0.32759124E+03</pdfrwt>
<pdfrwt beam="2">  1       -1 0.20345552E-01 0.32759124E+03</pdfrwt>
<totfact> 0.41347547E+02</totfact>
</mgrwt>
</event>
<event>
12    1  0.1093377E-001  0.2075729E+03  0.7546771E-02  0.1143503E+00
         -2   -1    0    0    0  501 -0.00000000000E+00  0.00000000000E+00  0.72227341122E+02  0.72227341122E+02  0.00000000000E+00 0.  1.
          2   -1    0    0  503    0  0.00000000000E+00 -0.00000000000E+00 -0.72546572575E+03  0.72546572575E+03  0.00000000000E+00 0. -1.
          6    2    1    2  503    0  0.99190042289E+02  0.41867200276E+02 -0.16279978326E+03  0.26638527859E+03  0.18128932752E+03 0.  0.
         24    2    3    3    0    0  0.48185436560E+02  0.25919188319E+01 -0.63320956638E+01  0.97127354698E+02  0.84053990122E+02 0.  0.
         -6    2    1    2    0  501 -0.99190042289E+02 -0.41867200276E+02 -0.49043860136E+03  0.53130778828E+03  0.17368482153E+03 0.  0.
        -24    2    5    5    0    0 -0.46466357541E+02 -0.18167271687E+02 -0.10633130005E+03  0.14284674458E+03  0.81299907280E+02 0.  0.
          4    1    4    4  502    0 -0.15215948199E+02  0.46516841104E+01  0.22410630255E+02  0.27484533707E+02  0.00000000000E+00 0. -1.
         -3    1    4    4    0  502  0.63401384759E+02 -0.20597652785E+01 -0.28742725919E+02  0.69642820991E+02  0.00000000000E+00 0.  1.
          5    1    3    3  503    0  0.51004605729E+02  0.39275281445E+02 -0.15646768760E+03  0.16925792389E+03  0.47000000000E+01 0. -1.
         11    1    6    6    0    0 -0.20447981276E+02  0.11240271654E+02 -0.10047295094E+03  0.10314687351E+03  0.00000000000E+00 0. -1.
        -12    1    6    6    0    0 -0.26018376265E+02 -0.29407543341E+02 -0.58583491148E+01  0.39699871072E+02  0.00000000000E+00 0.  1.
         -5    1    5    5    0  501 -0.52723684747E+02 -0.23699928590E+02 -0.38410730131E+03  0.38846104370E+03  0.47000000000E+01 0.  1.
<mgrwt>
<rscale>  2 0.20757291E+03</rscale>
<asrwt>0</asrwt>
<pdfrwt beam="2">  1        2 0.11161011E+00 0.20757291E+03</pdfrwt>
<pdfrwt beam="1">  1       -2 0.11111899E-01 0.20757291E+03</pdfrwt>
<totfact> 0.22341963E+03</totfact>
</mgrwt>
</event>
<event>
12    1  0.1093377E-001  0.1777212E+03  0.7546771E-02  0.1170027E+00
         -2   -1    0    0    0  501 -0.00000000000E+00  0.00000000000E+00  0.56687825710E+02  0.56687825710E+02  0.00000000000E+00 0.  1.
          2   -1    0    0  503    0  0.00000000000E+00 -0.00000000000E+00 -0.63522081224E+03  0.63522081224E+03  0.00000000000E+00 0. -1.
          6    2    1    2  503    0 -0.22271449535E+02  0.31197584126E+02 -0.16773797511E+03  0.24424499608E+03  0.17335017478E+03 0.  0.
         24    2    3    3    0    0 -0.42804841787E+02  0.59996814078E+02 -0.45927197904E+02  0.11731599511E+03  0.78878786896E+02 0.  0.
         -6    2    1    2    0  501  0.22271449535E+02 -0.31197584126E+02 -0.41079501142E+03  0.44766364187E+03  0.17372647502E+03 0.  0.
        -24    2    5    5    0    0 -0.31421810689E+02  0.25223394383E+02 -0.29517253728E+03  0.30817550784E+03  0.78878178573E+02 0.  0.
          2    1    4    4  502    0 -0.10145819021E+02  0.12562736203E+02 -0.56501087742E+02  0.58763363591E+02  0.00000000000E+00 0. -1.
         -1    1    4    4    0  502 -0.32659022766E+02  0.47434077876E+02  0.10573889838E+02  0.58552631523E+02  0.00000000000E+00 0.  1.
          5    1    3    3  503    0  0.20533392251E+02 -0.28799229952E+02 -0.12181077720E+03  0.12692900097E+03  0.47000000000E+01 0. -1.
         13    1    6    6    0    0  0.83923040791E+01  0.50259030084E+01 -0.22364542910E+03  0.22385926031E+03  0.00000000000E+00 0. -1.
        -14    1    6    6    0    0 -0.39814114768E+02  0.20197491374E+02 -0.71527108180E+02  0.84316247528E+02  0.00000000000E+00 0.  1.
         -5    1    5    5    0  501  0.53693260224E+02 -0.56420978509E+02 -0.11562247414E+03  0.13948813404E+03  0.47000000000E+01 0.  1.
<mgrwt>
<rscale>  2 0.17772120E+03</rscale>
<asrwt>0</asrwt>
<pdfrwt beam="2">  1        2 0.97726276E-01 0.17772120E+03</pdfrwt>
<pdfrwt beam="1">  1       -2 0.87212042E-02 0.17772120E+03</pdfrwt>
<totfact> 0.38248665E+03</totfact>
</mgrwt>
</event>
<event>
12    1  0.1093377E-001  0.1955254E+03  0.7546771E-02  0.1153570E+00
         -2   -1    0    0    0  501 -0.00000000000E+00  0.00000000000E+00  0.64106645452E+02  0.64106645452E+02  0.00000000000E+00 0. -1.
          2   -1    0    0  503    0  0.00000000000E+00 -0.00000000000E+00 -0.11401995158E+04  0.11401995158E+04  0.00000000000E+00 0.  1.
          6    2    1    2  503    0 -0.18186314706E+02  0.88669442675E+02 -0.95205781277E+03  0.97167238935E+03  0.17187245641E+03 0.  0.
         24    2    3    3    0    0  0.48727356363E+01  0.37827824062E+00 -0.68229140945E+03  0.68685130186E+03  0.78862264832E+02 0.  0.
         -6    2    1    2    0  501  0.18186314706E+02 -0.88669442675E+02 -0.12403505755E+03  0.23263377187E+03  0.17475916058E+03 0.  0.
        -24    2    5    5    0    0  0.31307110494E+01  0.14319619145E+02 -0.17583527103E+02  0.83679294291E+02  0.80487210310E+02 0.  0.
          4    1    4    4  502    0  0.33053886001E+02  0.24185994006E+02 -0.29977702618E+03  0.30256203845E+03  0.00000000000E+00 0. -1.
         -3    1    4    4    0  502 -0.28181150364E+02 -0.23807715765E+02 -0.38251438327E+03  0.38428926341E+03  0.00000000000E+00 0.  1.
          5    1    3    3  503    0 -0.23059050342E+02  0.88291164434E+02 -0.26976640332E+03  0.28482108749E+03  0.47000000000E+01 0. -1.
         13    1    6    6    0    0  0.33666567187E+02  0.73242767514E+01 -0.33919500782E+02  0.48348891501E+02  0.00000000000E+00 0. -1.
        -14    1    6    6    0    0 -0.30535856137E+02  0.69953423936E+01  0.16335973679E+02  0.35330402790E+02  0.00000000000E+00 0.  1.
         -5    1    5    5    0  501  0.15055603656E+02 -0.10298906182E+03 -0.10645153044E+03  0.14895447757E+03  0.47000000000E+01 0.  1.
<mgrwt>
<rscale>  2 0.19552542E+03</rscale>
<asrwt>0</asrwt>
<pdfrwt beam="2">  1        2 0.17541530E+00 0.19552542E+03</pdfrwt>
<pdfrwt beam="1">  1       -2 0.98625613E-02 0.19552542E+03</pdfrwt>
<totfact> 0.14701524E+03</totfact>
</mgrwt>
</event>
<event>
12    1  0.1093377E-001  0.1750753E+03  0.7546771E-02  0.1172656E+00
          1   -1    0    0  503    0  0.00000000000E+00  0.00000000000E+00  0.31454235483E+03  0.31454235483E+03  0.00000000000E+00 0. -1.
         -1   -1    0    0    0  501 -0.00000000000E+00 -0.00000000000E+00 -0.11816138053E+03  0.11816138053E+03  0.00000000000E+00 0.  1.
          6    2    1    2  503    0 -0.29670533308E+02 -0.23535231480E+02  0.84187335878E+01  0.17698979547E+03  0.17268545092E+03 0.  0.
         24    2    3    3    0    0 -0.60173761244E+02 -0.56909596038E+02 -0.26635749636E+02  0.11958594614E+03  0.82047252797E+02 0.  0.
         -6    2    1    2    0  501  0.29670533308E+02  0.23535231480E+02  0.18796224071E+03  0.25571393990E+03  0.16919092014E+03 0.  0.
        -24    2    5    5    0    0  0.84125062000E+02  0.76369931536E+01  0.13635656700E+03  0.17888110033E+03  0.79183236676E+02 0.  0.
          4    1    4    4  502    0  0.11370194605E+02 -0.30900078396E+02 -0.28338886683E+02  0.43441784823E+02  0.00000000000E+00 0. -1.
         -3    1    4    4    0  502 -0.71543955849E+02 -0.26009517642E+02  0.17031370469E+01  0.76144161314E+02  0.00000000000E+00 0.  1.
          5    1    3    3  503    0  0.30503227936E+02  0.33374364558E+02  0.35054483224E+02  0.57403849333E+02  0.47000000000E+01 0. -1.
         13    1    6    6    0    0  0.38589329023E+02  0.40269603935E+02  0.91303367469E+02  0.10699103807E+03  0.00000000000E+00 0. -1.
        -14    1    6    6    0    0  0.45535732977E+02 -0.32632610781E+02  0.45053199526E+02  0.71890062260E+02  0.00000000000E+00 0.  1.
         -5    1    5    5    0  501 -0.54454528692E+02  0.15898238326E+02  0.51605673717E+02  0.76832839572E+02  0.47000000000E+01 0.  1.
<mgrwt>
<rscale>  2 0.17507525E+03</rscale>
<asrwt>0</asrwt>
<pdfrwt beam="1">  1        1 0.48391131E-01 0.17507525E+03</pdfrwt>
<pdfrwt beam="2">  1       -1 0.18178674E-01 0.17507525E+03</pdfrwt>
<totfact> 0.19190583E+03</totfact>
</mgrwt>
</event>
<event>
12    1  0.1093377E-001  0.2167832E+03  0.7546771E-02  0.1136304E+00
         -2   -1    0    0    0  501 -0.00000000000E+00  0.00000000000E+00  0.23250918662E+02  0.23250918662E+02  0.00000000000E+00 0.  1.
          2   -1    0    0  503    0  0.00000000000E+00 -0.00000000000E+00 -0.20958334361E+04  0.20958334361E+04  0.00000000000E+00 0. -1.
          6    2    1    2  503    0 -0.72007657850E+02  0.10788875038E+03 -0.83723139639E+03  0.86488916735E+03  0.17393037529E+03 0.  0.
         24    2    3    3    0    0 -0.48736164078E+02  0.88655233301E+02 -0.29603752328E+03  0.32283346090E+03  0.79675995169E+02 0.  0.
         -6    2    1    2    0  501  0.72007657850E+02 -0.10788875038E+03 -0.12353511211E+04  0.12541951874E+04  0.17345919005E+03 0.  0.
        -24    2    5    5    0    0  0.64807661231E+02 -0.48595815130E+02 -0.38190184935E+03  0.39864551528E+03  0.80669933163E+02 0.  0.
          2    1    4    4  502    0 -0.82016278509E+01  0.83306868296E+02 -0.23411652768E+03  0.24863195598E+03  0.00000000000E+00 0. -1.
         -1    1    4    4    0  502 -0.40534536227E+02  0.53483650051E+01 -0.61920995601E+02  0.74201504914E+02  0.00000000000E+00 0.  1.
          5    1    3    3  503    0 -0.23271493772E+02  0.19233517076E+02 -0.54119387311E+03  0.54205570645E+03  0.47000000000E+01 0. -1.
         11    1    6    6    0    0  0.13711241918E+02 -0.56377679587E+02 -0.25707611879E+03  0.26354235288E+03  0.00000000000E+00 0. -1.
        -12    1    6    6    0    0  0.51096419313E+02  0.77818644576E+01 -0.12482573056E+03  0.13510316240E+03  0.00000000000E+00 0.  1.
         -5    1    5    5    0  501  0.71999966194E+01 -0.59292935248E+02 -0.85344927172E+03  0.85554967215E+03  0.47000000000E+01 0.  1.
<mgrwt>
<rscale>  2 0.21678318E+03</rscale>
<asrwt>0</asrwt>
<pdfrwt beam="2">  1        2 0.32243593E+00 0.21678318E+03</pdfrwt>
<pdfrwt beam="1">  1       -2 0.35770643E-02 0.21678318E+03</pdfrwt>
<totfact> 0.21578194E+03</totfact>
</mgrwt>
</event>
<event>
12    1  0.1093377E-001  0.2177630E+03  0.7546771E-02  0.1135562E+00
          1   -1    0    0  503    0  0.00000000000E+00  0.00000000000E+00  0.41727048811E+03  0.41727048811E+03  0.00000000000E+00 0. -1.
         -1   -1    0    0    0  501 -0.00000000000E+00 -0.00000000000E+00 -0.11546314894E+03  0.11546314894E+03  0.00000000000E+00 0.  1.
          6    2    1    2  503    0  0.15568805262E+02 -0.13017517407E+03  0.11830655145E+03  0.24885504813E+03  0.17534090003E+03 0.  0.
         24    2    3    3    0    0 -0.45229871215E+02 -0.73687969771E+02  0.16922308398E+02  0.11775150870E+03  0.78124228903E+02 0.  0.
         -6    2    1    2    0  501 -0.15568805262E+02  0.13017517407E+03  0.18350078772E+03  0.28387858892E+03  0.17241389304E+03 0.  0.
        -24    2    5    5    0    0  0.52069660305E+02  0.61677889327E+02  0.13069712877E+03  0.17398247234E+03  0.81686900154E+02 0.  0.
          2    1    4    4  502    0 -0.15917422480E+02 -0.21304060688E+02  0.44383426818E+02  0.51740853455E+02  0.00000000000E+00 0. -1.
         -1    1    4    4    0  502 -0.29312448735E+02 -0.52383909082E+02 -0.27461118420E+02  0.66010655250E+02  0.00000000000E+00 0.  1.
          5    1    3    3  503    0  0.60798676477E+02 -0.56487204301E+02  0.10138424305E+03  0.13110353942E+03  0.47000000000E+01 0. -1.
         13    1    6    6    0    0  0.26479159501E+02 -0.17310738335E+02  0.40422685818E+02  0.51330313445E+02  0.00000000000E+00 0. -1.
        -14    1    6    6    0    0  0.25590500804E+02  0.78988627663E+02  0.90274442951E+02  0.12265215889E+03  0.00000000000E+00 0.  1.
         -5    1    5    5    0  501 -0.67638465567E+02  0.68497284745E+02  0.52803658954E+02  0.10989611659E+03  0.47000000000E+01 0.  1.
<mgrwt>
<rscale>  2 0.21776300E+03</rscale>
<asrwt>0</asrwt>
<pdfrwt beam="1">  1        1 0.64195459E-01 0.21776300E+03</pdfrwt>
<pdfrwt beam="2">  1       -1 0.17763562E-01 0.21776300E+03</pdfrwt>
<totfact> 0.13989903E+03</totfact>
</mgrwt>
</event>
<event>
12    1  0.1093377E-001  0.1742170E+03  0.7546771E-02  0.1173520E+00
          2   -1    0    0  503    0  0.00000000000E+00  0.00000000000E+00  0.10275434984E+04  0.10275434984E+04  0.00000000000E+00 0.  1.
         -2   -1    0    0    0  501 -0.00000000000E+00 -0.00000000000E+00 -0.29786676023E+02  0.29786676023E+02  0.00000000000E+00 0. -1.
          6    2    1    2  503    0 -0.90472397274E+01  0.11888095969E+02  0.45108047024E+03  0.48361889217E+03  0.17375402975E+03 0.  0.
         24    2    3    3    0    0 -0.15163171344E+02  0.38162648586E+02  0.44692937015E+03  0.45592271252E+03  0.80208156601E+02 0.  0.
         -6    2    1    2    0  501  0.90472397274E+01 -0.11888095969E+02  0.54667635212E+03  0.57371128224E+03  0.17339671862E+03 0.  0.
        -24    2    5    5    0    0  0.20292392612E+02  0.56206862244E+02  0.37634699574E+03  0.38987016485E+03  0.82405653194E+02 0.  0.
          4    1    4    4  502    0  0.15841203687E+02  0.51225936746E+02  0.21601499134E+03  0.22257025141E+03  0.00000000000E+00 0. -1.
         -3    1    4    4    0  502 -0.31004375031E+02 -0.13063288160E+02  0.23091437881E+03  0.23335246112E+03  0.00000000000E+00 0.  1.
          5    1    3    3  503    0  0.61159316168E+01 -0.26274552617E+02  0.41511000962E+01  0.27696179642E+02  0.47000000000E+01 0. -1.
         13    1    6    6    0    0  0.30548418507E+02  0.37374983205E+02  0.85118113357E+02  0.97852891957E+02  0.00000000000E+00 0. -1.
        -14    1    6    6    0    0 -0.10256025895E+02  0.18831879039E+02  0.29122888238E+03  0.29201727289E+03  0.00000000000E+00 0.  1.
         -5    1    5    5    0  501 -0.11245152885E+02 -0.68094958214E+02  0.17032935639E+03  0.18384111739E+03  0.47000000000E+01 0.  1.
<mgrwt>
<rscale>  2 0.17421699E+03</rscale>
<asrwt>0</asrwt>
<pdfrwt beam="1">  1        2 0.15808359E+00 0.17421699E+03</pdfrwt>
<pdfrwt beam="2">  1       -2 0.45825663E-02 0.17421699E+03</pdfrwt>
<totfact> 0.55580968E+03</totfact>
</mgrwt>
</event>
<event>
12    1  0.1093377E-001  0.2128880E+03  0.7546771E-02  0.1139299E+00
         -2   -1    0    0    0  501 -0.00000000000E+00  0.00000000000E+00  0.68025940153E+03  0.68025940153E+03  0.00000000000E+00 0. -1.
          2   -1    0    0  503    0  0.00000000000E+00 -0.00000000000E+00 -0.71691644692E+02  0.71691644692E+02  0.00000000000E+00 0.  1.
          6    2    1    2  503    0 -0.12226345824E+02 -0.12209082071E+03  0.20530938283E+03  0.29629210187E+03  0.17487542686E+03 0.  0.
         24    2    3    3    0    0  0.13428279646E+02 -0.15313198822E+03  0.16745610651E+03  0.24082432370E+03  0.79530388942E+02 0.  0.
         -6    2    1    2    0  501  0.12226345824E+02  0.12209082071E+03  0.40325837401E+03  0.45565894436E+03  0.17306676551E+03 0.  0.
        -24    2    5    5    0    0 -0.47400919182E+02  0.11249288396E+03  0.32996006951E+03  0.36056813216E+03  0.78957167961E+02 0.  0.
          2    1    4    4  502    0  0.33359191216E+02 -0.59967569974E+02  0.33285109723E+02  0.76268234649E+02  0.00000000000E+00 0. -1.
         -1    1    4    4    0  502 -0.19930911571E+02 -0.93164418243E+02  0.13417099679E+03  0.16455608905E+03  0.00000000000E+00 0.  1.
          5    1    3    3  503    0 -0.25654625470E+02  0.31041167505E+02  0.37853276315E+02  0.55467778177E+02  0.47000000000E+01 0. -1.
         13    1    6    6    0    0 -0.26909001754E+02  0.17796506317E+02  0.17398041919E+03  0.17694630902E+03  0.00000000000E+00 0. -1.
        -14    1    6    6    0    0 -0.20491917428E+02  0.94696377643E+02  0.15597965032E+03  0.18362182314E+03  0.00000000000E+00 0.  1.
         -5    1    5    5    0  501  0.59627265007E+02  0.95979367518E+01  0.73298304501E+02  0.95090812200E+02  0.47000000000E+01 0.  1.
<mgrwt>
<rscale>  2 0.21288805E+03</rscale>
<asrwt>0</asrwt>
<pdfrwt beam="2">  1        2 0.11029484E-01 0.21288805E+03</pdfrwt>
<pdfrwt beam="1">  1       -2 0.10465529E+00 0.21288805E+03</pdfrwt>
<totfact> 0.43581453E+02</totfact>
</mgrwt>
</event>
<event>
12    1  0.1093377E-001  0.1926262E+03  0.7546771E-02  0.1156114E+00
          2   -1    0    0  503    0  0.00000000000E+00  0.00000000000E+00  0.18056006598E+04  0.18056006598E+04  0.00000000000E+00 0.  1.
         -2   -1    0    0    0  501 -0.00000000000E+00 -0.00000000000E+00 -0.38026110930E+02  0.38026110930E+02  0.00000000000E+00 0. -1.
          6    2    1    2  503    0  0.67822268607E+02 -0.31232801850E+02  0.15186728612E+04  0.15313693459E+04  0.18206994885E+03 0.  0.
         24    2    3    3    0    0 -0.30516437255E+02 -0.98019815395E+01  0.46492907319E+03  0.47281946902E+03  0.79824027737E+02 0.  0.
         -6    2    1    2    0  501 -0.67822268607E+02  0.31232801850E+02  0.24890168767E+03  0.31225742480E+03  0.17313954253E+03 0.  0.
        -24    2    5    5    0    0 -0.11002920380E+03  0.70276162957E+01  0.15599054356E+03  0.20727224925E+03  0.80454474998E+02 0.  0.
          4    1    4    4  502    0 -0.57153955132E+02  0.12209303171E+01  0.30381129271E+03  0.30914295534E+03  0.00000000000E+00 0. -1.
         -3    1    4    4    0  502  0.26637517877E+02 -0.11022911857E+02  0.16111778048E+03  0.16367651368E+03  0.00000000000E+00 0.  1.
          5    1    3    3  503    0  0.98338705862E+02 -0.21430820310E+02  0.10537437880E+04  0.10585498769E+04  0.47000000000E+01 0. -1.
         11    1    6    6    0    0 -0.79046243928E+02  0.25715476342E+02  0.54177399402E+02  0.99220889980E+02  0.00000000000E+00 0. -1.
        -12    1    6    6    0    0 -0.30982959875E+02 -0.18687860046E+02  0.10181314416E+03  0.10805135927E+03  0.00000000000E+00 0.  1.
         -5    1    5    5    0  501  0.42206935196E+02  0.24205185554E+02  0.92911144111E+02  0.10498517556E+03  0.47000000000E+01 0.  1.
<mgrwt>
<rscale>  2 0.19262619E+03</rscale>
<asrwt>0</asrwt>
<pdfrwt beam="1">  1        2 0.27778465E+00 0.19262619E+03</pdfrwt>
<pdfrwt beam="2">  1       -2 0.58501723E-02 0.19262619E+03</pdfrwt>
<totfact> 0.14560606E+03</totfact>
</mgrwt>
</event>
<event>
12    1  0.1093377E-001  0.1740147E+03  0.7546771E-02  0.1173725E+00
          2   -1    0    0  503    0  0.00000000000E+00  0.00000000000E+00  0.40198929080E+03  0.40198929080E+03  0.00000000000E+00 0. -1.
         -2   -1    0    0    0  501 -0.00000000000E+00 -0.00000000000E+00 -0.98540406325E+02  0.98540406325E+02  0.00000000000E+00 0.  1.
          6    2    1    2  503    0 -0.31570216822E+01 -0.18049841219E+02  0.30468069709E+02  0.17696938250E+03  0.17336117073E+03 0.  0.
         24    2    3    3    0    0  0.58090922699E+02  0.11836549041E+02  0.41710276634E+02  0.10773800067E+03  0.79706150437E+02 0.  0.
         -6    2    1    2    0  501  0.31570216822E+01  0.18049841219E+02  0.27298081476E+03  0.32356031463E+03  0.17273386587E+03 0.  0.
        -24    2    5    5    0    0  0.92188421730E+01 -0.53422990586E+02  0.11749523319E+03  0.15226242372E+03  0.80247821643E+02 0.  0.
          4    1    4    4  502    0  0.80900861576E+01 -0.19405354927E+02  0.43967936508E+02  0.48735990137E+02  0.00000000000E+00 0. -1.
         -3    1    4    4    0  502  0.50000836541E+02  0.31241903968E+02 -0.22576598745E+01  0.59002010529E+02  0.00000000000E+00 0.  1.
          5    1    3    3  503    0 -0.61247944381E+02 -0.29886390260E+02 -0.11242206925E+02  0.69231381831E+02  0.47000000000E+01 0. -1.
         11    1    6    6    0    0  0.86225856213E+01 -0.21351348409E+02  0.11795537068E+03  0.12018193930E+03  0.00000000000E+00 0. -1.
        -12    1    6    6    0    0  0.59625655179E+00 -0.32071642177E+02 -0.46013748717E+00  0.32080484415E+02  0.00000000000E+00 0.  1.
         -5    1    5    5    0  501 -0.60618204909E+01  0.71472831805E+02  0.15548558157E+03  0.17129789091E+03  0.47000000000E+01 0.  1.
<mgrwt>
<rscale>  2 0.17401469E+03</rscale>
<asrwt>0</asrwt>
<pdfrwt beam="1">  1        2 0.61844506E-01 0.17401469E+03</pdfrwt>
<pdfrwt beam="2">  1       -2 0.15160063E-01 0.17401469E+03</pdfrwt>
<totfact> 0.26249200E+03</totfact>
</mgrwt>
</event>
<event>
12    1  0.1093377E-001  0.2007608E+03  0.7546771E-02  0.1149099E+00
          2   -1    0    0  503    0  0.00000000000E+00  0.00000000000E+00  0.30504937133E+03  0.30504937133E+03  0.00000000000E+00 0.  1.
         -2   -1    0    0    0  501 -0.00000000000E+00 -0.00000000000E+00 -0.14095093960E+03  0.14095093960E+03  0.00000000000E+00 0. -1.
          6    2    1    2  503    0  0.96539763854E+02 -0.30496160474E+02  0.26407152000E+02  0.20289408318E+03  0.17383535171E+03 0.  0.
         24    2    3    3    0    0  0.11599874479E+03 -0.49254309384E+02 -0.18463989362E+02  0.15030102835E+03  0.79798398680E+02 0.  0.
         -6    2    1    2    0  501 -0.96539763854E+02  0.30496160474E+02  0.13769127973E+03  0.24310622774E+03  0.17289247423E+03 0.  0.
        -24    2    5    5    0    0 -0.33553910040E+02  0.66322005580E+02  0.30405174178E+02  0.11355659477E+03  0.80287933692E+02 0.  0.
          4    1    4    4  502    0  0.25276191786E+02 -0.47665524824E+02 -0.24726170279E+02  0.59348728922E+02  0.00000000000E+00 0. -1.
         -3    1    4    4    0  502  0.90722553007E+02 -0.15887845596E+01  0.62621809169E+01  0.90952299423E+02  0.00000000000E+00 0.  1.
          5    1    3    3  503    0 -0.19458980939E+02  0.18758148910E+02  0.44871141362E+02  0.52593054835E+02  0.47000000000E+01 0. -1.
         11    1    6    6    0    0  0.22192531856E+02  0.38902071193E+02  0.93680531561E+00  0.44796843834E+02  0.00000000000E+00 0. -1.
        -12    1    6    6    0    0 -0.55746441896E+02  0.27419934387E+02  0.29468368862E+02  0.68759750939E+02  0.00000000000E+00 0.  1.
         -5    1    5    5    0  501 -0.62985853814E+02 -0.35825845106E+02  0.10728610555E+03  0.12954963297E+03  0.47000000000E+01 0.  1.
<mgrwt>
<rscale>  2 0.20076075E+03</rscale>
<asrwt>0</asrwt>
<pdfrwt beam="1">  1        2 0.46930672E-01 0.20076075E+03</pdfrwt>
<pdfrwt beam="2">  1       -2 0.21684760E-01 0.20076075E+03</pdfrwt>
<totfact> 0.19413417E+03</totfact>
</mgrwt>
</event>
<event>
12    1  0.1093377E-001  0.1779469E+03  0.7546771E-02  0.1169805E+00
         -1   -1    0    0    0  501 -0.00000000000E+00  0.00000000000E+00  0.32466400227E+02  0.32466400227E+02  0.00000000000E+00 0. -1.
          1   -1    0    0  503    0  0.00000000000E+00 -0.00000000000E+00 -0.14741200111E+04  0.14741200111E+04  0.00000000000E+00 0.  1.
          6    2    1    2  503    0 -0.30593311505E+02 -0.30580325432E+02 -0.11589535017E+04  0.11725314947E+04  0.17258557283E+03 0.  0.
         24    2    3    3    0    0  0.15176346670E+02 -0.75644118722E+02 -0.65920937295E+03  0.66865463345E+03  0.81176765541E+02 0.  0.
         -6    2    1    2    0  501  0.30593311505E+02  0.30580325432E+02 -0.28270010919E+03  0.33405491664E+03  0.17263321982E+03 0.  0.
        -24    2    5    5    0    0  0.33114919261E+02 -0.39345544482E+02 -0.22067497108E+03  0.24043230428E+03  0.80408832415E+02 0.  0.
          4    1    4    4  502    0  0.26753300952E+02 -0.68063153413E+02 -0.28644002030E+03  0.29562851215E+03  0.00000000000E+00 0. -1.
         -3    1    4    4    0  502 -0.11576954282E+02 -0.75809653082E+01 -0.37276935264E+03  0.37302612131E+03  0.00000000000E+00 0.  1.
          5    1    3    3  503    0 -0.45769658175E+02  0.45063793290E+02 -0.49974412877E+03  0.50387686127E+03  0.47000000000E+01 0. -1.
         13    1    6    6    0    0  0.56797386545E+02 -0.23331107544E+02 -0.10848095850E+03  0.12465312693E+03  0.00000000000E+00 0. -1.
        -14    1    6    6    0    0 -0.23682467284E+02 -0.16014436938E+02 -0.11219401258E+03  0.11577917734E+03  0.00000000000E+00 0.  1.
         -5    1    5    5    0  501 -0.25216077558E+01  0.69925869914E+02 -0.62025138107E+02  0.93622612365E+02  0.47000000000E+01 0.  1.
<mgrwt>
<rscale>  2 0.17794693E+03</rscale>
<asrwt>0</asrwt>
<pdfrwt beam="2">  1        1 0.22678766E+00 0.17794693E+03</pdfrwt>
<pdfrwt beam="1">  1       -1 0.49948315E-02 0.17794693E+03</pdfrwt>
<totfact> 0.13179634E+03</totfact>
</mgrwt>
</event>
<event>
12    1  0.1093377E-001  0.1926015E+03  0.7546771E-02  0.1156136E+00
         -1   -1    0    0    0  501 -0.00000000000E+00  0.00000000000E+00  0.23381044779E+02  0.23381044779E+02  0.00000000000E+00 0.  1.
          1   -1    0    0  503    0  0.00000000000E+00 -0.00000000000E+00 -0.19911177478E+04  0.19911177478E+04  0.00000000000E+00 0. -1.
          6    2    1    2  503    0  0.55638568736E+02  0.65098926110E+02 -0.14479232516E+04  0.14610119695E+04  0.17533029433E+03 0.  0.
         24    2    3    3    0    0 -0.76700806791E+01  0.96240368902E+02 -0.91399422280E+03  0.92242114866E+03  0.78449330324E+02 0.  0.
         -6    2    1    2    0  501 -0.55638568736E+02 -0.65098926110E+02 -0.51981345143E+03  0.55348682305E+03  0.16972954512E+03 0.  0.
        -24    2    5    5    0    0 -0.54548121880E+02  0.14613666108E+02 -0.37780047607E+03  0.39056027026E+03  0.81333069215E+02 0.  0.
          4    1    4    4  502    0  0.11015434805E+02  0.95969979496E+02 -0.85732724987E+03  0.86275233418E+03  0.00000000000E+00 0. -1.
         -3    1    4    4    0  502 -0.18685515485E+02  0.27038940575E+00 -0.56666972935E+02  0.59668814476E+02  0.00000000000E+00 0.  1.
          5    1    3    3  503    0  0.63308649415E+02 -0.31141442792E+02 -0.53392902876E+03  0.53859082084E+03  0.47000000000E+01 0. -1.
         13    1    6    6    0    0 -0.27976909655E+02 -0.32338063697E+02 -0.20968596245E+03  0.21400154365E+03  0.00000000000E+00 0. -1.
        -14    1    6    6    0    0 -0.26571212225E+02  0.46951729805E+02 -0.16811451362E+03  0.17655872661E+03  0.00000000000E+00 0.  1.
         -5    1    5    5    0  501 -0.10904468561E+01 -0.79712592218E+02 -0.14201297536E+03  0.16292655279E+03  0.47000000000E+01 0.  1.
<mgrwt>
<rscale>  2 0.19260154E+03</rscale>
<asrwt>0</asrwt>
<pdfrwt beam="2">  1        1 0.30632592E+00 0.19260154E+03</pdfrwt>
<pdfrwt beam="1">  1       -1 0.35970825E-02 0.19260154E+03</pdfrwt>
<totfact> 0.99250715E+02</totfact>
</mgrwt>
</event>
<event>
12    1  0.1093377E-001  0.1955699E+03  0.7546771E-02  0.1153531E+00
         -2   -1    0    0    0  501 -0.00000000000E+00  0.00000000000E+00  0.55936134355E+02  0.55936134355E+02  0.00000000000E+00 0.  1.
          2   -1    0    0  503    0  0.00000000000E+00 -0.00000000000E+00 -0.72265638888E+03  0.72265638888E+03  0.00000000000E+00 0. -1.
          6    2    1    2  503    0 -0.88429454283E+02 -0.38912780128E+02 -0.23972972162E+03  0.30805172744E+03  0.16760535346E+03 0.  0.
         24    2    3    3    0    0 -0.92193592661E+02 -0.73532292133E+02 -0.13271903852E+03  0.19541933580E+03  0.81656090426E+02 0.  0.
         -6    2    1    2    0  501  0.88429454283E+02  0.38912780128E+02 -0.42699053290E+03  0.47054079580E+03  0.17249276065E+03 0.  0.
        -24    2    5    5    0    0  0.77078105231E+02  0.86843531453E+02 -0.36235363102E+03  0.38913914266E+03  0.81524751931E+02 0.  0.
          2    1    4    4  502    0 -0.38081930642E+02 -0.63834125983E+02 -0.32525786644E+02  0.81135416916E+02  0.00000000000E+00 0. -1.
         -1    1    4    4    0  502 -0.54111662019E+02 -0.96981661498E+01 -0.10019325188E+03  0.11428391888E+03  0.00000000000E+00 0.  1.
          5    1    3    3  503    0  0.37641383778E+01  0.34619512005E+02 -0.10701068310E+03  0.11263239164E+03  0.47000000000E+01 0. -1.
         13    1    6    6    0    0  0.76651907399E+02  0.30113533055E+02 -0.25102297547E+03  0.26418719499E+03  0.00000000000E+00 0. -1.
        -14    1    6    6    0    0  0.42619783239E+00  0.56729998398E+02 -0.11133065555E+03  0.12495194768E+03  0.00000000000E+00 0.  1.
         -5    1    5    5    0  501  0.11351349052E+02 -0.47930751325E+02 -0.64636901882E+02  0.81401653133E+02  0.47000000000E+01 0.  1.
<mgrwt>
<rscale>  2 0.19556993E+03</rscale>
<asrwt>0</asrwt>
<pdfrwt beam="2">  1        2 0.11117791E+00 0.19556993E+03</pdfrwt>
<pdfrwt beam="1">  1       -2 0.86055591E-02 0.19556993E+03</pdfrwt>
<totfact> 0.33600094E+03</totfact>
</mgrwt>
</event>
<event>
12    1  0.1093377E-001  0.2699346E+03  0.7546771E-02  0.1101317E+00
          2   -1    0    0  503    0  0.00000000000E+00  0.00000000000E+00  0.12240937485E+04  0.12240937485E+04  0.00000000000E+00 0.  1.
         -2   -1    0    0    0  501 -0.00000000000E+00 -0.00000000000E+00 -0.61468615365E+02  0.61468615365E+02  0.00000000000E+00 0. -1.
          6    2    1    2  503    0 -0.20093434508E+03  0.53783246165E+02  0.69479032413E+03  0.74524490886E+03  0.17143258468E+03 0.  0.
         24    2    3    3    0    0 -0.68921041745E+02 -0.20770901008E+02  0.19125945912E+03  0.21936350100E+03  0.79740984109E+02 0.  0.
         -6    2    1    2    0  501  0.20093434508E+03 -0.53783246165E+02  0.46783480902E+03  0.54031745502E+03  0.17264499721E+03 0.  0.
        -24    2    5    5    0    0  0.16489992837E+03 -0.10191599387E+03  0.36907844139E+03  0.42460163614E+03  0.80553071530E+02 0.  0.
          2    1    4    4  502    0 -0.86442760525E+02 -0.10491725244E+02  0.15719522483E+03  0.17970188050E+03  0.00000000000E+00 0. -1.
         -1    1    4    4    0  502  0.17521718780E+02 -0.10279175764E+02  0.34064234288E+02  0.39661620504E+02  0.00000000000E+00 0.  1.
          5    1    3    3  503    0 -0.13201330333E+03  0.74554147173E+02  0.50353086501E+03  0.52588140786E+03  0.47000000000E+01 0. -1.
         11    1    6    6    0    0  0.43899174560E+02  0.98987522875E+01  0.72375165625E+02  0.85224922547E+02  0.00000000000E+00 0. -1.
        -12    1    6    6    0    0  0.12100075381E+03 -0.11181474616E+03  0.29670327576E+03  0.33937671359E+03  0.00000000000E+00 0.  1.
         -5    1    5    5    0  501  0.36034416712E+02  0.48132747707E+02  0.98756367638E+02  0.11571581888E+03  0.47000000000E+01 0.  1.
<mgrwt>
<rscale>  2 0.26993455E+03</rscale>
<asrwt>0</asrwt>
<pdfrwt beam="1">  1        2 0.18832210E+00 0.26993455E+03</pdfrwt>
<pdfrwt beam="2">  1       -2 0.94567109E-02 0.26993455E+03</pdfrwt>
<totfact> 0.14056408E+03</totfact>
</mgrwt>
</event>
<event>
12    1  0.1093377E-001  0.1871908E+03  0.7546771E-02  0.1161020E+00
          2   -1    0    0  503    0  0.00000000000E+00  0.00000000000E+00  0.14846759704E+04  0.14846759704E+04  0.00000000000E+00 0.  1.
         -2   -1    0    0    0  501 -0.00000000000E+00 -0.00000000000E+00 -0.27961540713E+02  0.27961540713E+02  0.00000000000E+00 0. -1.
          6    2    1    2  503    0 -0.45441314498E+02  0.48862027005E+02  0.10213927004E+04  0.10381024713E+04  0.17309327421E+03 0.  0.
         24    2    3    3    0    0 -0.64184383297E+02  0.89248841158E+02  0.65368522637E+03  0.66767937010E+03  0.80039836184E+02 0.  0.
         -6    2    1    2    0  501  0.45441314498E+02 -0.48862027005E+02  0.43532172928E+03  0.47453503989E+03  0.17670904151E+03 0.  0.
        -24    2    5    5    0    0  0.63523775839E+02  0.12735276425E+02  0.15341761579E+03  0.18537552958E+03  0.81422753394E+02 0.  0.
          4    1    4    4  502    0 -0.43148415320E+02  0.17696409470E+02  0.41503515985E+03  0.41764713882E+03  0.00000000000E+00 0. -1.
         -3    1    4    4    0  502 -0.21035967976E+02  0.71552431688E+02  0.23865006652E+03  0.25003223128E+03  0.00000000000E+00 0.  1.
          5    1    3    3  503    0  0.18743068798E+02 -0.40386814154E+02  0.36770747407E+03  0.37042310116E+03  0.47000000000E+01 0. -1.
         13    1    6    6    0    0  0.74549610456E+02 -0.11640120208E+02  0.96606680556E+02  0.12258053494E+03  0.00000000000E+00 0. -1.
        -14    1    6    6    0    0 -0.11025834618E+02  0.24375396633E+02  0.56810935234E+02  0.62794994643E+02  0.00000000000E+00 0.  1.
         -5    1    5    5    0  501 -0.18082461340E+02 -0.61597303430E+02  0.28190411349E+03  0.28915951031E+03  0.47000000000E+01 0.  1.
<mgrwt>
<rscale>  2 0.18719078E+03</rscale>
<asrwt>0</asrwt>
<pdfrwt beam="1">  1        2 0.22841163E+00 0.18719078E+03</pdfrwt>
<pdfrwt beam="2">  1       -2 0.43017767E-02 0.18719078E+03</pdfrwt>
<totfact> 0.34120601E+03</totfact>
</mgrwt>
</event>
<event>
12    1  0.1093377E-001  0.2006335E+03  0.7546771E-02  0.1149206E+00
          2   -1    0    0  503    0  0.00000000000E+00  0.00000000000E+00  0.20853036206E+04  0.20853036206E+04  0.00000000000E+00 0. -1.
         -2   -1    0    0    0  501 -0.00000000000E+00 -0.00000000000E+00 -0.22594829153E+02  0.22594829153E+02  0.00000000000E+00 0.  1.
          6    2    1    2  503    0 -0.11689086417E+02  0.10085264079E+03  0.14319524949E+04  0.14458877770E+04  0.17261409557E+03 0.  0.
         24    2    3    3    0    0  0.22673936542E+02  0.49694567959E+02  0.38742014665E+03  0.39952843031E+03  0.80900797972E+02 0.  0.
         -6    2    1    2    0  501  0.11689086417E+02 -0.10085264079E+03  0.63075629654E+03  0.66201067280E+03  0.17348410698E+03 0.  0.
        -24    2    5    5    0    0  0.55508784007E+02 -0.14494651780E+02  0.38675239813E+03  0.39945046903E+03  0.81804276889E+02 0.  0.
          2    1    4    4  502    0 -0.19838196915E+02  0.51291757870E+02  0.22631400289E+03  0.23290003518E+03  0.00000000000E+00 0. -1.
         -1    1    4    4    0  502  0.42512133457E+02 -0.15971899105E+01  0.16110614376E+03  0.16662839513E+03  0.00000000000E+00 0.  1.
          5    1    3    3  503    0 -0.34363022959E+02  0.51158072828E+02  0.10445323483E+04  0.10463593467E+04  0.47000000000E+01 0. -1.
         11    1    6    6    0    0  0.47706109643E+02 -0.37918783033E+02  0.34940782553E+03  0.35468230227E+03  0.00000000000E+00 0. -1.
        -12    1    6    6    0    0  0.78026743636E+01  0.23424131253E+02  0.37344572600E+02  0.44768166758E+02  0.00000000000E+00 0.  1.
         -5    1    5    5    0  501 -0.43819697589E+02 -0.86357989007E+02  0.24400389841E+03  0.26256020377E+03  0.47000000000E+01 0.  1.
<mgrwt>
<rscale>  2 0.20063347E+03</rscale>
<asrwt>0</asrwt>
<pdfrwt beam="1">  1        2 0.32081579E+00 0.20063347E+03</pdfrwt>
<pdfrwt beam="2">  1       -2 0.34761292E-02 0.20063347E+03</pdfrwt>
<totfact> 0.22832947E+03</totfact>
</mgrwt>
</event>
<event>
12    1  0.1093377E-001  0.2870958E+03  0.7546771E-02  0.1091875E+00
          2   -1    0    0  503    0  0.00000000000E+00  0.00000000000E+00  0.39873448242E+03  0.39873448242E+03  0.00000000000E+00 0. -1.
         -2   -1    0    0    0  501 -0.00000000000E+00 -0.00000000000E+00 -0.22908028823E+03  0.22908028823E+03  0.00000000000E+00 0.  1.
          6    2    1    2  503    0  0.22276048585E+03 -0.53273673490E+02  0.18302496383E+03  0.34083295803E+03  0.17380635647E+03 0.  0.
         24    2    3    3    0    0  0.21064892220E+03 -0.37940047116E+02  0.20874186665E+03  0.30819464982E+03  0.74822187132E+02 0.  0.
         -6    2    1    2    0  501 -0.22276048585E+03  0.53273673490E+02 -0.13370769638E+02  0.28698181261E+03  0.17239334368E+03 0.  0.
        -24    2    5    5    0    0 -0.45169695627E+02  0.11503316178E+02 -0.42009840599E+02  0.10225082466E+03  0.80732748939E+02 0.  0.
          4    1    4    4  502    0  0.12285193010E+03  0.40912221966E+01  0.15215335827E+03  0.19560158297E+03  0.00000000000E+00 0. -1.
         -3    1    4    4    0  502  0.87796992101E+02 -0.42031269312E+02  0.56588508377E+02  0.11259306685E+03  0.00000000000E+00 0.  1.
          5    1    3    3  503    0  0.12111563654E+02 -0.15333626374E+02 -0.25716902823E+02  0.32638308208E+02  0.47000000000E+01 0. -1.
         13    1    6    6    0    0 -0.73086862169E+01  0.43171812346E+02 -0.21821955651E+02  0.48922592162E+02  0.00000000000E+00 0. -1.
        -14    1    6    6    0    0 -0.37861009410E+02 -0.31668496168E+02 -0.20187884948E+02  0.53328232502E+02  0.00000000000E+00 0.  1.
         -5    1    5    5    0  501 -0.17759079023E+03  0.41770357311E+02  0.28639070961E+02  0.18473098795E+03  0.47000000000E+01 0.  1.
<mgrwt>
<rscale>  2 0.28709582E+03</rscale>
<asrwt>0</asrwt>
<pdfrwt beam="1">  1        2 0.61343766E-01 0.28709582E+03</pdfrwt>
<pdfrwt beam="2">  1       -2 0.35243121E-01 0.28709582E+03</pdfrwt>
<totfact> 0.60979376E+02</totfact>
</mgrwt>
</event>
<event>
12    1  0.1093377E-001  0.2057921E+03  0.7546771E-02  0.1144942E+00
         -2   -1    0    0    0  501 -0.00000000000E+00  0.00000000000E+00  0.52115542008E+02  0.52115542008E+02  0.00000000000E+00 0.  1.
          2   -1    0    0  503    0  0.00000000000E+00 -0.00000000000E+00 -0.81381453982E+03  0.81381453982E+03  0.00000000000E+00 0. -1.
          6    2    1    2  503    0 -0.10551335070E+03  0.37140365318E+02 -0.39691425960E+03  0.44697314419E+03  0.17242850183E+03 0.  0.
         24    2    3    3    0    0 -0.11778476507E+03  0.39594770030E+02 -0.19236847359E+03  0.24199099793E+03  0.78185783557E+02 0.  0.
         -6    2    1    2    0  501  0.10551335070E+03 -0.37140365318E+02 -0.36478473822E+03  0.41895693764E+03  0.17304489721E+03 0.  0.
        -24    2    5    5    0    0  0.75901553186E+02 -0.89601755469E+02 -0.28988894194E+03  0.32272530922E+03  0.79539337398E+02 0.  0.
          4    1    4    4  502    0 -0.41298164582E+02 -0.23274846263E+02 -0.70809051294E+02  0.85212549613E+02  0.00000000000E+00 0. -1.
         -3    1    4    4    0  502 -0.76486600484E+02  0.62869616293E+02 -0.12155942230E+03  0.15677844832E+03  0.00000000000E+00 0.  1.
          5    1    3    3  503    0  0.12271414368E+02 -0.24544047123E+01 -0.20454578601E+03  0.20498214626E+03  0.47000000000E+01 0. -1.
         13    1    6    6    0    0  0.76627529136E+02 -0.30406887902E+02 -0.16039113894E+03  0.18033766801E+03  0.00000000000E+00 0. -1.
        -14    1    6    6    0    0 -0.72597595070E+00 -0.59194867567E+02 -0.12949780300E+03  0.14238764121E+03  0.00000000000E+00 0.  1.
         -5    1    5    5    0  501  0.29611797512E+02  0.52461390151E+02 -0.74895796276E+02  0.96231628419E+02  0.47000000000E+01 0.  1.
<mgrwt>
<rscale>  2 0.20579213E+03</rscale>
<asrwt>0</asrwt>
<pdfrwt beam="2">  1        2 0.12520223E+00 0.20579213E+03</pdfrwt>
<pdfrwt beam="1">  1       -2 0.80177759E-02 0.20579213E+03</pdfrwt>
<totfact> 0.32413813E+03</totfact>
</mgrwt>
</event>
<event>
12    1  0.1093377E-001  0.2795736E+03  0.7546771E-02  0.1095922E+00
         -2   -1    0    0    0  501 -0.00000000000E+00  0.00000000000E+00  0.11893272712E+04  0.11893272712E+04  0.00000000000E+00 0.  1.
          2   -1    0    0  503    0  0.00000000000E+00 -0.00000000000E+00 -0.93162810536E+02  0.93162810536E+02  0.00000000000E+00 0. -1.
          6    2    1    2  503    0 -0.16935910090E+03 -0.14126335458E+03  0.19921738727E+03  0.34280284440E+03  0.17084607790E+03 0.  0.
         24    2    3    3    0    0 -0.13021206939E+03 -0.11744724604E+03  0.73002843671E+02  0.20844549210E+03  0.85854932148E+02 0.  0.
         -6    2    1    2    0  501  0.16935910090E+03  0.14126335458E+03  0.89694707335E+03  0.93968723729E+03  0.17280107388E+03 0.  0.
        -24    2    5    5    0    0  0.18930387992E+03  0.89866674337E+02  0.74226312146E+03  0.77540507782E+03  0.79915675023E+02 0.  0.
          2    1    4    4  502    0 -0.11520710128E+03 -0.11264562243E+03  0.90579632618E+02  0.18484150584E+03  0.00000000000E+00 0. -1.
         -1    1    4    4    0  502 -0.15004968113E+02 -0.48016236130E+01 -0.17576788948E+02  0.23603986254E+02  0.00000000000E+00 0.  1.
          5    1    3    3  503    0 -0.39147031512E+02 -0.23816108535E+02  0.12621454360E+03  0.13435735230E+03  0.47000000000E+01 0. -1.
         11    1    6    6    0    0  0.62885523027E+02 -0.83396289132E+01  0.18304387909E+03  0.19372454694E+03  0.00000000000E+00 0. -1.
        -12    1    6    6    0    0  0.12641835690E+03  0.98206303250E+02  0.55921924237E+03  0.58168053087E+03  0.00000000000E+00 0.  1.
         -5    1    5    5    0  501 -0.19944779021E+02  0.51396680239E+02  0.15468395189E+03  0.16428215947E+03  0.47000000000E+01 0.  1.
<mgrwt>
<rscale>  2 0.27957363E+03</rscale>
<asrwt>0</asrwt>
<pdfrwt beam="2">  1        2 0.14332741E-01 0.27957363E+03</pdfrwt>
<pdfrwt beam="1">  1       -2 0.18297342E+00 0.27957363E+03</pdfrwt>
<totfact> 0.76616380E+01</totfact>
</mgrwt>
</event>
<event>
12    1  0.1093377E-001  0.2298500E+03  0.7546771E-02  0.1126745E+00
         -1   -1    0    0    0  501 -0.00000000000E+00  0.00000000000E+00  0.32482380071E+02  0.32482380071E+02  0.00000000000E+00 0. -1.
          1   -1    0    0  503    0  0.00000000000E+00 -0.00000000000E+00 -0.17189222313E+04  0.17189222313E+04  0.00000000000E+00 0.  1.
          6    2    1    2  503    0 -0.15025128128E+03  0.30324641033E+02 -0.10492896337E+04  0.10743541084E+04  0.17243254769E+03 0.  0.
         24    2    3    3    0    0 -0.10631017524E+03 -0.40828790978E+02 -0.51549604592E+03  0.53402891370E+03  0.80510022860E+02 0.  0.
         -6    2    1    2    0  501  0.15025128128E+03 -0.30324641033E+02 -0.63715021759E+03  0.67705050301E+03  0.17012334489E+03 0.  0.
        -24    2    5    5    0    0  0.44356193518E+02 -0.12983692017E+02 -0.14225619427E+03  0.17063499925E+03  0.82118390158E+02 0.  0.
          4    1    4    4  502    0 -0.17021488876E+02 -0.43380221797E+02 -0.23770029758E+03  0.24222511471E+03  0.00000000000E+00 0. -1.
         -3    1    4    4    0  502 -0.89288686362E+02  0.25514308187E+01 -0.27779574833E+03  0.29180379899E+03  0.00000000000E+00 0.  1.
          5    1    3    3  503    0 -0.43941106041E+02  0.71153432011E+02 -0.53379358776E+03  0.54032519469E+03  0.47000000000E+01 0. -1.
         13    1    6    6    0    0  0.68770368025E+02 -0.11903113095E+02 -0.10540665149E+03  0.12641839185E+03  0.00000000000E+00 0. -1.
        -14    1    6    6    0    0 -0.24414174507E+02 -0.10805789224E+01 -0.36849542773E+02  0.44216607403E+02  0.00000000000E+00 0.  1.
         -5    1    5    5    0  501  0.10589508776E+03 -0.17340949016E+02 -0.49489402332E+03  0.50641550376E+03  0.47000000000E+01 0.  1.
<mgrwt>
<rscale>  2 0.22984999E+03</rscale>
<asrwt>0</asrwt>
<pdfrwt beam="2">  1        1 0.26444960E+00 0.22984999E+03</pdfrwt>
<pdfrwt beam="1">  1       -1 0.49972888E-02 0.22984999E+03</pdfrwt>
<totfact> 0.90845987E+02</totfact>
</mgrwt>
</event>
<event>
12    1  0.1093377E-001  0.1747434E+03  0.7546771E-02  0.1172990E+00
          3   -1    0    0  503    0  0.00000000000E+00  0.00000000000E+00  0.60537595981E+03  0.60537595981E+03  0.00000000000E+00 0.  1.
         -3   -1    0    0    0  501 -0.00000000000E+00 -0.00000000000E+00 -0.50653873510E+02  0.50653873510E+02  0.00000000000E+00 0. -1.
          6    2    1    2  503    0  0.12867861082E+02 -0.27170055500E+02  0.29562799178E+03  0.34252313695E+03  0.17035960806E+03 0.  0.
         24    2    3    3    0    0  0.35197745457E+02  0.30056059046E+02  0.24682127546E+03  0.26392518863E+03  0.81200463072E+02 0.  0.
         -6    2    1    2    0  501 -0.12867861082E+02  0.27170055500E+02  0.25909409453E+03  0.31350669638E+03  0.17393362265E+03 0.  0.
        -24    2    5    5    0    0 -0.28534612617E+02 -0.41281162061E+02  0.94089455313E+02  0.13411985948E+03  0.81344653468E+02 0.  0.
          4    1    4    4  502    0  0.57805953546E+02  0.17632260966E+02  0.11833018858E+03  0.13287008099E+03  0.00000000000E+00 0. -1.
         -3    1    4    4    0  502 -0.22608208089E+02  0.12423798080E+02  0.12849108688E+03  0.13105510764E+03  0.00000000000E+00 0.  1.
          5    1    3    3  503    0 -0.22329884375E+02 -0.57226114546E+02  0.48806716319E+02  0.78597948320E+02  0.47000000000E+01 0. -1.
         11    1    6    6    0    0 -0.41269954000E+02 -0.25503114948E+02  0.10152674244E+03  0.11252243068E+03  0.00000000000E+00 0. -1.
        -12    1    6    6    0    0  0.12735341383E+02 -0.15778047112E+02 -0.74372871323E+01  0.21597428798E+02  0.00000000000E+00 0.  1.
         -5    1    5    5    0  501  0.15666751535E+02  0.68451217561E+02  0.16500463921E+03  0.17938683689E+03  0.47000000000E+01 0.  1.
<mgrwt>
<rscale>  2 0.17474337E+03</rscale>
<asrwt>0</asrwt>
<pdfrwt beam="1">  1        3 0.93134758E-01 0.17474337E+03</pdfrwt>
<pdfrwt beam="2">  1       -3 0.77929041E-02 0.17474337E+03</pdfrwt>
<totfact> 0.28539692E+02</totfact>
</mgrwt>
</event>
<event>
12    1  0.1093377E-001  0.2186850E+03  0.7546771E-02  0.1134867E+00
         -2   -1    0    0    0  501 -0.00000000000E+00  0.00000000000E+00  0.15547283996E+03  0.15547283996E+03  0.00000000000E+00 0.  1.
          2   -1    0    0  503    0  0.00000000000E+00 -0.00000000000E+00 -0.31108593605E+03  0.31108593605E+03  0.00000000000E+00 0. -1.
          6    2    1    2  503    0  0.57907303779E+02  0.12219355574E+03 -0.53188533177E+02  0.22528729969E+03  0.17216511390E+03 0.  0.
         24    2    3    3    0    0  0.20023467998E+02  0.10785401098E+03  0.23900852585E+02  0.13807680173E+03  0.80377393991E+02 0.  0.
         -6    2    1    2    0  501 -0.57907303779E+02 -0.12219355574E+03 -0.10242456291E+03  0.24127147633E+03  0.17157101535E+03 0.  0.
        -24    2    5    5    0    0 -0.25979514216E+02 -0.36030592352E+02  0.14492724679E+02  0.92492505557E+02  0.79822839911E+02 0.  0.
          2    1    4    4  502    0  0.14605229605E+00  0.30070068133E+02 -0.29124730043E+02  0.41862635236E+02  0.00000000000E+00 0. -1.
         -1    1    4    4    0  502  0.19877415702E+02  0.77783942850E+02  0.53025582629E+02  0.96214166490E+02  0.00000000000E+00 0.  1.
          5    1    3    3  503    0  0.37883835781E+02  0.14339544755E+02 -0.77089385762E+02  0.87210497960E+02  0.47000000000E+01 0. -1.
         11    1    6    6    0    0 -0.21431757933E+02 -0.52311298793E+02 -0.15010117998E+02  0.58490134824E+02  0.00000000000E+00 0. -1.
        -12    1    6    6    0    0 -0.45477562833E+01  0.16280706441E+02  0.29502842677E+02  0.34002370733E+02  0.00000000000E+00 0.  1.
         -5    1    5    5    0  501 -0.31927789562E+02 -0.86162963386E+02 -0.11691728759E+03  0.14877897077E+03  0.47000000000E+01 0.  1.
<mgrwt>
<rscale>  2 0.21868501E+03</rscale>
<asrwt>0</asrwt>
<pdfrwt beam="2">  1        2 0.47859375E-01 0.21868501E+03</pdfrwt>
<pdfrwt beam="1">  1       -2 0.23918898E-01 0.21868501E+03</pdfrwt>
<totfact> 0.16064112E+03</totfact>
</mgrwt>
</event>
<event>
12    1  0.1093377E-001  0.2122276E+03  0.7546771E-02  0.1139814E+00
         -2   -1    0    0    0  501 -0.00000000000E+00  0.00000000000E+00  0.50760347026E+02  0.50760347026E+02  0.00000000000E+00 0. -1.
          2   -1    0    0  503    0  0.00000000000E+00 -0.00000000000E+00 -0.10511740127E+04  0.10511740127E+04  0.00000000000E+00 0.  1.
          6    2    1    2  503    0  0.71255981473E+02  0.10248885138E+03 -0.71746536022E+03  0.74815721207E+03  0.17146804746E+03 0.  0.
         24    2    3    3    0    0 -0.21963463745E+02  0.34577080602E+02 -0.41844995956E+03  0.42763549142E+03  0.78062645488E+02 0.  0.
         -6    2    1    2    0  501 -0.71255981473E+02 -0.10248885138E+03 -0.28294830548E+03  0.35377714768E+03  0.17180555026E+03 0.  0.
        -24    2    5    5    0    0 -0.42829729115E+01 -0.10518395921E+03 -0.23956576273E+03  0.27379725960E+03  0.80567832064E+02 0.  0.
          4    1    4    4  502    0 -0.41463830880E+02  0.24342337316E+02 -0.13455378506E+03  0.14288638749E+03  0.00000000000E+00 0. -1.
         -3    1    4    4    0  502  0.19500367134E+02  0.10234743286E+02 -0.28389617451E+03  0.28474910393E+03  0.00000000000E+00 0.  1.
          5    1    3    3  503    0  0.93219445218E+02  0.67911770774E+02 -0.29901540066E+03  0.32052172065E+03  0.47000000000E+01 0. -1.
         13    1    6    6    0    0  0.37038019766E+02 -0.37823314949E+02 -0.83546937479E+02  0.98906566132E+02  0.00000000000E+00 0. -1.
        -14    1    6    6    0    0 -0.41320992678E+02 -0.67360644258E+02 -0.15601882525E+03  0.17489069347E+03  0.00000000000E+00 0.  1.
         -5    1    5    5    0  501 -0.66973008562E+02  0.26951078307E+01 -0.43382542751E+02  0.79979888081E+02  0.47000000000E+01 0.  1.
<mgrwt>
<rscale>  2 0.21222762E+03</rscale>
<asrwt>0</asrwt>
<pdfrwt beam="2">  1        2 0.16171909E+00 0.21222762E+03</pdfrwt>
<pdfrwt beam="1">  1       -2 0.78092836E-02 0.21222762E+03</pdfrwt>
<totfact> 0.23914989E+03</totfact>
</mgrwt>
</event>
<event>
12    1  0.1093377E-001  0.2011940E+03  0.7546771E-02  0.1148735E+00
         -2   -1    0    0    0  501 -0.00000000000E+00  0.00000000000E+00  0.26856917503E+02  0.26856917503E+02  0.00000000000E+00 0.  1.
          2   -1    0    0  503    0  0.00000000000E+00 -0.00000000000E+00 -0.15779828137E+04  0.15779828137E+04  0.00000000000E+00 0. -1.
          6    2    1    2  503    0  0.59276140386E+02  0.81836727104E+02 -0.60532590201E+03  0.63785999603E+03  0.17388219049E+03 0.  0.
         24    2    3    3    0    0  0.45695982003E+02  0.43715747857E+02 -0.15568365650E+03  0.18637592244E+03  0.80618820269E+02 0.  0.
         -6    2    1    2    0  501 -0.59276140386E+02 -0.81836727104E+02 -0.94579999415E+03  0.96697973514E+03  0.17407259551E+03 0.  0.
        -24    2    5    5    0    0  0.26682695610E+02 -0.79152027474E+02 -0.51756493072E+03  0.53016914844E+03  0.78923119228E+02 0.  0.
          2    1    4    4  502    0  0.53913183719E+02  0.14485733369E+02 -0.14292597000E+03  0.15344152225E+03  0.00000000000E+00 0. -1.
         -1    1    4    4    0  502 -0.82172017153E+01  0.29230014488E+02 -0.12757686502E+02  0.32934400190E+02  0.00000000000E+00 0.  1.
          5    1    3    3  503    0  0.13580158383E+02  0.38120979247E+02 -0.44964224551E+03  0.45148407359E+03  0.47000000000E+01 0. -1.
         13    1    6    6    0    0  0.52190203877E+00 -0.25753298798E+02 -0.37250870942E+03  0.37339823698E+03  0.00000000000E+00 0. -1.
        -14    1    6    6    0    0  0.26160793571E+02 -0.53398728676E+02 -0.14505622130E+03  0.15677091147E+03  0.00000000000E+00 0.  1.
         -5    1    5    5    0  501 -0.85958835996E+02 -0.26846996304E+01 -0.42823506343E+03  0.43681058669E+03  0.47000000000E+01 0.  1.
<mgrwt>
<rscale>  2 0.20119403E+03</rscale>
<asrwt>0</asrwt>
<pdfrwt beam="2">  1        2 0.24276664E+00 0.20119403E+03</pdfrwt>
<pdfrwt beam="1">  1       -2 0.41318326E-02 0.20119403E+03</pdfrwt>
<totfact> 0.32388228E+03</totfact>
</mgrwt>
</event>
<event>
12    1  0.1093377E-001  0.2983385E+03  0.7546771E-02  0.1086074E+00
          3   -1    0    0  503    0  0.00000000000E+00  0.00000000000E+00  0.14201356574E+03  0.14201356574E+03  0.00000000000E+00 0.  1.
         -3   -1    0    0    0  501 -0.00000000000E+00 -0.00000000000E+00 -0.62807671419E+03  0.62807671419E+03  0.00000000000E+00 0. -1.
          6    2    1    2  503    0  0.17754667356E+03 -0.16680455090E+03 -0.26061370512E+03  0.39598452307E+03  0.17186523710E+03 0.  0.
         24    2    3    3    0    0  0.10274701606E+03 -0.29383183203E+02 -0.16506884937E+03  0.21259823536E+03  0.80808191920E+02 0.  0.
         -6    2    1    2    0  501 -0.17754667356E+03  0.16680455090E+03 -0.22544944333E+03  0.37410575686E+03  0.17257197433E+03 0.  0.
        -24    2    5    5    0    0 -0.13838923706E+03  0.11576470213E+03 -0.23772652274E+03  0.30844612181E+03  0.77923444814E+02 0.  0.
          2    1    4    4  502    0  0.61037913219E+02  0.17590484050E+02 -0.47565196220E+02  0.79356788435E+02  0.00000000000E+00 0. -1.
         -1    1    4    4    0  502  0.41709102838E+02 -0.46973667253E+02 -0.11750365315E+03  0.13324144692E+03  0.00000000000E+00 0.  1.
          5    1    3    3  503    0  0.74799657501E+02 -0.13742136769E+03 -0.95544855755E+02  0.18338628772E+03  0.47000000000E+01 0. -1.
         11    1    6    6    0    0 -0.13868734114E+03  0.79819050688E+02 -0.18458526464E+03  0.24428872133E+03  0.00000000000E+00 0. -1.
        -12    1    6    6    0    0  0.29810408692E+00  0.35945651447E+02 -0.53141258102E+02  0.64157400482E+02  0.00000000000E+00 0.  1.
         -5    1    5    5    0  501 -0.39157436501E+02  0.51039848761E+02  0.12277079417E+02  0.65659635042E+02  0.47000000000E+01 0.  1.
<mgrwt>
<rscale>  2 0.29833851E+03</rscale>
<asrwt>0</asrwt>
<pdfrwt beam="1">  1        3 0.21848241E-01 0.29833851E+03</pdfrwt>
<pdfrwt beam="2">  1       -3 0.96627185E-01 0.29833851E+03</pdfrwt>
<totfact> 0.47030778E+01</totfact>
</mgrwt>
</event>
<event>
12    1  0.1093377E-001  0.2020736E+03  0.7546771E-02  0.1148001E+00
         -1   -1    0    0    0  501 -0.00000000000E+00  0.00000000000E+00  0.14065465925E+03  0.14065465925E+03  0.00000000000E+00 0.  1.
          1   -1    0    0  503    0  0.00000000000E+00 -0.00000000000E+00 -0.52266618727E+03  0.52266618727E+03  0.00000000000E+00 0. -1.
          6    2    1    2  503    0  0.43560974639E+02 -0.93811631006E+02  0.29995473360E+02  0.20453851736E+03  0.17389104646E+03 0.  0.
         24    2    3    3    0    0 -0.17863710286E+01 -0.53306595168E+02  0.78529242977E+02  0.12659843473E+03  0.83758805292E+02 0.  0.
         -6    2    1    2    0  501 -0.43560974639E+02  0.93811631006E+02 -0.41200700138E+03  0.45878232916E+03  0.17330111292E+03 0.  0.
        -24    2    5    5    0    0 -0.91769832865E+02  0.83253641392E+02 -0.34915136046E+03  0.37872930454E+03  0.78589710346E+02 0.  0.
          4    1    4    4  502    0 -0.35259943234E+02 -0.54105131213E+02  0.41953963247E+02  0.77011452736E+02  0.00000000000E+00 0. -1.
         -3    1    4    4    0  502  0.33473572206E+02  0.79853604455E+00  0.36575279730E+02  0.49586981995E+02  0.00000000000E+00 0.  1.
          5    1    3    3  503    0  0.45347345667E+02 -0.40505035838E+02 -0.48533769617E+02  0.77940082631E+02  0.47000000000E+01 0. -1.
         11    1    6    6    0    0 -0.52897041511E+02  0.83834132764E+02 -0.30064731462E+03  0.31656763354E+03  0.00000000000E+00 0. -1.
        -12    1    6    6    0    0 -0.38872791353E+02 -0.58049137247E+00 -0.48504045840E+02  0.62161670994E+02  0.00000000000E+00 0.  1.
         -5    1    5    5    0  501  0.48208858226E+02  0.10557989614E+02 -0.62855640913E+02  0.80053024620E+02  0.47000000000E+01 0.  1.
<mgrwt>
<rscale>  2 0.20207360E+03</rscale>
<asrwt>0</asrwt>
<pdfrwt beam="2">  1        1 0.80410183E-01 0.20207360E+03</pdfrwt>
<pdfrwt beam="1">  1       -1 0.21639178E-01 0.20207360E+03</pdfrwt>
<totfact> 0.75646821E+02</totfact>
</mgrwt>
</event>
<event>
12    1  0.1093377E-001  0.5210154E+03  0.7546771E-02  0.1008435E+00
         -2   -1    0    0    0  501 -0.00000000000E+00  0.00000000000E+00  0.56567523105E+03  0.56567523105E+03  0.00000000000E+00 0.  1.
          2   -1    0    0  503    0  0.00000000000E+00 -0.00000000000E+00 -0.65822765466E+03  0.65822765466E+03  0.00000000000E+00 0. -1.
          6    2    1    2  503    0  0.30167128213E+03  0.38765487545E+03 -0.36481239434E+03  0.63601973569E+03  0.17364088286E+03 0.  0.
         24    2    3    3    0    0  0.14388534299E+03  0.16454231289E+03 -0.24081987644E+03  0.33590000516E+03  0.84008546689E+02 0.  0.
         -6    2    1    2    0  501 -0.30167128213E+03 -0.38765487545E+03  0.27225997073E+03  0.58788315002E+03  0.17377928959E+03 0.  0.
        -24    2    5    5    0    0 -0.22708296465E+03 -0.22860475503E+03  0.11135237976E+03  0.34961082527E+03  0.77469799339E+02 0.  0.
          2    1    4    4  502    0  0.13569432712E+03  0.10252156686E+03 -0.19240723930E+03  0.25679596535E+03  0.00000000000E+00 0. -1.
         -1    1    4    4    0  502  0.81910158717E+01  0.62020746031E+02 -0.48412637133E+02  0.79104039805E+02  0.00000000000E+00 0.  1.
          5    1    3    3  503    0  0.15778593914E+03  0.22311256255E+03 -0.12399251790E+03  0.30011973053E+03  0.47000000000E+01 0. -1.
         11    1    6    6    0    0 -0.16263861119E+03 -0.11007789575E+03  0.70250949398E+02  0.20857530264E+03  0.00000000000E+00 0. -1.
        -12    1    6    6    0    0 -0.64444353464E+02 -0.11852685928E+03  0.41101430361E+02  0.14103552263E+03  0.00000000000E+00 0.  1.
         -5    1    5    5    0  501 -0.74588317482E+02 -0.15905012042E+03  0.16090759097E+03  0.23827232475E+03  0.47000000000E+01 0.  1.
<mgrwt>
<rscale>  2 0.52101542E+03</rscale>
<asrwt>0</asrwt>
<pdfrwt beam="2">  1        2 0.10126579E+00 0.52101542E+03</pdfrwt>
<pdfrwt beam="1">  1       -2 0.87026959E-01 0.52101542E+03</pdfrwt>
<totfact> 0.52201835E+01</totfact>
</mgrwt>
</event>
<event>
12    1  0.1093377E-001  0.1724091E+03  0.7546771E-02  0.1175359E+00
         -2   -1    0    0    0  501 -0.00000000000E+00  0.00000000000E+00  0.66468458444E+01  0.66468458444E+01  0.00000000000E+00 0. -1.
          2   -1    0    0  503    0  0.00000000000E+00 -0.00000000000E+00 -0.45999619861E+04  0.45999619861E+04  0.00000000000E+00 0.  1.
          6    2    1    2  503    0  0.11238030029E+02  0.70435073798E+01 -0.26818128475E+04  0.26873542357E+04  0.17197887980E+03 0.  0.
         24    2    3    3    0    0 -0.32398488526E+02 -0.34751209044E+02 -0.21771613147E+04  0.21790765522E+04  0.78012315716E+02 0.  0.
         -6    2    1    2    0  501 -0.11238030029E+02 -0.70435073798E+01 -0.19115022928E+04  0.19192545962E+04  0.17181759360E+03 0.  0.
        -24    2    5    5    0    0 -0.59695788522E+02  0.36510625380E+02 -0.12447357794E+04  0.12492957988E+04  0.80474961955E+02 0.  0.
          4    1    4    4  502    0  0.16786290088E+02 -0.29616948562E+02 -0.48525886869E+03  0.48645155238E+03  0.00000000000E+00 0. -1.
         -3    1    4    4    0  502 -0.49184778614E+02 -0.51342604817E+01 -0.16919024460E+04  0.16926249998E+04  0.00000000000E+00 0.  1.
          5    1    3    3  503    0  0.43636518556E+02  0.41794716424E+02 -0.50465153280E+03  0.50827768358E+03  0.47000000000E+01 0. -1.
         11    1    6    6    0    0 -0.72677772322E+02  0.14646344080E+02 -0.10868283938E+04  0.10893541810E+04  0.00000000000E+00 0. -1.
        -12    1    6    6    0    0  0.12981983800E+02  0.21864281301E+02 -0.15790738561E+03  0.15994161788E+03  0.00000000000E+00 0.  1.
         -5    1    5    5    0  501  0.48457758492E+02 -0.43554132760E+02 -0.66676651336E+03  0.66995879737E+03  0.47000000000E+01 0.  1.
<mgrwt>
<rscale>  2 0.17240911E+03</rscale>
<asrwt>0</asrwt>
<pdfrwt beam="2">  1        2 0.70768563E+00 0.17240911E+03</pdfrwt>
<pdfrwt beam="1">  1       -2 0.10225929E-02 0.17240911E+03</pdfrwt>
<totfact> 0.29513053E+02</totfact>
</mgrwt>
</event>
<event>
12    1  0.1093377E-001  0.1741493E+03  0.7546771E-02  0.1173589E+00
         -2   -1    0    0    0  501 -0.00000000000E+00  0.00000000000E+00  0.29641225143E+02  0.29641225143E+02  0.00000000000E+00 0.  1.
          2   -1    0    0  503    0  0.00000000000E+00 -0.00000000000E+00 -0.13927449100E+04  0.13927449100E+04  0.00000000000E+00 0. -1.
          6    2    1    2  503    0  0.13951696563E+02  0.20685448858E+02 -0.31398203148E+03  0.35883920683E+03  0.17192534030E+03 0.  0.
         24    2    3    3    0    0  0.74269250748E+02  0.22625324386E+02 -0.17668698490E+03  0.20879257983E+03  0.79675741908E+02 0.  0.
         -6    2    1    2    0  501 -0.13951696563E+02 -0.20685448858E+02 -0.10491216533E+04  0.10635469283E+04  0.17278103917E+03 0.  0.
        -24    2    5    5    0    0 -0.33745041200E+02 -0.63997321181E+02 -0.90941848303E+03  0.91587580527E+03  0.80945218902E+02 0.  0.
          4    1    4    4  502    0  0.82845092873E+02  0.36478316065E+02 -0.16667504032E+03  0.18966957063E+03  0.00000000000E+00 0. -1.
         -3    1    4    4    0  502 -0.85758421255E+01 -0.13852991679E+02 -0.10011944574E+02  0.19123009197E+02  0.00000000000E+00 0.  1.
          5    1    3    3  503    0 -0.60317554185E+02 -0.19398755286E+01 -0.13729504658E+03  0.15004662700E+03  0.47000000000E+01 0. -1.
         13    1    6    6    0    0  0.88274090752E+01 -0.62921854218E+02 -0.44573120154E+03  0.45023703415E+03  0.00000000000E+00 0. -1.
        -14    1    6    6    0    0 -0.42572450275E+02 -0.10754669629E+01 -0.46368728149E+03  0.46563877112E+03  0.00000000000E+00 0.  1.
         -5    1    5    5    0  501  0.19793344637E+02  0.43311872323E+02 -0.13970317030E+03  0.14767112300E+03  0.47000000000E+01 0.  1.
<mgrwt>
<rscale>  2 0.17414932E+03</rscale>
<asrwt>0</asrwt>
<pdfrwt beam="2">  1        2 0.21426843E+00 0.17414932E+03</pdfrwt>
<pdfrwt beam="1">  1       -2 0.45601889E-02 0.17414932E+03</pdfrwt>
<totfact> 0.34949417E+03</totfact>
</mgrwt>
</event>
<event>
12    1  0.1093377E-001  0.3430574E+03  0.7546771E-02  0.1065501E+00
         -1   -1    0    0    0  501 -0.00000000000E+00  0.00000000000E+00  0.77993622140E+02  0.77993622140E+02  0.00000000000E+00 0. -1.
          1   -1    0    0  503    0  0.00000000000E+00 -0.00000000000E+00 -0.17867131158E+04  0.17867131158E+04  0.00000000000E+00 0.  1.
          6    2    1    2  503    0  0.28965755191E+03 -0.59075539806E+02 -0.48743352718E+03  0.59624142371E+03  0.17470253331E+03 0.  0.
         24    2    3    3    0    0  0.61659052240E+02 -0.42199985665E+02 -0.12526459495E+03  0.16792317095E+03  0.83212349316E+02 0.  0.
         -6    2    1    2    0  501 -0.28965755191E+03  0.59075539806E+02 -0.12212859665E+04  0.12684653142E+04  0.17341691007E+03 0.  0.
        -24    2    5    5    0    0 -0.20899630218E+03  0.64646537882E+02 -0.10862155762E+04  0.11109744460E+04  0.80878381685E+02 0.  0.
          2    1    4    4  502    0  0.13040923175E+02  0.86983066885E+01  0.77095448336E+01  0.17468923780E+02  0.00000000000E+00 0. -1.
         -1    1    4    4    0  502  0.48618129066E+02 -0.50898292354E+02 -0.13297413979E+03  0.15045424717E+03  0.00000000000E+00 0.  1.
          5    1    3    3  503    0  0.22799849967E+03 -0.16875554141E+02 -0.36216893223E+03  0.42831825277E+03  0.47000000000E+01 0. -1.
         13    1    6    6    0    0 -0.19447540923E+02  0.36180322225E+02 -0.22058235660E+03  0.22437423784E+03  0.00000000000E+00 0. -1.
        -14    1    6    6    0    0 -0.18954876126E+03  0.28466215657E+02 -0.86563321959E+03  0.88660020821E+03  0.00000000000E+00 0.  1.
         -5    1    5    5    0  501 -0.80661249731E+02 -0.55709980756E+01 -0.13507039028E+03  0.15749086818E+03  0.47000000000E+01 0.  1.
<mgrwt>
<rscale>  2 0.34305744E+03</rscale>
<asrwt>0</asrwt>
<pdfrwt beam="2">  1        1 0.27487892E+00 0.34305744E+03</pdfrwt>
<pdfrwt beam="1">  1       -1 0.11999020E-01 0.34305744E+03</pdfrwt>
<totfact> 0.21053682E+02</totfact>
</mgrwt>
</event>
<event>
12    1  0.1093377E-001  0.2833414E+03  0.7546771E-02  0.1093878E+00
         -1   -1    0    0    0  501 -0.00000000000E+00  0.00000000000E+00  0.84856197900E+03  0.84856197900E+03  0.00000000000E+00 0.  1.
          1   -1    0    0  503    0  0.00000000000E+00 -0.00000000000E+00 -0.11142610225E+03  0.11142610225E+03  0.00000000000E+00 0. -1.
          6    2    1    2  503    0 -0.16680065429E+03  0.14939269426E+03  0.55522229821E+03  0.62341752459E+03  0.17388782061E+03 0.  0.
         24    2    3    3    0    0 -0.15134873710E+02  0.17616769255E+02  0.14815974616E+03  0.16944680450E+03  0.78876449033E+02 0.  0.
         -6    2    1    2    0  501  0.16680065429E+03 -0.14939269426E+03  0.18191357854E+03  0.33657055666E+03  0.17333941901E+03 0.  0.
        -24    2    5    5    0    0  0.10489491809E+03 -0.69742567627E+02  0.26220936884E+02  0.15099374907E+03  0.79022814100E+02 0.  0.
          2    1    4    4  502    0 -0.35452915186E+02 -0.14377616375E+02  0.42438093012E+02  0.57136825133E+02  0.00000000000E+00 0. -1.
         -1    1    4    4    0  502  0.20318041476E+02  0.31994385630E+02  0.10572165315E+03  0.11230997937E+03  0.00000000000E+00 0.  1.
          5    1    3    3  503    0 -0.15166578058E+03  0.13177592501E+03  0.40706255206E+03  0.45397072009E+03  0.47000000000E+01 0. -1.
         11    1    6    6    0    0 -0.68329893352E+01 -0.21774367400E+02 -0.88027976845E+01  0.24460213940E+02  0.00000000000E+00 0. -1.
        -12    1    6    6    0    0  0.11172790742E+03 -0.47968200227E+02  0.35023734569E+02  0.12653353513E+03  0.00000000000E+00 0.  1.
         -5    1    5    5    0  501  0.61905736201E+02 -0.79650126637E+02  0.15569264166E+03  0.18557680759E+03  0.47000000000E+01 0.  1.
<mgrwt>
<rscale>  2 0.28334139E+03</rscale>
<asrwt>0</asrwt>
<pdfrwt beam="2">  1        1 0.17142478E-01 0.28334139E+03</pdfrwt>
<pdfrwt beam="1">  1       -1 0.13054799E+00 0.28334139E+03</pdfrwt>
<totfact> 0.16881929E+02</totfact>
</mgrwt>
</event>
<event>
12    1  0.1093377E-001  0.1736251E+03  0.7546771E-02  0.1174119E+00
         -2   -1    0    0    0  501 -0.00000000000E+00  0.00000000000E+00  0.37407073324E+02  0.37407073324E+02  0.00000000000E+00 0. -1.
          2   -1    0    0  503    0  0.00000000000E+00 -0.00000000000E+00 -0.82541390567E+03  0.82541390567E+03  0.00000000000E+00 0.  1.
          6    2    1    2  503    0 -0.15840498133E+02  0.12451164401E+02 -0.45968669405E+03  0.49127551656E+03  0.17214477514E+03 0.  0.
         24    2    3    3    0    0  0.47527888427E+02  0.42518688952E+02 -0.25510983178E+03  0.27495771557E+03  0.80336666552E+02 0.  0.
         -6    2    1    2    0  501  0.15840498133E+02 -0.12451164401E+02 -0.32832013830E+03  0.37154546244E+03  0.17275984652E+03 0.  0.
        -24    2    5    5    0    0 -0.51212819394E+02  0.18886860681E+02 -0.21782984462E+03  0.23847249672E+03  0.80248514684E+02 0.  0.
          2    1    4    4  502    0  0.63962822481E+02  0.85068804516E+01 -0.17035966839E+03  0.18217032219E+03  0.00000000000E+00 0. -1.
         -1    1    4    4    0  502 -0.16434934054E+02  0.34011808500E+02 -0.84750163392E+02  0.92787393377E+02  0.00000000000E+00 0.  1.
          5    1    3    3  503    0 -0.63368386560E+02 -0.30067524550E+02 -0.20457686227E+03  0.21631780099E+03  0.47000000000E+01 0. -1.
         13    1    6    6    0    0 -0.16438915080E+01  0.40145592606E+02 -0.65120330815E+02  0.76518157782E+02  0.00000000000E+00 0. -1.
        -14    1    6    6    0    0 -0.49568927886E+02 -0.21258731925E+02 -0.15270951380E+03  0.16195433894E+03  0.00000000000E+00 0.  1.
         -5    1    5    5    0  501  0.67053317526E+02 -0.31338025082E+02 -0.11049029368E+03  0.13307296572E+03  0.47000000000E+01 0.  1.
<mgrwt>
<rscale>  2 0.17362506E+03</rscale>
<asrwt>0</asrwt>
<pdfrwt beam="2">  1        2 0.12698674E+00 0.17362506E+03</pdfrwt>
<pdfrwt beam="1">  1       -2 0.57549349E-02 0.17362506E+03</pdfrwt>
<totfact> 0.52770107E+03</totfact>
</mgrwt>
</event>
<event>
12    1  0.1093377E-001  0.1724002E+03  0.7546771E-02  0.1175368E+00
          2   -1    0    0  503    0  0.00000000000E+00  0.00000000000E+00  0.21420468574E+04  0.21420468574E+04  0.00000000000E+00 0.  1.
         -2   -1    0    0    0  501 -0.00000000000E+00 -0.00000000000E+00 -0.19486290412E+02  0.19486290412E+02  0.00000000000E+00 0. -1.
          6    2    1    2  503    0 -0.75918547702E+01 -0.65314206019E+01  0.16417920512E+04  0.16508325548E+04  0.17224020742E+03 0.  0.
         24    2    3    3    0    0  0.38742490604E+02 -0.51548178929E+02  0.11817284757E+04  0.11862316900E+04  0.80655048288E+02 0.  0.
         -6    2    1    2    0  501  0.75918547702E+01  0.65314206019E+01  0.48076851581E+03  0.51070059299E+03  0.17197800489E+03 0.  0.
        -24    2    5    5    0    0  0.21309479683E+02 -0.47763527675E+02  0.18202946830E+03  0.20672160827E+03  0.82847133298E+02 0.  0.
          4    1    4    4  502    0  0.31324495536E+02 -0.17639447158E-01  0.83777659760E+03  0.83836200523E+03  0.00000000000E+00 0. -1.
         -3    1    4    4    0  502  0.74179950680E+01 -0.51530539482E+02  0.34395187811E+03  0.34786968480E+03  0.00000000000E+00 0.  1.
          5    1    3    3  503    0 -0.46334345374E+02  0.45016758327E+02  0.46006357549E+03  0.46460086481E+03  0.47000000000E+01 0. -1.
         11    1    6    6    0    0  0.20564444833E+02 -0.49048459005E+02  0.19067288505E+03  0.19795150117E+03  0.00000000000E+00 0. -1.
        -12    1    6    6    0    0  0.74503485086E+00  0.12849313303E+01 -0.86434167491E+01  0.87701071003E+01  0.00000000000E+00 0.  1.
         -5    1    5    5    0  501 -0.13717624913E+02  0.54294948277E+02  0.29873904751E+03  0.30397898471E+03  0.47000000000E+01 0.  1.
<mgrwt>
<rscale>  2 0.17240018E+03</rscale>
<asrwt>0</asrwt>
<pdfrwt beam="1">  1        2 0.32954549E+00 0.17240018E+03</pdfrwt>
<pdfrwt beam="2">  1       -2 0.29978925E-02 0.17240018E+03</pdfrwt>
<totfact> 0.26615811E+03</totfact>
</mgrwt>
</event>
<event>
12    1  0.1093377E-001  0.1761589E+03  0.7546771E-02  0.1171573E+00
          1   -1    0    0  503    0  0.00000000000E+00  0.00000000000E+00  0.19930130175E+03  0.19930130175E+03  0.00000000000E+00 0.  1.
         -1   -1    0    0    0  501 -0.00000000000E+00 -0.00000000000E+00 -0.17308093304E+03  0.17308093304E+03  0.00000000000E+00 0. -1.
          6    2    1    2  503    0  0.26031794646E+02  0.90314624002E+01 -0.45969287562E+02  0.18051140032E+03  0.17237160033E+03 0.  0.
         24    2    3    3    0    0  0.15254223704E+02 -0.43316228786E+02  0.21762795558E+02  0.94104445206E+02  0.79202527232E+02 0.  0.
         -6    2    1    2    0  501 -0.26031794646E+02 -0.90314624002E+01  0.72189656275E+02  0.19187083447E+03  0.17562416976E+03 0.  0.
        -24    2    5    5    0    0  0.42563918499E+02 -0.82815562463E+00 -0.24572059469E+01  0.90052809822E+02  0.79316440264E+02 0.  0.
          4    1    4    4  502    0 -0.27714143951E+02 -0.36961592026E+02  0.16217229747E+01  0.46226215997E+02  0.00000000000E+00 0. -1.
         -3    1    4    4    0  502  0.42968367656E+02 -0.63546367605E+01  0.20141072583E+02  0.47878229209E+02  0.00000000000E+00 0.  1.
          5    1    3    3  503    0  0.10777570941E+02  0.52347691186E+02 -0.67732083121E+02  0.86406955112E+02  0.47000000000E+01 0. -1.
         11    1    6    6    0    0  0.20881627309E+02  0.37319544226E+02 -0.13428163505E+02  0.44823055623E+02  0.00000000000E+00 0. -1.
        -12    1    6    6    0    0  0.21682291191E+02 -0.38147699851E+02  0.10970957558E+02  0.45229754199E+02  0.00000000000E+00 0.  1.
         -5    1    5    5    0  501 -0.68595713145E+02 -0.82033067755E+01  0.74646862222E+02  0.10181802465E+03  0.47000000000E+01 0.  1.
<mgrwt>
<rscale>  2 0.17615893E+03</rscale>
<asrwt>0</asrwt>
<pdfrwt beam="1">  1        1 0.30661739E-01 0.17615893E+03</pdfrwt>
<pdfrwt beam="2">  1       -1 0.26627836E-01 0.17615893E+03</pdfrwt>
<totfact> 0.18192878E+03</totfact>
</mgrwt>
</event>
<event>
12    1  0.1093377E-001  0.1840792E+03  0.7546771E-02  0.1163913E+00
          2   -1    0    0  503    0  0.00000000000E+00  0.00000000000E+00  0.20383095042E+04  0.20383095042E+04  0.00000000000E+00 0.  1.
         -2   -1    0    0    0  501 -0.00000000000E+00 -0.00000000000E+00 -0.19852604152E+02  0.19852604152E+02  0.00000000000E+00 0. -1.
          6    2    1    2  503    0 -0.37742087920E+02 -0.43584028786E+02  0.58847551969E+03  0.61621832825E+03  0.17348647795E+03 0.  0.
         24    2    3    3    0    0  0.45634488616E+02 -0.35703744441E+02  0.32448576464E+03  0.33922296156E+03  0.80149499541E+02 0.  0.
         -6    2    1    2    0  501  0.37742087920E+02  0.43584028786E+02  0.14299813804E+04  0.14419437801E+04  0.17615641925E+03 0.  0.
        -24    2    5    5    0    0 -0.26277952487E+02  0.16591119403E+02  0.39966363626E+03  0.40927542747E+03  0.82520042119E+02 0.  0.
          2    1    4    4  502    0 -0.92118389740E+01 -0.73800039055E+01  0.34368482377E+01  0.12293671573E+02  0.00000000000E+00 0. -1.
         -1    1    4    4    0  502  0.54846327590E+02 -0.28323740536E+02  0.32104891640E+03  0.32692928999E+03  0.00000000000E+00 0.  1.
          5    1    3    3  503    0 -0.83376576536E+02 -0.78802843446E+01  0.26398975505E+03  0.27699536669E+03  0.47000000000E+01 0. -1.
         11    1    6    6    0    0 -0.22845516744E+02 -0.16881859937E+02  0.46342839423E+02  0.54355989514E+02  0.00000000000E+00 0. -1.
        -12    1    6    6    0    0 -0.34324357430E+01  0.33472979339E+02  0.35332079684E+03  0.35491943796E+03  0.00000000000E+00 0.  1.
         -5    1    5    5    0  501  0.64020040406E+02  0.26992909383E+02  0.10303177441E+04  0.10326683526E+04  0.47000000000E+01 0.  1.
<mgrwt>
<rscale>  2 0.18407917E+03</rscale>
<asrwt>0</asrwt>
<pdfrwt beam="1">  1        2 0.31358591E+00 0.18407917E+03</pdfrwt>
<pdfrwt beam="2">  1       -2 0.30542484E-02 0.18407917E+03</pdfrwt>
<totfact> 0.29303074E+03</totfact>
</mgrwt>
</event>
<event>
12    1  0.1093377E-001  0.2456063E+03  0.7546771E-02  0.1116113E+00
         -2   -1    0    0    0  501 -0.00000000000E+00  0.00000000000E+00  0.81382025382E+02  0.81382025382E+02  0.00000000000E+00 0. -1.
          2   -1    0    0  503    0  0.00000000000E+00 -0.00000000000E+00 -0.74456752609E+03  0.74456752609E+03  0.00000000000E+00 0.  1.
          6    2    1    2  503    0  0.11905756549E+03 -0.12786892403E+03 -0.30439341064E+03  0.39133953450E+03  0.17310724188E+03 0.  0.
         24    2    3    3    0    0  0.70045168178E+02 -0.39647047257E+01 -0.92731658847E+02  0.14118506658E+03  0.80075077292E+02 0.  0.
         -6    2    1    2    0  501 -0.11905756549E+03  0.12786892403E+03 -0.35879209006E+03  0.43461001697E+03  0.17213058219E+03 0.  0.
        -24    2    5    5    0    0 -0.13390746983E+03  0.92219388313E+02 -0.19511243037E+03  0.26637051490E+03  0.80304200834E+02 0.  0.
          2    1    4    4  502    0  0.54328113228E+02 -0.16087636671E+02 -0.11827170093E+02  0.57881239559E+02  0.00000000000E+00 0. -1.
         -1    1    4    4    0  502  0.15717054951E+02  0.12122931946E+02 -0.80904488754E+02  0.83303827018E+02  0.00000000000E+00 0.  1.
          5    1    3    3  503    0  0.49012397307E+02 -0.12390421930E+03 -0.21166175180E+03  0.25015446793E+03  0.47000000000E+01 0. -1.
         13    1    6    6    0    0 -0.38489268034E+02  0.13773707868E+02 -0.72223042380E+01  0.41512654224E+02  0.00000000000E+00 0. -1.
        -14    1    6    6    0    0 -0.95418201792E+02  0.78445680445E+02 -0.18789012613E+03  0.22485786068E+03  0.00000000000E+00 0.  1.
         -5    1    5    5    0  501  0.14849904341E+02  0.35649535713E+02 -0.16367965970E+03  0.16823950206E+03  0.47000000000E+01 0.  1.
<mgrwt>
<rscale>  2 0.24560631E+03</rscale>
<asrwt>0</asrwt>
<pdfrwt beam="2">  1        2 0.11454885E+00 0.24560631E+03</pdfrwt>
<pdfrwt beam="1">  1       -2 0.12520312E-01 0.24560631E+03</pdfrwt>
<totfact> 0.17893579E+03</totfact>
</mgrwt>
</event>
<event>
12    1  0.1093377E-001  0.2661104E+03  0.7546771E-02  0.1103527E+00
         -2   -1    0    0    0  501 -0.00000000000E+00  0.00000000000E+00  0.53075523129E+02  0.53075523129E+02  0.00000000000E+00 0. -1.
          2   -1    0    0  503    0  0.00000000000E+00 -0.00000000000E+00 -0.13423685069E+04  0.13423685069E+04  0.00000000000E+00 0.  1.
          6    2    1    2  503    0  0.18923140512E+03 -0.72965260209E+02 -0.69886578899E+03  0.74779744091E+03  0.17220675866E+03 0.  0.
         24    2    3    3    0    0  0.20569357683E+03 -0.70384647000E+02 -0.69109790317E+03  0.72882133193E+03  0.79374908118E+02 0.  0.
         -6    2    1    2    0  501 -0.18923140512E+03  0.72965260209E+02 -0.59042719483E+03  0.64764658917E+03  0.17236408612E+03 0.  0.
        -24    2    5    5    0    0 -0.31598680443E+02  0.71562039367E+00 -0.26869554957E+03  0.28213129824E+03  0.80011139023E+02 0.  0.
          2    1    4    4  502    0  0.83429877093E+02  0.98934540903E+01 -0.28819600549E+03  0.30019220910E+03  0.00000000000E+00 0. -1.
         -1    1    4    4    0  502  0.12226369973E+03 -0.80278101090E+02 -0.40290189768E+03  0.42862912283E+03  0.00000000000E+00 0.  1.
          5    1    3    3  503    0 -0.16462171704E+02 -0.25806132098E+01 -0.77678858268E+01  0.18976108979E+02  0.47000000000E+01 0. -1.
         13    1    6    6    0    0  0.13721257301E+02 -0.12390615459E+01 -0.51466228319E+01  0.14707001802E+02  0.00000000000E+00 0. -1.
        -14    1    6    6    0    0 -0.45319937744E+02  0.19546819396E+01 -0.26354892674E+03  0.26742429644E+03  0.00000000000E+00 0.  1.
         -5    1    5    5    0  501 -0.15763272468E+03  0.72249639816E+02 -0.32173164525E+03  0.36551529093E+03  0.47000000000E+01 0.  1.
<mgrwt>
<rscale>  2 0.26611036E+03</rscale>
<asrwt>0</asrwt>
<pdfrwt beam="2">  1        2 0.20651822E+00 0.26611036E+03</pdfrwt>
<pdfrwt beam="1">  1       -2 0.81654657E-02 0.26611036E+03</pdfrwt>
<totfact> 0.15230577E+03</totfact>
</mgrwt>
</event>
<event>
12    1  0.1093377E-001  0.3314848E+03  0.7546771E-02  0.1070482E+00
         -1   -1    0    0    0  501 -0.00000000000E+00  0.00000000000E+00  0.10337312582E+03  0.10337312582E+03  0.00000000000E+00 0.  1.
          1   -1    0    0  503    0  0.00000000000E+00 -0.00000000000E+00 -0.12235683587E+04  0.12235683587E+04  0.00000000000E+00 0. -1.
          6    2    1    2  503    0 -0.15512559790E+03 -0.23835082484E+03 -0.32055403429E+03  0.46153050814E+03  0.17140727585E+03 0.  0.
         24    2    3    3    0    0 -0.10531630653E+03 -0.12775656243E+03 -0.10013284477E+03  0.20989655341E+03  0.81343179577E+02 0.  0.
         -6    2    1    2    0  501  0.15512559790E+03  0.23835082484E+03 -0.79964119862E+03  0.86541097642E+03  0.16921892551E+03 0.  0.
        -24    2    5    5    0    0  0.30920926995E+02  0.34530551278E+02 -0.22127599800E+03  0.23971304652E+03  0.79691998870E+02 0.  0.
          2    1    4    4  502    0 -0.19823427333E+02 -0.77510669198E+02 -0.69860840456E+02  0.10621397808E+03  0.00000000000E+00 0. -1.
         -1    1    4    4    0  502 -0.85492879199E+02 -0.50245893237E+02 -0.30272004315E+02  0.10368257533E+03  0.00000000000E+00 0.  1.
          5    1    3    3  503    0 -0.49809291371E+02 -0.11059426241E+03 -0.22042118952E+03  0.25163395473E+03  0.47000000000E+01 0. -1.
         13    1    6    6    0    0  0.53754494508E+02  0.39444051359E+02 -0.18418057112E+03  0.19587715958E+03  0.00000000000E+00 0. -1.
        -14    1    6    6    0    0 -0.22833567512E+02 -0.49135000816E+01 -0.37095426874E+02  0.43835886934E+02  0.00000000000E+00 0.  1.
         -5    1    5    5    0  501  0.12420467091E+03  0.20382027357E+03 -0.57836520063E+03  0.62569792991E+03  0.47000000000E+01 0.  1.
<mgrwt>
<rscale>  2 0.33148482E+03</rscale>
<asrwt>0</asrwt>
<pdfrwt beam="2">  1        1 0.18824129E+00 0.33148482E+03</pdfrwt>
<pdfrwt beam="1">  1       -1 0.15903557E-01 0.33148482E+03</pdfrwt>
<totfact> 0.32183082E+02</totfact>
</mgrwt>
</event>
<event>
12    1  0.1093377E-001  0.1956253E+03  0.7546771E-02  0.1153483E+00
          3   -1    0    0  503    0  0.00000000000E+00  0.00000000000E+00  0.87169114663E+02  0.87169114663E+02  0.00000000000E+00 0.  1.
         -3   -1    0    0    0  501 -0.00000000000E+00 -0.00000000000E+00 -0.55566333223E+03  0.55566333223E+03  0.00000000000E+00 0. -1.
          6    2    1    2  503    0 -0.88164298628E+02  0.21735375855E+02 -0.38160536048E+03  0.42887351920E+03  0.17339110187E+03 0.  0.
         24    2    3    3    0    0  0.57990123625E+01 -0.14971278021E+02 -0.10518905121E+03  0.13458701207E+03  0.82408492358E+02 0.  0.
         -6    2    1    2    0  501  0.88164298628E+02 -0.21735375855E+02 -0.86888857087E+02  0.21395892769E+03  0.17315709381E+03 0.  0.
        -24    2    5    5    0    0  0.11949454489E+03 -0.45573091583E+02 -0.86481046201E+02  0.17430949728E+03  0.80925747183E+02 0.  0.
          2    1    4    4  502    0  0.27060223703E+02 -0.48674193049E+01 -0.10747523778E+03  0.11093635208E+03  0.00000000000E+00 0. -1.
         -1    1    4    4    0  502 -0.21261211340E+02 -0.10103858716E+02  0.22861865715E+01  0.23650659983E+02  0.00000000000E+00 0.  1.
          5    1    3    3  503    0 -0.93963310991E+02  0.36706653875E+02 -0.27641630927E+03  0.29428650713E+03  0.47000000000E+01 0. -1.
         11    1    6    6    0    0  0.35431874753E+02 -0.25323809192E+02 -0.75482854755E+02  0.87145707998E+02  0.00000000000E+00 0. -1.
        -12    1    6    6    0    0  0.84062670136E+02 -0.20249282391E+02 -0.10998191445E+02  0.87163789286E+02  0.00000000000E+00 0.  1.
         -5    1    5    5    0  501 -0.31330246261E+02  0.23837715728E+02 -0.40781088601E+00  0.39649430407E+02  0.47000000000E+01 0.  1.
<mgrwt>
<rscale>  2 0.19562534E+03</rscale>
<asrwt>0</asrwt>
<pdfrwt beam="1">  1        3 0.13410632E-01 0.19562534E+03</pdfrwt>
<pdfrwt beam="2">  1       -3 0.85486670E-01 0.19562534E+03</pdfrwt>
<totfact> 0.14122259E+02</totfact>
</mgrwt>
</event>
<event>
12    1  0.1093377E-001  0.1899553E+03  0.7546771E-02  0.1158502E+00
          1   -1    0    0  503    0  0.00000000000E+00  0.00000000000E+00  0.24940377126E+03  0.24940377126E+03  0.00000000000E+00 0. -1.
         -1   -1    0    0    0  501 -0.00000000000E+00 -0.00000000000E+00 -0.14482076829E+03  0.14482076829E+03  0.00000000000E+00 0.  1.
          6    2    1    2  503    0  0.47448548323E+02  0.29872881870E+02  0.58457046076E+02  0.20172988049E+03  0.18475379465E+03 0.  0.
         24    2    3    3    0    0  0.47750064013E+02  0.72877901761E+02  0.89463842733E+02  0.14850362675E+03  0.80363491863E+02 0.  0.
         -6    2    1    2    0  501 -0.47448548323E+02 -0.29872881870E+02  0.46125956887E+02  0.19249465906E+03  0.17827741321E+03 0.  0.
        -24    2    5    5    0    0 -0.82347257558E+02 -0.67888296975E+02  0.18176126412E+02  0.13361873261E+03  0.78317957329E+02 0.  0.
          4    1    4    4  502    0  0.31027118641E+01  0.43953880702E+02  0.84217202421E+02  0.95047922825E+02  0.00000000000E+00 0. -1.
         -3    1    4    4    0  502  0.44647352148E+02  0.28924021059E+02  0.52466403122E+01  0.53455703930E+02  0.00000000000E+00 0.  1.
          5    1    3    3  503    0 -0.30151568950E+00 -0.43005019891E+02 -0.31006796657E+02  0.53226253733E+02  0.47000000000E+01 0. -1.
         11    1    6    6    0    0 -0.38394389892E+02 -0.50200642232E+02  0.46460454332E+02  0.78439833455E+02  0.00000000000E+00 0. -1.
        -12    1    6    6    0    0 -0.43952867666E+02 -0.17687654742E+02 -0.28284327920E+02  0.55178899158E+02  0.00000000000E+00 0.  1.
         -5    1    5    5    0  501  0.34898709235E+02  0.38015415104E+02  0.27949830475E+02  0.58875926451E+02  0.47000000000E+01 0.  1.
<mgrwt>
<rscale>  2 0.18995528E+03</rscale>
<asrwt>0</asrwt>
<pdfrwt beam="1">  1        1 0.38369811E-01 0.18995528E+03</pdfrwt>
<pdfrwt beam="2">  1       -1 0.22280118E-01 0.18995528E+03</pdfrwt>
<totfact> 0.18486665E+03</totfact>
</mgrwt>
</event>
<event>
12    1  0.1093377E-001  0.1954782E+03  0.7546771E-02  0.1153611E+00
          1   -1    0    0  503    0  0.00000000000E+00  0.00000000000E+00  0.10090187598E+03  0.10090187598E+03  0.00000000000E+00 0. -1.
         -1   -1    0    0    0  501 -0.00000000000E+00 -0.00000000000E+00 -0.44451282977E+03  0.44451282977E+03  0.00000000000E+00 0.  1.
          6    2    1    2  503    0 -0.91537458969E+02  0.16438320312E+02 -0.27733410139E+03  0.33976817702E+03  0.17285509988E+03 0.  0.
         24    2    3    3    0    0 -0.15306241562E+02  0.34678118808E+02 -0.23296293586E+03  0.24957516683E+03  0.81112153592E+02 0.  0.
         -6    2    1    2    0  501  0.91537458969E+02 -0.16438320312E+02 -0.66276852406E+02  0.20564652873E+03  0.17102207123E+03 0.  0.
        -24    2    5    5    0    0  0.93120160796E+02 -0.34937465581E+02  0.96991114853E+01  0.12729373421E+03  0.78851957219E+02 0.  0.
          4    1    4    4  502    0 -0.48903055019E+02  0.19420552828E+02 -0.13918823233E+03  0.14880198480E+03  0.00000000000E+00 0. -1.
         -3    1    4    4    0  502  0.33596813458E+02  0.15257565980E+02 -0.93774703530E+02  0.10077318203E+03  0.00000000000E+00 0.  1.
          5    1    3    3  503    0 -0.76231217407E+02 -0.18239798496E+02 -0.44371165531E+02  0.90193010190E+02  0.47000000000E+01 0. -1.
         13    1    6    6    0    0  0.76179378252E+02 -0.32416804832E+01  0.34436443954E+02  0.83664059401E+02  0.00000000000E+00 0. -1.
        -14    1    6    6    0    0  0.16940782544E+02 -0.31695785098E+02 -0.24737332468E+02  0.43629674808E+02  0.00000000000E+00 0.  1.
         -5    1    5    5    0  501 -0.15827018277E+01  0.18499145269E+02 -0.75975963891E+02  0.78352794526E+02  0.47000000000E+01 0.  1.
<mgrwt>
<rscale>  2 0.19547824E+03</rscale>
<asrwt>0</asrwt>
<pdfrwt beam="1">  1        1 0.15523365E-01 0.19547824E+03</pdfrwt>
<pdfrwt beam="2">  1       -1 0.68386590E-01 0.19547824E+03</pdfrwt>
<totfact> 0.79785942E+02</totfact>
</mgrwt>
</event>
<event>
12    1  0.1093377E-001  0.3633760E+03  0.7546771E-02  0.1057255E+00
         -1   -1    0    0    0  501 -0.00000000000E+00  0.00000000000E+00  0.51738343674E+03  0.51738343674E+03  0.00000000000E+00 0.  1.
          1   -1    0    0  503    0  0.00000000000E+00 -0.00000000000E+00 -0.34850014453E+03  0.34850014453E+03  0.00000000000E+00 0. -1.
          6    2    1    2  503    0 -0.16371378331E+03 -0.27264411842E+03  0.30815018979E+03  0.47518958668E+03  0.17237048954E+03 0.  0.
         24    2    3    3    0    0 -0.14952409690E+03 -0.14979093457E+03  0.25292589610E+03  0.33966813231E+03  0.81290537922E+02 0.  0.
         -6    2    1    2    0  501  0.16371378331E+03  0.27264411842E+03 -0.13926689759E+03  0.39069399460E+03  0.17919126792E+03 0.  0.
        -24    2    5    5    0    0  0.15775046580E+03  0.12841850659E+03 -0.65861652706E+02  0.22868471017E+03  0.81132096462E+02 0.  0.
          4    1    4    4  502    0 -0.12989619898E+03 -0.85432591368E+02  0.14566124335E+03  0.21304682112E+03  0.00000000000E+00 0. -1.
         -3    1    4    4    0  502 -0.19627897919E+02 -0.64358343206E+02  0.10726465275E+03  0.12662131119E+03  0.00000000000E+00 0.  1.
          5    1    3    3  503    0 -0.14189686414E+02 -0.12285318384E+03  0.55224293697E+02  0.13552145437E+03  0.47000000000E+01 0. -1.
         11    1    6    6    0    0  0.87129477928E+02  0.91075823166E+02 -0.77490612749E+02  0.14795656982E+03  0.00000000000E+00 0. -1.
        -12    1    6    6    0    0  0.70620987869E+02  0.37342683422E+02  0.11628960044E+02  0.80728140351E+02  0.00000000000E+00 0.  1.
         -5    1    5    5    0  501  0.59633175118E+01  0.14422561183E+03 -0.73405244880E+02  0.16200928442E+03  0.47000000000E+01 0.  1.
<mgrwt>
<rscale>  2 0.36337601E+03</rscale>
<asrwt>0</asrwt>
<pdfrwt beam="2">  1        1 0.53615407E-01 0.36337601E+03</pdfrwt>
<pdfrwt beam="1">  1       -1 0.79597452E-01 0.36337601E+03</pdfrwt>
<totfact> 0.11907766E+02</totfact>
</mgrwt>
</event>
<event>
12    1  0.1093377E-001  0.2189089E+03  0.7546771E-02  0.1134699E+00
         -2   -1    0    0    0  501 -0.00000000000E+00  0.00000000000E+00  0.44937962733E+03  0.44937962733E+03  0.00000000000E+00 0. -1.
          2   -1    0    0  503    0  0.00000000000E+00 -0.00000000000E+00 -0.14389029369E+03  0.14389029369E+03  0.00000000000E+00 0.  1.
          6    2    1    2  503    0 -0.11417779124E+03  0.69584366278E+02  0.30368900665E+03  0.37437772199E+03  0.17335833962E+03 0.  0.
         24    2    3    3    0    0 -0.98421090275E+02 -0.14772950965E+02  0.22779193512E+03  0.25971785078E+03  0.75227955023E+02 0.  0.
         -6    2    1    2    0  501  0.11417779124E+03 -0.69584366278E+02  0.18003269789E+01  0.21889219903E+03  0.17329743673E+03 0.  0.
        -24    2    5    5    0    0  0.10247758290E+03 -0.89299355398E+02  0.49705677677E+02  0.16557626993E+03  0.80428955597E+02 0.  0.
          2    1    4    4  502    0 -0.97510445094E+02 -0.15812368762E+02  0.13692014166E+03  0.16883555046E+03  0.00000000000E+00 0. -1.
         -1    1    4    4    0  502 -0.91064518055E+00  0.10394177965E+01  0.90871793462E+02  0.90882300318E+02  0.00000000000E+00 0.  1.
          5    1    3    3  503    0 -0.15756700962E+02  0.84357317243E+02  0.75897071533E+02  0.11465987121E+03  0.47000000000E+01 0. -1.
         13    1    6    6    0    0  0.11032835922E+03 -0.56599870892E+02  0.43304667776E+02  0.13134377216E+03  0.00000000000E+00 0. -1.
        -14    1    6    6    0    0 -0.78507763229E+01 -0.32699484505E+02  0.64010099005E+01  0.34232497769E+02  0.00000000000E+00 0.  1.
         -5    1    5    5    0  501  0.11700208341E+02  0.19714989119E+02 -0.47905350698E+02  0.53315929108E+02  0.47000000000E+01 0.  1.
<mgrwt>
<rscale>  2 0.21890890E+03</rscale>
<asrwt>0</asrwt>
<pdfrwt beam="2">  1        2 0.22136969E-01 0.21890890E+03</pdfrwt>
<pdfrwt beam="1">  1       -2 0.69135326E-01 0.21890890E+03</pdfrwt>
<totfact> 0.48440915E+02</totfact>
</mgrwt>
</event>
<event>
12    1  0.1093377E-001  0.2030239E+03  0.7546771E-02  0.1147213E+00
          2   -1    0    0  503    0  0.00000000000E+00  0.00000000000E+00  0.31813759552E+03  0.31813759552E+03  0.00000000000E+00 0. -1.
         -2   -1    0    0    0  501 -0.00000000000E+00 -0.00000000000E+00 -0.13744379935E+03  0.13744379935E+03  0.00000000000E+00 0.  1.
          6    2    1    2  503    0  0.10042489512E+03  0.41980130918E+02  0.35791058274E+02  0.20613396879E+03  0.17135554349E+03 0.  0.
         24    2    3    3    0    0 -0.69395653791E+01  0.40524697321E+02  0.40447325159E+02  0.98556013391E+02  0.79918039279E+02 0.  0.
         -6    2    1    2    0  501 -0.10042489512E+03 -0.41980130918E+02  0.14490273790E+03  0.24944742608E+03  0.17140514571E+03 0.  0.
        -24    2    5    5    0    0 -0.18852984018E+02  0.14005510472E+02  0.12183882064E+03  0.14774982040E+03  0.80210484864E+02 0.  0.
          2    1    4    4  502    0 -0.88568922746E+00 -0.37732017746E+01  0.52187037321E+02  0.52330759228E+02  0.00000000000E+00 0. -1.
         -1    1    4    4    0  502 -0.60538761516E+01  0.44297899096E+02 -0.11739712162E+02  0.46225254163E+02  0.00000000000E+00 0.  1.
          5    1    3    3  503    0  0.10736446050E+03  0.14554335967E+01 -0.46562668853E+01  0.10757795540E+03  0.47000000000E+01 0. -1.
         11    1    6    6    0    0 -0.32708708274E+02 -0.23385091005E+02  0.40014246884E+02  0.56726202340E+02  0.00000000000E+00 0. -1.
        -12    1    6    6    0    0  0.13855724256E+02  0.37390601477E+02  0.81824573756E+02  0.91023618056E+02  0.00000000000E+00 0.  1.
         -5    1    5    5    0  501 -0.81571911106E+02 -0.55985641390E+02  0.23063917256E+02  0.10169760569E+03  0.47000000000E+01 0.  1.
<mgrwt>
<rscale>  2 0.20302392E+03</rscale>
<asrwt>0</asrwt>
<pdfrwt beam="1">  1        2 0.48944245E-01 0.20302392E+03</pdfrwt>
<pdfrwt beam="2">  1       -2 0.21145200E-01 0.20302392E+03</pdfrwt>
<totfact> 0.19386887E+03</totfact>
</mgrwt>
</event>
<event>
12    1  0.1093377E-001  0.2087030E+03  0.7546771E-02  0.1142597E+00
         -1   -1    0    0    0  501 -0.00000000000E+00  0.00000000000E+00  0.18020589642E+03  0.18020589642E+03  0.00000000000E+00 0. -1.
          1   -1    0    0  503    0  0.00000000000E+00 -0.00000000000E+00 -0.35583248483E+03  0.35583248483E+03  0.00000000000E+00 0.  1.
          6    2    1    2  503    0 -0.59615349211E+02  0.98689687565E+02  0.64433470031E+02  0.21684885772E+03  0.17198287921E+03 0.  0.
         24    2    3    3    0    0 -0.91861768924E+02  0.11740472975E+03  0.46467029884E+02  0.17519591833E+03  0.79447906056E+02 0.  0.
         -6    2    1    2    0  501  0.59615349211E+02 -0.98689687565E+02 -0.24006005844E+03  0.31918952353E+03  0.17595305050E+03 0.  0.
        -24    2    5    5    0    0  0.29091868075E+02 -0.12752208155E+02 -0.20281280219E+03  0.22056710536E+03  0.80671306140E+02 0.  0.
          4    1    4    4  502    0 -0.62769087760E+02  0.61757307957E+02  0.65314006883E+02  0.10963504439E+03  0.00000000000E+00 0. -1.
         -3    1    4    4    0  502 -0.29092681164E+02  0.55647421794E+02 -0.18846976999E+02  0.65560873938E+02  0.00000000000E+00 0.  1.
          5    1    3    3  503    0  0.32246419712E+02 -0.18715042185E+02  0.17966440147E+02  0.41652939390E+02  0.47000000000E+01 0. -1.
         11    1    6    6    0    0 -0.17308687504E+02 -0.12250956112E+02 -0.12364253581E+02  0.24546921505E+02  0.00000000000E+00 0. -1.
        -12    1    6    6    0    0  0.46400555579E+02 -0.50125204282E+00 -0.19044854861E+03  0.19602018386E+03  0.00000000000E+00 0.  1.
         -5    1    5    5    0  501  0.30523481136E+02 -0.85937479410E+02 -0.37247256252E+02  0.98622418173E+02  0.47000000000E+01 0.  1.
<mgrwt>
<rscale>  2 0.20870305E+03</rscale>
<asrwt>0</asrwt>
<pdfrwt beam="2">  1        1 0.54743459E-01 0.20870305E+03</pdfrwt>
<pdfrwt beam="1">  1       -1 0.27723984E-01 0.20870305E+03</pdfrwt>
<totfact> 0.82523491E+02</totfact>
</mgrwt>
</event>
<event>
12    1  0.1093377E-001  0.2019917E+03  0.7546771E-02  0.1148069E+00
         -2   -1    0    0    0  501 -0.00000000000E+00  0.00000000000E+00  0.55695679753E+02  0.55695679753E+02  0.00000000000E+00 0.  1.
          2   -1    0    0  503    0  0.00000000000E+00 -0.00000000000E+00 -0.73748920071E+03  0.73748920071E+03  0.00000000000E+00 0. -1.
          6    2    1    2  503    0 -0.78920303951E+02  0.70007436247E+02 -0.31026607473E+03  0.37078494186E+03  0.17345599003E+03 0.  0.
         24    2    3    3    0    0 -0.31963788560E+02  0.13221500574E+02 -0.50022278835E+02  0.10026972948E+03  0.79720125527E+02 0.  0.
         -6    2    1    2    0  501  0.78920303951E+02 -0.70007436247E+02 -0.37152744623E+03  0.42239993860E+03  0.17105440457E+03 0.  0.
        -24    2    5    5    0    0  0.11741514117E+03 -0.30079568748E+02 -0.27880305773E+03  0.31425194131E+03  0.79574127601E+02 0.  0.
          2    1    4    4  502    0 -0.10168733773E+02 -0.43529224329E+01 -0.66746674116E+02  0.67656999533E+02  0.00000000000E+00 0. -1.
         -1    1    4    4    0  502 -0.21795054786E+02  0.17574423007E+02  0.16724395282E+02  0.32612729948E+02  0.00000000000E+00 0.  1.
          5    1    3    3  503    0 -0.46956515392E+02  0.56785935673E+02 -0.26024379589E+03  0.27051521238E+03  0.47000000000E+01 0. -1.
         13    1    6    6    0    0  0.83944848516E+02 -0.54112681804E+02 -0.16112481175E+03  0.18956825917E+03  0.00000000000E+00 0. -1.
        -14    1    6    6    0    0  0.33470292657E+02  0.24033113056E+02 -0.11767824598E+03  0.12468368214E+03  0.00000000000E+00 0.  1.
         -5    1    5    5    0  501 -0.38494837222E+02 -0.39927867499E+02 -0.92724388498E+02  0.10814799729E+03  0.47000000000E+01 0.  1.
<mgrwt>
<rscale>  2 0.20199172E+03</rscale>
<asrwt>0</asrwt>
<pdfrwt beam="2">  1        2 0.11345987E+00 0.20199172E+03</pdfrwt>
<pdfrwt beam="1">  1       -2 0.85685663E-02 0.20199172E+03</pdfrwt>
<totfact> 0.33027066E+03</totfact>
</mgrwt>
</event>
<event>
12    1  0.1093377E-001  0.2091665E+03  0.7546771E-02  0.1142228E+00
          1   -1    0    0  503    0  0.00000000000E+00  0.00000000000E+00  0.16148861833E+03  0.16148861833E+03  0.00000000000E+00 0.  1.
         -1   -1    0    0    0  501 -0.00000000000E+00 -0.00000000000E+00 -0.35977074781E+03  0.35977074781E+03  0.00000000000E+00 0. -1.
          6    2    1    2  503    0  0.56426884563E+02 -0.10304518727E+03 -0.22868658210E+03  0.30996314014E+03  0.17313951452E+03 0.  0.
         24    2    3    3    0    0  0.49237242309E+02 -0.13653663793E+03 -0.14987634142E+03  0.22390204405E+03  0.81256680241E+02 0.  0.
         -6    2    1    2    0  501 -0.56426884563E+02  0.10304518727E+03  0.30404452618E+02  0.21129622600E+03  0.17297213782E+03 0.  0.
        -24    2    5    5    0    0  0.36396954530E+02  0.29209292716E+02  0.16331906101E+02  0.91763255674E+02  0.77303575953E+02 0.  0.
          2    1    4    4  502    0  0.58302224149E+02 -0.11595620013E+03 -0.15361676103E+03  0.20110469651E+03  0.00000000000E+00 0. -1.
         -1    1    4    4    0  502 -0.90649818399E+01 -0.20580437806E+02  0.37404196098E+01  0.22797347541E+02  0.00000000000E+00 0.  1.
          5    1    3    3  503    0  0.71896422544E+01  0.33491450665E+02 -0.78810240683E+02  0.86061096088E+02  0.47000000000E+01 0. -1.
         13    1    6    6    0    0 -0.62685835103E+01 -0.89010040972E+01 -0.20858932624E+02  0.23529090152E+02  0.00000000000E+00 0. -1.
        -14    1    6    6    0    0  0.42665538040E+02  0.38110296813E+02  0.37190838725E+02  0.68234165522E+02  0.00000000000E+00 0.  1.
         -5    1    5    5    0  501 -0.92823839093E+02  0.73835894554E+02  0.14072546517E+02  0.11953297032E+03  0.47000000000E+01 0.  1.
<mgrwt>
<rscale>  2 0.20916649E+03</rscale>
<asrwt>0</asrwt>
<pdfrwt beam="1">  1        1 0.24844403E-01 0.20916649E+03</pdfrwt>
<pdfrwt beam="2">  1       -1 0.55349345E-01 0.20916649E+03</pdfrwt>
<totfact> 0.65538450E+02</totfact>
</mgrwt>
</event>
<event>
12    1  0.1093377E-001  0.2320730E+03  0.7546771E-02  0.1125189E+00
          1   -1    0    0  503    0  0.00000000000E+00  0.00000000000E+00  0.56745824768E+03  0.56745824768E+03  0.00000000000E+00 0. -1.
         -1   -1    0    0    0  501 -0.00000000000E+00 -0.00000000000E+00 -0.97835920689E+02  0.97835920689E+02  0.00000000000E+00 0.  1.
          6    2    1    2  503    0  0.11661970697E+03  0.10145383960E+03  0.17803727014E+03  0.29309342815E+03  0.17410758296E+03 0.  0.
         24    2    3    3    0    0  0.69825616462E+02  0.47434489121E+02  0.15378578550E+02  0.11536409157E+03  0.77115014573E+02 0.  0.
         -6    2    1    2    0  501 -0.11661970697E+03 -0.10145383960E+03  0.29158505685E+03  0.37220074022E+03  0.17210028476E+03 0.  0.
        -24    2    5    5    0    0 -0.37447675933E+02  0.13247265767E+02  0.13904391232E+03  0.16552358897E+03  0.80542103710E+02 0.  0.
          4    1    4    4  502    0  0.66713768745E+02  0.61879230190E+02 -0.38969675428E+01  0.91076629412E+02  0.00000000000E+00 0. -1.
         -3    1    4    4    0  502  0.31118477171E+01 -0.14444741069E+02  0.19275546093E+02  0.24287462156E+02  0.00000000000E+00 0.  1.
          5    1    3    3  503    0  0.46794090512E+02  0.54019350479E+02  0.16265869159E+03  0.17772933659E+03  0.47000000000E+01 0. -1.
         11    1    6    6    0    0 -0.27511820290E+02 -0.15314479171E+02  0.13029102640E+03  0.13404172891E+03  0.00000000000E+00 0. -1.
        -12    1    6    6    0    0 -0.99358556429E+01  0.28561744939E+02  0.87528859206E+01  0.31481860067E+02  0.00000000000E+00 0.  1.
         -5    1    5    5    0  501 -0.79172031042E+02 -0.11470110537E+03  0.15254114453E+03  0.20667715124E+03  0.47000000000E+01 0.  1.
<mgrwt>
<rscale>  2 0.23207304E+03</rscale>
<asrwt>0</asrwt>
<pdfrwt beam="1">  1        1 0.87301266E-01 0.23207304E+03</pdfrwt>
<pdfrwt beam="2">  1       -1 0.15051681E-01 0.23207304E+03</pdfrwt>
<totfact> 0.12147770E+03</totfact>
</mgrwt>
</event>
<event>
12    1  0.1093377E-001  0.2313125E+03  0.7546771E-02  0.1125719E+00
          2   -1    0    0  503    0  0.00000000000E+00  0.00000000000E+00  0.19243556381E+04  0.19243556381E+04  0.00000000000E+00 0. -1.
         -2   -1    0    0    0  501 -0.00000000000E+00 -0.00000000000E+00 -0.30654353288E+02  0.30654353288E+02  0.00000000000E+00 0.  1.
          6    2    1    2  503    0 -0.91363291049E+02 -0.12263966597E+03  0.12455751399E+04  0.12669043791E+04  0.17378589639E+03 0.  0.
         24    2    3    3    0    0 -0.91704658265E+02 -0.18170742898E+02  0.78657400412E+03  0.79614116351E+03  0.80013549020E+02 0.  0.
         -6    2    1    2    0  501  0.91363291049E+02  0.12263966597E+03  0.64812614490E+03  0.68810561237E+03  0.17330347791E+03 0.  0.
        -24    2    5    5    0    0  0.83014768849E+02  0.73983025752E+02  0.23585910634E+03  0.27286668411E+03  0.80385131142E+02 0.  0.
          4    1    4    4  502    0 -0.93912178172E+02 -0.38784173201E+02  0.68258630204E+03  0.69010707070E+03  0.00000000000E+00 0. -1.
         -3    1    4    4    0  502  0.22075199068E+01  0.20613430303E+02  0.10398770208E+03  0.10603409281E+03  0.00000000000E+00 0.  1.
          5    1    3    3  503    0  0.34136721581E+00 -0.10446892307E+03  0.45900113582E+03  0.47076321554E+03  0.47000000000E+01 0. -1.
         13    1    6    6    0    0  0.13000331702E+02 -0.17235900908E+02  0.28451079505E+02  0.35714826466E+02  0.00000000000E+00 0. -1.
        -14    1    6    6    0    0  0.70014437147E+02  0.91218926660E+02  0.20740802683E+03  0.23715185764E+03  0.00000000000E+00 0.  1.
         -5    1    5    5    0  501  0.83485222007E+01  0.48656640213E+02  0.41226703856E+03  0.41523892826E+03  0.47000000000E+01 0.  1.
<mgrwt>
<rscale>  2 0.23131254E+03</rscale>
<asrwt>0</asrwt>
<pdfrwt beam="1">  1        2 0.29605462E+00 0.23131254E+03</pdfrwt>
<pdfrwt beam="2">  1       -2 0.47160559E-02 0.23131254E+03</pdfrwt>
<totfact> 0.17475352E+03</totfact>
</mgrwt>
</event>
<event>
12    1  0.1093377E-001  0.3309272E+03  0.7546771E-02  0.1070727E+00
          2   -1    0    0  503    0  0.00000000000E+00  0.00000000000E+00  0.22714732712E+04  0.22714732712E+04  0.00000000000E+00 0.  1.
         -2   -1    0    0    0  501 -0.00000000000E+00 -0.00000000000E+00 -0.48212476143E+02  0.48212476143E+02  0.00000000000E+00 0. -1.
          6    2    1    2  503    0  0.27194163052E+03 -0.74607328475E+02  0.11141289637E+04  0.11622280211E+04  0.17312458366E+03 0.  0.
         24    2    3    3    0    0  0.45679935431E+02 -0.43851840114E+01  0.26874160762E+03  0.28426026770E+03  0.80473360731E+02 0.  0.
         -6    2    1    2    0  501 -0.27194163052E+03  0.74607328475E+02  0.11091318314E+04  0.11574577262E+04  0.17325260394E+03 0.  0.
        -24    2    5    5    0    0 -0.76020147177E+02 -0.21105226179E+02  0.39394569078E+03  0.40975496012E+03  0.80507308417E+02 0.  0.
          2    1    4    4  502    0  0.31517002940E+02  0.19935033581E+02  0.24385970409E+03  0.24669471481E+03  0.00000000000E+00 0. -1.
         -1    1    4    4    0  502  0.14162932491E+02 -0.24320217593E+02  0.24881903533E+02  0.37565552890E+02  0.00000000000E+00 0.  1.
          5    1    3    3  503    0  0.22626169509E+03 -0.70222144464E+02  0.84538735605E+03  0.87796775340E+03  0.47000000000E+01 0. -1.
         11    1    6    6    0    0 -0.46195392951E+02 -0.13454727036E+02  0.73592847085E+02  0.87925827557E+02  0.00000000000E+00 0. -1.
        -12    1    6    6    0    0 -0.29824754227E+02 -0.76504991422E+01  0.32035284369E+03  0.32182913256E+03  0.00000000000E+00 0.  1.
         -5    1    5    5    0  501 -0.19592148334E+03  0.95712554654E+02  0.71518614057E+03  0.74770276609E+03  0.47000000000E+01 0.  1.
<mgrwt>
<rscale>  2 0.33092717E+03</rscale>
<asrwt>0</asrwt>
<pdfrwt beam="1">  1        2 0.34945734E+00 0.33092717E+03</pdfrwt>
<pdfrwt beam="2">  1       -2 0.74173058E-02 0.33092717E+03</pdfrwt>
<totfact> 0.56247462E+02</totfact>
</mgrwt>
</event>
<event>
12    1  0.1093377E-001  0.2459901E+03  0.7546771E-02  0.1115865E+00
          4   -1    0    0  503    0  0.00000000000E+00  0.00000000000E+00  0.68706996063E+02  0.68706996063E+02  0.00000000000E+00 0.  1.
         -4   -1    0    0    0  501 -0.00000000000E+00 -0.00000000000E+00 -0.11860904683E+04  0.11860904683E+04  0.00000000000E+00 0. -1.
          6    2    1    2  503    0  0.68089734115E+02 -0.15995731081E+03 -0.23886865566E+03  0.34225528251E+03  0.17279435921E+03 0.  0.
         24    2    3    3    0    0  0.60688136952E+02 -0.11253885629E+03 -0.70895291881E+02  0.16749706551E+03  0.81737876177E+02 0.  0.
         -6    2    1    2    0  501 -0.68089734115E+02  0.15995731081E+03 -0.87851481659E+03  0.91254218187E+03  0.17527805780E+03 0.  0.
        -24    2    5    5    0    0 -0.51642336478E+02  0.18950427223E+03 -0.77794545723E+03  0.80633565730E+03  0.79995360486E+02 0.  0.
          4    1    4    4  502    0  0.25345426137E+02 -0.10362714897E+03 -0.75589771857E+02  0.13074704677E+03  0.00000000000E+00 0. -1.
         -3    1    4    4    0  502  0.35342710816E+02 -0.89117073201E+01  0.46944799765E+01  0.36750018740E+02  0.00000000000E+00 0.  1.
          5    1    3    3  503    0  0.74015971626E+01 -0.47418454515E+02 -0.16797336378E+03  0.17475821700E+03  0.47000000000E+01 0. -1.
         13    1    6    6    0    0 -0.15654272553E+00  0.16584598933E+02 -0.20463032871E+03  0.20530135132E+03  0.00000000000E+00 0. -1.
        -14    1    6    6    0    0 -0.51485793752E+02  0.17291967330E+03 -0.57331512852E+03  0.60103430598E+03  0.00000000000E+00 0.  1.
         -5    1    5    5    0  501 -0.16447397637E+02 -0.29546961422E+02 -0.10056935936E+03  0.10620652457E+03  0.47000000000E+01 0.  1.
<mgrwt>
<rscale>  2 0.24599015E+03</rscale>
<asrwt>0</asrwt>
<pdfrwt beam="1">  1        4 0.10570308E-01 0.24599015E+03</pdfrwt>
<pdfrwt beam="2">  1       -4 0.18247543E+00 0.24599015E+03</pdfrwt>
<totfact> 0.23498171E+01</totfact>
</mgrwt>
</event>
<event>
12    1  0.1093377E-001  0.3854371E+03  0.7546771E-02  0.1048942E+00
          1   -1    0    0  503    0  0.00000000000E+00  0.00000000000E+00  0.16114953106E+04  0.16114953106E+04  0.00000000000E+00 0. -1.
         -1   -1    0    0    0  501 -0.00000000000E+00 -0.00000000000E+00 -0.93280800329E+02  0.93280800329E+02  0.00000000000E+00 0.  1.
          6    2    1    2  503    0  0.15365750133E+03 -0.30884974524E+03  0.85138241656E+03  0.93457603768E+03  0.17199290137E+03 0.  0.
         24    2    3    3    0    0  0.10453816208E+03 -0.18888178145E+03  0.36565359247E+03  0.43182400896E+03  0.78516688264E+02 0.  0.
         -6    2    1    2    0  501 -0.15365750133E+03  0.30884974524E+03  0.66683209373E+03  0.77020007327E+03  0.17188460895E+03 0.  0.
        -24    2    5    5    0    0 -0.46491801749E+01  0.12235639639E+03  0.24979564031E+03  0.28965377746E+03  0.80676801282E+02 0.  0.
          2    1    4    4  502    0  0.21107518706E+02 -0.11782669551E+03  0.17773539710E+03  0.21428609125E+03  0.00000000000E+00 0. -1.
         -1    1    4    4    0  502  0.83430643375E+02 -0.71055085935E+02  0.18791819537E+03  0.21753791771E+03  0.00000000000E+00 0.  1.
          5    1    3    3  503    0  0.49119339252E+02 -0.11996796379E+03  0.48572882410E+03  0.50275202872E+03  0.47000000000E+01 0. -1.
         11    1    6    6    0    0  0.21130351449E+01  0.43963481330E+02  0.17724040199E+03  0.18262369152E+03  0.00000000000E+00 0. -1.
        -12    1    6    6    0    0 -0.67622153198E+01  0.78392915060E+02  0.72555238314E+02  0.10703008593E+03  0.00000000000E+00 0.  1.
         -5    1    5    5    0  501 -0.14900832116E+03  0.18649334885E+03  0.41703645343E+03  0.48054629582E+03  0.47000000000E+01 0.  1.
<mgrwt>
<rscale>  2 0.38543706E+03</rscale>
<asrwt>0</asrwt>
<pdfrwt beam="1">  1        1 0.24792234E+00 0.38543706E+03</pdfrwt>
<pdfrwt beam="2">  1       -1 0.14350894E-01 0.38543706E+03</pdfrwt>
<totfact> 0.20537526E+02</totfact>
</mgrwt>
</event>
<event>
12    1  0.1093377E-001  0.1861044E+03  0.7546771E-02  0.1162023E+00
         -2   -1    0    0    0  501 -0.00000000000E+00  0.00000000000E+00  0.66204322785E+02  0.66204322785E+02  0.00000000000E+00 0. -1.
          2   -1    0    0  503    0  0.00000000000E+00 -0.00000000000E+00 -0.57570159698E+03  0.57570159698E+03  0.00000000000E+00 0.  1.
          6    2    1    2  503    0  0.42996083699E+02 -0.73321280671E+02 -0.16589500619E+03  0.25394889554E+03  0.17246511258E+03 0.  0.
         24    2    3    3    0    0 -0.24134663227E+02  0.16410945530E+02 -0.99667905560E+02  0.12369326818E+03  0.67190267845E+02 0.  0.
         -6    2    1    2    0  501 -0.42996083699E+02  0.73321280671E+02 -0.34360226801E+03  0.38795702422E+03  0.15881895557E+03 0.  0.
        -24    2    5    5    0    0 -0.67388395058E+02  0.22743020888E+02 -0.30103167348E+03  0.31733485536E+03  0.70872429054E+02 0.  0.
          2    1    4    4  502    0 -0.32107434349E+02  0.28176908517E+02 -0.29051018917E+02  0.51660305982E+02  0.00000000000E+00 0. -1.
         -1    1    4    4    0  502  0.79727711222E+01 -0.11765962987E+02 -0.70616886643E+02  0.72032962202E+02  0.00000000000E+00 0.  1.
          5    1    3    3  503    0  0.67130746926E+02 -0.89732226201E+02 -0.66227100626E+02  0.13025562736E+03  0.47000000000E+01 0. -1.
         11    1    6    6    0    0  0.14175583689E+02  0.95639915424E+01 -0.38955153019E+02  0.42543166947E+02  0.00000000000E+00 0. -1.
        -12    1    6    6    0    0 -0.81563978747E+02  0.13179029346E+02 -0.26207652046E+03  0.27479168841E+03  0.00000000000E+00 0.  1.
         -5    1    5    5    0  501  0.24392311359E+02  0.50578259782E+02 -0.42570594527E+02  0.70622168859E+02  0.47000000000E+01 0.  1.
<mgrwt>
<rscale>  2 0.18610435E+03</rscale>
<asrwt>0</asrwt>
<pdfrwt beam="2">  1        2 0.88569479E-01 0.18610435E+03</pdfrwt>
<pdfrwt beam="1">  1       -2 0.10185280E-01 0.18610435E+03</pdfrwt>
<totfact> 0.33610107E+03</totfact>
</mgrwt>
</event>
<event>
12    1  0.1093377E-001  0.1823578E+03  0.7546771E-02  0.1165540E+00
         -2   -1    0    0    0  501 -0.00000000000E+00  0.00000000000E+00  0.16800226118E+03  0.16800226118E+03  0.00000000000E+00 0.  1.
          2   -1    0    0  503    0  0.00000000000E+00 -0.00000000000E+00 -0.19877230089E+03  0.19877230089E+03  0.00000000000E+00 0. -1.
          6    2    1    2  503    0  0.55958332973E+02 -0.17761047681E+02 -0.27259804201E+02  0.18448197794E+03  0.17275333113E+03 0.  0.
         24    2    3    3    0    0  0.10362371554E+03 -0.22071079413E+02 -0.82662084064E+01  0.13277693225E+03  0.79601360332E+02 0.  0.
         -6    2    1    2    0  501 -0.55958332973E+02  0.17761047681E+02 -0.35102355046E+01  0.18229258413E+03  0.17254412372E+03 0.  0.
        -24    2    5    5    0    0 -0.23753088685E+02  0.62083274944E+02 -0.45222668141E+02  0.11327335039E+03  0.79794861647E+02 0.  0.
          4    1    4    4  502    0  0.62255802875E+02 -0.35463189372E+02 -0.37021133081E+02  0.80647300554E+02  0.00000000000E+00 0. -1.
         -3    1    4    4    0  502  0.41367912663E+02  0.13392109959E+02  0.28754924674E+02  0.52129631692E+02  0.00000000000E+00 0.  1.
          5    1    3    3  503    0 -0.47665382566E+02  0.43100317319E+01 -0.18993595795E+02  0.51705045691E+02  0.47000000000E+01 0. -1.
         13    1    6    6    0    0 -0.37268897826E+02  0.60062838435E+02 -0.60308958069E+02  0.92917628733E+02  0.00000000000E+00 0. -1.
        -14    1    6    6    0    0  0.13515809141E+02  0.20204365090E+01  0.15086289928E+02  0.20355721658E+02  0.00000000000E+00 0.  1.
         -5    1    5    5    0  501 -0.32205244288E+02 -0.44322227263E+02  0.41712432636E+02  0.69019233737E+02  0.47000000000E+01 0.  1.
<mgrwt>
<rscale>  2 0.18235779E+03</rscale>
<asrwt>0</asrwt>
<pdfrwt beam="2">  1        2 0.30580354E-01 0.18235779E+03</pdfrwt>
<pdfrwt beam="1">  1       -2 0.25846502E-01 0.18235779E+03</pdfrwt>
<totfact> 0.22609723E+03</totfact>
</mgrwt>
</event>
<event>
12    1  0.1093377E-001  0.2176550E+03  0.7546771E-02  0.1135643E+00
         -1   -1    0    0    0  501 -0.00000000000E+00  0.00000000000E+00  0.37200947590E+03  0.37200947590E+03  0.00000000000E+00 0. -1.
          1   -1    0    0  503    0  0.00000000000E+00 -0.00000000000E+00 -0.12991718425E+03  0.12991718425E+03  0.00000000000E+00 0.  1.
          6    2    1    2  503    0 -0.15249386131E+02  0.13010936985E+03  0.15657429172E+03  0.26845220569E+03  0.17432752511E+03 0.  0.
         24    2    3    3    0    0  0.33164967897E+02  0.10504964290E+02  0.46243361371E+02  0.98616497730E+02  0.79852963522E+02 0.  0.
         -6    2    1    2    0  501  0.15249386131E+02 -0.13010936985E+03  0.85517999926E+02  0.23347445445E+03  0.17330897458E+03 0.  0.
        -24    2    5    5    0    0 -0.45238246897E+02 -0.67480661567E+02  0.90413567512E+02  0.14614081012E+03  0.81131895843E+02 0.  0.
          2    1    4    4  502    0 -0.48410983407E+01 -0.29909791864E+02  0.24741340744E+02  0.39117334064E+02  0.00000000000E+00 0. -1.
         -1    1    4    4    0  502  0.38006066238E+02  0.40414756154E+02  0.21502020627E+02  0.59499163666E+02  0.00000000000E+00 0.  1.
          5    1    3    3  503    0 -0.48414354028E+02  0.11960440556E+03  0.11033093035E+03  0.16983570796E+03  0.47000000000E+01 0. -1.
         13    1    6    6    0    0 -0.87282105187E+01 -0.72405307755E+02  0.79128310913E+02  0.10761040767E+03  0.00000000000E+00 0. -1.
        -14    1    6    6    0    0 -0.36510036378E+02  0.49246461881E+01  0.11285256598E+02  0.38530402450E+02  0.00000000000E+00 0.  1.
         -5    1    5    5    0  501  0.60487633029E+02 -0.62628708286E+02 -0.48955675863E+01  0.87333644336E+02  0.47000000000E+01 0.  1.
<mgrwt>
<rscale>  2 0.21765501E+03</rscale>
<asrwt>0</asrwt>
<pdfrwt beam="2">  1        1 0.19987259E-01 0.21765501E+03</pdfrwt>
<pdfrwt beam="1">  1       -1 0.57232227E-01 0.21765501E+03</pdfrwt>
<totfact> 0.81284521E+02</totfact>
</mgrwt>
</event>
<event>
12    1  0.1093377E-001  0.1800403E+03  0.7546771E-02  0.1167764E+00
          1   -1    0    0  503    0  0.00000000000E+00  0.00000000000E+00  0.44347971754E+02  0.44347971754E+02  0.00000000000E+00 0.  1.
         -1   -1    0    0    0  501 -0.00000000000E+00 -0.00000000000E+00 -0.75456247025E+03  0.75456247025E+03  0.00000000000E+00 0. -1.
          6    2    1    2  503    0  0.93729734194E+01  0.41790412039E+02 -0.28961524885E+03  0.34241098683E+03  0.17757815283E+03 0.  0.
         24    2    3    3    0    0 -0.31883782424E+02 -0.30327584671E+02 -0.10058012432E+03  0.13586923885E+03  0.80048427112E+02 0.  0.
         -6    2    1    2    0  501 -0.93729734194E+01 -0.41790412039E+02 -0.42059924965E+03  0.45649945518E+03  0.17220259175E+03 0.  0.
        -24    2    5    5    0    0  0.16015997470E+02  0.77552574570E+01 -0.10369132696E+03  0.13470434230E+03  0.84123197489E+02 0.  0.
          2    1    4    4  502    0 -0.17119517009E+01 -0.32368811479E+02 -0.10053202628E+03  0.10562840074E+03  0.00000000000E+00 0. -1.
         -1    1    4    4    0  502 -0.30171830723E+02  0.20412268080E+01 -0.48098042787E-01  0.30240838108E+02  0.00000000000E+00 0.  1.
          5    1    3    3  503    0  0.41256755843E+02  0.72117996710E+02 -0.18903512453E+03  0.20654174798E+03  0.47000000000E+01 0. -1.
         13    1    6    6    0    0 -0.34637817136E+02  0.31429363607E+01 -0.48075025103E+02  0.59336872715E+02  0.00000000000E+00 0. -1.
        -14    1    6    6    0    0  0.50653814606E+02  0.46123210963E+01 -0.55616301857E+02  0.75367469590E+02  0.00000000000E+00 0.  1.
         -5    1    5    5    0  501 -0.25388970890E+02 -0.49545669496E+02 -0.31690792269E+03  0.32179511287E+03  0.47000000000E+01 0.  1.
<mgrwt>
<rscale>  2 0.18004035E+03</rscale>
<asrwt>0</asrwt>
<pdfrwt beam="1">  1        1 0.68227649E-02 0.18004035E+03</pdfrwt>
<pdfrwt beam="2">  1       -1 0.11608653E+00 0.18004035E+03</pdfrwt>
<totfact> 0.76946268E+02</totfact>
</mgrwt>
</event>
<event>
12    1  0.1093377E-001  0.1836842E+03  0.7546771E-02  0.1164284E+00
          2   -1    0    0  503    0  0.00000000000E+00  0.00000000000E+00  0.19082972670E+04  0.19082972670E+04  0.00000000000E+00 0.  1.
         -2   -1    0    0    0  501 -0.00000000000E+00 -0.00000000000E+00 -0.25958737880E+02  0.25958737880E+02  0.00000000000E+00 0. -1.
          6    2    1    2  503    0  0.60430957871E+02  0.39745033260E+00  0.39598746142E+03  0.43663176697E+03  0.17375031421E+03 0.  0.
         24    2    3    3    0    0  0.10063333890E+02 -0.40126637021E+02  0.33421067043E+03  0.34709093212E+03  0.84047160802E+02 0.  0.
         -6    2    1    2    0  501 -0.60430957871E+02 -0.39745033260E+00  0.14863510677E+04  0.14976242379E+04  0.17316697979E+03 0.  0.
        -24    2    5    5    0    0 -0.17923521261E+01  0.57507106954E+02  0.65521642449E+03  0.66240072951E+03  0.78459439590E+02 0.  0.
          4    1    4    4  502    0  0.74275066995E+01 -0.18726031094E+02  0.32135765919E+03  0.32198847373E+03  0.00000000000E+00 0. -1.
         -3    1    4    4    0  502  0.26358271909E+01 -0.21400605927E+02  0.12853011246E+02  0.25102458388E+02  0.00000000000E+00 0.  1.
          5    1    3    3  503    0  0.50367623981E+02  0.40524087353E+02  0.61776790985E+02  0.89540834851E+02  0.47000000000E+01 0. -1.
         11    1    6    6    0    0 -0.17517954219E+02  0.15145433723E+02  0.45897235558E+02  0.51408356466E+02  0.00000000000E+00 0. -1.
        -12    1    6    6    0    0  0.15725602093E+02  0.42361673232E+02  0.60931918893E+03  0.61099237305E+03  0.00000000000E+00 0.  1.
         -5    1    5    5    0  501 -0.58638605745E+02 -0.57904557287E+02  0.83113464319E+03  0.83522350838E+03  0.47000000000E+01 0.  1.
<mgrwt>
<rscale>  2 0.18368422E+03</rscale>
<asrwt>0</asrwt>
<pdfrwt beam="1">  1        2 0.29358409E+00 0.18368422E+03</pdfrwt>
<pdfrwt beam="2">  1       -2 0.39936535E-02 0.18368422E+03</pdfrwt>
<totfact> 0.22953444E+03</totfact>
</mgrwt>
</event>
<event>
12    1  0.1093377E-001  0.1716244E+03  0.7546771E-02  0.1176164E+00
         -2   -1    0    0    0  501 -0.00000000000E+00  0.00000000000E+00  0.21809255291E+03  0.21809255291E+03  0.00000000000E+00 0.  1.
          2   -1    0    0  503    0  0.00000000000E+00 -0.00000000000E+00 -0.16943214470E+03  0.16943214470E+03  0.00000000000E+00 0. -1.
          6    2    1    2  503    0  0.12693438544E+02 -0.38313894228E+01 -0.63097557260E+02  0.18147147049E+03  0.16963133538E+03 0.  0.
         24    2    3    3    0    0  0.57139702249E+00  0.62674198603E+02 -0.30948189675E+02  0.10646741083E+03  0.80306521901E+02 0.  0.
         -6    2    1    2    0  501 -0.12693438544E+02  0.38313894228E+01  0.11175796548E+03  0.20605322712E+03  0.17260442240E+03 0.  0.
        -24    2    5    5    0    0 -0.61326448563E+02 -0.17694629294E+02  0.27307557546E+02  0.10614076271E+03  0.80287767496E+02 0.  0.
          4    1    4    4  502    0  0.33141385965E+02  0.22438685966E+01 -0.96359652111E+01  0.34586677139E+02  0.00000000000E+00 0. -1.
         -3    1    4    4    0  502 -0.32569988943E+02  0.60430330007E+02 -0.21312224464E+02  0.71880733692E+02  0.00000000000E+00 0.  1.
          5    1    3    3  503    0  0.12122041522E+02 -0.66505588026E+02 -0.32149367585E+02  0.75004059660E+02  0.47000000000E+01 0. -1.
         11    1    6    6    0    0 -0.12521552736E+02 -0.31024407874E+02 -0.18205846673E+02  0.38088791263E+02  0.00000000000E+00 0. -1.
        -12    1    6    6    0    0 -0.48804895828E+02  0.13329778579E+02  0.45513404219E+02  0.68051971443E+02  0.00000000000E+00 0.  1.
         -5    1    5    5    0  501  0.48633010019E+02  0.21526018717E+02  0.84450407931E+02  0.99912464413E+02  0.47000000000E+01 0.  1.
<mgrwt>
<rscale>  2 0.17162444E+03</rscale>
<asrwt>0</asrwt>
<pdfrwt beam="2">  1        2 0.26066484E-01 0.17162444E+03</pdfrwt>
<pdfrwt beam="1">  1       -2 0.33552700E-01 0.17162444E+03</pdfrwt>
<totfact> 0.16794661E+03</totfact>
</mgrwt>
</event>
<event>
12    1  0.1093377E-001  0.1858994E+03  0.7546771E-02  0.1162213E+00
         -2   -1    0    0    0  501 -0.00000000000E+00  0.00000000000E+00  0.12904995996E+04  0.12904995996E+04  0.00000000000E+00 0. -1.
          2   -1    0    0  503    0  0.00000000000E+00 -0.00000000000E+00 -0.26779330047E+02  0.26779330047E+02  0.00000000000E+00 0.  1.
          6    2    1    2  503    0  0.65997104891E+02 -0.17097314398E+02  0.63018478946E+03  0.65699315155E+03  0.17279813745E+03 0.  0.
         24    2    3    3    0    0  0.25972134327E+02  0.51672123609E+02  0.24450207668E+03  0.26316009198E+03  0.78277764350E+02 0.  0.
         -6    2    1    2    0  501 -0.65997104891E+02  0.17097314398E+02  0.63353548012E+03  0.66028577812E+03  0.17309583532E+03 0.  0.
        -24    2    5    5    0    0 -0.28107874320E+02 -0.38698791215E+02  0.51983203377E+03  0.52800062057E+03  0.79193831553E+02 0.  0.
          2    1    4    4  502    0  0.47892785444E+02  0.33621743199E+02  0.21234473491E+03  0.22025990774E+03  0.00000000000E+00 0. -1.
         -1    1    4    4    0  502 -0.21920651117E+02  0.18050380410E+02  0.32157341766E+02  0.42900184239E+02  0.00000000000E+00 0.  1.
          5    1    3    3  503    0  0.40024970564E+02 -0.68769438007E+02  0.38568271278E+03  0.39383305957E+03  0.47000000000E+01 0. -1.
         11    1    6    6    0    0 -0.43648981372E+02  0.25997033882E+01  0.34161721869E+03  0.34440429170E+03  0.00000000000E+00 0. -1.
        -12    1    6    6    0    0  0.15541107052E+02 -0.41298494604E+02  0.17821481507E+03  0.18359632888E+03  0.00000000000E+00 0.  1.
         -5    1    5    5    0  501 -0.37889230571E+02  0.55796105613E+02  0.11370344636E+03  0.13228515755E+03  0.47000000000E+01 0.  1.
<mgrwt>
<rscale>  2 0.18589938E+03</rscale>
<asrwt>0</asrwt>
<pdfrwt beam="2">  1        2 0.41198979E-02 0.18589938E+03</pdfrwt>
<pdfrwt beam="1">  1       -2 0.19853835E+00 0.18589938E+03</pdfrwt>
<totfact> 0.29823385E+02</totfact>
</mgrwt>
</event>
<event>
12    1  0.1093377E-001  0.2109884E+03  0.7546771E-02  0.1140786E+00
          1   -1    0    0  503    0  0.00000000000E+00  0.00000000000E+00  0.42710604237E+03  0.42710604237E+03  0.00000000000E+00 0.  1.
         -1   -1    0    0    0  501 -0.00000000000E+00 -0.00000000000E+00 -0.10777793201E+03  0.10777793201E+03  0.00000000000E+00 0. -1.
          6    2    1    2  503    0  0.91618926242E+02 -0.78736805482E+02  0.20839358732E+03  0.29673684253E+03  0.17329556916E+03 0.  0.
         24    2    3    3    0    0  0.87392351483E+02  0.43823330996E+01  0.16334364012E+03  0.20198325222E+03  0.80370774968E+02 0.  0.
         -6    2    1    2    0  501 -0.91618926242E+02  0.78736805482E+02  0.11093452304E+03  0.23814713186E+03  0.17266752974E+03 0.  0.
        -24    2    5    5    0    0 -0.92433578461E+02  0.10900740854E+03  0.12305696521E+03  0.20519236479E+03  0.80835068728E+02 0.  0.
          2    1    4    4  502    0  0.68196840973E+02  0.35829975450E+02  0.13525104736E+03  0.15565166903E+03  0.00000000000E+00 0. -1.
         -1    1    4    4    0  502  0.19195510511E+02 -0.31447642351E+02  0.28092592761E+02  0.46331583193E+02  0.00000000000E+00 0.  1.
          5    1    3    3  503    0  0.42265747585E+01 -0.83119138582E+02  0.45049947204E+02  0.94753590306E+02  0.47000000000E+01 0. -1.
         13    1    6    6    0    0 -0.67077189219E+02  0.26343876487E+02  0.29698478211E+02  0.77944523541E+02  0.00000000000E+00 0. -1.
        -14    1    6    6    0    0 -0.25356389242E+02  0.82663532057E+02  0.93358487002E+02  0.12724784125E+03  0.00000000000E+00 0.  1.
         -5    1    5    5    0  501  0.81465221927E+00 -0.30270603062E+02 -0.12122442177E+02  0.32954767065E+02  0.47000000000E+01 0.  1.
<mgrwt>
<rscale>  2 0.21098838E+03</rscale>
<asrwt>0</asrwt>
<pdfrwt beam="1">  1        1 0.65708621E-01 0.21098838E+03</pdfrwt>
<pdfrwt beam="2">  1       -1 0.16581221E-01 0.21098838E+03</pdfrwt>
<totfact> 0.15152020E+03</totfact>
</mgrwt>
</event>
<event>
12    1  0.1093377E-001  0.1892866E+03  0.7546771E-02  0.1159106E+00
         -2   -1    0    0    0  501 -0.00000000000E+00  0.00000000000E+00  0.12862319673E+03  0.12862319673E+03  0.00000000000E+00 0.  1.
          2   -1    0    0  503    0  0.00000000000E+00 -0.00000000000E+00 -0.31321043849E+03  0.31321043849E+03  0.00000000000E+00 0. -1.
          6    2    1    2  503    0 -0.35946528129E+02  0.67525939370E+02 -0.16555803499E+03  0.25110715016E+03  0.17260774182E+03 0.  0.
         24    2    3    3    0    0 -0.47962935994E+02 -0.19249025938E+02 -0.11621396704E+03  0.15045320982E+03  0.80371101665E+02 0.  0.
         -6    2    1    2    0  501  0.35946528129E+02 -0.67525939370E+02 -0.19029206759E+02  0.19072648507E+03  0.17367376320E+03 0.  0.
        -24    2    5    5    0    0 -0.44660903934E+02 -0.34093840507E+02 -0.21392744690E+01  0.10171736671E+03  0.84763552862E+02 0.  0.
          4    1    4    4  502    0 -0.59468790760E+02 -0.40106091038E+02 -0.87867825703E+02  0.11342746760E+03  0.00000000000E+00 0. -1.
         -3    1    4    4    0  502  0.11505854766E+02  0.20857065100E+02 -0.28346141332E+02  0.37025742220E+02  0.00000000000E+00 0.  1.
          5    1    3    3  503    0  0.12016407865E+02  0.86774965309E+02 -0.49344067959E+02  0.10065394034E+03  0.47000000000E+01 0. -1.
         13    1    6    6    0    0 -0.47818219040E+02 -0.38944231058E+02 -0.33256920983E+02  0.70066097352E+02  0.00000000000E+00 0. -1.
        -14    1    6    6    0    0  0.31573151059E+01  0.48503905509E+01  0.31117646514E+02  0.31651269355E+02  0.00000000000E+00 0.  1.
         -5    1    5    5    0  501  0.80607432063E+02 -0.33432098864E+02 -0.16889932290E+02  0.89009118359E+02  0.47000000000E+01 0.  1.
<mgrwt>
<rscale>  2 0.18928665E+03</rscale>
<asrwt>0</asrwt>
<pdfrwt beam="2">  1        2 0.48186221E-01 0.18928665E+03</pdfrwt>
<pdfrwt beam="1">  1       -2 0.19788184E-01 0.18928665E+03</pdfrwt>
<totfact> 0.22037970E+03</totfact>
</mgrwt>
</event>
<event>
12    1  0.1093377E-001  0.2927512E+03  0.7546771E-02  0.1088921E+00
          2   -1    0    0  503    0  0.00000000000E+00  0.00000000000E+00  0.22516536178E+04  0.22516536178E+04  0.00000000000E+00 0. -1.
         -2   -1    0    0    0  501 -0.00000000000E+00 -0.00000000000E+00 -0.41062926693E+02  0.41062926693E+02  0.00000000000E+00 0.  1.
          6    2    1    2  503    0 -0.12511544856E+03  0.20014244880E+03  0.14137552890E+04  0.14436655667E+04  0.17249746687E+03 0.  0.
         24    2    3    3    0    0 -0.12628435801E+03  0.21940022754E+03  0.13690195109E+04  0.13947206157E+04  0.83348518978E+02 0.  0.
         -6    2    1    2    0  501  0.12511544856E+03 -0.20014244880E+03  0.79683540207E+03  0.84905097773E+03  0.17386785075E+03 0.  0.
        -24    2    5    5    0    0  0.80140573000E+02 -0.21367047583E+03  0.71391824360E+03  0.75364085188E+03  0.78852339181E+02 0.  0.
          2    1    4    4  502    0 -0.85962747204E+02  0.19671261703E+03  0.99801988961E+03  0.10208472695E+04  0.00000000000E+00 0. -1.
         -1    1    4    4    0  502 -0.40321610802E+02  0.22687610501E+02  0.37099962133E+03  0.37387334619E+03  0.00000000000E+00 0.  1.
          5    1    3    3  503    0  0.11689094443E+01 -0.19257778739E+02  0.44735778057E+02  0.48944951012E+02  0.47000000000E+01 0. -1.
         13    1    6    6    0    0 -0.86176106332E+01 -0.33608639991E+02  0.17815949452E+03  0.18150649956E+03  0.00000000000E+00 0. -1.
        -14    1    6    6    0    0  0.88758183634E+02 -0.18006183584E+03  0.53575874908E+03  0.57213435232E+03  0.00000000000E+00 0.  1.
         -5    1    5    5    0  501  0.44974875561E+02  0.13528027033E+02  0.82917158463E+02  0.95410125850E+02  0.47000000000E+01 0.  1.
<mgrwt>
<rscale>  2 0.29275117E+03</rscale>
<asrwt>0</asrwt>
<pdfrwt beam="1">  1        2 0.34640815E+00 0.29275117E+03</pdfrwt>
<pdfrwt beam="2">  1       -2 0.63173751E-02 0.29275117E+03</pdfrwt>
<totfact> 0.74458692E+02</totfact>
</mgrwt>
</event>
<event>
12    1  0.1093377E-001  0.2105580E+03  0.7546771E-02  0.1141125E+00
          2   -1    0    0  503    0  0.00000000000E+00  0.00000000000E+00  0.19871247923E+04  0.19871247923E+04  0.00000000000E+00 0.  1.
         -2   -1    0    0    0  501 -0.00000000000E+00 -0.00000000000E+00 -0.32532411127E+02  0.32532411127E+02  0.00000000000E+00 0. -1.
          6    2    1    2  503    0  0.10347722445E+03 -0.62428016889E+02  0.15414683379E+04  0.15557036967E+04  0.17171069274E+03 0.  0.
         24    2    3    3    0    0  0.11867636916E+03 -0.97986839402E+01  0.13062937725E+04  0.13141875960E+04  0.80656820429E+02 0.  0.
         -6    2    1    2    0  501 -0.10347722445E+03  0.62428016889E+02  0.41312404327E+03  0.46395350669E+03  0.17313748286E+03 0.  0.
        -24    2    5    5    0    0 -0.13688962025E+03  0.71818161212E+02  0.31808173331E+03  0.36266336065E+03  0.80325012785E+02 0.  0.
          4    1    4    4  502    0  0.10193674501E+03 -0.14309181826E+02  0.68866391847E+03  0.69631447297E+03  0.00000000000E+00 0. -1.
         -3    1    4    4    0  502  0.16739624151E+02  0.45104978855E+01  0.61762985403E+03  0.61787312306E+03  0.00000000000E+00 0.  1.
          5    1    3    3  503    0 -0.15199144708E+02 -0.52629332949E+02  0.23517456538E+03  0.24151610068E+03  0.47000000000E+01 0. -1.
         13    1    6    6    0    0 -0.88699444626E+01  0.39604929219E+02  0.97301851778E+02  0.10542711555E+03  0.00000000000E+00 0. -1.
        -14    1    6    6    0    0 -0.12801967579E+03  0.32213231992E+02  0.22077988153E+03  0.25723624510E+03  0.00000000000E+00 0.  1.
         -5    1    5    5    0  501  0.33412395797E+02 -0.93901443227E+01  0.95042309959E+02  0.10129014604E+03  0.47000000000E+01 0.  1.
<mgrwt>
<rscale>  2 0.21055803E+03</rscale>
<asrwt>0</asrwt>
<pdfrwt beam="1">  1        2 0.30571141E+00 0.21055803E+03</pdfrwt>
<pdfrwt beam="2">  1       -2 0.50049879E-02 0.21055803E+03</pdfrwt>
<totfact> 0.14835426E+03</totfact>
</mgrwt>
</event>
<event>
12    1  0.1093377E-001  0.1826928E+03  0.7546771E-02  0.1165222E+00
         -2   -1    0    0    0  501 -0.00000000000E+00  0.00000000000E+00  0.53755934491E+02  0.53755934491E+02  0.00000000000E+00 0. -1.
          2   -1    0    0  503    0  0.00000000000E+00 -0.00000000000E+00 -0.68121021153E+03  0.68121021153E+03  0.00000000000E+00 0.  1.
          6    2    1    2  503    0  0.50289095207E+01  0.56747512125E+02 -0.20467375277E+03  0.27447610070E+03  0.17378208975E+03 0.  0.
         24    2    3    3    0    0 -0.18791017555E+02 -0.29638205478E+02 -0.13535573192E+03  0.16108756889E+03  0.79978154030E+02 0.  0.
         -6    2    1    2    0  501 -0.50289095207E+01 -0.56747512125E+02 -0.42278052426E+03  0.46049004532E+03  0.17338437091E+03 0.  0.
        -24    2    5    5    0    0 -0.53076689554E+02 -0.55436630993E+02 -0.17617122642E+03  0.20919630612E+03  0.82682757862E+02 0.  0.
          2    1    4    4  502    0  0.78923438850E+01 -0.30382601916E+02 -0.10035712032E+02  0.32956139143E+02  0.00000000000E+00 0. -1.
         -1    1    4    4    0  502 -0.26683361440E+02  0.74439643886E+00 -0.12532001989E+03  0.12813142975E+03  0.00000000000E+00 0.  1.
          5    1    3    3  503    0  0.23819927075E+02  0.86385717603E+02 -0.69318020854E+02  0.11338853181E+03  0.47000000000E+01 0. -1.
         11    1    6    6    0    0 -0.74004500826E+02 -0.34034574394E+02 -0.14254420257E+03  0.16417633229E+03  0.00000000000E+00 0. -1.
        -12    1    6    6    0    0  0.20927811272E+02 -0.21402056598E+02 -0.33627023849E+02  0.45019973836E+02  0.00000000000E+00 0.  1.
         -5    1    5    5    0  501  0.48047780034E+02 -0.13108811323E+01 -0.24660929784E+03  0.25129373919E+03  0.47000000000E+01 0.  1.
<mgrwt>
<rscale>  2 0.18269285E+03</rscale>
<asrwt>0</asrwt>
<pdfrwt beam="2">  1        2 0.10480157E+00 0.18269285E+03</pdfrwt>
<pdfrwt beam="1">  1       -2 0.82701437E-02 0.18269285E+03</pdfrwt>
<totfact> 0.38305748E+03</totfact>
</mgrwt>
</event>
<event>
12    1  0.1093377E-001  0.2053663E+03  0.7546771E-02  0.1145289E+00
          2   -1    0    0  503    0  0.00000000000E+00  0.00000000000E+00  0.82306577838E+03  0.82306577838E+03  0.00000000000E+00 0. -1.
         -2   -1    0    0    0  501 -0.00000000000E+00 -0.00000000000E+00 -0.55108260339E+02  0.55108260339E+02  0.00000000000E+00 0.  1.
          6    2    1    2  503    0 -0.10569004768E+03  0.36866019584E+02  0.26589992572E+03  0.33534538979E+03  0.17095107596E+03 0.  0.
         24    2    3    3    0    0 -0.96754213102E+02  0.55083234904E+02  0.27869776545E+03  0.31089971992E+03  0.81182823666E+02 0.  0.
         -6    2    1    2    0  501  0.10569004768E+03 -0.36866019584E+02  0.50205759232E+03  0.54282864894E+03  0.17341172544E+03 0.  0.
        -24    2    5    5    0    0  0.65736698795E+02 -0.84192907021E+02  0.41470308217E+03  0.43564187360E+03  0.79971473146E+02 0.  0.
          2    1    4    4  502    0 -0.40530206408E+02 -0.17970880407E+02  0.11115027221E+03  0.11966634108E+03  0.00000000000E+00 0. -1.
         -1    1    4    4    0  502 -0.56224006695E+02  0.73054115312E+02  0.16754749323E+03  0.19123337884E+03  0.00000000000E+00 0.  1.
          5    1    3    3  503    0 -0.89358345824E+01 -0.18217215320E+02 -0.12797839725E+02  0.24445669869E+02  0.47000000000E+01 0. -1.
         11    1    6    6    0    0  0.77393210294E+01 -0.66762045809E+01  0.19838475121E+03  0.19864787517E+03  0.00000000000E+00 0. -1.
        -12    1    6    6    0    0  0.57997377766E+02 -0.77516702440E+02  0.21631833096E+03  0.23699399843E+03  0.00000000000E+00 0.  1.
         -5    1    5    5    0  501  0.39953348889E+02  0.47326887437E+02  0.87354510155E+02  0.10718677533E+03  0.47000000000E+01 0.  1.
<mgrwt>
<rscale>  2 0.20536628E+03</rscale>
<asrwt>0</asrwt>
<pdfrwt beam="1">  1        2 0.12662550E+00 0.20536628E+03</pdfrwt>
<pdfrwt beam="2">  1       -2 0.84781945E-02 0.20536628E+03</pdfrwt>
<totfact> 0.29278046E+03</totfact>
</mgrwt>
</event>
<event>
12    1  0.1093377E-001  0.1738737E+03  0.7546771E-02  0.1173867E+00
         -1   -1    0    0    0  501 -0.00000000000E+00  0.00000000000E+00  0.21574802664E+02  0.21574802664E+02  0.00000000000E+00 0.  1.
          1   -1    0    0  503    0  0.00000000000E+00 -0.00000000000E+00 -0.15278911535E+04  0.15278911535E+04  0.00000000000E+00 0. -1.
          6    2    1    2  503    0  0.16704456479E+02 -0.19449250995E+02 -0.97710764088E+03  0.99249797172E+03  0.17220792603E+03 0.  0.
         24    2    3    3    0    0  0.67720513667E+02  0.13124251991E+02 -0.45401436355E+03  0.46589343512E+03  0.78545124715E+02 0.  0.
         -6    2    1    2    0  501 -0.16704456479E+02  0.19449250995E+02 -0.52920871000E+03  0.55696798448E+03  0.17173865251E+03 0.  0.
        -24    2    5    5    0    0  0.48358391899E+02  0.14828701665E+02 -0.21723076935E+03  0.23820969178E+03  0.83643443521E+02 0.  0.
          2    1    4    4  502    0 -0.15926913391E+01  0.28228203630E+02 -0.20606355178E+03  0.20799412376E+03  0.00000000000E+00 0. -1.
         -1    1    4    4    0  502  0.69313205007E+02 -0.15103951639E+02 -0.24795081177E+03  0.25789931136E+03  0.00000000000E+00 0.  1.
          5    1    3    3  503    0 -0.51016057189E+02 -0.32573502986E+02 -0.52309327733E+03  0.52660453661E+03  0.47000000000E+01 0. -1.
         11    1    6    6    0    0 -0.81386718993E+01  0.13456075547E+02 -0.14803731153E+03  0.14887024402E+03  0.00000000000E+00 0. -1.
        -12    1    6    6    0    0  0.56497063799E+02  0.13726261184E+01 -0.69193457813E+02  0.89339447751E+02  0.00000000000E+00 0.  1.
         -5    1    5    5    0  501 -0.65062848378E+02  0.46205493295E+01 -0.31197794065E+03  0.31875829271E+03  0.47000000000E+01 0.  1.
<mgrwt>
<rscale>  2 0.17387372E+03</rscale>
<asrwt>0</asrwt>
<pdfrwt beam="2">  1        1 0.23506022E+00 0.17387372E+03</pdfrwt>
<pdfrwt beam="1">  1       -1 0.33191998E-02 0.17387372E+03</pdfrwt>
<totfact> 0.22244854E+03</totfact>
</mgrwt>
</event>
<event>
12    1  0.1093377E-001  0.2721657E+03  0.7546771E-02  0.1100046E+00
         -1   -1    0    0    0  501 -0.00000000000E+00  0.00000000000E+00  0.43974976430E+02  0.43974976430E+02  0.00000000000E+00 0.  1.
          1   -1    0    0  503    0  0.00000000000E+00 -0.00000000000E+00 -0.17847266488E+04  0.17847266488E+04  0.00000000000E+00 0. -1.
          6    2    1    2  503    0  0.18399679230E+03  0.10179318786E+03 -0.65385476223E+03  0.70826285695E+03  0.17289751813E+03 0.  0.
         24    2    3    3    0    0  0.92907953757E+02  0.13115933598E+02 -0.17877637409E+03  0.21644744767E+03  0.78003782498E+02 0.  0.
         -6    2    1    2    0  501 -0.18399679230E+03 -0.10179318786E+03 -0.10868969101E+04  0.11204387682E+04  0.17268893282E+03 0.  0.
        -24    2    5    5    0    0 -0.48090334127E+02 -0.52407677409E+02 -0.68345242930E+03  0.69183751637E+03  0.80452974177E+02 0.  0.
          4    1    4    4  502    0 -0.82780618381E+01  0.15936293838E+02 -0.12851841823E+02  0.22083061548E+02  0.00000000000E+00 0. -1.
         -3    1    4    4    0  502  0.10118601560E+03 -0.28203602399E+01 -0.16592453227E+03  0.19436438612E+03  0.00000000000E+00 0.  1.
          5    1    3    3  503    0  0.91088838541E+02  0.88677254264E+02 -0.47507838813E+03  0.49181540928E+03  0.47000000000E+01 0. -1.
         11    1    6    6    0    0  0.92376522428E+01 -0.27962671472E+02 -0.81313568676E+02  0.86482030883E+02  0.00000000000E+00 0. -1.
        -12    1    6    6    0    0 -0.57327986370E+02 -0.24445005938E+02 -0.60213886063E+03  0.60535548549E+03  0.00000000000E+00 0.  1.
         -5    1    5    5    0  501 -0.13590645817E+03 -0.49385510453E+02 -0.40344448080E+03  0.42860125187E+03  0.47000000000E+01 0.  1.
<mgrwt>
<rscale>  2 0.27216571E+03</rscale>
<asrwt>0</asrwt>
<pdfrwt beam="2">  1        1 0.27457333E+00 0.27216571E+03</pdfrwt>
<pdfrwt beam="1">  1       -1 0.67653811E-02 0.27216571E+03</pdfrwt>
<totfact> 0.51838539E+02</totfact>
</mgrwt>
</event>
<event>
12    1  0.1093377E-001  0.1835633E+03  0.7546771E-02  0.1164398E+00
          2   -1    0    0  503    0  0.00000000000E+00  0.00000000000E+00  0.18574111129E+04  0.18574111129E+04  0.00000000000E+00 0.  1.
         -2   -1    0    0    0  501 -0.00000000000E+00 -0.00000000000E+00 -0.25034120879E+02  0.25034120879E+02  0.00000000000E+00 0. -1.
          6    2    1    2  503    0 -0.35285447202E+02  0.29457053111E+02  0.43847993073E+03  0.47706742690E+03  0.18225229600E+03 0.  0.
         24    2    3    3    0    0 -0.32416042444E+02 -0.22256597858E+02  0.94941599779E+02  0.12961496971E+03  0.78993525352E+02 0.  0.
         -6    2    1    2    0  501  0.35285447202E+02 -0.29457053111E+02  0.13938970613E+04  0.14053778069E+04  0.17327718204E+03 0.  0.
        -24    2    5    5    0    0 -0.48140335444E+02 -0.17582514631E+02  0.74109778215E+03  0.74714543550E+03  0.79835721126E+02 0.  0.
          2    1    4    4  502    0 -0.57492981318E+02 -0.17938780520E+02  0.51377308490E+02  0.79163568483E+02  0.00000000000E+00 0. -1.
         -1    1    4    4    0  502  0.25076938874E+02 -0.43178173390E+01  0.43564291289E+02  0.50451401223E+02  0.00000000000E+00 0.  1.
          5    1    3    3  503    0 -0.28694047573E+01  0.51713650969E+02  0.34353833095E+03  0.34745245719E+03  0.47000000000E+01 0. -1.
         13    1    6    6    0    0 -0.63010483814E+02 -0.26877607999E+02  0.41834297854E+03  0.42391458406E+03  0.00000000000E+00 0. -1.
        -14    1    6    6    0    0  0.14870148371E+02  0.92950933681E+01  0.32275480360E+03  0.32323085144E+03  0.00000000000E+00 0.  1.
         -5    1    5    5    0  501  0.83425782645E+02 -0.11874538480E+02  0.65279927915E+03  0.65823237138E+03  0.47000000000E+01 0.  1.
<mgrwt>
<rscale>  2 0.18356326E+03</rscale>
<asrwt>0</asrwt>
<pdfrwt beam="1">  1        2 0.28575545E+00 0.18356326E+03</pdfrwt>
<pdfrwt beam="2">  1       -2 0.38514047E-02 0.18356326E+03</pdfrwt>
<totfact> 0.25747210E+03</totfact>
</mgrwt>
</event>
<event>
12    1  0.1093377E-001  0.2018963E+03  0.7546771E-02  0.1148149E+00
          2   -1    0    0  503    0  0.00000000000E+00  0.00000000000E+00  0.33244412248E+04  0.33244412248E+04  0.00000000000E+00 0.  1.
         -2   -1    0    0    0  501 -0.00000000000E+00 -0.00000000000E+00 -0.13601200110E+02  0.13601200110E+02  0.00000000000E+00 0. -1.
          6    2    1    2  503    0  0.98607047891E+02 -0.17936514865E+02  0.21905760468E+04  0.22000038040E+04  0.17705437674E+03 0.  0.
         24    2    3    3    0    0  0.12407260537E+03 -0.19237934699E+02  0.21212545559E+04  0.21259919981E+04  0.66007389993E+02 0.  0.
         -6    2    1    2    0  501 -0.98607047891E+02  0.17936514865E+02  0.11202639778E+04  0.11380386208E+04  0.17348041409E+03 0.  0.
        -24    2    5    5    0    0 -0.43209829774E+01  0.21673758324E+02  0.28292760213E+03  0.29538915334E+03  0.81965243685E+02 0.  0.
          4    1    4    4  502    0  0.10780006266E+03 -0.37945807717E+02  0.18788909811E+04  0.18823634231E+04  0.00000000000E+00 0. -1.
         -3    1    4    4    0  502  0.16272542715E+02  0.18707873018E+02  0.24236357479E+03  0.24362857497E+03  0.00000000000E+00 0.  1.
          5    1    3    3  503    0 -0.25465557481E+02  0.13014198349E+01  0.69321490949E+02  0.74011805943E+02  0.47000000000E+01 0. -1.
         13    1    6    6    0    0 -0.66979157564E+01  0.43326259694E+02  0.79401708877E+02  0.90700927378E+02  0.00000000000E+00 0. -1.
        -14    1    6    6    0    0  0.23769327791E+01 -0.21652501370E+02  0.20352589325E+03  0.20468822596E+03  0.00000000000E+00 0.  1.
         -5    1    5    5    0  501 -0.94286064913E+02 -0.37372434595E+01  0.83733637569E+03  0.84264946750E+03  0.47000000000E+01 0.  1.
<mgrwt>
<rscale>  2 0.20189628E+03</rscale>
<asrwt>0</asrwt>
<pdfrwt beam="1">  1        2 0.51145185E+00 0.20189628E+03</pdfrwt>
<pdfrwt beam="2">  1       -2 0.20924950E-02 0.20189628E+03</pdfrwt>
<totfact> 0.96874652E+02</totfact>
</mgrwt>
</event>
<event>
12    1  0.1093377E-001  0.2384379E+03  0.7546771E-02  0.1120838E+00
          2   -1    0    0  503    0  0.00000000000E+00  0.00000000000E+00  0.52290142823E+03  0.52290142823E+03  0.00000000000E+00 0.  1.
         -2   -1    0    0    0  501 -0.00000000000E+00 -0.00000000000E+00 -0.11859313257E+03  0.11859313257E+03  0.00000000000E+00 0. -1.
          6    2    1    2  503    0 -0.10169785182E+03 -0.12665486914E+03  0.29353075099E+03  0.37726255577E+03  0.17257701256E+03 0.  0.
         24    2    3    3    0    0  0.86137555087E-01 -0.72405258192E+02  0.96341501882E+02  0.14877034420E+03  0.87226151441E+02 0.  0.
         -6    2    1    2    0  501  0.10169785182E+03  0.12665486914E+03  0.11077754467E+03  0.26423200504E+03  0.17653039155E+03 0.  0.
        -24    2    5    5    0    0  0.11739545419E+03  0.10467114658E+03  0.13881268813E+03  0.22501774683E+03  0.81401980404E+02 0.  0.
          2    1    4    4  502    0 -0.38258837947E+00  0.19456331720E+02  0.28765322652E+02  0.34729512020E+02  0.00000000000E+00 0. -1.
         -1    1    4    4    0  502  0.46872593456E+00 -0.91861589912E+02  0.67576179230E+02  0.11404083218E+03  0.00000000000E+00 0.  1.
          5    1    3    3  503    0 -0.10178398938E+03 -0.54249610950E+02  0.19718924911E+03  0.22849221157E+03  0.47000000000E+01 0. -1.
         13    1    6    6    0    0  0.93572794612E+02  0.30997959036E+02  0.65231678558E+02  0.11820284786E+03  0.00000000000E+00 0. -1.
        -14    1    6    6    0    0  0.23822659575E+02  0.73673187539E+02  0.73581009573E+02  0.10681489897E+03  0.00000000000E+00 0.  1.
         -5    1    5    5    0  501 -0.15697602366E+02  0.21983722566E+02 -0.28035143459E+02  0.39214258206E+02  0.47000000000E+01 0.  1.
<mgrwt>
<rscale>  2 0.23843788E+03</rscale>
<asrwt>0</asrwt>
<pdfrwt beam="1">  1        2 0.80446372E-01 0.23843788E+03</pdfrwt>
<pdfrwt beam="2">  1       -2 0.18245098E-01 0.23843788E+03</pdfrwt>
<totfact> 0.14533038E+03</totfact>
</mgrwt>
</event>
<event>
12    1  0.1093377E-001  0.2035376E+03  0.7546771E-02  0.1146788E+00
         -2   -1    0    0    0  501 -0.00000000000E+00  0.00000000000E+00  0.21382317691E+03  0.21382317691E+03  0.00000000000E+00 0. -1.
          2   -1    0    0  503    0  0.00000000000E+00 -0.00000000000E+00 -0.24147456404E+03  0.24147456404E+03  0.00000000000E+00 0.  1.
          6    2    1    2  503    0 -0.11731635606E+02 -0.10683901563E+03 -0.11503866982E+03  0.23387466512E+03  0.17294871176E+03 0.  0.
         24    2    3    3    0    0 -0.30071887960E+02 -0.12339538135E+03 -0.13423874341E+03  0.20223274787E+03  0.82141983755E+02 0.  0.
         -6    2    1    2    0  501  0.11731635606E+02  0.10683901563E+03  0.87387282690E+02  0.22142307582E+03  0.17274094707E+03 0.  0.
        -24    2    5    5    0    0 -0.11990349040E+02  0.28984266550E+01 -0.12259128603E+01  0.82711983915E+02  0.81777748035E+02 0.  0.
          4    1    4    4  502    0 -0.66457213086E+01 -0.13680373260E+01 -0.53770624431E+02  0.54197021962E+02  0.00000000000E+00 0. -1.
         -3    1    4    4    0  502 -0.23426166652E+02 -0.12202734402E+03 -0.80468118975E+02  0.14803572590E+03  0.00000000000E+00 0.  1.
          5    1    3    3  503    0  0.18340252354E+02  0.16556365718E+02  0.19200073582E+02  0.31641917258E+02  0.47000000000E+01 0. -1.
         13    1    6    6    0    0 -0.42730039724E+02 -0.12265282556E+02  0.11879978630E+02  0.46015511985E+02  0.00000000000E+00 0. -1.
        -14    1    6    6    0    0  0.30739690684E+02  0.15163709211E+02 -0.13105891490E+02  0.36696471930E+02  0.00000000000E+00 0.  1.
         -5    1    5    5    0  501  0.23721984646E+02  0.10394058897E+03  0.88613195551E+02  0.13871109190E+03  0.47000000000E+01 0.  1.
<mgrwt>
<rscale>  2 0.20353756E+03</rscale>
<asrwt>0</asrwt>
<pdfrwt beam="2">  1        2 0.37149933E-01 0.20353756E+03</pdfrwt>
<pdfrwt beam="1">  1       -2 0.32895874E-01 0.20353756E+03</pdfrwt>
<totfact> 0.11887669E+03</totfact>
</mgrwt>
</event>
<event>
12    1  0.1093377E-001  0.1748385E+03  0.7546771E-02  0.1172894E+00
          2   -1    0    0  503    0  0.00000000000E+00  0.00000000000E+00  0.56070243944E+03  0.56070243944E+03  0.00000000000E+00 0. -1.
         -2   -1    0    0    0  501 -0.00000000000E+00 -0.00000000000E+00 -0.57844565183E+02  0.57844565183E+02  0.00000000000E+00 0.  1.
          6    2    1    2  503    0  0.29168743348E+02 -0.24307230951E+02  0.32853846259E+03  0.37323399449E+03  0.17298680925E+03 0.  0.
         24    2    3    3    0    0 -0.21350456197E+02 -0.24559902430E+02  0.30513446838E+03  0.31735832616E+03  0.80933507301E+02 0.  0.
         -6    2    1    2    0  501 -0.29168743348E+02  0.24307230951E+02  0.17431941167E+03  0.24531301014E+03  0.16837327162E+03 0.  0.
        -24    2    5    5    0    0  0.45493194088E+01  0.61634072570E+02  0.16596746541E+03  0.19410709381E+03  0.79453817290E+02 0.  0.
          2    1    4    4  502    0  0.11351051439E+02 -0.33399456264E+02  0.25122282605E+03  0.25368736345E+03  0.00000000000E+00 0. -1.
         -1    1    4    4    0  502 -0.32701507636E+02  0.88395538344E+01  0.53911642334E+02  0.63670962713E+02  0.00000000000E+00 0.  1.
          5    1    3    3  503    0  0.50519199544E+02  0.25267147912E+00  0.23403994211E+02  0.55875668323E+02  0.47000000000E+01 0. -1.
         13    1    6    6    0    0  0.23117179118E+01 -0.16694096927E+02  0.59949457927E+02  0.62273384504E+02  0.00000000000E+00 0. -1.
        -14    1    6    6    0    0  0.22376014969E+01  0.78328169497E+02  0.10601800749E+03  0.13183370930E+03  0.00000000000E+00 0.  1.
         -5    1    5    5    0  501 -0.33718062757E+02 -0.37326841619E+02  0.83519462547E+01  0.51205916334E+02  0.47000000000E+01 0.  1.
<mgrwt>
<rscale>  2 0.17483854E+03</rscale>
<asrwt>0</asrwt>
<pdfrwt beam="1">  1        2 0.86261910E-01 0.17483854E+03</pdfrwt>
<pdfrwt beam="2">  1       -2 0.88991642E-02 0.17483854E+03</pdfrwt>
<totfact> 0.42741887E+03</totfact>
</mgrwt>
</event>
<event>
12    1  0.1093377E-001  0.2179379E+03  0.7546771E-02  0.1135430E+00
         -1   -1    0    0    0  501 -0.00000000000E+00  0.00000000000E+00  0.66732229981E+02  0.66732229981E+02  0.00000000000E+00 0.  1.
          1   -1    0    0  503    0  0.00000000000E+00 -0.00000000000E+00 -0.76267407780E+03  0.76267407780E+03  0.00000000000E+00 0. -1.
          6    2    1    2  503    0  0.12070821350E+03 -0.54352475499E+02 -0.24069037828E+03  0.32464137238E+03  0.17301877951E+03 0.  0.
         24    2    3    3    0    0  0.64178798851E+01  0.76985353467E+01 -0.56593161004E+02  0.99194075402E+02  0.80846905283E+02 0.  0.
         -6    2    1    2    0  501 -0.12070821350E+03  0.54352475499E+02 -0.45525146954E+03  0.50476493540E+03  0.17323127632E+03 0.  0.
        -24    2    5    5    0    0 -0.39315671259E+02  0.15243911062E+02 -0.36369095283E+03  0.37608065522E+03  0.85950283486E+02 0.  0.
          2    1    4    4  502    0 -0.14483595464E+02 -0.23461503252E+02 -0.55135000343E+02  0.61644828942E+02  0.00000000000E+00 0. -1.
         -1    1    4    4    0  502  0.20901475349E+02  0.31160038599E+02 -0.14581606604E+01  0.37549246460E+02  0.00000000000E+00 0.  1.
          5    1    3    3  503    0  0.11429033362E+03 -0.62051010845E+02 -0.18409721728E+03  0.22544729698E+03  0.47000000000E+01 0. -1.
         13    1    6    6    0    0  0.12384292923E+02  0.36071280736E+02 -0.18533747829E+03  0.18922074110E+03  0.00000000000E+00 0. -1.
        -14    1    6    6    0    0 -0.51699964182E+02 -0.20827369674E+02 -0.17835347454E+03  0.18685991412E+03  0.00000000000E+00 0.  1.
         -5    1    5    5    0  501 -0.81392542243E+02  0.39108564437E+02 -0.91560516706E+02  0.12868428018E+03  0.47000000000E+01 0.  1.
<mgrwt>
<rscale>  2 0.21793792E+03</rscale>
<asrwt>0</asrwt>
<pdfrwt beam="2">  1        1 0.11733448E+00 0.21793792E+03</pdfrwt>
<pdfrwt beam="1">  1       -1 0.10266497E-01 0.21793792E+03</pdfrwt>
<totfact> 0.14491625E+03</totfact>
</mgrwt>
</event>
<event>
12    1  0.1093377E-001  0.1674795E+03  0.7546771E-02  0.1180502E+00
         -2   -1    0    0    0  501 -0.00000000000E+00  0.00000000000E+00  0.54056255967E+02  0.54056255967E+02  0.00000000000E+00 0. -1.
          2   -1    0    0  503    0  0.00000000000E+00 -0.00000000000E+00 -0.59748749060E+03  0.59748749060E+03  0.00000000000E+00 0.  1.
          6    2    1    2  503    0 -0.65479881776E+01 -0.90400735077E+00 -0.38041726271E+03  0.41321329887E+03  0.16119628785E+03 0.  0.
         24    2    3    3    0    0 -0.50341803830E+02 -0.38644452709E+02 -0.25640295627E+03  0.27630501677E+03  0.81082028654E+02 0.  0.
         -6    2    1    2    0  501  0.65479881776E+01  0.90400735077E+00 -0.16301397192E+03  0.23833044770E+03  0.17373587390E+03 0.  0.
        -24    2    5    5    0    0 -0.14008474084E+02  0.62837742009E+02 -0.67944533318E+02  0.12292401900E+03  0.79680836286E+02 0.  0.
          2    1    4    4  502    0 -0.62334181252E+02 -0.42258314034E+02 -0.13774002300E+03  0.15698289459E+03  0.00000000000E+00 0. -1.
         -1    1    4    4    0  502  0.11992377422E+02  0.36138613255E+01 -0.11866293327E+03  0.11932212218E+03  0.00000000000E+00 0.  1.
          5    1    3    3  503    0  0.43793815653E+02  0.37740445358E+02 -0.12401430645E+03  0.13690828210E+03  0.47000000000E+01 0. -1.
         13    1    6    6    0    0 -0.21593572365E+02 -0.11456961041E+02 -0.43372894318E+01  0.24826526204E+02  0.00000000000E+00 0. -1.
        -14    1    6    6    0    0  0.75850982804E+01  0.74294703050E+02 -0.63607243886E+02  0.98097492792E+02  0.00000000000E+00 0.  1.
         -5    1    5    5    0  501  0.20556462262E+02 -0.61933734659E+02 -0.95069438605E+02  0.11540642870E+03  0.47000000000E+01 0.  1.
<mgrwt>
<rscale>  2 0.16747953E+03</rscale>
<asrwt>0</asrwt>
<pdfrwt beam="2">  1        2 0.91921152E-01 0.16747953E+03</pdfrwt>
<pdfrwt beam="1">  1       -2 0.83163471E-02 0.16747953E+03</pdfrwt>
<totfact> 0.44115384E+03</totfact>
</mgrwt>
</event>
<event>
12    1  0.1093377E-001  0.2607708E+03  0.7546771E-02  0.1106681E+00
          1   -1    0    0  503    0  0.00000000000E+00  0.00000000000E+00  0.10647574696E+04  0.10647574696E+04  0.00000000000E+00 0.  1.
         -1   -1    0    0    0  501 -0.00000000000E+00 -0.00000000000E+00 -0.10377729274E+03  0.10377729274E+03  0.00000000000E+00 0. -1.
          6    2    1    2  503    0  0.52957085161E+02 -0.18763803642E+03  0.84248021909E+03  0.88182542033E+03  0.17271556618E+03 0.  0.
         24    2    3    3    0    0 -0.59421496961E+01 -0.14151333610E+03  0.70907262961E+03  0.72880162225E+03  0.91139876573E+02 0.  0.
         -6    2    1    2    0  501 -0.52957085161E+02  0.18763803642E+03  0.11849995773E+03  0.28670934198E+03  0.17363041558E+03 0.  0.
        -24    2    5    5    0    0 -0.21306630289E+02  0.19102932687E+02  0.64802521090E+02  0.10695579630E+03  0.80132896431E+02 0.  0.
          4    1    4    4  502    0 -0.59598784267E+01 -0.14104119531E+03  0.49519617077E+03  0.51492464154E+03  0.00000000000E+00 0. -1.
         -3    1    4    4    0  502  0.17728730637E-01 -0.47214078826E+00  0.21387645884E+03  0.21387698071E+03  0.00000000000E+00 0.  1.
          5    1    3    3  503    0  0.58899234857E+02 -0.46124700318E+02  0.13340758949E+03  0.15302379808E+03  0.47000000000E+01 0. -1.
         11    1    6    6    0    0 -0.21813005060E+01  0.43708788926E+02  0.61689717672E+02  0.75636218624E+02  0.00000000000E+00 0. -1.
        -12    1    6    6    0    0 -0.19125329783E+02 -0.24605856238E+02  0.31128034178E+01  0.31319577674E+02  0.00000000000E+00 0.  1.
         -5    1    5    5    0  501 -0.31650454872E+02  0.16853510373E+03  0.53697436639E+02  0.17975354568E+03  0.47000000000E+01 0.  1.
<mgrwt>
<rscale>  2 0.26077077E+03</rscale>
<asrwt>0</asrwt>
<pdfrwt beam="1">  1        1 0.16380883E+00 0.26077077E+03</pdfrwt>
<pdfrwt beam="2">  1       -1 0.15965738E-01 0.26077077E+03</pdfrwt>
<totfact> 0.41891329E+02</totfact>
</mgrwt>
</event>
<event>
12    1  0.1093377E-001  0.1790660E+03  0.7546771E-02  0.1168710E+00
         -1   -1    0    0    0  501 -0.00000000000E+00  0.00000000000E+00  0.84059986299E+02  0.84059986299E+02  0.00000000000E+00 0. -1.
          1   -1    0    0  503    0  0.00000000000E+00 -0.00000000000E+00 -0.41749467682E+03  0.41749467682E+03  0.00000000000E+00 0.  1.
          6    2    1    2  503    0 -0.88226692706E+00 -0.44568722652E+01 -0.95425816230E+02  0.20531183971E+03  0.18173118339E+03 0.  0.
         24    2    3    3    0    0  0.63834349225E+02  0.80717949443E+01 -0.94187981302E+02  0.13921471312E+03  0.79808411288E+02 0.  0.
         -6    2    1    2    0  501  0.88226692706E+00  0.44568722652E+01 -0.23800887430E+03  0.29624282341E+03  0.17632624330E+03 0.  0.
        -24    2    5    5    0    0 -0.19620091887E+02  0.32502129998E+02 -0.46530913093E+02  0.10158213703E+03  0.81929654152E+02 0.  0.
          4    1    4    4  502    0  0.49976864485E+02  0.39624419274E+02 -0.40940910909E+02  0.75788783950E+02  0.00000000000E+00 0. -1.
         -3    1    4    4    0  502  0.13857484740E+02 -0.31552624330E+02 -0.53247070393E+02  0.63425929169E+02  0.00000000000E+00 0.  1.
          5    1    3    3  503    0 -0.64716616153E+02 -0.12528667209E+02 -0.12378349277E+01  0.66097126591E+02  0.47000000000E+01 0. -1.
         11    1    6    6    0    0 -0.49939498693E+02  0.24735392579E+02 -0.16291947639E+02  0.58062214336E+02  0.00000000000E+00 0. -1.
        -12    1    6    6    0    0  0.30319406806E+02  0.77667374193E+01 -0.30238965454E+02  0.43519922690E+02  0.00000000000E+00 0.  1.
         -5    1    5    5    0  501  0.20502358815E+02 -0.28045257733E+02 -0.19147796120E+03  0.19466068639E+03  0.47000000000E+01 0.  1.
<mgrwt>
<rscale>  2 0.17906599E+03</rscale>
<asrwt>0</asrwt>
<pdfrwt beam="2">  1        1 0.64229951E-01 0.17906599E+03</pdfrwt>
<pdfrwt beam="1">  1       -1 0.12932305E-01 0.17906599E+03</pdfrwt>
<totfact> 0.23009411E+03</totfact>
</mgrwt>
</event>
<event>
12    1  0.1093377E-001  0.2286994E+03  0.7546771E-02  0.1127559E+00
          1   -1    0    0  503    0  0.00000000000E+00  0.00000000000E+00  0.65358611006E+02  0.65358611006E+02  0.00000000000E+00 0. -1.
         -1   -1    0    0    0  501 -0.00000000000E+00 -0.00000000000E+00 -0.91738993259E+03  0.91738993259E+03  0.00000000000E+00 0.  1.
          6    2    1    2  503    0 -0.80492187870E+01  0.14906194038E+03 -0.60129906341E+03  0.64325715755E+03  0.17301721039E+03 0.  0.
         24    2    3    3    0    0  0.84467869618E+01  0.95679588396E+01 -0.17105755139E+03  0.19064193713E+03  0.83191154931E+02 0.  0.
         -6    2    1    2    0  501  0.80492187870E+01 -0.14906194038E+03 -0.25073225817E+03  0.33949138604E+03  0.17350355592E+03 0.  0.
        -24    2    5    5    0    0  0.68367474187E+02 -0.87836734685E+02 -0.18871806618E+03  0.23340336714E+03  0.80456322334E+02 0.  0.
          2    1    4    4  502    0  0.30661147003E+02  0.36003800798E+02 -0.12021577495E+03  0.12918286324E+03  0.00000000000E+00 0. -1.
         -1    1    4    4    0  502 -0.22214360041E+02 -0.26435841959E+02 -0.50841776438E+02  0.61459073890E+02  0.00000000000E+00 0.  1.
          5    1    3    3  503    0 -0.16496005749E+02  0.13949398154E+03 -0.43024151202E+03  0.45261522042E+03  0.47000000000E+01 0. -1.
         13    1    6    6    0    0  0.31286667737E+02 -0.53406327848E+02 -0.33996595965E+02  0.70617702947E+02  0.00000000000E+00 0. -1.
        -14    1    6    6    0    0  0.37080806450E+02 -0.34430406837E+02 -0.15472147021E+03  0.16278566419E+03  0.00000000000E+00 0.  1.
         -5    1    5    5    0  501 -0.60318255400E+02 -0.61225205692E+02 -0.62014191993E+02  0.10608801890E+03  0.47000000000E+01 0.  1.
<mgrwt>
<rscale>  2 0.22869937E+03</rscale>
<asrwt>0</asrwt>
<pdfrwt beam="1">  1        1 0.10055172E-01 0.22869937E+03</pdfrwt>
<pdfrwt beam="2">  1       -1 0.14113690E+00 0.22869937E+03</pdfrwt>
<totfact> 0.28295249E+02</totfact>
</mgrwt>
</event>
<event>
12    1  0.1093377E-001  0.1757328E+03  0.7546771E-02  0.1171998E+00
         -1   -1    0    0    0  501 -0.00000000000E+00  0.00000000000E+00  0.21659634890E+02  0.21659634890E+02  0.00000000000E+00 0. -1.
          1   -1    0    0  503    0  0.00000000000E+00 -0.00000000000E+00 -0.14544217661E+04  0.14544217661E+04  0.00000000000E+00 0.  1.
          6    2    1    2  503    0  0.37742569571E+02 -0.85348985391E+01 -0.82758007674E+03  0.84645178550E+03  0.17347765192E+03 0.  0.
         24    2    3    3    0    0  0.63427126415E+02  0.38516119295E+02 -0.68213897560E+03  0.69137535712E+03  0.84733762977E+02 0.  0.
         -6    2    1    2    0  501 -0.37742569571E+02  0.85348985391E+01 -0.60518205449E+03  0.62962961551E+03  0.16938355173E+03 0.  0.
        -24    2    5    5    0    0 -0.42588735072E+02 -0.47193146008E+02 -0.49632977422E+03  0.50715509086E+03  0.82595690053E+02 0.  0.
          2    1    4    4  502    0  0.40252866686E+02 -0.12043898994E+02 -0.47646596285E+03  0.47831491983E+03  0.00000000000E+00 0. -1.
         -1    1    4    4    0  502  0.23174259729E+02  0.50560018289E+02 -0.20567301275E+03  0.21306043729E+03  0.00000000000E+00 0.  1.
          5    1    3    3  503    0 -0.25684556844E+02 -0.47051017834E+02 -0.14544110113E+03  0.15507642838E+03  0.47000000000E+01 0. -1.
         13    1    6    6    0    0 -0.34852506875E+02 -0.47399016633E+02 -0.15581412148E+03  0.16655150695E+03  0.00000000000E+00 0. -1.
        -14    1    6    6    0    0 -0.77362281973E+01  0.20587062487E+00 -0.34051565274E+03  0.34060358391E+03  0.00000000000E+00 0.  1.
         -5    1    5    5    0  501  0.48461655013E+01  0.55728044547E+02 -0.10885228027E+03  0.12247452465E+03  0.47000000000E+01 0.  1.
<mgrwt>
<rscale>  2 0.17573279E+03</rscale>
<asrwt>0</asrwt>
<pdfrwt beam="2">  1        1 0.22375712E+00 0.17573279E+03</pdfrwt>
<pdfrwt beam="1">  1       -1 0.33322526E-02 0.17573279E+03</pdfrwt>
<totfact> 0.24709822E+03</totfact>
</mgrwt>
</event>
<event>
12    1  0.1093377E-001  0.1789947E+03  0.7546771E-02  0.1168780E+00
         -2   -1    0    0    0  501 -0.00000000000E+00  0.00000000000E+00  0.13993690169E+03  0.13993690169E+03  0.00000000000E+00 0.  1.
          2   -1    0    0  503    0  0.00000000000E+00 -0.00000000000E+00 -0.31673135527E+03  0.31673135527E+03  0.00000000000E+00 0. -1.
          6    2    1    2  503    0  0.79005733985E+01  0.40088239368E+02 -0.20822049696E+03  0.27390276405E+03  0.17319775635E+03 0.  0.
         24    2    3    3    0    0  0.51360975090E+02 -0.11493791234E+02 -0.17267061310E+03  0.19751299616E+03  0.80163495581E+02 0.  0.
         -6    2    1    2    0  501 -0.79005733985E+01 -0.40088239368E+02  0.31426043382E+02  0.18276549291E+03  0.17534578182E+03 0.  0.
        -24    2    5    5    0    0  0.18262699013E+02 -0.88442384160E+02  0.53842991525E+02  0.12320670090E+03  0.64228046203E+02 0.  0.
          2    1    4    4  502    0  0.22339757233E+02 -0.34537868372E+02 -0.14645086607E+03  0.15211766918E+03  0.00000000000E+00 0. -1.
         -1    1    4    4    0  502  0.29021217857E+02  0.23044077138E+02 -0.26219747037E+02  0.45395326981E+02  0.00000000000E+00 0.  1.
          5    1    3    3  503    0 -0.43460401691E+02  0.51582030602E+02 -0.35549883862E+02  0.76389767894E+02  0.47000000000E+01 0. -1.
         11    1    6    6    0    0 -0.46353175393E+01  0.68186244767E+01 -0.42792130301E+01  0.92893203520E+01  0.00000000000E+00 0. -1.
        -12    1    6    6    0    0  0.22898016553E+02 -0.95261008637E+02  0.58122204555E+02  0.11391738055E+03  0.00000000000E+00 0.  1.
         -5    1    5    5    0  501 -0.26163272412E+02  0.48354144792E+02 -0.22416948143E+02  0.59558792012E+02  0.47000000000E+01 0.  1.
<mgrwt>
<rscale>  2 0.17899470E+03</rscale>
<asrwt>0</asrwt>
<pdfrwt beam="2">  1        2 0.48727901E-01 0.17899470E+03</pdfrwt>
<pdfrwt beam="1">  1       -2 0.21528754E-01 0.17899470E+03</pdfrwt>
<totfact> 0.18817978E+03</totfact>
</mgrwt>
</event>
<event>
12    1  0.1093377E-001  0.2225363E+03  0.7546771E-02  0.1132006E+00
          2   -1    0    0  503    0  0.00000000000E+00  0.00000000000E+00  0.39661867041E+03  0.39661867041E+03  0.00000000000E+00 0. -1.
         -2   -1    0    0    0  501 -0.00000000000E+00 -0.00000000000E+00 -0.16695652056E+03  0.16695652056E+03  0.00000000000E+00 0.  1.
          6    2    1    2  503    0  0.78550573966E+02  0.11712408485E+03 -0.26649944266E+02  0.22415749222E+03  0.17218628827E+03 0.  0.
         24    2    3    3    0    0  0.71463884121E+02  0.14104827781E+03  0.11274350182E+02  0.17851836108E+03  0.82097447376E+02 0.  0.
         -6    2    1    2    0  501 -0.78550573966E+02 -0.11712408485E+03  0.25631209412E+03  0.33941769874E+03  0.17210531864E+03 0.  0.
        -24    2    5    5    0    0 -0.10900002758E+03 -0.76911812800E+02  0.24010117436E+03  0.28622860242E+03  0.80509663717E+02 0.  0.
          2    1    4    4  502    0  0.85625432681E+02  0.13860899345E+03  0.15172968943E+02  0.16362880790E+03  0.00000000000E+00 0. -1.
         -1    1    4    4    0  502 -0.14161548560E+02  0.24392843552E+01 -0.38986187611E+01  0.14889553184E+02  0.00000000000E+00 0.  1.
          5    1    3    3  503    0  0.70866898447E+01 -0.23924192962E+02 -0.37924294448E+02  0.45639131140E+02  0.47000000000E+01 0. -1.
         11    1    6    6    0    0 -0.48398222173E+02 -0.80951482748E+02  0.15960357359E+03  0.18538832533E+03  0.00000000000E+00 0. -1.
        -12    1    6    6    0    0 -0.60601805406E+02  0.40396699480E+01  0.80497600774E+02  0.10084027708E+03  0.00000000000E+00 0.  1.
         -5    1    5    5    0  501  0.30449453614E+02 -0.40212272048E+02  0.16210919762E+02  0.53189096327E+02  0.47000000000E+01 0.  1.
<mgrwt>
<rscale>  2 0.22253634E+03</rscale>
<asrwt>0</asrwt>
<pdfrwt beam="1">  1        2 0.61018256E-01 0.22253634E+03</pdfrwt>
<pdfrwt beam="2">  1       -2 0.25685619E-01 0.22253634E+03</pdfrwt>
<totfact> 0.10902741E+03</totfact>
</mgrwt>
</event>
<event>
12    1  0.1093377E-001  0.1943479E+03  0.7546771E-02  0.1154597E+00
          2   -1    0    0  503    0  0.00000000000E+00  0.00000000000E+00  0.17667563785E+03  0.17667563785E+03  0.00000000000E+00 0.  1.
         -2   -1    0    0    0  501 -0.00000000000E+00 -0.00000000000E+00 -0.29987583104E+03  0.29987583104E+03  0.00000000000E+00 0. -1.
          6    2    1    2  503    0 -0.28063479798E+02 -0.83276008180E+02 -0.18913116848E+03  0.27076035944E+03  0.17267924287E+03 0.  0.
         24    2    3    3    0    0 -0.59395089922E+02 -0.11228598443E+03 -0.14728495279E+03  0.21078999774E+03  0.81262825584E+02 0.  0.
         -6    2    1    2    0  501  0.28063479798E+02  0.83276008180E+02  0.65930975291E+02  0.20579110945E+03  0.17401331785E+03 0.  0.
        -24    2    5    5    0    0 -0.20540138162E+02  0.49041073043E+02  0.98430659112E+02  0.13787452892E+03  0.80584532949E+02 0.  0.
          2    1    4    4  502    0 -0.39933975291E+02 -0.11057307161E+03 -0.15051689057E+03  0.19098811715E+03  0.00000000000E+00 0. -1.
         -1    1    4    4    0  502 -0.19461114631E+02 -0.17129128190E+01  0.32319377732E+01  0.19801880587E+02  0.00000000000E+00 0.  1.
          5    1    3    3  503    0  0.31331610125E+02  0.29009976250E+02 -0.41846215685E+02  0.59970361698E+02  0.47000000000E+01 0. -1.
         11    1    6    6    0    0 -0.15405084249E+02 -0.17947575039E+02  0.74939229389E+01  0.24811105407E+02  0.00000000000E+00 0. -1.
        -12    1    6    6    0    0 -0.51350539135E+01  0.66988648082E+02  0.90936736173E+02  0.11306342351E+03  0.00000000000E+00 0.  1.
         -5    1    5    5    0  501  0.48603617960E+02  0.34234935137E+02 -0.32499683821E+02  0.67916580532E+02  0.47000000000E+01 0.  1.
<mgrwt>
<rscale>  2 0.19434794E+03</rscale>
<asrwt>0</asrwt>
<pdfrwt beam="1">  1        2 0.27180867E-01 0.19434794E+03</pdfrwt>
<pdfrwt beam="2">  1       -2 0.46134743E-01 0.19434794E+03</pdfrwt>
<totfact> 0.87894443E+02</totfact>
</mgrwt>
</event>
<event>
12    1  0.1093377E-001  0.1963526E+03  0.7546771E-02  0.1152853E+00
          1   -1    0    0  503    0  0.00000000000E+00  0.00000000000E+00  0.88062718293E+02  0.88062718293E+02  0.00000000000E+00 0.  1.
         -1   -1    0    0    0  501 -0.00000000000E+00 -0.00000000000E+00 -0.53480784508E+03  0.53480784508E+03  0.00000000000E+00 0. -1.
          6    2    1    2  503    0 -0.64128762104E+01 -0.93691552766E+02 -0.35572833936E+03  0.40617681193E+03  0.17209799268E+03 0.  0.
         24    2    3    3    0    0 -0.59728161896E+02 -0.97720249017E+02 -0.22801419300E+03  0.26764254446E+03  0.80779694269E+02 0.  0.
         -6    2    1    2    0  501  0.64128762104E+01  0.93691552766E+02 -0.91016787421E+02  0.21669375144E+03  0.17277990126E+03 0.  0.
        -24    2    5    5    0    0 -0.33569926891E+01 -0.19622468730E+02 -0.36534118532E+02  0.90495617479E+02  0.80364197794E+02 0.  0.
          2    1    4    4  502    0 -0.48048659834E+02 -0.42863449115E+02 -0.18806736725E+03  0.19878451551E+03  0.00000000000E+00 0. -1.
         -1    1    4    4    0  502 -0.11679502063E+02 -0.54856799902E+02 -0.39946825746E+02  0.68858028951E+02  0.00000000000E+00 0.  1.
          5    1    3    3  503    0  0.53315285686E+02  0.40286962509E+01 -0.12771414637E+03  0.13853426747E+03  0.47000000000E+01 0. -1.
         13    1    6    6    0    0 -0.69075760011E+01 -0.25910575243E+02  0.20031208604E+02  0.33471209027E+02  0.00000000000E+00 0. -1.
        -14    1    6    6    0    0  0.35505833121E+01  0.62881065127E+01 -0.56565327136E+02  0.57024408452E+02  0.00000000000E+00 0.  1.
         -5    1    5    5    0  501  0.97698688995E+01  0.11331402150E+03 -0.54482668890E+02  0.12619813396E+03  0.47000000000E+01 0.  1.
<mgrwt>
<rscale>  2 0.19635264E+03</rscale>
<asrwt>0</asrwt>
<pdfrwt beam="1">  1        1 0.13548111E-01 0.19635264E+03</pdfrwt>
<pdfrwt beam="2">  1       -1 0.82278127E-01 0.19635264E+03</pdfrwt>
<totfact> 0.65540792E+02</totfact>
</mgrwt>
</event>
<event>
12    1  0.1093377E-001  0.1811169E+03  0.7546771E-02  0.1166726E+00
         -2   -1    0    0    0  501 -0.00000000000E+00  0.00000000000E+00  0.10170577733E+02  0.10170577733E+02  0.00000000000E+00 0.  1.
          2   -1    0    0  503    0  0.00000000000E+00 -0.00000000000E+00 -0.40928285033E+04  0.40928285033E+04  0.00000000000E+00 0. -1.
          6    2    1    2  503    0 -0.12345596947E+02  0.43298480395E+02 -0.29840288524E+04  0.29895081115E+04  0.17522381383E+03 0.  0.
         24    2    3    3    0    0 -0.73054616732E+02  0.34087260339E+02 -0.22566785852E+04  0.22595554193E+04  0.80582491176E+02 0.  0.
         -6    2    1    2    0  501  0.12345596947E+02 -0.43298480395E+02 -0.10986290732E+04  0.11134909695E+04  0.17563919417E+03 0.  0.
        -24    2    5    5    0    0 -0.43071888057E+02 -0.65919489557E+02 -0.86258717616E+03  0.86993260924E+03  0.80780823800E+02 0.  0.
          2    1    4    4  502    0 -0.22985098573E+02  0.46389613126E+02 -0.65332830969E+03  0.65537637370E+03  0.00000000000E+00 0. -1.
         -1    1    4    4    0  502 -0.50069518159E+02 -0.12302352787E+02 -0.16033502755E+04  0.16041790456E+04  0.00000000000E+00 0.  1.
          5    1    3    3  503    0  0.60709019785E+02  0.92112200556E+01 -0.72735026718E+03  0.72995269218E+03  0.47000000000E+01 0. -1.
         11    1    6    6    0    0 -0.15522889781E+02 -0.39638934978E+01 -0.54279009047E+03  0.54302647713E+03  0.00000000000E+00 0. -1.
        -12    1    6    6    0    0 -0.27548998276E+02 -0.61955596060E+02 -0.31979708570E+03  0.32690613211E+03  0.00000000000E+00 0.  1.
         -5    1    5    5    0  501  0.55417485004E+02  0.22621009162E+02 -0.23604189700E+03  0.24355836023E+03  0.47000000000E+01 0.  1.
<mgrwt>
<rscale>  2 0.18111694E+03</rscale>
<asrwt>0</asrwt>
<pdfrwt beam="2">  1        2 0.62966639E+00 0.18111694E+03</pdfrwt>
<pdfrwt beam="1">  1       -2 0.15647031E-02 0.18111694E+03</pdfrwt>
<totfact> 0.43476103E+02</totfact>
</mgrwt>
</event>
<event>
12    1  0.1093377E-001  0.4795512E+03  0.7546771E-02  0.1019259E+00
         -1   -1    0    0    0  501 -0.00000000000E+00  0.00000000000E+00  0.39422192215E+03  0.39422192215E+03  0.00000000000E+00 0. -1.
          1   -1    0    0  503    0  0.00000000000E+00 -0.00000000000E+00 -0.59104199825E+03  0.59104199825E+03  0.00000000000E+00 0.  1.
          6    2    1    2  503    0  0.15478377369E+03  0.41928659671E+03 -0.42296554465E+02  0.48182960837E+03  0.17496144205E+03 0.  0.
         24    2    3    3    0    0  0.16964652737E+03  0.31294678492E+03  0.37402651385E+01  0.36490854192E+03  0.80178675152E+02 0.  0.
         -6    2    1    2    0  501 -0.15478377369E+03 -0.41928659671E+03 -0.15452352163E+03  0.50343431203E+03  0.17265376048E+03 0.  0.
        -24    2    5    5    0    0 -0.10417758728E+03 -0.13526252259E+03 -0.55168098481E+02  0.19827164902E+03  0.84375399297E+02 0.  0.
          4    1    4    4  502    0  0.12756431012E+03  0.24927511114E+03  0.35464690312E+02  0.28225605132E+03  0.00000000000E+00 0. -1.
         -3    1    4    4    0  502  0.42082217245E+02  0.63671673778E+02 -0.31724425173E+02  0.82652490601E+02  0.00000000000E+00 0.  1.
          5    1    3    3  503    0 -0.14862753678E+02  0.10633981180E+03 -0.46036819603E+02  0.11692106645E+03  0.47000000000E+01 0. -1.
         13    1    6    6    0    0 -0.35705399063E+02 -0.83891638515E+02  0.85296250961E+01  0.91572031971E+02  0.00000000000E+00 0. -1.
        -14    1    6    6    0    0 -0.68472188213E+02 -0.51370884077E+02 -0.63697723577E+02  0.10669961705E+03  0.00000000000E+00 0.  1.
         -5    1    5    5    0  501 -0.50606186413E+02 -0.28402407412E+03 -0.99355423152E+02  0.30516266301E+03  0.47000000000E+01 0.  1.
<mgrwt>
<rscale>  2 0.47955118E+03</rscale>
<asrwt>0</asrwt>
<pdfrwt beam="2">  1        1 0.90929538E-01 0.47955118E+03</pdfrwt>
<pdfrwt beam="1">  1       -1 0.60649526E-01 0.47955118E+03</pdfrwt>
<totfact> 0.10056345E+02</totfact>
</mgrwt>
</event>
<event>
12    1  0.1093377E-001  0.3499922E+03  0.7546771E-02  0.1062618E+00
          2   -1    0    0  503    0  0.00000000000E+00  0.00000000000E+00  0.52131270262E+03  0.52131270262E+03  0.00000000000E+00 0.  1.
         -2   -1    0    0    0  501 -0.00000000000E+00 -0.00000000000E+00 -0.24299563535E+03  0.24299563535E+03  0.00000000000E+00 0. -1.
          6    2    1    2  503    0  0.25733202690E+03 -0.16101676511E+03  0.69774454369E+02  0.35701398622E+03  0.17448306840E+03 0.  0.
         24    2    3    3    0    0  0.89960852838E+02 -0.11393293455E+02  0.49169208680E+02  0.13152128273E+03  0.81593348688E+02 0.  0.
         -6    2    1    2    0  501 -0.25733202690E+03  0.16101676511E+03  0.20854261289E+03  0.40729435175E+03  0.17393244912E+03 0.  0.
        -24    2    5    5    0    0 -0.21416748366E+03  0.16158802119E+03  0.11254574749E+03  0.30193310511E+03  0.80738188181E+02 0.  0.
          4    1    4    4  502    0 -0.14893884729E+02 -0.83211704645E+01  0.59785586570E+01  0.18077965699E+02  0.00000000000E+00 0. -1.
         -3    1    4    4    0  502  0.10485473757E+03 -0.30721229902E+01  0.43190650023E+02  0.11344331703E+03  0.00000000000E+00 0.  1.
          5    1    3    3  503    0  0.16737117406E+03 -0.14962347165E+03  0.20605245688E+02  0.22549270349E+03  0.47000000000E+01 0. -1.
         13    1    6    6    0    0 -0.32745156281E+02  0.25818906012E+02 -0.11960629280E+02  0.43381076754E+02  0.00000000000E+00 0. -1.
        -14    1    6    6    0    0 -0.18142232738E+03  0.13576911518E+03  0.12450637677E+03  0.25855202835E+03  0.00000000000E+00 0.  1.
         -5    1    5    5    0  501 -0.43164543240E+02 -0.57125608266E+00  0.95996865402E+02  0.10536124664E+03  0.47000000000E+01 0.  1.
<mgrwt>
<rscale>  2 0.34999222E+03</rscale>
<asrwt>0</asrwt>
<pdfrwt beam="1">  1        2 0.80201954E-01 0.34999222E+03</pdfrwt>
<pdfrwt beam="2">  1       -2 0.37383944E-01 0.34999222E+03</pdfrwt>
<totfact> 0.40368107E+02</totfact>
</mgrwt>
</event>
