<event>
12    1  0.1410528E-001  0.2302323E+03  0.7546771E-02  0.1128682E+00
         21   -1    0    0  502  503  0.00000000000E+00  0.00000000000E+00  0.47930575787E+02  0.47930575787E+02  0.00000000000E+00 0. -1.
         21   -1    0    0  503  504 -0.00000000000E+00 -0.00000000000E+00 -0.10483105459E+04  0.10483105459E+04  0.00000000000E+00 0.  1.
         -6    2    1    2    0  504 -0.11155261337E+03 -0.64755299108E+02 -0.49377554789E+03  0.53977461397E+03  0.17579848658E+03 0.  0.
        -24    2    3    3    0    0 -0.97595993966E+02 -0.16055882799E+02 -0.17226954808E+03  0.21426790392E+03  0.80319163623E+02 0.  0.
          6    2    1    2  502    0  0.11155261337E+03  0.64755299108E+02 -0.50660442218E+03  0.55646650767E+03  0.19070841427E+03 0.  0.
         24    2    5    5    0    0  0.33727773809E+02  0.75492457743E+02 -0.14449044597E+03  0.18589854630E+03  0.82729116015E+02 0.  0.
          4    1    6    6  501    0  0.32598075221E+02  0.86420586756E+02 -0.14792039932E+03  0.17438921084E+03  0.00000000000E+00 0. -1.
         -3    1    6    6    0  501  0.11296985876E+01 -0.10928129013E+02  0.34299533506E+01  0.11509335454E+02  0.00000000000E+00 0.  1.
          5    1    5    5  502    0  0.77824839566E+02 -0.10737158635E+02 -0.36211397621E+03  0.37056796137E+03  0.47000000000E+01 0. -1.
         11    1    4    4    0    0 -0.35934928839E+02 -0.40809773843E+02 -0.44537336998E+02  0.70287489205E+02  0.00000000000E+00 0. -1.
        -12    1    4    4    0    0 -0.61661065126E+02  0.24753891045E+02 -0.12773221108E+03  0.14398041472E+03  0.00000000000E+00 0.  1.
         -5    1    3    3    0  504 -0.13956619409E+02 -0.48699416310E+02 -0.32150599981E+03  0.32550671005E+03  0.47000000000E+01 0.  1.
<mgrwt>
<rscale>  2 0.22712233E+03</rscale>
<asrwt>0</asrwt>
<pdfrwt beam="1">  1       21 0.73739344E-02 0.23023235E+03</pdfrwt>
<pdfrwt beam="2">  1       21 0.16127855E+00 0.23023235E+03</pdfrwt>
<totfact> 0.33294954E+04</totfact>
</mgrwt>
</event>
<event>
12    1  0.1410528E-001  0.1896852E+03  0.7546771E-02  0.1158943E+00
         21   -1    0    0  502  503  0.00000000000E+00  0.00000000000E+00  0.38107150080E+03  0.38107150080E+03  0.00000000000E+00 0. -1.
         21   -1    0    0  503  504 -0.00000000000E+00 -0.00000000000E+00 -0.11725623921E+03  0.11725623921E+03  0.00000000000E+00 0. -1.
         -6    2    1    2    0  504  0.43199257479E+02 -0.62172625116E+02  0.20665184338E+02  0.18994092603E+03  0.17297079054E+03 0.  0.
        -24    2    3    3    0    0  0.84412785905E+02 -0.29917557638E+02 -0.23444455420E+02  0.12133557185E+03  0.78435322570E+02 0.  0.
          6    2    1    2  502    0 -0.43199257479E+02  0.62172625116E+02  0.24315007726E+03  0.30838681398E+03  0.17392198194E+03 0.  0.
         24    2    5    5    0    0  0.14975515859E+02 -0.17835216499E+02  0.72798060415E+02  0.11133997027E+03  0.80960918697E+02 0.  0.
          4    1    6    6  501    0 -0.61279676536E+01 -0.42640898818E+02  0.64785454337E+02  0.77800728359E+02  0.00000000000E+00 0. -1.
         -3    1    6    6    0  501  0.21103483513E+02  0.24805682319E+02  0.80126060787E+01  0.33539241909E+02  0.00000000000E+00 0.  1.
          5    1    5    5  502    0 -0.58174773338E+02  0.80007841615E+02  0.17035201684E+03  0.19704684371E+03  0.47000000000E+01 0. -1.
         13    1    4    4    0    0 -0.40872631508E+01 -0.21419308175E+02 -0.23999966266E+02  0.32426699855E+02  0.00000000000E+00 0. -1.
        -14    1    4    4    0    0  0.88500049056E+02 -0.84982494635E+01  0.55551084587E+00  0.88908871993E+02  0.00000000000E+00 0.  1.
         -5    1    3    3    0  504 -0.41213528426E+02 -0.32255067478E+02  0.44109639758E+02  0.68605354186E+02  0.47000000000E+01 0.  1.
<mgrwt>
<rscale>  2 0.18946686E+03</rscale>
<asrwt>0</asrwt>
<pdfrwt beam="1">  1       21 0.58626384E-01 0.18968518E+03</pdfrwt>
<pdfrwt beam="2">  1       21 0.18039422E-01 0.18968518E+03</pdfrwt>
<totfact> 0.76238946E+04</totfact>
</mgrwt>
</event>
<event>
12    1  0.1410528E-001  0.1995224E+03  0.7546771E-02  0.1151887E+00
         21   -1    0    0  502  503  0.00000000000E+00  0.00000000000E+00  0.32940948567E+03  0.32940948567E+03  0.00000000000E+00 0. -1.
         21   -1    0    0  503  504 -0.00000000000E+00 -0.00000000000E+00 -0.12117448484E+03  0.12117448484E+03  0.00000000000E+00 0.  1.
         -6    2    1    2    0  504  0.14695910808E+02 -0.84584426927E+02  0.15264828410E+03  0.25121837445E+03  0.18010740670E+03 0.  0.
        -24    2    3    3    0    0  0.47701825693E+02 -0.24422439342E+01  0.12810260789E+03  0.15923300135E+03  0.81629907758E+02 0.  0.
          6    2    1    2  502    0 -0.14695910808E+02  0.84584426927E+02  0.55586716723E+02  0.19936559606E+03  0.17113229603E+03 0.  0.
         24    2    5    5    0    0 -0.57569789148E+02  0.29952822154E+01  0.40192249602E+02  0.10580258202E+03  0.79091826988E+02 0.  0.
          4    1    6    6  501    0  0.17144871854E+02 -0.12906831775E+02  0.78720518270E+01  0.22858305653E+02  0.00000000000E+00 0. -1.
         -3    1    6    6    0  501 -0.74714661002E+02  0.15902113990E+02  0.32320197775E+02  0.82944276368E+02  0.00000000000E+00 0.  1.
          5    1    5    5  502    0  0.42873878340E+02  0.81589144712E+02  0.15394467121E+02  0.93563014042E+02  0.47000000000E+01 0. -1.
         13    1    4    4    0    0  0.19657650989E+02 -0.18465178269E+02  0.12373510128E+03  0.12664028324E+03  0.00000000000E+00 0. -1.
        -14    1    4    4    0    0  0.28044174704E+02  0.16022934334E+02  0.43675066077E+01  0.32592718106E+02  0.00000000000E+00 0.  1.
         -5    1    3    3    0  504 -0.33005914886E+02 -0.82142182993E+02  0.24545676218E+02  0.91985373105E+02  0.47000000000E+01 0.  1.
<mgrwt>
<rscale>  2 0.19747537E+03</rscale>
<asrwt>0</asrwt>
<pdfrwt beam="1">  1       21 0.50678382E-01 0.19952236E+03</pdfrwt>
<pdfrwt beam="2">  1       21 0.18642229E-01 0.19952236E+03</pdfrwt>
<totfact> 0.97202200E+04</totfact>
</mgrwt>
</event>
<event>
12    1  0.1410528E-001  0.1757769E+03  0.7546771E-02  0.1172473E+00
         21   -1    0    0  502  503  0.00000000000E+00  0.00000000000E+00  0.83999171912E+02  0.83999171912E+02  0.00000000000E+00 0.  1.
         21   -1    0    0  503  504 -0.00000000000E+00 -0.00000000000E+00 -0.66597098931E+03  0.66597098931E+03  0.00000000000E+00 0. -1.
         -6    2    1    2    0  504  0.18715270837E+02  0.12821734163E+02 -0.54462961080E+03  0.57229268907E+03  0.17430677201E+03 0.  0.
        -24    2    3    3    0    0  0.38656024487E+02  0.59592263118E+02 -0.46838773397E+03  0.48053196862E+03  0.80488368569E+02 0.  0.
          6    2    1    2  502    0 -0.18715270837E+02 -0.12821734163E+02 -0.37342206591E+02  0.17767747215E+03  0.17222132704E+03 0.  0.
         24    2    5    5    0    0 -0.11548595616E+02  0.34099265343E+02 -0.75417925241E+02  0.11664639991E+03  0.81378063422E+02 0.  0.
          2    1    6    6  501    0 -0.34612311183E+02  0.45222716488E+02 -0.70406116767E+02  0.90554555104E+02  0.00000000000E+00 0. -1.
         -1    1    6    6    0  501  0.23063715567E+02 -0.11123451145E+02 -0.50118084741E+01  0.26091844804E+02  0.00000000000E+00 0.  1.
          5    1    5    5  502    0 -0.71666752211E+01 -0.46920999506E+02  0.38075718650E+02  0.61031072242E+02  0.47000000000E+01 0. -1.
         11    1    4    4    0    0  0.58632447990E+02  0.44240302724E+02 -0.24627218888E+03  0.25699213871E+03  0.00000000000E+00 0. -1.
        -12    1    4    4    0    0 -0.19976423503E+02  0.15351960395E+02 -0.22211554509E+03  0.22353982991E+03  0.00000000000E+00 0.  1.
         -5    1    3    3    0  504 -0.19940753650E+02 -0.46770528956E+02 -0.76241876830E+02  0.91760720450E+02  0.47000000000E+01 0.  1.
<mgrwt>
<rscale>  2 0.17525763E+03</rscale>
<asrwt>0</asrwt>
<pdfrwt beam="1">  1       21 0.12922950E-01 0.17577687E+03</pdfrwt>
<pdfrwt beam="2">  1       21 0.10245707E+00 0.17577687E+03</pdfrwt>
<totfact> 0.40168829E+04</totfact>
</mgrwt>
</event>
<event>
12    1  0.1410528E-001  0.2405892E+03  0.7546771E-02  0.1119755E+00
         21   -1    0    0  502  503  0.00000000000E+00  0.00000000000E+00  0.16741413422E+03  0.16741413422E+03  0.00000000000E+00 0. -1.
         21   -1    0    0  503  504 -0.00000000000E+00 -0.00000000000E+00 -0.39016668694E+03  0.39016668694E+03  0.00000000000E+00 0.  1.
         -6    2    1    2    0  504 -0.67768192707E+02 -0.14970784856E+03 -0.20904667811E+03  0.31872197247E+03  0.17572197996E+03 0.  0.
        -24    2    3    3    0    0 -0.69903436091E+02 -0.68433439081E+02 -0.41709194292E+02  0.13261981667E+03  0.79238456096E+02 0.  0.
          6    2    1    2  502    0  0.67768192707E+02  0.14970784856E+03 -0.13705874609E+02  0.23885884870E+03  0.17280257735E+03 0.  0.
         24    2    5    5    0    0  0.18838504632E+02  0.45423641694E+02 -0.60937438196E+02  0.11427064390E+03  0.83223867976E+02 0.  0.
          2    1    6    6  501    0  0.46313612706E+02  0.97538561578E+01 -0.48032800439E+02  0.67433213996E+02  0.00000000000E+00 0. -1.
         -1    1    6    6    0  501 -0.27475108074E+02  0.35669785537E+02 -0.12904637757E+02  0.46837429899E+02  0.00000000000E+00 0.  1.
          5    1    5    5  502    0  0.48929688075E+02  0.10428420687E+03  0.47231563587E+02  0.12458820480E+03  0.47000000000E+01 0. -1.
         11    1    4    4    0    0 -0.74066343920E+02 -0.50517858108E+02 -0.59040139070E+02  0.10734810343E+03  0.00000000000E+00 0. -1.
        -12    1    4    4    0    0  0.41629078298E+01 -0.17915580973E+02  0.17330944777E+02  0.25271713240E+02  0.00000000000E+00 0.  1.
         -5    1    3    3    0  504  0.21352433833E+01 -0.81274409480E+02 -0.16733748382E+03  0.18610215580E+03  0.47000000000E+01 0.  1.
<mgrwt>
<rscale>  2 0.24005649E+03</rscale>
<asrwt>0</asrwt>
<pdfrwt beam="1">  1       21 0.25756021E-01 0.24058924E+03</pdfrwt>
<pdfrwt beam="2">  1       21 0.60025643E-01 0.24058924E+03</pdfrwt>
<totfact> 0.36177570E+04</totfact>
</mgrwt>
</event>
<event>
12    1  0.1410528E-001  0.1877853E+03  0.7546771E-02  0.1160957E+00
         21   -1    0    0  502  503  0.00000000000E+00  0.00000000000E+00  0.10276567237E+03  0.10276567237E+03  0.00000000000E+00 0.  1.
         21   -1    0    0  503  504 -0.00000000000E+00 -0.00000000000E+00 -0.50323145165E+03  0.50323145165E+03  0.00000000000E+00 0.  1.
         -6    2    1    2    0  504 -0.89039065443E+00 -0.72295089688E+02 -0.37391478230E+03  0.41842032693E+03  0.17330877871E+03 0.  0.
        -24    2    3    3    0    0  0.63764826347E+02 -0.28258611355E+02 -0.17453410704E+03  0.20419088877E+03  0.79795127298E+02 0.  0.
          6    2    1    2  502    0  0.89039065443E+00  0.72295089688E+02 -0.26550996987E+02  0.18757679709E+03  0.17103428480E+03 0.  0.
         24    2    5    5    0    0 -0.48381066073E+02  0.17019607248E+02  0.27690198882E+02  0.95667859897E+02  0.75863019436E+02 0.  0.
          2    1    6    6  501    0 -0.65166738967E+02  0.45589921105E+01  0.60920081166E+01  0.65609456937E+02  0.00000000000E+00 0. -1.
         -1    1    6    6    0  501  0.16785672895E+02  0.12460615138E+02  0.21598190765E+02  0.30058402959E+02  0.00000000000E+00 0.  1.
          5    1    5    5  502    0  0.49271456727E+02  0.55275482440E+02 -0.54241195869E+02  0.91908937195E+02  0.47000000000E+01 0. -1.
         13    1    4    4    0    0  0.47150404673E+02 -0.16274668932E+02 -0.29988404104E+02  0.58200772249E+02  0.00000000000E+00 0. -1.
        -14    1    4    4    0    0  0.16614421674E+02 -0.11983942422E+02 -0.14454570294E+03  0.14599011652E+03  0.00000000000E+00 0.  1.
         -5    1    3    3    0  504 -0.64655217001E+02 -0.44036478333E+02 -0.19938067525E+03  0.21422943816E+03  0.47000000000E+01 0.  1.
<mgrwt>
<rscale>  2 0.18725878E+03</rscale>
<asrwt>0</asrwt>
<pdfrwt beam="1">  1       21 0.15810104E-01 0.18778526E+03</pdfrwt>
<pdfrwt beam="2">  1       21 0.77420222E-01 0.18778526E+03</pdfrwt>
<totfact> 0.52893809E+04</totfact>
</mgrwt>
</event>
<event>
12    1  0.1410528E-001  0.1788897E+03  0.7546771E-02  0.1169103E+00
         21   -1    0    0  502  503  0.00000000000E+00  0.00000000000E+00  0.40932062335E+03  0.40932062335E+03  0.00000000000E+00 0. -1.
         21   -1    0    0  503  504 -0.00000000000E+00 -0.00000000000E+00 -0.80251144726E+02  0.80251144726E+02  0.00000000000E+00 0. -1.
         -6    2    1    2    0  504  0.26577899969E+02  0.31619217933E+02  0.20783385118E+03  0.27421968062E+03  0.17405563430E+03 0.  0.
        -24    2    3    3    0    0  0.20438626126E+02  0.50646607003E+02  0.40658468434E+02  0.10578740695E+03  0.80963252001E+02 0.  0.
          6    2    1    2  502    0 -0.26577899969E+02 -0.31619217933E+02  0.12123562745E+03  0.21535208746E+03  0.17312505452E+03 0.  0.
         24    2    5    5    0    0 -0.34107883432E+02 -0.44009179270E+02  0.15273347124E+03  0.18036043194E+03  0.78116685789E+02 0.  0.
          4    1    6    6  501    0  0.63330567376E+01 -0.53797258328E+02  0.81324682650E+02  0.97713646024E+02  0.00000000000E+00 0. -1.
         -3    1    6    6    0  501 -0.40440940170E+02  0.97880790584E+01  0.71408788592E+02  0.82646785913E+02  0.00000000000E+00 0.  1.
          5    1    5    5  502    0  0.75299834633E+01  0.12389961337E+02 -0.31497843792E+02  0.34991655525E+02  0.47000000000E+01 0. -1.
         13    1    4    4    0    0  0.17167320826E+02 -0.12244486460E+02  0.37145512732E+02  0.42713387470E+02  0.00000000000E+00 0. -1.
        -14    1    4    4    0    0  0.32713053001E+01  0.62891093463E+02  0.35129557022E+01  0.63074019478E+02  0.00000000000E+00 0.  1.
         -5    1    3    3    0  504  0.61392738436E+01 -0.19027389070E+02  0.16717538274E+03  0.16843227367E+03  0.47000000000E+01 0.  1.
<mgrwt>
<rscale>  2 0.17866294E+03</rscale>
<asrwt>0</asrwt>
<pdfrwt beam="1">  1       21 0.62972402E-01 0.17888970E+03</pdfrwt>
<pdfrwt beam="2">  1       21 0.12346330E-01 0.17888970E+03</pdfrwt>
<totfact> 0.13082657E+05</totfact>
</mgrwt>
</event>
<event>
12    1  0.1410528E-001  0.2391505E+03  0.7546771E-02  0.1120550E+00
         21   -1    0    0  502  503  0.00000000000E+00  0.00000000000E+00  0.75726942551E+02  0.75726942551E+02  0.00000000000E+00 0.  1.
         21   -1    0    0  503  504 -0.00000000000E+00 -0.00000000000E+00 -0.99026329285E+03  0.99026329285E+03  0.00000000000E+00 0. -1.
         -6    2    1    2    0  504 -0.10773326752E+03  0.12325887440E+03 -0.71970734906E+03  0.75840070323E+03  0.17433803751E+03 0.  0.
        -24    2    3    3    0    0 -0.10950985428E+03  0.15274589236E+03 -0.67007198767E+03  0.70044900275E+03  0.79426827753E+02 0.  0.
          6    2    1    2  502    0  0.10773326752E+03 -0.12325887440E+03 -0.19482900124E+03  0.30758953217E+03  0.17278244566E+03 0.  0.
         24    2    5    5    0    0 -0.67012948078E+01 -0.68093562334E+02 -0.59777242476E+02  0.12211838009E+03  0.81596197545E+02 0.  0.
          2    1    6    6  501    0  0.11310688083E+02  0.15279469288E+02 -0.20433666687E+01  0.19119863859E+02  0.00000000000E+00 0. -1.
         -1    1    6    6    0  501 -0.18011982891E+02 -0.83373031622E+02 -0.57733875808E+02  0.10299851623E+03  0.00000000000E+00 0.  1.
          5    1    5    5  502    0  0.11443456233E+03 -0.55165312064E+02 -0.13505175877E+03  0.18547115209E+03  0.47000000000E+01 0. -1.
         13    1    4    4    0    0 -0.33444852674E+02  0.23088299080E+00 -0.12067129022E+03  0.12522049257E+03  0.00000000000E+00 0. -1.
        -14    1    4    4    0    0 -0.76065001610E+02  0.15251500937E+03 -0.54940069745E+03  0.57522851017E+03  0.00000000000E+00 0.  1.
         -5    1    3    3    0  504  0.17765867634E+01 -0.29487017964E+02 -0.49635361389E+02  0.57951700486E+02  0.47000000000E+01 0.  1.
<mgrwt>
<rscale>  2 0.23886708E+03</rscale>
<asrwt>0</asrwt>
<pdfrwt beam="1">  1       21 0.11650299E-01 0.23915049E+03</pdfrwt>
<pdfrwt beam="2">  1       21 0.15234820E+00 0.23915049E+03</pdfrwt>
<totfact> 0.17224833E+04</totfact>
</mgrwt>
</event>
<event>
12    1  0.1410528E-001  0.1942456E+03  0.7546771E-02  0.1155011E+00
         21   -1    0    0  502  503  0.00000000000E+00  0.00000000000E+00  0.27388267029E+03  0.27388267029E+03  0.00000000000E+00 0. -1.
         21   -1    0    0  503  504 -0.00000000000E+00 -0.00000000000E+00 -0.19164261877E+03  0.19164261877E+03  0.00000000000E+00 0.  1.
         -6    2    1    2    0  504 -0.88540403279E+02 -0.21580623725E+01  0.16561373416E+03  0.25414289985E+03  0.17122103947E+03 0.  0.
        -24    2    3    3    0    0 -0.83355937870E+02 -0.25618437504E+02  0.39598617493E+02  0.12577169003E+03  0.81522701049E+02 0.  0.
          6    2    1    2  502    0  0.88540403279E+02  0.21580623725E+01 -0.83373682635E+02  0.21138238921E+03  0.17287938936E+03 0.  0.
         24    2    5    5    0    0  0.58304292263E+02 -0.56997049859E+02 -0.87146644849E+02  0.14467500614E+03  0.81781816465E+02 0.  0.
          2    1    6    6  501    0  0.38566666948E+01 -0.47208226369E+02 -0.78855245323E+01  0.48017413633E+02  0.00000000000E+00 0. -1.
         -1    1    6    6    0  501  0.54447625568E+02 -0.97888234899E+01 -0.79261120317E+02  0.96657592507E+02  0.00000000000E+00 0.  1.
          5    1    5    5  502    0  0.30236111016E+02  0.59155112231E+02  0.37729622143E+01  0.66707383072E+02  0.47000000000E+01 0. -1.
         11    1    4    4    0    0 -0.15280453708E+02 -0.58768404891E+01  0.51374428935E+02  0.53919954266E+02  0.00000000000E+00 0. -1.
        -12    1    4    4    0    0 -0.68075484162E+02 -0.19741597015E+02 -0.11775811442E+02  0.71851735760E+02  0.00000000000E+00 0.  1.
         -5    1    3    3    0  504 -0.51844654082E+01  0.23460375131E+02  0.12601511667E+03  0.12837120982E+03  0.47000000000E+01 0.  1.
<mgrwt>
<rscale>  2 0.19387591E+03</rscale>
<asrwt>0</asrwt>
<pdfrwt beam="1">  1       21 0.42135795E-01 0.19424558E+03</pdfrwt>
<pdfrwt beam="2">  1       21 0.29483480E-01 0.19424558E+03</pdfrwt>
<totfact> 0.59707993E+04</totfact>
</mgrwt>
</event>
<event>
12    1  0.1410528E-001  0.2176550E+03  0.7546771E-02  0.1135722E+00
         21   -1    0    0  502  503  0.00000000000E+00  0.00000000000E+00  0.13910583458E+04  0.13910583458E+04  0.00000000000E+00 0. -1.
         21   -1    0    0  503  504 -0.00000000000E+00 -0.00000000000E+00 -0.34078990860E+02  0.34078990860E+02  0.00000000000E+00 0.  1.
         -6    2    1    2    0  504 -0.33687152365E+02 -0.12707036153E+03  0.64171691466E+03  0.67749166409E+03  0.17295275464E+03 0.  0.
        -24    2    3    3    0    0  0.23749541757E+02 -0.48157830737E+02  0.47498382155E+03  0.48423490305E+03  0.77398922516E+02 0.  0.
          6    2    1    2  502    0  0.33687152365E+02  0.12707036153E+03  0.71526244030E+03  0.74764567259E+03  0.17347043617E+03 0.  0.
         24    2    5    5    0    0  0.45631903839E+02  0.10021085617E+03  0.70235342535E+03  0.71519813366E+03  0.77997114947E+02 0.  0.
          4    1    6    6  501    0  0.60157603747E+02  0.72636195423E+02  0.62022720333E+03  0.62735694618E+03  0.00000000000E+00 0. -1.
         -3    1    6    6    0  501 -0.14525699907E+02  0.27574660748E+02  0.82126222024E+02  0.87841187476E+02  0.00000000000E+00 0.  1.
          5    1    5    5  502    0 -0.11944751474E+02  0.26859505361E+02  0.12909014949E+02  0.32447538935E+02  0.47000000000E+01 0. -1.
         13    1    4    4    0    0  0.30733977382E+02 -0.49498032698E+02  0.18060910521E+03  0.18977429091E+03  0.00000000000E+00 0. -1.
        -14    1    4    4    0    0 -0.69844356258E+01  0.13402019614E+01  0.29437471634E+03  0.29446061214E+03  0.00000000000E+00 0.  1.
         -5    1    3    3    0  504 -0.57436694122E+02 -0.78912530795E+02  0.16673309311E+03  0.19325676104E+03  0.47000000000E+01 0.  1.
<mgrwt>
<rscale>  2 0.21755182E+03</rscale>
<asrwt>0</asrwt>
<pdfrwt beam="1">  1       21 0.21400893E+00 0.21765499E+03</pdfrwt>
<pdfrwt beam="2">  1       21 0.52429228E-02 0.21765499E+03</pdfrwt>
<totfact> 0.26692958E+04</totfact>
</mgrwt>
</event>
<event>
12    1  0.1410528E-001  0.1829047E+03  0.7546771E-02  0.1165569E+00
         21   -1    0    0  502  503  0.00000000000E+00  0.00000000000E+00  0.19438315229E+04  0.19438315229E+04  0.00000000000E+00 0. -1.
         21   -1    0    0  503  504 -0.00000000000E+00 -0.00000000000E+00 -0.27498676136E+02  0.27498676136E+02  0.00000000000E+00 0. -1.
         -6    2    1    2    0  504  0.67288074172E+01 -0.57974788190E+02  0.35273726783E+03  0.39733828549E+03  0.17334295511E+03 0.  0.
        -24    2    3    3    0    0 -0.32841567786E+02  0.20160809049E+02  0.12967142921E+03  0.15764797591E+03  0.80951701392E+02 0.  0.
          6    2    1    2  502    0 -0.67288074172E+01  0.57974788190E+02  0.15635955789E+04  0.15739919135E+04  0.17091827440E+03 0.  0.
         24    2    5    5    0    0 -0.46528107234E+02 -0.22092315683E+01  0.53758563574E+03  0.54543729952E+03  0.79585089590E+02 0.  0.
          4    1    6    6  501    0 -0.40095641387E+02  0.84763107210E+01  0.52830213056E+03  0.52988928037E+03  0.00000000000E+00 0. -1.
         -3    1    6    6    0  501 -0.64324658466E+01 -0.10685542289E+02  0.92835051813E+01  0.15548019145E+02  0.00000000000E+00 0.  1.
          5    1    5    5  502    0  0.39799299817E+02  0.60184019758E+02  0.10260099432E+04  0.10285546140E+04  0.47000000000E+01 0. -1.
         11    1    4    4    0    0 -0.13360413179E+02 -0.30956401977E+02  0.62548721833E+02  0.71057315363E+02  0.00000000000E+00 0. -1.
        -12    1    4    4    0    0 -0.19481154607E+02  0.51117211026E+02  0.67122707380E+02  0.86590660547E+02  0.00000000000E+00 0.  1.
         -5    1    3    3    0  504  0.39570375204E+02 -0.78135597238E+02  0.22306583861E+03  0.23969030958E+03  0.47000000000E+01 0.  1.
<mgrwt>
<rscale>  2 0.18232792E+03</rscale>
<asrwt>0</asrwt>
<pdfrwt beam="1">  1       21 0.29905090E+00 0.18290471E+03</pdfrwt>
<pdfrwt beam="2">  1       21 0.42305671E-02 0.18290471E+03</pdfrwt>
<totfact> 0.12459411E+04</totfact>
</mgrwt>
</event>
<event>
12    1  0.1410528E-001  0.2057168E+03  0.7546771E-02  0.1145275E+00
         21   -1    0    0  502  503  0.00000000000E+00  0.00000000000E+00  0.24209940965E+02  0.24209940965E+02  0.00000000000E+00 0.  1.
         21   -1    0    0  503  504 -0.00000000000E+00 -0.00000000000E+00 -0.20685352934E+04  0.20685352934E+04  0.00000000000E+00 0.  1.
         -6    2    1    2    0  504  0.76926436881E+02 -0.78836451141E+02 -0.14440332468E+04  0.14586128419E+04  0.17374274630E+03 0.  0.
        -24    2    3    3    0    0  0.71685997050E+02  0.16862877041E+02 -0.81904591762E+03  0.82630194108E+03  0.80718299476E+02 0.  0.
          6    2    1    2  502    0 -0.76926436881E+02  0.78836451141E+02 -0.60029210558E+03  0.63413239244E+03  0.17216392304E+03 0.  0.
         24    2    5    5    0    0 -0.34293894910E+02  0.11612187180E+03 -0.46256929282E+03  0.48514447554E+03  0.82063701738E+02 0.  0.
          4    1    6    6  501    0  0.16972834668E+02  0.73140245135E+02 -0.18565053313E+03  0.20025906478E+03  0.00000000000E+00 0. -1.
         -3    1    6    6    0  501 -0.51266729579E+02  0.42981626665E+02 -0.27691875969E+03  0.28488541075E+03  0.00000000000E+00 0.  1.
          5    1    5    5  502    0 -0.42632541971E+02 -0.37285420659E+02 -0.13772281276E+03  0.14898791691E+03  0.47000000000E+01 0. -1.
         13    1    4    4    0    0  0.57891765738E+02  0.16788388994E+02 -0.25275447009E+03  0.25984250749E+03  0.00000000000E+00 0. -1.
        -14    1    4    4    0    0  0.13794231312E+02  0.74488046956E-01 -0.56629144752E+03  0.56645943359E+03  0.00000000000E+00 0.  1.
         -5    1    3    3    0  504  0.52404398315E+01 -0.95699328182E+02 -0.62498732919E+03  0.63231090080E+03  0.47000000000E+01 0.  1.
<mgrwt>
<rscale>  2 0.20538308E+03</rscale>
<asrwt>0</asrwt>
<pdfrwt beam="1">  1       21 0.37246057E-02 0.20571681E+03</pdfrwt>
<pdfrwt beam="2">  1       21 0.31823625E+00 0.20571681E+03</pdfrwt>
<totfact> 0.11666488E+04</totfact>
</mgrwt>
</event>
<event>
12    1  0.1410528E-001  0.1900257E+03  0.7546771E-02  0.1159762E+00
         21   -1    0    0  502  503  0.00000000000E+00  0.00000000000E+00  0.36272837591E+03  0.36272837591E+03  0.00000000000E+00 0.  1.
         21   -1    0    0  503  504 -0.00000000000E+00 -0.00000000000E+00 -0.27770867196E+03  0.27770867196E+03  0.00000000000E+00 0.  1.
         -6    2    1    2    0  504  0.52833807288E+02 -0.52753368986E+02 -0.21634054878E+03  0.28416780530E+03  0.16844518216E+03 0.  0.
        -24    2    3    3    0    0  0.28092554441E+02 -0.85564445102E+02 -0.20974699479E+03  0.24228390311E+03  0.81223284858E+02 0.  0.
          6    2    1    2  502    0 -0.52833807288E+02  0.52753368986E+02  0.30136025272E+03  0.35626924257E+03  0.17474393308E+03 0.  0.
         24    2    5    5    0    0  0.13307174494E+02 -0.18853706464E+02  0.85594116470E+02  0.11945852009E+03  0.80071481241E+02 0.  0.
          4    1    6    6  501    0  0.13839089504E+02  0.27829404169E+02  0.14237632978E+02  0.34186347092E+02  0.00000000000E+00 0. -1.
         -3    1    6    6    0  501 -0.53191500933E+00 -0.46683110633E+02  0.71356483491E+02  0.85272173001E+02  0.00000000000E+00 0.  1.
          5    1    5    5  502    0 -0.66140981782E+02  0.71607075450E+02  0.21576613625E+03  0.23681072247E+03  0.47000000000E+01 0. -1.
         13    1    4    4    0    0 -0.21502550548E+02 -0.13610660773E+02 -0.93202569428E+02  0.96614329759E+02  0.00000000000E+00 0. -1.
        -14    1    4    4    0    0  0.49595104989E+02 -0.71953784328E+02 -0.11654442536E+03  0.14566957336E+03  0.00000000000E+00 0.  1.
         -5    1    3    3    0  504  0.24741252847E+02  0.32811076116E+02 -0.65935539837E+01  0.41883902187E+02  0.47000000000E+01 0.  1.
<mgrwt>
<rscale>  2 0.18856506E+03</rscale>
<asrwt>0</asrwt>
<pdfrwt beam="1">  1       21 0.55804366E-01 0.19002571E+03</pdfrwt>
<pdfrwt beam="2">  1       21 0.42724411E-01 0.19002571E+03</pdfrwt>
<totfact> 0.15965190E+04</totfact>
</mgrwt>
</event>
<event>
12    1  0.1410528E-001  0.2367026E+03  0.7546771E-02  0.1122630E+00
         21   -1    0    0  502  503  0.00000000000E+00  0.00000000000E+00  0.45167328959E+03  0.45167328959E+03  0.00000000000E+00 0.  1.
         21   -1    0    0  503  504 -0.00000000000E+00 -0.00000000000E+00 -0.13170726173E+03  0.13170726173E+03  0.00000000000E+00 0. -1.
         -6    2    1    2    0  504  0.57540369594E+02 -0.14993523935E+03  0.80259339479E+02  0.24650164414E+03  0.16890834455E+03 0.  0.
        -24    2    3    3    0    0  0.90958150955E+02 -0.99047223253E+02  0.97151250292E+02  0.18314736296E+03  0.77594158705E+02 0.  0.
          6    2    1    2  502    0 -0.57540369594E+02  0.14993523935E+03  0.23970668839E+03  0.33687890718E+03  0.17388683536E+03 0.  0.
         24    2    5    5    0    0 -0.98589332505E+02  0.78497827153E+02  0.12507309883E+03  0.19562993879E+03  0.82134204489E+02 0.  0.
          4    1    6    6  501    0 -0.10549263726E+03  0.44059902199E+02  0.10471785879E+03  0.15503483947E+03  0.00000000000E+00 0. -1.
         -3    1    6    6    0  501  0.69033047594E+01  0.34437924953E+02  0.20355240041E+02  0.40595099320E+02  0.00000000000E+00 0.  1.
          5    1    5    5  502    0  0.41048962911E+02  0.71437412200E+02  0.11463358955E+03  0.14124896839E+03  0.47000000000E+01 0. -1.
         11    1    4    4    0    0  0.58712984908E+02 -0.79947316877E+02  0.25703451995E+02  0.10246685082E+03  0.00000000000E+00 0. -1.
        -12    1    4    4    0    0  0.32245166047E+02 -0.19099906377E+02  0.71447798297E+02  0.80680512136E+02  0.00000000000E+00 0.  1.
         -5    1    3    3    0  504 -0.33417781361E+02 -0.50888016099E+02 -0.16891910814E+02  0.63354281186E+02  0.47000000000E+01 0.  1.
<mgrwt>
<rscale>  2 0.23578908E+03</rscale>
<asrwt>0</asrwt>
<pdfrwt beam="1">  1       21 0.69488198E-01 0.23670256E+03</pdfrwt>
<pdfrwt beam="2">  1       21 0.20262656E-01 0.23670256E+03</pdfrwt>
<totfact> 0.41525581E+04</totfact>
</mgrwt>
</event>
<event>
12    1  0.1410528E-001  0.2219615E+03  0.7546771E-02  0.1132596E+00
         21   -1    0    0  502  503  0.00000000000E+00  0.00000000000E+00  0.15135663127E+03  0.15135663127E+03  0.00000000000E+00 0. -1.
         21   -1    0    0  503  504 -0.00000000000E+00 -0.00000000000E+00 -0.10019722802E+04  0.10019722802E+04  0.00000000000E+00 0. -1.
         -6    2    1    2    0  504  0.82715517264E+02 -0.11109481076E+03 -0.89987868142E+03  0.92684871221E+03  0.17344445875E+03 0.  0.
        -24    2    3    3    0    0  0.46454375902E+01 -0.64383981643E+02 -0.70422816590E+03  0.71102922023E+03  0.73880749733E+02 0.  0.
          6    2    1    2  502    0 -0.82715517264E+02  0.11109481076E+03  0.49263032463E+02  0.22648019929E+03  0.17228615884E+03 0.  0.
         24    2    5    5    0    0 -0.55983019980E+02  0.14539616300E+03  0.28893621623E+02  0.17822864932E+03  0.81587176236E+02 0.  0.
          2    1    6    6  501    0 -0.62103021072E+02  0.15273272416E+03  0.32441264863E+02  0.16803721588E+03  0.00000000000E+00 0. -1.
         -1    1    6    6    0  501  0.61200010919E+01 -0.73365611570E+01 -0.35476432398E+01  0.10191433439E+02  0.00000000000E+00 0.  1.
          5    1    5    5  502    0 -0.26732497284E+02 -0.34301352239E+02  0.20369410840E+02  0.48251549969E+02  0.47000000000E+01 0. -1.
         11    1    4    4    0    0  0.23343314319E+02 -0.33671788269E+02 -0.58657900267E+03  0.58800818533E+03  0.00000000000E+00 0. -1.
        -12    1    4    4    0    0 -0.18697876729E+02 -0.30712193374E+02 -0.11764916324E+03  0.12302103489E+03  0.00000000000E+00 0.  1.
         -5    1    3    3    0  504  0.78070079674E+02 -0.46710829120E+02 -0.19565051552E+03  0.21581949198E+03  0.47000000000E+01 0.  1.
<mgrwt>
<rscale>  2 0.22173514E+03</rscale>
<asrwt>0</asrwt>
<pdfrwt beam="1">  1       21 0.23285635E-01 0.22196147E+03</pdfrwt>
<pdfrwt beam="2">  1       21 0.15414958E+00 0.22196147E+03</pdfrwt>
<totfact> 0.47075054E+03</totfact>
</mgrwt>
</event>
<event>
12    1  0.1410528E-001  0.1830907E+03  0.7546771E-02  0.1165084E+00
         21   -1    0    0  502  503  0.00000000000E+00  0.00000000000E+00  0.10577885961E+04  0.10577885961E+04  0.00000000000E+00 0.  1.
         21   -1    0    0  503  504 -0.00000000000E+00 -0.00000000000E+00 -0.82606724591E+03  0.82606724591E+03  0.00000000000E+00 0.  1.
         -6    2    1    2    0  504  0.15307442141E+00 -0.56330965440E+02 -0.80793584692E+03  0.82819997724E+03  0.17315215406E+03 0.  0.
        -24    2    3    3    0    0 -0.51350437430E+01 -0.93295222328E+02 -0.41115813764E+03  0.42964137293E+03  0.82524711489E+02 0.  0.
          6    2    1    2  502    0 -0.15307442141E+00  0.56330965440E+02  0.10396571971E+04  0.10556558648E+04  0.17420969036E+03 0.  0.
         24    2    5    5    0    0 -0.80698767039E+01 -0.62858060720E+01  0.88198224196E+03  0.88575290036E+03  0.80999327754E+02 0.  0.
          4    1    6    6  501    0 -0.41054731628E+02  0.13162216899E+02  0.43320645791E+03  0.43534649432E+03  0.00000000000E+00 0. -1.
         -3    1    6    6    0  501  0.32984854924E+02 -0.19448022971E+02  0.44877578405E+03  0.45040640604E+03  0.00000000000E+00 0.  1.
          5    1    5    5  502    0  0.79168022824E+01  0.62616771512E+02  0.15767495518E+03  0.16990296444E+03  0.47000000000E+01 0. -1.
         11    1    4    4    0    0 -0.43637696125E+02 -0.53456104912E+02 -0.24154683597E+03  0.25121042502E+03  0.00000000000E+00 0. -1.
        -12    1    4    4    0    0  0.38502652382E+02 -0.39839117415E+02 -0.16961130167E+03  0.17843094791E+03  0.00000000000E+00 0.  1.
         -5    1    3    3    0  504  0.52881181644E+01  0.36964256887E+02 -0.39677770928E+03  0.39855860431E+03  0.47000000000E+01 0.  1.
<mgrwt>
<rscale>  2 0.18283873E+03</rscale>
<asrwt>0</asrwt>
<pdfrwt beam="1">  1       21 0.16273671E+00 0.18309074E+03</pdfrwt>
<pdfrwt beam="2">  1       21 0.12708727E+00 0.18309074E+03</pdfrwt>
<totfact> 0.11153631E+02</totfact>
</mgrwt>
</event>
<event>
12    1  0.1410528E-001  0.2177498E+03  0.7546771E-02  0.1136771E+00
         21   -1    0    0  502  503  0.00000000000E+00  0.00000000000E+00  0.11456083880E+03  0.11456083880E+03  0.00000000000E+00 0.  1.
         21   -1    0    0  503  504 -0.00000000000E+00 -0.00000000000E+00 -0.10519580328E+04  0.10519580328E+04  0.00000000000E+00 0. -1.
         -6    2    1    2    0  504 -0.29773483175E+02  0.11855749538E+03 -0.92450397897E+03  0.94838771271E+03  0.17259578927E+03 0.  0.
        -24    2    3    3    0    0 -0.17505143588E+00  0.93530074588E+02 -0.88273992440E+03  0.89121459659E+03  0.79282895673E+02 0.  0.
          6    2    1    2  502    0  0.29773483175E+02 -0.11855749538E+03 -0.12893215060E+02  0.21813115891E+03  0.18020163008E+03 0.  0.
         24    2    5    5    0    0  0.42354372205E+02  0.13419312186E+02  0.26501722840E-01  0.84845129697E+02  0.72282256097E+02 0.  0.
          4    1    6    6  501    0  0.79116815975E+01  0.14599030735E+02  0.33130273428E+02  0.37058621420E+02  0.00000000000E+00 0. -1.
         -3    1    6    6    0  501  0.34442690608E+02 -0.11797185493E+01 -0.33103771705E+02  0.47786508277E+02  0.00000000000E+00 0.  1.
          5    1    5    5  502    0 -0.12580889030E+02 -0.13197680756E+03 -0.12919716783E+02  0.13328602922E+03  0.47000000000E+01 0. -1.
         13    1    4    4    0    0  0.76166202334E+01 -0.85773795262E+01 -0.24817131931E+03  0.24843628573E+03  0.00000000000E+00 0. -1.
        -14    1    4    4    0    0 -0.77916716693E+01  0.10210745411E+03 -0.63456860509E+03  0.64277831085E+03  0.00000000000E+00 0.  1.
         -5    1    3    3    0  504 -0.29598431740E+02  0.25027420787E+02 -0.41764054570E+02  0.57173116120E+02  0.47000000000E+01 0.  1.
<mgrwt>
<rscale>  2 0.21616987E+03</rscale>
<asrwt>0</asrwt>
<pdfrwt beam="1">  1       21 0.17624745E-01 0.21774978E+03</pdfrwt>
<pdfrwt beam="2">  1       21 0.16183969E+00 0.21774978E+03</pdfrwt>
<totfact> 0.69833084E+03</totfact>
</mgrwt>
</event>
<event>
12    1  0.1410528E-001  0.1868271E+03  0.7546771E-02  0.1161818E+00
         21   -1    0    0  502  503  0.00000000000E+00  0.00000000000E+00  0.55289277871E+02  0.55289277871E+02  0.00000000000E+00 0.  1.
         21   -1    0    0  503  504 -0.00000000000E+00 -0.00000000000E+00 -0.62848888748E+03  0.62848888748E+03  0.00000000000E+00 0.  1.
         -6    2    1    2    0  504  0.57986695305E+02  0.33592852524E+02 -0.26112327988E+03  0.32107591557E+03  0.17439449445E+03 0.  0.
        -24    2    3    3    0    0 -0.23644388749E+02 -0.21668774676E+02 -0.14013559865E+03  0.16494267013E+03  0.80867209085E+02 0.  0.
          6    2    1    2  502    0 -0.57986695305E+02 -0.33592852524E+02 -0.31207632974E+03  0.36270224978E+03  0.17225083408E+03 0.  0.
         24    2    5    5    0    0 -0.18215968106E+02 -0.25334489533E+02 -0.38388754257E+02  0.85976952287E+02  0.70318432984E+02 0.  0.
          2    1    6    6  501    0  0.47482942951E+01  0.21407208587E+02 -0.11558227298E+01  0.21957932607E+02  0.00000000000E+00 0. -1.
         -1    1    6    6    0  501 -0.22964262402E+02 -0.46741698120E+02 -0.37232931528E+02  0.64019019681E+02  0.00000000000E+00 0.  1.
          5    1    5    5  502    0 -0.39770727198E+02 -0.82583629910E+01 -0.27368757548E+03  0.27672529749E+03  0.47000000000E+01 0. -1.
         13    1    4    4    0    0  0.10015030531E+02 -0.13238190206E+02 -0.12662119079E+03  0.12770464547E+03  0.00000000000E+00 0. -1.
        -14    1    4    4    0    0 -0.33659419280E+02 -0.84305844702E+01 -0.13514407853E+02  0.37238024657E+02  0.00000000000E+00 0.  1.
         -5    1    3    3    0  504  0.81631084054E+02  0.55261627200E+02 -0.12098768123E+03  0.15613324545E+03  0.47000000000E+01 0.  1.
<mgrwt>
<rscale>  2 0.18632526E+03</rscale>
<asrwt>0</asrwt>
<pdfrwt beam="1">  1       21 0.85060427E-02 0.18682713E+03</pdfrwt>
<pdfrwt beam="2">  1       21 0.96690598E-01 0.18682713E+03</pdfrwt>
<totfact> 0.96067930E+04</totfact>
</mgrwt>
</event>
<event>
12    1  0.1410528E-001  0.1883994E+03  0.7546771E-02  0.1160085E+00
         21   -1    0    0  502  503  0.00000000000E+00  0.00000000000E+00  0.11736909092E+04  0.11736909092E+04  0.00000000000E+00 0. -1.
         21   -1    0    0  503  504 -0.00000000000E+00 -0.00000000000E+00 -0.53228147412E+02  0.53228147412E+02  0.00000000000E+00 0. -1.
         -6    2    1    2    0  504  0.40061251356E+01  0.71030100025E+02  0.15667222981E+03  0.24503167346E+03  0.17445059260E+03 0.  0.
        -24    2    3    3    0    0  0.46756675200E+02 -0.61978351244E+01  0.63680771420E+02  0.11673021271E+03  0.85709404819E+02 0.  0.
          6    2    1    2  502    0 -0.40061251356E+01 -0.71030100025E+02  0.96379053196E+03  0.98188738313E+03  0.17363559401E+03 0.  0.
         24    2    5    5    0    0  0.50622386320E+02 -0.16466083952E+02  0.34044079673E+03  0.35375643458E+03  0.80061982315E+02 0.  0.
          2    1    6    6  501    0  0.64210568042E+02 -0.11037356287E+02  0.32841805198E+03  0.33481821508E+03  0.00000000000E+00 0. -1.
         -1    1    6    6    0  501 -0.13588181722E+02 -0.54287276652E+01  0.12022744747E+02  0.18938219499E+02  0.00000000000E+00 0.  1.
          5    1    5    5  502    0 -0.54628511455E+02 -0.54564016073E+02  0.62334973523E+03  0.62813094855E+03  0.47000000000E+01 0. -1.
         11    1    4    4    0    0  0.62894113861E+00  0.19640090074E+02 -0.13020151463E+02  0.23572294101E+02  0.00000000000E+00 0. -1.
        -12    1    4    4    0    0  0.46127734062E+02 -0.25837925198E+02  0.76700922883E+02  0.93157918608E+02  0.00000000000E+00 0.  1.
         -5    1    3    3    0  504 -0.42750550065E+02  0.77227935149E+02  0.92991458386E+02  0.12830146075E+03  0.47000000000E+01 0.  1.
<mgrwt>
<rscale>  2 0.18821051E+03</rscale>
<asrwt>0</asrwt>
<pdfrwt beam="1">  1       21 0.18056781E+00 0.18839940E+03</pdfrwt>
<pdfrwt beam="2">  1       21 0.81889466E-02 0.18839940E+03</pdfrwt>
<totfact> 0.20843560E+04</totfact>
</mgrwt>
</event>
<event>
12    1  0.1410528E-001  0.2367493E+03  0.7546771E-02  0.1121993E+00
         21   -1    0    0  502  503  0.00000000000E+00  0.00000000000E+00  0.50199208982E+03  0.50199208982E+03  0.00000000000E+00 0.  1.
         21   -1    0    0  503  504 -0.00000000000E+00 -0.00000000000E+00 -0.14226913160E+03  0.14226913160E+03  0.00000000000E+00 0.  1.
         -6    2    1    2    0  504 -0.11023662704E+03  0.11878458210E+03  0.30353341238E+02  0.23868714652E+03  0.17259298278E+03 0.  0.
        -24    2    3    3    0    0 -0.11730015869E+03  0.29643379694E+02  0.34800535123E+02  0.14903272678E+03  0.79759759400E+02 0.  0.
          6    2    1    2  502    0  0.11023662704E+03 -0.11878458210E+03  0.32936961698E+03  0.40557407489E+03  0.17246476380E+03 0.  0.
         24    2    5    5    0    0  0.57269728140E+02 -0.12045688701E+03  0.31505812802E+03  0.35048144654E+03  0.76065346561E+02 0.  0.
          2    1    6    6  501    0  0.21951278368E+02 -0.10497350615E+03  0.17532001123E+03  0.20551983348E+03  0.00000000000E+00 0. -1.
         -1    1    6    6    0  501  0.35318449771E+02 -0.15483380863E+02  0.13973811680E+03  0.14496161307E+03  0.00000000000E+00 0.  1.
          5    1    5    5  502    0  0.52966898896E+02  0.16723049159E+01  0.14311488957E+02  0.55092628350E+02  0.47000000000E+01 0. -1.
         11    1    4    4    0    0 -0.79783250362E+02 -0.45355715413E+01  0.52120760378E+02  0.95407086267E+02  0.00000000000E+00 0. -1.
        -12    1    4    4    0    0 -0.37516908325E+02  0.34178951235E+02 -0.17320225255E+02  0.53625640515E+02  0.00000000000E+00 0.  1.
         -5    1    3    3    0  504  0.70635316511E+01  0.89141202404E+02 -0.44471938851E+01  0.89654419739E+02  0.47000000000E+01 0.  1.
<mgrwt>
<rscale>  2 0.23672593E+03</rscale>
<asrwt>0</asrwt>
<pdfrwt beam="1">  1       21 0.77229551E-01 0.23674929E+03</pdfrwt>
<pdfrwt beam="2">  1       21 0.21887559E-01 0.23674929E+03</pdfrwt>
<totfact> 0.28351308E+04</totfact>
</mgrwt>
</event>
<event>
12    1  0.1410528E-001  0.2061750E+03  0.7546771E-02  0.1145361E+00
         21   -1    0    0  502  503  0.00000000000E+00  0.00000000000E+00  0.24100024469E+03  0.24100024469E+03  0.00000000000E+00 0. -1.
         21   -1    0    0  503  504 -0.00000000000E+00 -0.00000000000E+00 -0.45884087834E+03  0.45884087834E+03  0.00000000000E+00 0.  1.
         -6    2    1    2    0  504 -0.24034585993E+02  0.10209200651E+03 -0.38529505637E+03  0.43699017735E+03  0.17750407183E+03 0.  0.
        -24    2    3    3    0    0  0.30260973048E+02  0.13998246035E+02 -0.96862698101E+02  0.13052022178E+03  0.80879346121E+02 0.  0.
          6    2    1    2  502    0  0.24034585993E+02 -0.10209200651E+03  0.16745442272E+03  0.26285094568E+03  0.17334704162E+03 0.  0.
         24    2    5    5    0    0 -0.13415925594E+02 -0.62262496309E+01  0.26657613951E+02  0.88384285484E+02  0.82960233215E+02 0.  0.
          4    1    6    6  501    0  0.32028069501E+02  0.13419203927E+02  0.97543006713E+01  0.36069636145E+02  0.00000000000E+00 0. -1.
         -3    1    6    6    0  501 -0.45443995095E+02 -0.19645453558E+02  0.16903313280E+02  0.52314649340E+02  0.00000000000E+00 0.  1.
          5    1    5    5  502    0  0.37450511587E+02 -0.95865756874E+02  0.14079680877E+03  0.17446666020E+03  0.47000000000E+01 0. -1.
         13    1    4    4    0    0  0.41636549543E+02  0.40434058959E+02 -0.72069473017E+02  0.92533909042E+02  0.00000000000E+00 0. -1.
        -14    1    4    4    0    0 -0.11375576495E+02 -0.26435812924E+02 -0.24793225084E+02  0.37986312740E+02  0.00000000000E+00 0.  1.
         -5    1    3    3    0  504 -0.54295559041E+02  0.88093760470E+02 -0.28843235827E+03  0.30646995556E+03  0.47000000000E+01 0.  1.
<mgrwt>
<rscale>  2 0.20527718E+03</rscale>
<asrwt>0</asrwt>
<pdfrwt beam="1">  1       21 0.37076961E-01 0.20617501E+03</pdfrwt>
<pdfrwt beam="2">  1       21 0.70590903E-01 0.20617501E+03</pdfrwt>
<totfact> 0.12647402E+04</totfact>
</mgrwt>
</event>
<event>
12    1  0.1410528E-001  0.2148726E+03  0.7546771E-02  0.1138168E+00
         21   -1    0    0  502  503  0.00000000000E+00  0.00000000000E+00  0.59535318343E+03  0.59535318343E+03  0.00000000000E+00 0. -1.
         21   -1    0    0  503  504 -0.00000000000E+00 -0.00000000000E+00 -0.91865643499E+02  0.91865643499E+02  0.00000000000E+00 0.  1.
         -6    2    1    2    0  504 -0.81758963302E+02 -0.95399090542E+02  0.11361804211E+03  0.24306233695E+03  0.17431214988E+03 0.  0.
        -24    2    3    3    0    0 -0.12515526868E+03 -0.98068258353E+02  0.93339486973E+02  0.19485783949E+03  0.63056270187E+02 0.  0.
          6    2    1    2  502    0  0.81758963302E+02  0.95399090542E+02  0.38986949783E+03  0.44415648998E+03  0.17173015955E+03 0.  0.
         24    2    5    5    0    0 -0.10551495548E+02  0.78941947890E+02  0.15597852835E+03  0.19212646407E+03  0.78994377612E+02 0.  0.
          4    1    6    6  501    0  0.30330492639E+02  0.36973234627E+02  0.40631929162E+02  0.62752789021E+02  0.00000000000E+00 0. -1.
         -3    1    6    6    0  501 -0.40881988187E+02  0.41968713263E+02  0.11534659918E+03  0.12937367504E+03  0.00000000000E+00 0.  1.
          5    1    5    5  502    0  0.92310458850E+02  0.16457142653E+02  0.23389096948E+03  0.25203002591E+03  0.47000000000E+01 0. -1.
         11    1    4    4    0    0 -0.10686592386E+03 -0.92401809371E+02  0.54252751238E+02  0.15133334423E+03  0.00000000000E+00 0. -1.
        -12    1    4    4    0    0 -0.18289344815E+02 -0.56664489814E+01  0.39086735735E+02  0.43524495267E+02  0.00000000000E+00 0.  1.
         -5    1    3    3    0  504  0.43396305374E+02  0.26691678103E+01  0.20278555133E+02  0.48204497459E+02  0.47000000000E+01 0.  1.
<mgrwt>
<rscale>  2 0.21434839E+03</rscale>
<asrwt>0</asrwt>
<pdfrwt beam="1">  1       21 0.91592795E-01 0.21487261E+03</pdfrwt>
<pdfrwt beam="2">  1       21 0.14133176E-01 0.21487261E+03</pdfrwt>
<totfact> 0.43588736E+04</totfact>
</mgrwt>
</event>
<event>
12    1  0.1410528E-001  0.1860394E+03  0.7546771E-02  0.1162486E+00
         21   -1    0    0  502  503  0.00000000000E+00  0.00000000000E+00  0.49046855449E+02  0.49046855449E+02  0.00000000000E+00 0. -1.
         21   -1    0    0  503  504 -0.00000000000E+00 -0.00000000000E+00 -0.12519299004E+04  0.12519299004E+04  0.00000000000E+00 0. -1.
         -6    2    1    2    0  504  0.63984256881E+02  0.24117082108E+02 -0.17076038348E+03  0.25252679894E+03  0.17301750443E+03 0.  0.
        -24    2    3    3    0    0  0.97589660252E+02 -0.57267310638E+01 -0.76725477493E+02  0.14819736942E+03  0.80741093436E+02 0.  0.
          6    2    1    2  502    0 -0.63984256881E+02 -0.24117082108E+02 -0.10321226615E+04  0.10484499569E+04  0.17115637599E+03 0.  0.
         24    2    5    5    0    0 -0.48092648314E+02 -0.67408432037E+02 -0.46093570188E+03  0.47538511153E+03  0.81685270796E+02 0.  0.
          2    1    6    6  501    0 -0.68505100219E+02 -0.45383813359E+02 -0.27414306906E+03  0.28619409775E+03  0.00000000000E+00 0. -1.
         -1    1    6    6    0  501  0.20412451905E+02 -0.22024618678E+02 -0.18679263282E+03  0.18919101378E+03  0.00000000000E+00 0.  1.
          5    1    5    5  502    0 -0.15891608567E+02  0.43291349930E+02 -0.57118695961E+03  0.57306484539E+03  0.47000000000E+01 0. -1.
         11    1    4    4    0    0  0.49843861505E+02  0.27486232204E+01 -0.85415025996E+02  0.98932765681E+02  0.00000000000E+00 0. -1.
        -12    1    4    4    0    0  0.47745798747E+02 -0.84753542841E+01  0.86895485035E+01  0.49264603738E+02  0.00000000000E+00 0.  1.
         -5    1    3    3    0  504 -0.33605403371E+02  0.29843813171E+02 -0.94034905991E+02  0.10432942953E+03  0.47000000000E+01 0.  1.
<mgrwt>
<rscale>  2 0.18560553E+03</rscale>
<asrwt>0</asrwt>
<pdfrwt beam="1">  1       21 0.75456707E-02 0.18603945E+03</pdfrwt>
<pdfrwt beam="2">  1       21 0.19260458E+00 0.18603945E+03</pdfrwt>
<totfact> 0.20017065E+04</totfact>
</mgrwt>
</event>
<event>
12    1  0.1410528E-001  0.1794164E+03  0.7546771E-02  0.1168705E+00
         21   -1    0    0  502  503  0.00000000000E+00  0.00000000000E+00  0.26175929925E+03  0.26175929925E+03  0.00000000000E+00 0. -1.
         21   -1    0    0  503  504 -0.00000000000E+00 -0.00000000000E+00 -0.13285192525E+03  0.13285192525E+03  0.00000000000E+00 0. -1.
         -6    2    1    2    0  504  0.45857362128E+02 -0.43914917744E+01  0.83819312031E+01  0.17961205733E+03  0.17340141725E+03 0.  0.
        -24    2    3    3    0    0 -0.38414936817E+02  0.82154946490E+01 -0.15851630239E+02  0.90898405751E+02  0.80424152242E+02 0.  0.
          6    2    1    2  502    0 -0.45857362128E+02  0.43914917744E+01  0.12052544279E+03  0.21499916717E+03  0.17197696550E+03 0.  0.
         24    2    5    5    0    0 -0.29626351848E+02 -0.77050508043E+01 -0.20467835728E+02  0.72482618568E+02  0.62431635918E+02 0.  0.
          2    1    6    6  501    0 -0.26233655698E+02 -0.29387754423E+02  0.40216355771E+01  0.39598211500E+02  0.00000000000E+00 0. -1.
         -1    1    6    6    0  501 -0.33926961497E+01  0.21682703619E+02 -0.24489471305E+02  0.32884407068E+02  0.00000000000E+00 0.  1.
          5    1    5    5  502    0 -0.16231010280E+02  0.12096542579E+02  0.14099327852E+03  0.14251654860E+03  0.47000000000E+01 0. -1.
         13    1    4    4    0    0 -0.16036881799E+02  0.22402040612E+02  0.28243297839E+02  0.39455251542E+02  0.00000000000E+00 0. -1.
        -14    1    4    4    0    0 -0.22378055018E+02 -0.14186545963E+02 -0.44094928078E+02  0.51443154209E+02  0.00000000000E+00 0.  1.
         -5    1    3    3    0  504  0.84272298944E+02 -0.12606986423E+02  0.24233561442E+02  0.88713651577E+02  0.47000000000E+01 0.  1.
<mgrwt>
<rscale>  2 0.17907130E+03</rscale>
<asrwt>0</asrwt>
<pdfrwt beam="1">  1       21 0.40270661E-01 0.17941637E+03</pdfrwt>
<pdfrwt beam="2">  1       21 0.20438758E-01 0.17941637E+03</pdfrwt>
<totfact> 0.13229749E+05</totfact>
</mgrwt>
</event>
<event>
12    1  0.1410528E-001  0.1792517E+03  0.7546771E-02  0.1168919E+00
         21   -1    0    0  502  503  0.00000000000E+00  0.00000000000E+00  0.25246869860E+03  0.25246869860E+03  0.00000000000E+00 0. -1.
         21   -1    0    0  503  504 -0.00000000000E+00 -0.00000000000E+00 -0.37791966009E+03  0.37791966009E+03  0.00000000000E+00 0. -1.
         -6    2    1    2    0  504 -0.64095787708E+01  0.51025420798E+02 -0.31990200083E+03  0.36592217695E+03  0.17005020783E+03 0.  0.
        -24    2    3    3    0    0 -0.51483077697E+02  0.42502394379E+02 -0.29690531017E+03  0.31439354349E+03  0.78952999723E+02 0.  0.
          6    2    1    2  502    0  0.64095787708E+01 -0.51025420798E+02  0.19445103933E+03  0.26446618174E+03  0.17171627273E+03 0.  0.
         24    2    5    5    0    0 -0.21459159525E+02 -0.50836416189E+02  0.35334639447E+02  0.10285918619E+03  0.79288326387E+02 0.  0.
          2    1    6    6  501    0 -0.10467764858E+02 -0.63840600230E+02  0.48895115082E+02  0.81092099601E+02  0.00000000000E+00 0. -1.
         -1    1    6    6    0  501 -0.10991394668E+02  0.13004184041E+02 -0.13560475635E+02  0.21767086593E+02  0.00000000000E+00 0.  1.
          5    1    5    5  502    0  0.27868738296E+02 -0.18900460892E+00  0.15911639989E+03  0.16160699555E+03  0.47000000000E+01 0. -1.
         13    1    4    4    0    0 -0.61337668771E+02  0.22706026052E+02 -0.12505480537E+03  0.14112610522E+03  0.00000000000E+00 0. -1.
        -14    1    4    4    0    0  0.98545910741E+01  0.19796368328E+02 -0.17185050480E+03  0.17326743827E+03  0.00000000000E+00 0.  1.
         -5    1    3    3    0  504  0.45073498926E+02  0.85230264190E+01 -0.22996690655E+02  0.51528633457E+02  0.47000000000E+01 0.  1.
<mgrwt>
<rscale>  2 0.17885147E+03</rscale>
<asrwt>0</asrwt>
<pdfrwt beam="1">  1       21 0.38841338E-01 0.17925165E+03</pdfrwt>
<pdfrwt beam="2">  1       21 0.58141486E-01 0.17925165E+03</pdfrwt>
<totfact> 0.17861767E+04</totfact>
</mgrwt>
</event>
<event>
12    1  0.1410528E-001  0.2933009E+03  0.7546771E-02  0.1089436E+00
         21   -1    0    0  502  503  0.00000000000E+00  0.00000000000E+00  0.20624552939E+03  0.20624552939E+03  0.00000000000E+00 0.  1.
         21   -1    0    0  503  504 -0.00000000000E+00 -0.00000000000E+00 -0.43925738350E+03  0.43925738350E+03  0.00000000000E+00 0. -1.
         -6    2    1    2    0  504  0.22540543218E+03  0.36352282892E+02 -0.20315076239E+03  0.35678518503E+03  0.18410958333E+03 0.  0.
        -24    2    3    3    0    0  0.16248421175E+03  0.94076916144E+01 -0.22083008201E+03  0.28593506632E+03  0.80643123081E+02 0.  0.
          6    2    1    2  502    0 -0.22540543218E+03 -0.36352282892E+02 -0.29861091722E+02  0.28871772786E+03  0.17417561326E+03 0.  0.
         24    2    5    5    0    0 -0.90735988258E+02  0.43606284930E+02 -0.30708920540E+02  0.13202682032E+03  0.79708944488E+02 0.  0.
          2    1    6    6  501    0 -0.52570211736E+02  0.64455789015E+02 -0.97330045076E+01  0.83743102858E+02  0.00000000000E+00 0. -1.
         -1    1    6    6    0  501 -0.38165776523E+02 -0.20849504085E+02 -0.20975916033E+02  0.48283717458E+02  0.00000000000E+00 0.  1.
          5    1    5    5  502    0 -0.13466944392E+03 -0.79958567822E+02  0.84782881805E+00  0.15669090755E+03  0.47000000000E+01 0. -1.
         11    1    4    4    0    0  0.75279706964E+02 -0.17249087271E+02 -0.15593667607E+03  0.17401382772E+03  0.00000000000E+00 0. -1.
        -12    1    4    4    0    0  0.87204504789E+02  0.26656778885E+02 -0.64893405936E+02  0.11192123860E+03  0.00000000000E+00 0.  1.
         -5    1    3    3    0  504  0.62921220427E+02  0.26944591278E+02  0.17679319625E+02  0.70850118712E+02  0.47000000000E+01 0.  1.
<mgrwt>
<rscale>  2 0.29175587E+03</rscale>
<asrwt>0</asrwt>
<pdfrwt beam="1">  1       21 0.31730082E-01 0.29330093E+03</pdfrwt>
<pdfrwt beam="2">  1       21 0.67578058E-01 0.29330093E+03</pdfrwt>
<totfact> 0.18159168E+04</totfact>
</mgrwt>
</event>
<event>
12    1  0.1410528E-001  0.2840017E+03  0.7546771E-02  0.1093533E+00
         21   -1    0    0  502  503  0.00000000000E+00  0.00000000000E+00  0.53902414743E+03  0.53902414743E+03  0.00000000000E+00 0. -1.
         21   -1    0    0  503  504 -0.00000000000E+00 -0.00000000000E+00 -0.15018511456E+03  0.15018511456E+03  0.00000000000E+00 0. -1.
         -6    2    1    2    0  504  0.11061565132E+03  0.19595408459E+03  0.17288614337E+03  0.33248548328E+03  0.17327190322E+03 0.  0.
        -24    2    3    3    0    0 -0.81710847259E+01  0.10356315625E+03  0.94365066223E+02  0.16267964754E+03  0.82266688525E+02 0.  0.
          6    2    1    2  502    0 -0.11061565132E+03 -0.19595408459E+03  0.21595288950E+03  0.35672377871E+03  0.17315420361E+03 0.  0.
         24    2    5    5    0    0 -0.32445622182E+02 -0.70468513146E+02  0.27743628176E+02  0.11734542099E+03  0.83556622594E+02 0.  0.
          2    1    6    6  501    0 -0.31931089622E+02 -0.86234250604E+02  0.83322288912E+01  0.92332911250E+02  0.00000000000E+00 0. -1.
         -1    1    6    6    0  501 -0.51453256015E+00  0.15765737457E+02  0.19411399285E+02  0.25012509740E+02  0.00000000000E+00 0.  1.
          5    1    5    5  502    0 -0.78170029136E+02 -0.12548557144E+03  0.18820926133E+03  0.23937835772E+03  0.47000000000E+01 0. -1.
         13    1    4    4    0    0 -0.34535429454E+02  0.66759053332E+02  0.23801485632E+02  0.78841472637E+02  0.00000000000E+00 0. -1.
        -14    1    4    4    0    0  0.26364344728E+02  0.36804102920E+02  0.70563580591E+02  0.83838174899E+02  0.00000000000E+00 0.  1.
         -5    1    3    3    0  504  0.11878673604E+03  0.92390928335E+02  0.78521077142E+02  0.16980583575E+03  0.47000000000E+01 0.  1.
<mgrwt>
<rscale>  2 0.28398377E+03</rscale>
<asrwt>0</asrwt>
<pdfrwt beam="1">  1       21 0.82926791E-01 0.28400172E+03</pdfrwt>
<pdfrwt beam="2">  1       21 0.23105402E-01 0.28400172E+03</pdfrwt>
<totfact> 0.21289257E+04</totfact>
</mgrwt>
</event>
<event>
12    1  0.1410528E-001  0.2150875E+03  0.7546771E-02  0.1137637E+00
         21   -1    0    0  502  503  0.00000000000E+00  0.00000000000E+00  0.27137039985E+03  0.27137039985E+03  0.00000000000E+00 0.  1.
         21   -1    0    0  503  504 -0.00000000000E+00 -0.00000000000E+00 -0.18802748167E+03  0.18802748167E+03  0.00000000000E+00 0. -1.
         -6    2    1    2    0  504  0.65475951377E+02 -0.10884567803E+03 -0.28831127042E+02  0.21681662571E+03  0.17333128241E+03 0.  0.
        -24    2    3    3    0    0  0.99579383217E+02 -0.57320109787E+02  0.14529650537E+02  0.14118478534E+03  0.80748896698E+02 0.  0.
          6    2    1    2  502    0 -0.65475951377E+02  0.10884567803E+03  0.11217404523E+03  0.24258125581E+03  0.17357467388E+03 0.  0.
         24    2    5    5    0    0 -0.30297047530E+01  0.78651446509E+02  0.12771303990E+03  0.17134379593E+03  0.82781922499E+02 0.  0.
          2    1    6    6  501    0  0.21986584188E+02 -0.82745676635E+01  0.21641597487E+02  0.31941150513E+02  0.00000000000E+00 0. -1.
         -1    1    6    6    0  501 -0.25016288941E+02  0.86926014172E+02  0.10607144242E+03  0.13940264542E+03  0.00000000000E+00 0.  1.
          5    1    5    5  502    0 -0.62446246624E+02  0.30194231521E+02 -0.15538994680E+02  0.71237459881E+02  0.47000000000E+01 0. -1.
         13    1    4    4    0    0  0.16828016171E+02 -0.18778359243E+02 -0.30353681635E+02  0.39460801980E+02  0.00000000000E+00 0. -1.
        -14    1    4    4    0    0  0.82751367046E+02 -0.38541750545E+02  0.44883332173E+02  0.10172398336E+03  0.00000000000E+00 0.  1.
         -5    1    3    3    0  504 -0.34103431840E+02 -0.51525568243E+02 -0.43360777579E+02  0.75631840374E+02  0.47000000000E+01 0.  1.
<mgrwt>
<rscale>  2 0.21503843E+03</rscale>
<asrwt>0</asrwt>
<pdfrwt beam="1">  1       21 0.41749292E-01 0.21508754E+03</pdfrwt>
<pdfrwt beam="2">  1       21 0.28927305E-01 0.21508754E+03</pdfrwt>
<totfact> 0.62537326E+04</totfact>
</mgrwt>
</event>
<event>
12    1  0.1410528E-001  0.1771140E+03  0.7546771E-02  0.1170991E+00
         21   -1    0    0  502  503  0.00000000000E+00  0.00000000000E+00  0.47974271293E+02  0.47974271293E+02  0.00000000000E+00 0. -1.
         21   -1    0    0  503  504 -0.00000000000E+00 -0.00000000000E+00 -0.65495235810E+03  0.65495235810E+03  0.00000000000E+00 0. -1.
         -6    2    1    2    0  504 -0.27190827735E+02  0.27811384109E+02 -0.33724752199E+03  0.38024419001E+03  0.17128029292E+03 0.  0.
        -24    2    3    3    0    0 -0.35095021849E+02  0.43824210877E+02 -0.78947235322E+02  0.12128470476E+03  0.72973225402E+02 0.  0.
          6    2    1    2  502    0  0.27190827735E+02 -0.27811384109E+02 -0.26973056481E+03  0.32268243938E+03  0.17279052316E+03 0.  0.
         24    2    5    5    0    0 -0.49577182224E+01 -0.61040515037E+02 -0.25456289634E+03  0.27379632360E+03  0.80072686840E+02 0.  0.
          4    1    6    6  501    0  0.59191018207E+01 -0.27437256575E+02 -0.22769565395E+03  0.22941915709E+03  0.00000000000E+00 0. -1.
         -3    1    6    6    0  501 -0.10876820043E+02 -0.33603258461E+02 -0.26867242396E+02  0.44377166510E+02  0.00000000000E+00 0.  1.
          5    1    5    5  502    0  0.32148545958E+02  0.33229130927E+02 -0.15167668466E+02  0.48886115780E+02  0.47000000000E+01 0. -1.
         13    1    4    4    0    0 -0.24033266416E+02 -0.26852728115E+00 -0.71229366559E+02  0.75175080060E+02  0.00000000000E+00 0. -1.
        -14    1    4    4    0    0 -0.11061755433E+02  0.44092738158E+02 -0.77178687630E+01  0.46109624698E+02  0.00000000000E+00 0.  1.
         -5    1    3    3    0  504  0.79041941140E+01 -0.16012826768E+02 -0.25830028667E+03  0.25895948525E+03  0.47000000000E+01 0.  1.
<mgrwt>
<rscale>  2 0.17674461E+03</rscale>
<asrwt>0</asrwt>
<pdfrwt beam="1">  1       21 0.73806577E-02 0.17711403E+03</pdfrwt>
<pdfrwt beam="2">  1       21 0.10076189E+00 0.17711403E+03</pdfrwt>
<totfact> 0.11198041E+05</totfact>
</mgrwt>
</event>
<event>
12    1  0.1410528E-001  0.2137852E+03  0.7546771E-02  0.1138721E+00
         21   -1    0    0  502  503  0.00000000000E+00  0.00000000000E+00  0.39237827984E+03  0.39237827984E+03  0.00000000000E+00 0.  1.
         21   -1    0    0  503  504 -0.00000000000E+00 -0.00000000000E+00 -0.62434708866E+03  0.62434708866E+03  0.00000000000E+00 0.  1.
         -6    2    1    2    0  504 -0.10603611348E+03 -0.67087444501E+02 -0.57466079480E+03  0.61313875936E+03  0.17308878233E+03 0.  0.
        -24    2    3    3    0    0 -0.31773864622E+02  0.22242808109E+02 -0.16853153660E+03  0.19069605317E+03  0.80360343961E+02 0.  0.
          6    2    1    2  502    0  0.10603611348E+03  0.67087444501E+02  0.34269198598E+03  0.40358660915E+03  0.17233679599E+03 0.  0.
         24    2    5    5    0    0  0.83149224577E+02  0.10279503447E+03  0.19538729550E+03  0.25022558572E+03  0.83402852763E+02 0.  0.
          2    1    6    6  501    0  0.15913889981E+02  0.80156151904E+02  0.77430064744E+02  0.11257742007E+03  0.00000000000E+00 0. -1.
         -1    1    6    6    0  501  0.67235334596E+02  0.22638882571E+02  0.11795723075E+03  0.13764816566E+03  0.00000000000E+00 0.  1.
          5    1    5    5  502    0  0.22886888906E+02 -0.35707589973E+02  0.14730469049E+03  0.15336102342E+03  0.47000000000E+01 0. -1.
         13    1    4    4    0    0  0.18793593929E+02 -0.16214832781E+02 -0.36043326710E+02  0.43763470785E+02  0.00000000000E+00 0. -1.
        -14    1    4    4    0    0 -0.50567458551E+02  0.38457640890E+02 -0.13248820989E+03  0.14693258239E+03  0.00000000000E+00 0.  1.
         -5    1    3    3    0  504 -0.74262248862E+02 -0.89330252610E+02 -0.40612925820E+03  0.42244270618E+03  0.47000000000E+01 0.  1.
<mgrwt>
<rscale>  2 0.21363294E+03</rscale>
<asrwt>0</asrwt>
<pdfrwt beam="1">  1       21 0.60365889E-01 0.21378519E+03</pdfrwt>
<pdfrwt beam="2">  1       21 0.96053398E-01 0.21378519E+03</pdfrwt>
<totfact> 0.22667494E+03</totfact>
</mgrwt>
</event>
<event>
12    1  0.1410528E-001  0.2006447E+03  0.7546771E-02  0.1149567E+00
         21   -1    0    0  502  503  0.00000000000E+00  0.00000000000E+00  0.10400593254E+04  0.10400593254E+04  0.00000000000E+00 0. -1.
         21   -1    0    0  503  504 -0.00000000000E+00 -0.00000000000E+00 -0.51265690524E+02  0.51265690524E+02  0.00000000000E+00 0. -1.
         -6    2    1    2    0  504  0.55079106240E+01 -0.10179095026E+03  0.76644537654E+03  0.79183038534E+03  0.17077795318E+03 0.  0.
        -24    2    3    3    0    0  0.75194714065E+01 -0.12039719174E+03  0.41247924986E+03  0.43733871064E+03  0.81080145682E+02 0.  0.
          6    2    1    2  502    0 -0.55079106240E+01  0.10179095026E+03  0.22234825839E+03  0.29949463063E+03  0.17281941771E+03 0.  0.
         24    2    5    5    0    0 -0.18889690877E+02 -0.10041633554E+02  0.82217192461E+02  0.11964912893E+03  0.84253145295E+02 0.  0.
          2    1    6    6  501    0  0.26167145218E+02 -0.26256287959E+02  0.48681480332E+02  0.61188223324E+02  0.00000000000E+00 0. -1.
         -1    1    6    6    0  501 -0.45056836095E+02  0.16214654405E+02  0.33535712129E+02  0.58460905607E+02  0.00000000000E+00 0.  1.
          5    1    5    5  502    0  0.13381780253E+02  0.11183258382E+03  0.14013106593E+03  0.17984550170E+03  0.47000000000E+01 0. -1.
         13    1    4    4    0    0 -0.25244469784E+02 -0.69677569303E+02  0.30681660890E+03  0.31564010901E+03  0.00000000000E+00 0. -1.
        -14    1    4    4    0    0  0.32763941190E+02 -0.50719622440E+02  0.10566264097E+03  0.12169860163E+03  0.00000000000E+00 0.  1.
         -5    1    3    3    0  504 -0.20115607825E+01  0.18606241481E+02  0.35396612667E+03  0.35449167470E+03  0.47000000000E+01 0.  1.
<mgrwt>
<rscale>  2 0.20020432E+03</rscale>
<asrwt>0</asrwt>
<pdfrwt beam="1">  1       21 0.16000911E+00 0.20064468E+03</pdfrwt>
<pdfrwt beam="2">  1       21 0.78870301E-02 0.20064468E+03</pdfrwt>
<totfact> 0.30797989E+04</totfact>
</mgrwt>
</event>
<event>
12    1  0.1410528E-001  0.2143232E+03  0.7546771E-02  0.1138457E+00
         21   -1    0    0  502  503  0.00000000000E+00  0.00000000000E+00  0.14037513630E+03  0.14037513630E+03  0.00000000000E+00 0. -1.
         21   -1    0    0  503  504 -0.00000000000E+00 -0.00000000000E+00 -0.39807927955E+03  0.39807927955E+03  0.00000000000E+00 0. -1.
         -6    2    1    2    0  504  0.11327384370E+03 -0.52320658880E+02 -0.24378259124E+03  0.32367959823E+03  0.17254018519E+03 0.  0.
        -24    2    3    3    0    0  0.67126446991E+02  0.27428580723E+02 -0.18663636173E+03  0.21515630586E+03  0.78745269716E+02 0.  0.
          6    2    1    2  502    0 -0.11327384370E+03  0.52320658880E+02 -0.13921551998E+02  0.21477481762E+03  0.17425842207E+03 0.  0.
         24    2    5    5    0    0 -0.10074708111E+03  0.94628754563E+02  0.18169854331E+02  0.16001312388E+03  0.78546041686E+02 0.  0.
          4    1    6    6  501    0 -0.10276697847E+03  0.55546570794E+02  0.26993664343E+02  0.11989633567E+03  0.00000000000E+00 0. -1.
         -3    1    6    6    0  501  0.20198973600E+01  0.39082183769E+02 -0.88238100116E+01  0.40116788214E+02  0.00000000000E+00 0.  1.
          5    1    5    5  502    0 -0.12526762586E+02 -0.42308095683E+02 -0.32091406329E+02  0.54761693741E+02  0.47000000000E+01 0. -1.
         13    1    4    4    0    0  0.16037186842E+02 -0.13422130278E+02 -0.11989117941E+03  0.12170143731E+03  0.00000000000E+00 0. -1.
        -14    1    4    4    0    0  0.51089260149E+02  0.40850711001E+02 -0.66745182327E+02  0.93454868550E+02  0.00000000000E+00 0.  1.
         -5    1    3    3    0  504  0.46147396709E+02 -0.79749239602E+02 -0.57146229511E+02  0.10852329237E+03  0.47000000000E+01 0.  1.
<mgrwt>
<rscale>  2 0.21397362E+03</rscale>
<asrwt>0</asrwt>
<pdfrwt beam="1">  1       21 0.21596175E-01 0.21432315E+03</pdfrwt>
<pdfrwt beam="2">  1       21 0.61242965E-01 0.21432315E+03</pdfrwt>
<totfact> 0.49041188E+04</totfact>
</mgrwt>
</event>
<event>
12    1  0.1410528E-001  0.2376478E+03  0.7546771E-02  0.1121976E+00
         21   -1    0    0  502  503  0.00000000000E+00  0.00000000000E+00  0.10436690024E+04  0.10436690024E+04  0.00000000000E+00 0. -1.
         21   -1    0    0  503  504 -0.00000000000E+00 -0.00000000000E+00 -0.89422993055E+02  0.89422993055E+02  0.00000000000E+00 0.  1.
         -6    2    1    2    0  504  0.15611448601E+03 -0.30380183011E+02  0.11492372900E+03  0.26077419085E+03  0.17175862967E+03 0.  0.
        -24    2    3    3    0    0  0.15761124436E+03  0.24022649179E+02  0.78208338024E+02  0.19495612061E+03  0.80454663050E+02 0.  0.
          6    2    1    2  502    0 -0.15611448601E+03  0.30380183011E+02  0.83932228035E+03  0.87231780460E+03  0.17658361666E+03 0.  0.
         24    2    5    5    0    0 -0.12599267919E+03  0.31885895635E+02  0.34768498860E+03  0.37973389596E+03  0.80138098874E+02 0.  0.
          2    1    6    6  501    0 -0.10512650991E+03 -0.20685945427E+00  0.30392902065E+03  0.32159675911E+03  0.00000000000E+00 0. -1.
         -1    1    6    6    0  501 -0.20866169289E+02  0.32092755089E+02  0.43755967955E+02  0.58137136855E+02  0.00000000000E+00 0.  1.
          5    1    5    5  502    0 -0.30121806819E+02 -0.15057126238E+01  0.49163729174E+03  0.49258390864E+03  0.47000000000E+01 0. -1.
         13    1    4    4    0    0  0.21824616063E+02 -0.24359853616E+02  0.25502220131E+02  0.41473841950E+02  0.00000000000E+00 0. -1.
        -14    1    4    4    0    0  0.13578662829E+03  0.48382502795E+02  0.52706117893E+02  0.15348227866E+03  0.00000000000E+00 0.  1.
         -5    1    3    3    0  504 -0.14967583441E+01 -0.54402832190E+02  0.36715390972E+02  0.65818070240E+02  0.47000000000E+01 0.  1.
<mgrwt>
<rscale>  2 0.23675199E+03</rscale>
<asrwt>0</asrwt>
<pdfrwt beam="1">  1       21 0.16056445E+00 0.23764777E+03</pdfrwt>
<pdfrwt beam="2">  1       21 0.13757384E-01 0.23764777E+03</pdfrwt>
<totfact> 0.11083866E+04</totfact>
</mgrwt>
</event>
<event>
12    1  0.1410528E-001  0.1749273E+03  0.7546771E-02  0.1173039E+00
         21   -1    0    0  502  503  0.00000000000E+00  0.00000000000E+00  0.84814618610E+03  0.84814618610E+03  0.00000000000E+00 0.  1.
         21   -1    0    0  503  504 -0.00000000000E+00 -0.00000000000E+00 -0.13535701880E+03  0.13535701880E+03  0.00000000000E+00 0.  1.
         -6    2    1    2    0  504  0.17307121739E+02  0.26177130386E+01 -0.64906164373E+02  0.18658072667E+03  0.17404932780E+03 0.  0.
        -24    2    3    3    0    0 -0.42489760876E+02  0.49539592003E+02 -0.51647054520E+02  0.10928115429E+03  0.70819499350E+02 0.  0.
          6    2    1    2  502    0 -0.17307121739E+02 -0.26177130386E+01  0.77769533168E+03  0.79692247822E+03  0.17311562176E+03 0.  0.
         24    2    5    5    0    0 -0.60491481121E+02 -0.26414774428E+02  0.67331891892E+03  0.68139016861E+03  0.81100158419E+02 0.  0.
          2    1    6    6  501    0 -0.35674588542E+01 -0.29438465163E+02  0.79654618170E+02  0.84995342165E+02  0.00000000000E+00 0. -1.
         -1    1    6    6    0  501 -0.56924022267E+02  0.30236907345E+01  0.59366430075E+03  0.59639482644E+03  0.00000000000E+00 0.  1.
          5    1    5    5  502    0  0.43184359383E+02  0.23797061390E+02  0.10437641276E+03  0.11553230962E+03  0.47000000000E+01 0. -1.
         11    1    4    4    0    0  0.16218569421E+02  0.10276895659E+02  0.36965085034E+01  0.19553024154E+02  0.00000000000E+00 0. -1.
        -12    1    4    4    0    0 -0.58708330296E+02  0.39262696344E+02 -0.55343563024E+02  0.89728130141E+02  0.00000000000E+00 0.  1.
         -5    1    3    3    0  504  0.59796882614E+02 -0.46921878964E+02 -0.13259109853E+02  0.77299572379E+02  0.47000000000E+01 0.  1.
<mgrwt>
<rscale>  2 0.17469458E+03</rscale>
<asrwt>0</asrwt>
<pdfrwt beam="1">  1       21 0.13048403E+00 0.17492729E+03</pdfrwt>
<pdfrwt beam="2">  1       21 0.20824157E-01 0.17492729E+03</pdfrwt>
<totfact> 0.92894002E+03</totfact>
</mgrwt>
</event>
<event>
12    1  0.1410528E-001  0.1811894E+03  0.7546771E-02  0.1167440E+00
         21   -1    0    0  502  503  0.00000000000E+00  0.00000000000E+00  0.50031421504E+03  0.50031421504E+03  0.00000000000E+00 0.  1.
         21   -1    0    0  503  504 -0.00000000000E+00 -0.00000000000E+00 -0.10323519958E+03  0.10323519958E+03  0.00000000000E+00 0.  1.
         -6    2    1    2    0  504  0.43597034557E+01  0.45291786899E+02  0.12462389199E+02  0.17839113565E+03  0.17203991734E+03 0.  0.
        -24    2    3    3    0    0 -0.62192919342E+02  0.43353633396E+02  0.13567040115E+02  0.11163547451E+03  0.80814094360E+02 0.  0.
          6    2    1    2  502    0 -0.43597034557E+01 -0.45291786899E+02  0.38461662626E+03  0.42515827897E+03  0.17538318052E+03 0.  0.
         24    2    5    5    0    0  0.19428126301E+00 -0.97529456212E+02  0.26318312074E+03  0.29280383388E+03  0.83406819391E+02 0.  0.
          4    1    6    6  501    0 -0.35974737244E+02 -0.69317391715E+02  0.20015113352E+03  0.21484775718E+03  0.00000000000E+00 0. -1.
         -3    1    6    6    0  501  0.36169018507E+02 -0.28212064497E+02  0.63031987217E+02  0.77956076707E+02  0.00000000000E+00 0.  1.
          5    1    5    5  502    0 -0.45539847187E+01  0.52237669314E+02  0.12143350552E+03  0.13235444509E+03  0.47000000000E+01 0. -1.
         11    1    4    4    0    0 -0.56355041382E+02 -0.98892702294E+01  0.57122295680E+01  0.57500590618E+02  0.00000000000E+00 0. -1.
        -12    1    4    4    0    0 -0.58378779599E+01  0.53242903625E+02  0.78548105473E+01  0.54134883894E+02  0.00000000000E+00 0.  1.
         -5    1    3    3    0  504  0.66552622797E+02  0.19381535031E+01 -0.11046509165E+01  0.66755661137E+02  0.47000000000E+01 0.  1.
<mgrwt>
<rscale>  2 0.18037543E+03</rscale>
<asrwt>0</asrwt>
<pdfrwt beam="1">  1       21 0.76971416E-01 0.18118944E+03</pdfrwt>
<pdfrwt beam="2">  1       21 0.15882339E-01 0.18118944E+03</pdfrwt>
<totfact> 0.53309601E+04</totfact>
</mgrwt>
</event>
<event>
12    1  0.1410528E-001  0.2054340E+03  0.7546771E-02  0.1146153E+00
         21   -1    0    0  502  503  0.00000000000E+00  0.00000000000E+00  0.20027643526E+03  0.20027643526E+03  0.00000000000E+00 0.  1.
         21   -1    0    0  503  504 -0.00000000000E+00 -0.00000000000E+00 -0.31718270965E+03  0.31718270965E+03  0.00000000000E+00 0. -1.
         -6    2    1    2    0  504  0.10852691071E+03 -0.21308801137E+02 -0.21192594859E+03  0.29515373522E+03  0.17312124184E+03 0.  0.
        -24    2    3    3    0    0  0.13720620621E+03 -0.88332097373E+01 -0.20929751251E+03  0.26341824960E+03  0.81732226582E+02 0.  0.
          6    2    1    2  502    0 -0.10852691071E+03  0.21308801137E+02  0.95019674197E+02  0.22230540970E+03  0.16780584418E+03 0.  0.
         24    2    5    5    0    0 -0.23827196971E+02 -0.42106517235E+02  0.52761008608E+02  0.10827283133E+03  0.81231692494E+02 0.  0.
          4    1    6    6  501    0 -0.51406630687E+02 -0.42441691406E+02  0.33303755016E+02  0.74518983797E+02  0.00000000000E+00 0. -1.
         -3    1    6    6    0  501  0.27579433716E+02  0.33517417045E+00  0.19457253592E+02  0.33753847532E+02  0.00000000000E+00 0.  1.
          5    1    5    5  502    0 -0.84699713738E+02  0.63415318372E+02  0.42258665589E+02  0.11403257837E+03  0.47000000000E+01 0. -1.
         13    1    4    4    0    0  0.93362353750E+02  0.20986132508E+02 -0.17733619204E+03  0.20150700202E+03  0.00000000000E+00 0. -1.
        -14    1    4    4    0    0  0.43843852463E+02 -0.29819342246E+02 -0.31961320466E+02  0.61911247578E+02  0.00000000000E+00 0.  1.
         -5    1    3    3    0  504 -0.28679295504E+02 -0.12475591400E+02 -0.26284360801E+01  0.31735485621E+02  0.47000000000E+01 0.  1.
<mgrwt>
<rscale>  2 0.20431005E+03</rscale>
<asrwt>0</asrwt>
<pdfrwt beam="1">  1       21 0.30811759E-01 0.20543398E+03</pdfrwt>
<pdfrwt beam="2">  1       21 0.48797340E-01 0.20543398E+03</pdfrwt>
<totfact> 0.40280989E+04</totfact>
</mgrwt>
</event>
<event>
12    1  0.1410528E-001  0.1834494E+03  0.7546771E-02  0.1164553E+00
         21   -1    0    0  502  503  0.00000000000E+00  0.00000000000E+00  0.13047537609E+04  0.13047537609E+04  0.00000000000E+00 0.  1.
         21   -1    0    0  503  504 -0.00000000000E+00 -0.00000000000E+00 -0.29746522893E+02  0.29746522893E+02  0.00000000000E+00 0.  1.
         -6    2    1    2    0  504  0.60626436705E+02 -0.93399270703E+01  0.39308111243E+03  0.43369653720E+03  0.17267636309E+03 0.  0.
        -24    2    3    3    0    0 -0.26385332625E+02  0.20430306299E+02  0.15335774388E+03  0.17689564502E+03  0.81608139464E+02 0.  0.
          6    2    1    2  502    0 -0.60626436705E+02  0.93399270703E+01  0.88192612559E+03  0.90080374660E+03  0.17288984882E+03 0.  0.
         24    2    5    5    0    0  0.11912813517E+02 -0.38872053914E+02  0.56309240169E+03  0.57025364234E+03  0.80394104603E+02 0.  0.
          2    1    6    6  501    0  0.13567784584E+02 -0.41958379476E+02  0.13246890928E+03  0.13961590996E+03  0.00000000000E+00 0. -1.
         -1    1    6    6    0  501 -0.16549710671E+01  0.30863255623E+01  0.43062349241E+03  0.43063773238E+03  0.00000000000E+00 0.  1.
          5    1    5    5  502    0 -0.72539250222E+02  0.48211980984E+02  0.31883372390E+03  0.33055010426E+03  0.47000000000E+01 0. -1.
         13    1    4    4    0    0 -0.38826491191E+02 -0.17445173459E+02  0.11023825109E+03  0.11817064990E+03  0.00000000000E+00 0. -1.
        -14    1    4    4    0    0  0.12441158566E+02  0.37875479758E+02  0.43119492793E+02  0.58724995122E+02  0.00000000000E+00 0.  1.
         -5    1    3    3    0  504  0.87011769330E+02 -0.29770233369E+02  0.23972336855E+03  0.25680089218E+03  0.47000000000E+01 0.  1.
<mgrwt>
<rscale>  2 0.18339913E+03</rscale>
<asrwt>0</asrwt>
<pdfrwt beam="1">  1       21 0.20073130E+00 0.18344945E+03</pdfrwt>
<pdfrwt beam="2">  1       21 0.45763892E-02 0.18344945E+03</pdfrwt>
<totfact> 0.41761443E+04</totfact>
</mgrwt>
</event>
<event>
12    1  0.1410528E-001  0.1988233E+03  0.7546771E-02  0.1150838E+00
         21   -1    0    0  502  503  0.00000000000E+00  0.00000000000E+00  0.54876330071E+02  0.54876330071E+02  0.00000000000E+00 0. -1.
         21   -1    0    0  503  504 -0.00000000000E+00 -0.00000000000E+00 -0.76134103543E+03  0.76134103543E+03  0.00000000000E+00 0. -1.
         -6    2    1    2    0  504  0.90229315105E+02  0.37381322586E+02 -0.44949856061E+03  0.49131381576E+03  0.17263144843E+03 0.  0.
        -24    2    3    3    0    0  0.55394498896E+02 -0.26663659764E+02 -0.36885013895E+03  0.38249524152E+03  0.80452989505E+02 0.  0.
          6    2    1    2  502    0 -0.90229315105E+02 -0.37381322586E+02 -0.25696614475E+03  0.32490354974E+03  0.17318205594E+03 0.  0.
         24    2    5    5    0    0  0.44711828846E+01 -0.59526837508E+02 -0.15064571121E+03  0.18073443814E+03  0.80046055265E+02 0.  0.
          4    1    6    6  501    0 -0.12394063147E+02 -0.18945871198E+02 -0.13039711767E+03  0.13234790188E+03  0.00000000000E+00 0. -1.
         -3    1    6    6    0  501  0.16865246031E+02 -0.40580966310E+02 -0.20248593540E+02  0.48386536254E+02  0.00000000000E+00 0.  1.
          5    1    5    5  502    0 -0.94700497990E+02  0.22145514921E+02 -0.10632043354E+03  0.14416911160E+03  0.47000000000E+01 0. -1.
         11    1    4    4    0    0  0.71702681115E+01 -0.16551014011E+02 -0.10701588121E+02  0.20973144682E+02  0.00000000000E+00 0. -1.
        -12    1    4    4    0    0  0.48224230785E+02 -0.10112645754E+02 -0.35814855083E+03  0.36152209684E+03  0.00000000000E+00 0.  1.
         -5    1    3    3    0  504  0.34834816209E+02  0.64044982351E+02 -0.80648421655E+02  0.10881857424E+03  0.47000000000E+01 0.  1.
<mgrwt>
<rscale>  2 0.19870337E+03</rscale>
<asrwt>0</asrwt>
<pdfrwt beam="1">  1       21 0.84425129E-02 0.19882333E+03</pdfrwt>
<pdfrwt beam="2">  1       21 0.11712938E+00 0.19882333E+03</pdfrwt>
<totfact> 0.61051509E+04</totfact>
</mgrwt>
</event>
<event>
12    1  0.1410528E-001  0.2033435E+03  0.7546771E-02  0.1146990E+00
         21   -1    0    0  502  503  0.00000000000E+00  0.00000000000E+00  0.12435857681E+03  0.12435857681E+03  0.00000000000E+00 0. -1.
         21   -1    0    0  503  504 -0.00000000000E+00 -0.00000000000E+00 -0.36356841584E+03  0.36356841584E+03  0.00000000000E+00 0.  1.
         -6    2    1    2    0  504 -0.61469710336E+02 -0.93667654056E+02 -0.19135639240E+03  0.27922368666E+03  0.16969514895E+03 0.  0.
        -24    2    3    3    0    0 -0.50542962236E+02 -0.82841210468E+02 -0.47600447951E+02  0.13457076665E+03  0.80163778653E+02 0.  0.
          6    2    1    2  502    0  0.61469710336E+02  0.93667654056E+02 -0.47853446630E+02  0.20870330598E+03  0.16945489922E+03 0.  0.
         24    2    5    5    0    0  0.55689668006E+02 -0.94556172130E+01 -0.73637417802E+01  0.97665816073E+02  0.79332459414E+02 0.  0.
          4    1    6    6  501    0 -0.20379778971E+02 -0.15878201132E+01 -0.54971843731E+01  0.21167796287E+02  0.00000000000E+00 0. -1.
         -3    1    6    6    0  501  0.76069446977E+02 -0.78677970998E+01 -0.18665574070E+01  0.76498019786E+02  0.00000000000E+00 0.  1.
          5    1    5    5  502    0  0.57800423292E+01  0.10312327127E+03 -0.40489704849E+02  0.11103748991E+03  0.47000000000E+01 0. -1.
         11    1    4    4    0    0 -0.93867490388E+01 -0.68494334767E+02  0.11938537855E+01  0.69144849696E+02  0.00000000000E+00 0. -1.
        -12    1    4    4    0    0 -0.41156213197E+02 -0.14346875701E+02 -0.48794301736E+02  0.65425916952E+02  0.00000000000E+00 0.  1.
         -5    1    3    3    0  504 -0.10926748100E+02 -0.10826443589E+02 -0.14375594445E+03  0.14465292002E+03  0.47000000000E+01 0.  1.
<mgrwt>
<rscale>  2 0.20329342E+03</rscale>
<asrwt>0</asrwt>
<pdfrwt beam="1">  1       21 0.19132089E-01 0.20334355E+03</pdfrwt>
<pdfrwt beam="2">  1       21 0.55933602E-01 0.20334355E+03</pdfrwt>
<totfact> 0.75113096E+04</totfact>
</mgrwt>
</event>
<event>
12    1  0.1410528E-001  0.1913261E+03  0.7546771E-02  0.1157967E+00
         21   -1    0    0  502  503  0.00000000000E+00  0.00000000000E+00  0.26513158285E+03  0.26513158285E+03  0.00000000000E+00 0. -1.
         21   -1    0    0  503  504 -0.00000000000E+00 -0.00000000000E+00 -0.15157443930E+03  0.15157443930E+03  0.00000000000E+00 0. -1.
         -6    2    1    2    0  504 -0.57159609743E+02 -0.50738721244E+02 -0.99215844516E+01  0.19158318501E+03  0.17539680761E+03 0.  0.
        -24    2    3    3    0    0 -0.15707097551E+02  0.19649329974E+02 -0.52650823645E+02  0.99275729168E+02  0.80316574189E+02 0.  0.
          6    2    1    2  502    0  0.57159609743E+02  0.50738721244E+02  0.12347872800E+03  0.22512283715E+03  0.17202225646E+03 0.  0.
         24    2    5    5    0    0 -0.20803598249E+02  0.53941934306E+02  0.22792628544E+02  0.97654005673E+02  0.75327809813E+02 0.  0.
          4    1    6    6  501    0  0.14375528304E+02  0.45202957864E+02  0.35495466122E+02  0.59244335838E+02  0.00000000000E+00 0. -1.
         -3    1    6    6    0  501 -0.35179126553E+02  0.87389764415E+01 -0.12702837578E+02  0.38409669835E+02  0.00000000000E+00 0.  1.
          5    1    5    5  502    0  0.77963207992E+02 -0.32032130616E+01  0.10068609945E+03  0.12746883147E+03  0.47000000000E+01 0. -1.
         11    1    4    4    0    0 -0.30953058759E+02 -0.16231175478E+01  0.90199844851E+01  0.32281364240E+02  0.00000000000E+00 0. -1.
        -12    1    4    4    0    0  0.15245961208E+02  0.21272447522E+02 -0.61670808130E+02  0.66994364928E+02  0.00000000000E+00 0.  1.
         -5    1    3    3    0  504 -0.41452512192E+02 -0.70388051219E+02  0.42729239193E+02  0.92307455838E+02  0.47000000000E+01 0.  1.
<mgrwt>
<rscale>  2 0.19054919E+03</rscale>
<asrwt>0</asrwt>
<pdfrwt beam="1">  1       21 0.40789474E-01 0.19132611E+03</pdfrwt>
<pdfrwt beam="2">  1       21 0.23319145E-01 0.19132611E+03</pdfrwt>
<totfact> 0.10016935E+05</totfact>
</mgrwt>
</event>
<event>
12    1  0.1410528E-001  0.2570853E+03  0.7546771E-02  0.1109252E+00
         21   -1    0    0  502  503  0.00000000000E+00  0.00000000000E+00  0.91652833003E+03  0.91652833003E+03  0.00000000000E+00 0.  1.
         21   -1    0    0  503  504 -0.00000000000E+00 -0.00000000000E+00 -0.71772718512E+02  0.71772718512E+02  0.00000000000E+00 0.  1.
         -6    2    1    2    0  504  0.15564397121E+03 -0.10562973524E+03  0.45202602858E+03  0.51890850194E+03  0.17191805062E+03 0.  0.
        -24    2    3    3    0    0  0.30209738918E+02 -0.93150987020E+02  0.25259751112E+03  0.28293543278E+03  0.81591799801E+02 0.  0.
          6    2    1    2  502    0 -0.15564397121E+03  0.10562973524E+03  0.39272958293E+03  0.46939254660E+03  0.17524311900E+03 0.  0.
         24    2    5    5    0    0 -0.17739424718E+03  0.11426076810E+03  0.38028143575E+03  0.44247386162E+03  0.81516291507E+02 0.  0.
          2    1    6    6  501    0 -0.73495330331E+02  0.82988546738E+02  0.24608091502E+03  0.26989716413E+03  0.00000000000E+00 0. -1.
         -1    1    6    6    0  501 -0.10389891684E+03  0.31272221365E+02  0.13420052073E+03  0.17257669748E+03  0.00000000000E+00 0.  1.
          5    1    5    5  502    0  0.21750275968E+02 -0.86310328669E+01  0.12448147186E+02  0.26918684987E+02  0.47000000000E+01 0. -1.
         11    1    4    4    0    0 -0.14759252296E+02 -0.25220653269E+02  0.14533278598E+03  0.14824147720E+03  0.00000000000E+00 0. -1.
        -12    1    4    4    0    0  0.44968991214E+02 -0.67930333750E+02  0.10726472513E+03  0.13469395559E+03  0.00000000000E+00 0.  1.
         -5    1    3    3    0  504  0.12543423229E+03 -0.12478748216E+02  0.19942851747E+03  0.23597306916E+03  0.47000000000E+01 0.  1.
<mgrwt>
<rscale>  2 0.25651968E+03</rscale>
<asrwt>0</asrwt>
<pdfrwt beam="1">  1       21 0.14100435E+00 0.25708527E+03</pdfrwt>
<pdfrwt beam="2">  1       21 0.11041957E-01 0.25708527E+03</pdfrwt>
<totfact> 0.23038840E+04</totfact>
</mgrwt>
</event>
<event>
12    1  0.1410528E-001  0.2417693E+03  0.7546771E-02  0.1118723E+00
         21   -1    0    0  502  503  0.00000000000E+00  0.00000000000E+00  0.15714521153E+03  0.15714521153E+03  0.00000000000E+00 0.  1.
         21   -1    0    0  503  504 -0.00000000000E+00 -0.00000000000E+00 -0.14154360148E+04  0.14154360148E+04  0.00000000000E+00 0.  1.
         -6    2    1    2    0  504  0.85284788408E+02  0.14474312999E+03 -0.13043584088E+04  0.13264621390E+04  0.17299386931E+03 0.  0.
        -24    2    3    3    0    0  0.70131452159E+02  0.11837908485E+02 -0.59542602659E+03  0.60500484018E+03  0.80250525451E+02 0.  0.
          6    2    1    2  502    0 -0.85284788408E+02 -0.14474312999E+03  0.46067605511E+02  0.24611908734E+03  0.17386291169E+03 0.  0.
         24    2    5    5    0    0 -0.80341703157E+02 -0.11722943759E+03  0.95798077668E+02  0.18887708159E+03  0.79370964224E+02 0.  0.
          2    1    6    6  501    0 -0.57523626928E+01 -0.78533889161E+02  0.45512115873E+02  0.90950613602E+02  0.00000000000E+00 0. -1.
         -1    1    6    6    0  501 -0.74589340464E+02 -0.38695548424E+02  0.50285961795E+02  0.97926467987E+02  0.00000000000E+00 0.  1.
          5    1    5    5  502    0 -0.49430852511E+01 -0.27513692402E+02 -0.49730472157E+02  0.57242005750E+02  0.47000000000E+01 0. -1.
         11    1    4    4    0    0 -0.24761267946E+01  0.31025929233E+02 -0.13904265430E+03  0.14248368048E+03  0.00000000000E+00 0. -1.
        -12    1    4    4    0    0  0.72607578953E+02 -0.19188020748E+02 -0.45638337230E+03  0.46252115970E+03  0.00000000000E+00 0.  1.
         -5    1    3    3    0  504  0.15153336249E+02  0.13290522150E+03 -0.70893238222E+03  0.72145729884E+03  0.47000000000E+01 0.  1.
<mgrwt>
<rscale>  2 0.24161307E+03</rscale>
<asrwt>0</asrwt>
<pdfrwt beam="1">  1       21 0.24176186E-01 0.24176927E+03</pdfrwt>
<pdfrwt beam="2">  1       21 0.21775939E+00 0.24176927E+03</pdfrwt>
<totfact> 0.15962081E+03</totfact>
</mgrwt>
</event>
<event>
12    1  0.1410528E-001  0.3485451E+03  0.7546771E-02  0.1063381E+00
         21   -1    0    0  502  503  0.00000000000E+00  0.00000000000E+00  0.92161137005E+02  0.92161137005E+02  0.00000000000E+00 0. -1.
         21   -1    0    0  503  504 -0.00000000000E+00 -0.00000000000E+00 -0.14991524338E+04  0.14991524338E+04  0.00000000000E+00 0.  1.
         -6    2    1    2    0  504 -0.12782660310E+03  0.27331486386E+03 -0.98601083322E+03  0.10458016253E+04  0.17447928533E+03 0.  0.
        -24    2    3    3    0    0 -0.15465827000E+03  0.21460087477E+03 -0.87074790649E+03  0.91360895100E+03  0.80664011517E+02 0.  0.
          6    2    1    2  502    0  0.12782660310E+03 -0.27331486386E+03 -0.42098046358E+03  0.54551194550E+03  0.17122522215E+03 0.  0.
         24    2    5    5    0    0  0.13820093562E+01 -0.15146834216E+03 -0.20250431306E+03  0.26517513293E+03  0.79782740543E+02 0.  0.
          4    1    6    6  501    0  0.83655662346E+01  0.45364193958E+01 -0.81599362876E-01  0.95167461780E+01  0.00000000000E+00 0. -1.
         -3    1    6    6    0  501 -0.69835568784E+01 -0.15600476156E+03 -0.20242271369E+03  0.25565838675E+03  0.00000000000E+00 0.  1.
          5    1    5    5  502    0  0.12644459374E+03 -0.12184652170E+03 -0.21847615053E+03  0.28033681258E+03  0.47000000000E+01 0. -1.
         11    1    4    4    0    0 -0.84367300513E+01 -0.41203243845E+00 -0.96412130986E+02  0.96781440297E+02  0.00000000000E+00 0. -1.
        -12    1    4    4    0    0 -0.14622153995E+03  0.21501290721E+03 -0.77433577550E+03  0.81682751070E+03  0.00000000000E+00 0.  1.
         -5    1    3    3    0  504  0.26831666906E+02  0.58713989087E+02 -0.11526292673E+03  0.13219267431E+03  0.47000000000E+01 0.  1.
<mgrwt>
<rscale>  2 0.34814000E+03</rscale>
<asrwt>0</asrwt>
<pdfrwt beam="1">  1       21 0.14178637E-01 0.34854508E+03</pdfrwt>
<pdfrwt beam="2">  1       21 0.23063883E+00 0.34854508E+03</pdfrwt>
<totfact> 0.33442276E+03</totfact>
</mgrwt>
</event>
<event>
12    1  0.1410528E-001  0.1808948E+03  0.7546771E-02  0.1167234E+00
         21   -1    0    0  502  503  0.00000000000E+00  0.00000000000E+00  0.47131600455E+02  0.47131600455E+02  0.00000000000E+00 0. -1.
         21   -1    0    0  503  504 -0.00000000000E+00 -0.00000000000E+00 -0.68977051509E+03  0.68977051509E+03  0.00000000000E+00 0. -1.
         -6    2    1    2    0  504  0.17711071202E+02 -0.46752637908E+02 -0.31688422922E+03  0.36488156587E+03  0.17384893209E+03 0.  0.
        -24    2    3    3    0    0 -0.23962710467E+02  0.26655813472E+02 -0.22871041169E+03  0.24272503960E+03  0.72953742532E+02 0.  0.
          6    2    1    2  502    0 -0.17711071202E+02  0.46752637908E+02 -0.32575468542E+03  0.37202054968E+03  0.17257949796E+03 0.  0.
         24    2    5    5    0    0  0.47323253723E+02 -0.10018339768E+02 -0.11978859972E+03  0.14864524714E+03  0.73527160968E+02 0.  0.
          2    1    6    6  501    0 -0.10689567000E+02 -0.89328432150E+01 -0.72404664839E+02  0.73732611652E+02  0.00000000000E+00 0. -1.
         -1    1    6    6    0  501  0.58012820723E+02 -0.10854965528E+01 -0.47383934878E+02  0.74912635487E+02  0.00000000000E+00 0.  1.
          5    1    5    5  502    0 -0.65034324925E+02  0.56770977676E+02 -0.20596608570E+03  0.22337530254E+03  0.47000000000E+01 0. -1.
         11    1    4    4    0    0  0.28923370302E+01 -0.23267358850E+02 -0.49693621842E+02  0.54947171475E+02  0.00000000000E+00 0. -1.
        -12    1    4    4    0    0 -0.26855047497E+02  0.49923172321E+02 -0.17901678984E+03  0.18777786812E+03  0.00000000000E+00 0.  1.
         -5    1    3    3    0  504  0.41673781669E+02 -0.73408451380E+02 -0.88173817531E+02  0.12215652627E+03  0.47000000000E+01 0.  1.
<mgrwt>
<rscale>  2 0.18058915E+03</rscale>
<asrwt>0</asrwt>
<pdfrwt beam="1">  1       21 0.72510163E-02 0.18089484E+03</pdfrwt>
<pdfrwt beam="2">  1       21 0.10611853E+00 0.18089484E+03</pdfrwt>
<totfact> 0.10186677E+05</totfact>
</mgrwt>
</event>
<event>
12    1  0.1410528E-001  0.1930920E+03  0.7546771E-02  0.1156123E+00
         21   -1    0    0  502  503  0.00000000000E+00  0.00000000000E+00  0.29047192829E+03  0.29047192829E+03  0.00000000000E+00 0.  1.
         21   -1    0    0  503  504 -0.00000000000E+00 -0.00000000000E+00 -0.13274124552E+03  0.13274124552E+03  0.00000000000E+00 0. -1.
         -6    2    1    2    0  504 -0.68469020641E+02 -0.46133900368E+02  0.34870497237E+02  0.19434825429E+03  0.17244984435E+03 0.  0.
        -24    2    3    3    0    0 -0.37851501547E+02  0.40125475274E+02  0.21539448656E+01  0.97031374146E+02  0.79797607451E+02 0.  0.
          6    2    1    2  502    0  0.68469020641E+02  0.46133900368E+02  0.12286018554E+03  0.22886491952E+03  0.17455137537E+03 0.  0.
         24    2    5    5    0    0  0.67058605592E+02 -0.26081668122E+02  0.11221695411E+03  0.15570450687E+03  0.80462032511E+02 0.  0.
          2    1    6    6  501    0  0.35459540935E+02  0.25734163968E+02  0.66863236156E+02  0.79939468273E+02  0.00000000000E+00 0. -1.
         -1    1    6    6    0  501  0.31599064656E+02 -0.51815832089E+02  0.45353717951E+02  0.75765038601E+02  0.00000000000E+00 0.  1.
          5    1    5    5  502    0  0.14104150496E+01  0.72215568489E+02  0.10643231432E+02  0.73160412643E+02  0.47000000000E+01 0. -1.
         13    1    4    4    0    0 -0.99983850482E+01 -0.23610162603E+02 -0.77226467785E+01  0.26777728712E+02  0.00000000000E+00 0. -1.
        -14    1    4    4    0    0 -0.27853116499E+02  0.63735637877E+02  0.98765916441E+01  0.70253645434E+02  0.00000000000E+00 0.  1.
         -5    1    3    3    0  504 -0.30617519094E+02 -0.86259375642E+02  0.32716552372E+02  0.97316880143E+02  0.47000000000E+01 0.  1.
<mgrwt>
<rscale>  2 0.19261585E+03</rscale>
<asrwt>0</asrwt>
<pdfrwt beam="1">  1       21 0.44687989E-01 0.19309201E+03</pdfrwt>
<pdfrwt beam="2">  1       21 0.20421730E-01 0.19309201E+03</pdfrwt>
<totfact> 0.10670054E+05</totfact>
</mgrwt>
</event>
<event>
12    1  0.1410528E-001  0.2104844E+03  0.7546771E-02  0.1141217E+00
         21   -1    0    0  502  503  0.00000000000E+00  0.00000000000E+00  0.25141176004E+03  0.25141176004E+03  0.00000000000E+00 0.  1.
         21   -1    0    0  503  504 -0.00000000000E+00 -0.00000000000E+00 -0.18385057706E+03  0.18385057706E+03  0.00000000000E+00 0. -1.
         -6    2    1    2    0  504  0.17428030197E+02 -0.11855556594E+03 -0.10959097405E+02  0.21076945676E+03  0.17304480240E+03 0.  0.
        -24    2    3    3    0    0  0.67895371543E+02 -0.11749187999E+03  0.50415756996E+01  0.15760748248E+03  0.80003610589E+02 0.  0.
          6    2    1    2  502    0 -0.17428030197E+02  0.11855556594E+03  0.78520280382E+02  0.22449288033E+03  0.17283651361E+03 0.  0.
         24    2    5    5    0    0  0.31480550555E+02  0.93030402312E+01  0.12233584989E+02  0.87583495591E+02  0.80272264684E+02 0.  0.
          4    1    6    6  501    0 -0.31139311925E+01  0.26989023496E+02 -0.22647659760E+02  0.35369767448E+02  0.00000000000E+00 0. -1.
         -3    1    6    6    0  501  0.34594481747E+02 -0.17685983264E+02  0.34881244749E+02  0.52213728143E+02  0.00000000000E+00 0.  1.
          5    1    5    5  502    0 -0.48908580752E+02  0.10925252571E+03  0.66286695393E+02  0.13690938474E+03  0.47000000000E+01 0. -1.
         11    1    4    4    0    0  0.47992071375E+02 -0.81786725047E+02  0.40860879157E+02  0.10325656761E+03  0.00000000000E+00 0. -1.
        -12    1    4    4    0    0  0.19903300168E+02 -0.35705154938E+02 -0.35819303457E+02  0.54350914867E+02  0.00000000000E+00 0.  1.
         -5    1    3    3    0  504 -0.50467341346E+02 -0.10636859526E+01 -0.16000673104E+02  0.53161974287E+02  0.47000000000E+01 0.  1.
<mgrwt>
<rscale>  2 0.21044154E+03</rscale>
<asrwt>0</asrwt>
<pdfrwt beam="1">  1       21 0.38678732E-01 0.21048435E+03</pdfrwt>
<pdfrwt beam="2">  1       21 0.28284704E-01 0.21048435E+03</pdfrwt>
<totfact> 0.76415310E+04</totfact>
</mgrwt>
</event>
<event>
12    1  0.1410528E-001  0.1847238E+03  0.7546771E-02  0.1164053E+00
         21   -1    0    0  502  503  0.00000000000E+00  0.00000000000E+00  0.57090683166E+03  0.57090683166E+03  0.00000000000E+00 0. -1.
         21   -1    0    0  503  504 -0.00000000000E+00 -0.00000000000E+00 -0.62715533272E+02  0.62715533272E+02  0.00000000000E+00 0. -1.
         -6    2    1    2    0  504 -0.64699276550E+02 -0.78809568239E+01  0.17651982425E+03  0.25550368949E+03  0.17284322701E+03 0.  0.
        -24    2    3    3    0    0  0.24242383370E+01  0.39129968540E+02  0.41354311843E+02  0.97366410211E+02  0.78949397463E+02 0.  0.
          6    2    1    2  502    0  0.64699276550E+02  0.78809568239E+01  0.33167147414E+03  0.37811867544E+03  0.16946875846E+03 0.  0.
         24    2    5    5    0    0  0.45431647704E+01 -0.55390201170E+02  0.20070901303E+03  0.22065358903E+03  0.72905306453E+02 0.  0.
          2    1    6    6  501    0  0.11602930945E+02 -0.49138863116E+02  0.55081117669E+02  0.74720715993E+02  0.00000000000E+00 0. -1.
         -1    1    6    6    0  501 -0.70597661746E+01 -0.62513380540E+01  0.14562789536E+03  0.14593287304E+03  0.00000000000E+00 0.  1.
          5    1    5    5  502    0  0.60156111779E+02  0.63271157994E+02  0.13096246111E+03  0.15746508641E+03  0.47000000000E+01 0. -1.
         13    1    4    4    0    0  0.26196517735E+00 -0.18761422139E+02  0.34180891705E+02  0.38992216457E+02  0.00000000000E+00 0. -1.
        -14    1    4    4    0    0  0.21622731596E+01  0.57891390679E+02  0.71734201376E+01  0.58374193754E+02  0.00000000000E+00 0.  1.
         -5    1    3    3    0  504 -0.67123514887E+02 -0.47010925364E+02  0.13516551241E+03  0.15813727928E+03  0.47000000000E+01 0.  1.
<mgrwt>
<rscale>  2 0.18393033E+03</rscale>
<asrwt>0</asrwt>
<pdfrwt beam="1">  1       21 0.87831817E-01 0.18472381E+03</pdfrwt>
<pdfrwt beam="2">  1       21 0.96485440E-02 0.18472381E+03</pdfrwt>
<totfact> 0.96371253E+04</totfact>
</mgrwt>
</event>
<event>
12    1  0.1410528E-001  0.1968373E+03  0.7546771E-02  0.1154921E+00
         21   -1    0    0  502  503  0.00000000000E+00  0.00000000000E+00  0.42361752954E+02  0.42361752954E+02  0.00000000000E+00 0.  1.
         21   -1    0    0  503  504 -0.00000000000E+00 -0.00000000000E+00 -0.87018887009E+03  0.87018887009E+03  0.00000000000E+00 0. -1.
         -6    2    1    2    0  504  0.27259587215E+01  0.49588649638E+02 -0.46628209985E+03  0.50612637616E+03  0.19046901843E+03 0.  0.
        -24    2    3    3    0    0  0.47874341765E+02  0.36627651514E+02 -0.12091312763E+03  0.15754614015E+03  0.81038659841E+02 0.  0.
          6    2    1    2  502    0 -0.27259587215E+01 -0.49588649638E+02 -0.36154501728E+03  0.40642424688E+03  0.17888377206E+03 0.  0.
         24    2    5    5    0    0 -0.17335136104E+02  0.93405459579E+01 -0.32918824409E+03  0.33746680400E+03  0.71632332155E+02 0.  0.
          4    1    6    6  501    0 -0.23470285632E+02 -0.15784431912E+02 -0.28396611377E+03  0.28537126058E+03  0.00000000000E+00 0. -1.
         -3    1    6    6    0  501  0.61351495278E+01  0.25124977869E+02 -0.45222130323E+02  0.52095543414E+02  0.00000000000E+00 0.  1.
          5    1    5    5  502    0  0.14609177383E+02 -0.58929195596E+02 -0.32356773193E+02  0.68957442882E+02  0.47000000000E+01 0. -1.
         13    1    4    4    0    0  0.36906993586E+02 -0.87770156301E+01 -0.98865008705E+02  0.10589358869E+03  0.00000000000E+00 0. -1.
        -14    1    4    4    0    0  0.10967348179E+02  0.45404667144E+02 -0.22048118920E+02  0.51652551461E+02  0.00000000000E+00 0.  1.
         -5    1    3    3    0  504 -0.45148383044E+02  0.12960998124E+02 -0.34536897222E+03  0.34858023601E+03  0.47000000000E+01 0.  1.
<mgrwt>
<rscale>  2 0.19397875E+03</rscale>
<asrwt>0</asrwt>
<pdfrwt beam="1">  1       21 0.65171930E-02 0.19683727E+03</pdfrwt>
<pdfrwt beam="2">  1       21 0.13387521E+00 0.19683727E+03</pdfrwt>
<totfact> 0.68511356E+04</totfact>
</mgrwt>
</event>
<event>
12    1  0.1410528E-001  0.1828814E+03  0.7546771E-02  0.1165481E+00
         21   -1    0    0  502  503  0.00000000000E+00  0.00000000000E+00  0.53925230863E+03  0.53925230863E+03  0.00000000000E+00 0. -1.
         21   -1    0    0  503  504 -0.00000000000E+00 -0.00000000000E+00 -0.24265802157E+03  0.24265802157E+03  0.00000000000E+00 0. -1.
         -6    2    1    2    0  504  0.47171594729E+02  0.38128813299E+02 -0.18940403482E+03  0.26328597186E+03  0.17253013888E+03 0.  0.
        -24    2    3    3    0    0 -0.10664953015E+02  0.59188205135E+02 -0.17881128082E+03  0.20065322742E+03  0.68346606894E+02 0.  0.
          6    2    1    2  502    0 -0.47171594729E+02 -0.38128813299E+02  0.48599832188E+03  0.51862435834E+03  0.17058103775E+03 0.  0.
         24    2    5    5    0    0  0.16813104944E+02 -0.65500565709E+02  0.35623647088E+03  0.37130333948E+03  0.79929607272E+02 0.  0.
          4    1    6    6  501    0  0.88048530243E+01 -0.70794793035E+02  0.35442541144E+03  0.36153395475E+03  0.00000000000E+00 0. -1.
         -3    1    6    6    0  501  0.80082519201E+01  0.52942273260E+01  0.18110594355E+01  0.97693847337E+01  0.00000000000E+00 0.  1.
          5    1    5    5  502    0 -0.63984699673E+02  0.27371752410E+02  0.12976185100E+03  0.14732101886E+03  0.47000000000E+01 0. -1.
         13    1    4    4    0    0  0.23864701877E+01  0.37425951148E+01 -0.11512397726E+03  0.11520951523E+03  0.00000000000E+00 0. -1.
        -14    1    4    4    0    0 -0.13051423203E+02  0.55445610021E+02 -0.63687303560E+02  0.85443712191E+02  0.00000000000E+00 0.  1.
         -5    1    3    3    0  504  0.57836547744E+02 -0.21059391836E+02 -0.10592753994E+02  0.62632744444E+02  0.47000000000E+01 0.  1.
<mgrwt>
<rscale>  2 0.18242027E+03</rscale>
<asrwt>0</asrwt>
<pdfrwt beam="1">  1       21 0.82961893E-01 0.18288142E+03</pdfrwt>
<pdfrwt beam="2">  1       21 0.37332003E-01 0.18288142E+03</pdfrwt>
<totfact> 0.88256666E+03</totfact>
</mgrwt>
</event>
<event>
12    1  0.1410528E-001  0.1829352E+03  0.7546771E-02  0.1165850E+00
         21   -1    0    0  502  503  0.00000000000E+00  0.00000000000E+00  0.10276422017E+03  0.10276422017E+03  0.00000000000E+00 0.  1.
         21   -1    0    0  503  504 -0.00000000000E+00 -0.00000000000E+00 -0.35527137414E+03  0.35527137414E+03  0.00000000000E+00 0. -1.
         -6    2    1    2    0  504  0.20587189970E+02  0.54999878554E+02 -0.52269824371E+02  0.18681561160E+03  0.16946716250E+03 0.  0.
        -24    2    3    3    0    0  0.31545576371E+01  0.41686205887E+02 -0.99473110363E+02  0.13455290254E+03  0.80385899894E+02 0.  0.
          6    2    1    2  502    0 -0.20587189970E+02 -0.54999878554E+02 -0.20023732960E+03  0.27121998270E+03  0.17325262428E+03 0.  0.
         24    2    5    5    0    0 -0.66515674254E+02  0.27544113706E+00 -0.15304714465E+03  0.18511661348E+03  0.80126907534E+02 0.  0.
          4    1    6    6  501    0 -0.40294296948E+02 -0.34468098000E+02 -0.11752702323E+03  0.12893518269E+03  0.00000000000E+00 0. -1.
         -3    1    6    6    0  501 -0.26221377306E+02  0.34743539137E+02 -0.35520121420E+02  0.56181430787E+02  0.00000000000E+00 0.  1.
          5    1    5    5  502    0  0.45928484284E+02 -0.55275319691E+02 -0.47190184947E+02  0.86103369219E+02  0.47000000000E+01 0. -1.
         13    1    4    4    0    0  0.40721590105E+02  0.11338087464E+02 -0.44378293017E+02  0.61288114828E+02  0.00000000000E+00 0. -1.
        -14    1    4    4    0    0 -0.37567032468E+02  0.30348118424E+02 -0.55094817346E+02  0.73264787713E+02  0.00000000000E+00 0.  1.
         -5    1    3    3    0  504  0.17432632333E+02  0.13313672666E+02  0.47203285993E+02  0.52262709061E+02  0.47000000000E+01 0.  1.
<mgrwt>
<rscale>  2 0.18203332E+03</rscale>
<asrwt>0</asrwt>
<pdfrwt beam="1">  1       21 0.15809880E-01 0.18293521E+03</pdfrwt>
<pdfrwt beam="2">  1       21 0.54657135E-01 0.18293521E+03</pdfrwt>
<totfact> 0.11304276E+05</totfact>
</mgrwt>
</event>
<event>
12    1  0.1410528E-001  0.1757861E+03  0.7546771E-02  0.1172091E+00
         21   -1    0    0  502  503  0.00000000000E+00  0.00000000000E+00  0.87426022303E+03  0.87426022303E+03  0.00000000000E+00 0. -1.
         21   -1    0    0  503  504 -0.00000000000E+00 -0.00000000000E+00 -0.52929895830E+02  0.52929895830E+02  0.00000000000E+00 0. -1.
         -6    2    1    2    0  504  0.13326398209E+02 -0.25673226960E+02  0.14301605492E+03  0.22661494643E+03  0.17338983392E+03 0.  0.
        -24    2    3    3    0    0 -0.19805777214E+02  0.45453736201E+02  0.96194355447E+02  0.13512097133E+03  0.80907428141E+02 0.  0.
          6    2    1    2  502    0 -0.13326398209E+02  0.25673226960E+02  0.67831427228E+03  0.70057517243E+03  0.17279644898E+03 0.  0.
         24    2    5    5    0    0 -0.60320568627E+01  0.24197347916E+01  0.66948298629E+03  0.67423102838E+03  0.79610111613E+02 0.  0.
          2    1    6    6  501    0 -0.32122290426E+02 -0.25914908930E+02  0.33069277890E+03  0.33325836533E+03  0.00000000000E+00 0. -1.
         -1    1    6    6    0  501  0.26090233563E+02  0.28334643722E+02  0.33879020739E+03  0.34097266305E+03  0.00000000000E+00 0.  1.
          5    1    5    5  502    0 -0.72943413458E+01  0.23253492168E+02  0.88312859872E+01  0.26344144053E+02  0.47000000000E+01 0. -1.
         11    1    4    4    0    0  0.23984372708E+02  0.43589721534E+02  0.62218155649E+02  0.79664376292E+02  0.00000000000E+00 0. -1.
        -12    1    4    4    0    0 -0.43790149922E+02  0.18640146674E+01  0.33976199797E+02  0.55456595041E+02  0.00000000000E+00 0.  1.
         -5    1    3    3    0  504  0.33132175423E+02 -0.71126963161E+02  0.46821699473E+02  0.91493975093E+02  0.47000000000E+01 0.  1.
<mgrwt>
<rscale>  2 0.17563957E+03</rscale>
<asrwt>0</asrwt>
<pdfrwt beam="1">  1       21 0.13450156E+00 0.17578607E+03</pdfrwt>
<pdfrwt beam="2">  1       21 0.81430615E-02 0.17578607E+03</pdfrwt>
<totfact> 0.46571935E+04</totfact>
</mgrwt>
</event>
<event>
12    1  0.1410528E-001  0.1858181E+03  0.7546771E-02  0.1162518E+00
         21   -1    0    0  502  503  0.00000000000E+00  0.00000000000E+00  0.12281170236E+03  0.12281170236E+03  0.00000000000E+00 0. -1.
         21   -1    0    0  503  504 -0.00000000000E+00 -0.00000000000E+00 -0.29634809819E+03  0.29634809819E+03  0.00000000000E+00 0. -1.
         -6    2    1    2    0  504 -0.45501278554E+02  0.45856770209E+02 -0.36811175260E+02  0.18846052764E+03  0.17317360691E+03 0.  0.
        -24    2    3    3    0    0  0.30274918144E+02  0.21651941538E+02 -0.56212292103E+02  0.10644590058E+03  0.82374332931E+02 0.  0.
          6    2    1    2  502    0  0.45501278554E+02 -0.45856770209E+02 -0.13672522057E+03  0.23069927291E+03  0.17422731949E+03 0.  0.
         24    2    5    5    0    0 -0.22789915657E+02  0.80349134590E+01 -0.21509923423E+02  0.86253243289E+02  0.79956269812E+02 0.  0.
          4    1    6    6  501    0  0.17457586491E+02  0.30280239359E+02  0.11840936447E+01  0.34972307609E+02  0.00000000000E+00 0. -1.
         -3    1    6    6    0  501 -0.40247502148E+02 -0.22245325900E+02 -0.22694017068E+02  0.51280935680E+02  0.00000000000E+00 0.  1.
          5    1    5    5  502    0  0.68291194211E+02 -0.53891683668E+02 -0.11521529715E+03  0.14444602962E+03  0.47000000000E+01 0. -1.
         13    1    4    4    0    0  0.18283911021E+02  0.41895331992E+02 -0.66558136862E+02  0.80743456870E+02  0.00000000000E+00 0. -1.
        -14    1    4    4    0    0  0.11991007123E+02 -0.20243390454E+02  0.10345844758E+02  0.25702443710E+02  0.00000000000E+00 0.  1.
         -5    1    3    3    0  504 -0.75776196698E+02  0.24204828671E+02  0.19401116844E+02  0.82014627060E+02  0.47000000000E+01 0.  1.
<mgrwt>
<rscale>  2 0.18557071E+03</rscale>
<asrwt>0</asrwt>
<pdfrwt beam="1">  1       21 0.18894108E-01 0.18581811E+03</pdfrwt>
<pdfrwt beam="2">  1       21 0.45592015E-01 0.18581811E+03</pdfrwt>
<totfact> 0.11867324E+05</totfact>
</mgrwt>
</event>
<event>
12    1  0.1410528E-001  0.2817632E+03  0.7546771E-02  0.1095152E+00
         21   -1    0    0  502  503  0.00000000000E+00  0.00000000000E+00  0.37392186893E+03  0.37392186893E+03  0.00000000000E+00 0.  1.
         21   -1    0    0  503  504 -0.00000000000E+00 -0.00000000000E+00 -0.25423280528E+03  0.25423280528E+03  0.00000000000E+00 0. -1.
         -6    2    1    2    0  504  0.31723249075E+02  0.21620394630E+03  0.19058802700E+03  0.33760831239E+03  0.17293081168E+03 0.  0.
        -24    2    3    3    0    0  0.15020606800E+02  0.17227018922E+03  0.21227427926E+03  0.28563200233E+03  0.81379569901E+02 0.  0.
          6    2    1    2  502    0 -0.31723249075E+02 -0.21620394630E+03 -0.70898963348E+02  0.29054636182E+03  0.17787640213E+03 0.  0.
         24    2    5    5    0    0 -0.51337307957E+02 -0.42541464469E+02 -0.38352404108E+02  0.11271290765E+03  0.82389303089E+02 0.  0.
          4    1    6    6  501    0 -0.62387576933E+02 -0.15311062146E+01 -0.14763011817E+02  0.64128781056E+02  0.00000000000E+00 0. -1.
         -3    1    6    6    0  501  0.11050268976E+02 -0.41010358254E+02 -0.23589392291E+02  0.48584126598E+02  0.00000000000E+00 0.  1.
          5    1    5    5  502    0  0.19614058882E+02 -0.17366248184E+03 -0.32546559240E+02  0.17783345417E+03  0.47000000000E+01 0. -1.
         13    1    4    4    0    0  0.15824643408E+02  0.12318326232E+03  0.88570821927E+02  0.15254286595E+03  0.00000000000E+00 0. -1.
        -14    1    4    4    0    0 -0.80403660781E+00  0.49086926901E+02  0.12370345733E+03  0.13308913638E+03  0.00000000000E+00 0.  1.
         -5    1    3    3    0  504  0.16702642275E+02  0.43933757087E+02 -0.21686252255E+02  0.51976310061E+02  0.47000000000E+01 0.  1.
<mgrwt>
<rscale>  2 0.28098610E+03</rscale>
<asrwt>0</asrwt>
<pdfrwt beam="1">  1       21 0.57526441E-01 0.28176324E+03</pdfrwt>
<pdfrwt beam="2">  1       21 0.39112739E-01 0.28176324E+03</pdfrwt>
<totfact> 0.17049136E+04</totfact>
</mgrwt>
</event>
<event>
12    1  0.1410528E-001  0.1984031E+03  0.7546771E-02  0.1151176E+00
         21   -1    0    0  502  503  0.00000000000E+00  0.00000000000E+00  0.50918473141E+03  0.50918473141E+03  0.00000000000E+00 0.  1.
         21   -1    0    0  503  504 -0.00000000000E+00 -0.00000000000E+00 -0.78935827742E+02  0.78935827742E+02  0.00000000000E+00 0.  1.
         -6    2    1    2    0  504 -0.79490942706E+02  0.57791058112E+02  0.17077484400E+03  0.26148530561E+03  0.17190666460E+03 0.  0.
        -24    2    3    3    0    0 -0.44560416293E+02 -0.32038442956E+02  0.68595436766E+02  0.12094277752E+03  0.83124779467E+02 0.  0.
          6    2    1    2  502    0  0.79490942706E+02 -0.57791058112E+02  0.25947405967E+03  0.32663525355E+03  0.17235192152E+03 0.  0.
         24    2    5    5    0    0  0.69165590210E+02  0.11132034134E+02  0.79186586786E+02  0.13328927240E+03  0.81164730993E+02 0.  0.
          2    1    6    6  501    0  0.28752102982E+02  0.21631788712E+02 -0.77852270836E+01  0.36813414260E+02  0.00000000000E+00 0. -1.
         -1    1    6    6    0  501  0.40413487228E+02 -0.10499754578E+02  0.86971813869E+02  0.96475858140E+02  0.00000000000E+00 0.  1.
          5    1    5    5  502    0  0.10325352496E+02 -0.68923092246E+02  0.18028747288E+03  0.19334598115E+03  0.47000000000E+01 0. -1.
         13    1    4    4    0    0 -0.54578474432E+01 -0.25239845043E+02  0.76265964368E+02  0.80519160437E+02  0.00000000000E+00 0. -1.
        -14    1    4    4    0    0 -0.39102568850E+02 -0.67985979132E+01 -0.76705276016E+01  0.40423617081E+02  0.00000000000E+00 0.  1.
         -5    1    3    3    0  504 -0.34930526412E+02  0.89829501068E+02  0.10217940724E+03  0.14054252809E+03  0.47000000000E+01 0.  1.
<mgrwt>
<rscale>  2 0.19830639E+03</rscale>
<asrwt>0</asrwt>
<pdfrwt beam="1">  1       21 0.78336110E-01 0.19840313E+03</pdfrwt>
<pdfrwt beam="2">  1       21 0.12143974E-01 0.19840313E+03</pdfrwt>
<totfact> 0.82631052E+04</totfact>
</mgrwt>
</event>
<event>
12    1  0.1410528E-001  0.2863455E+03  0.7546771E-02  0.1092311E+00
         21   -1    0    0  502  503  0.00000000000E+00  0.00000000000E+00  0.22871083236E+03  0.22871083236E+03  0.00000000000E+00 0. -1.
         21   -1    0    0  503  504 -0.00000000000E+00 -0.00000000000E+00 -0.38964368430E+03  0.38964368430E+03  0.00000000000E+00 0.  1.
         -6    2    1    2    0  504 -0.90629560440E+02  0.20899349203E+03  0.74837294768E+01  0.28615296557E+03  0.17301883296E+03 0.  0.
        -24    2    3    3    0    0 -0.10663825609E+03  0.22245455944E+03 -0.95712867562E+01  0.25875876452E+03  0.77503161301E+02 0.  0.
          6    2    1    2  502    0  0.90629560440E+02 -0.20899349203E+03 -0.16841658142E+03  0.33220155110E+03  0.17349849774E+03 0.  0.
         24    2    5    5    0    0  0.83991011988E+01 -0.17136699051E+03 -0.89532632270E+02  0.21210838111E+03  0.86814070055E+02 0.  0.
          4    1    6    6  501    0 -0.67968313121E+01 -0.93960259908E+02 -0.19333756007E+01  0.94225608510E+02  0.00000000000E+00 0. -1.
         -3    1    6    6    0  501  0.15195932511E+02 -0.77406730602E+02 -0.87599256670E+02  0.11788277260E+03  0.00000000000E+00 0.  1.
          5    1    5    5  502    0  0.82230459242E+02 -0.37626501519E+02 -0.78883949147E+02  0.12009316998E+03  0.47000000000E+01 0. -1.
         13    1    4    4    0    0 -0.85419897352E+02  0.13474335820E+03  0.26221538207E+02  0.16167838603E+03  0.00000000000E+00 0. -1.
        -14    1    4    4    0    0 -0.21218358734E+02  0.87711201237E+02 -0.35792824963E+02  0.97080378495E+02  0.00000000000E+00 0.  1.
         -5    1    3    3    0  504  0.16008695646E+02 -0.13461067408E+02  0.17055016233E+02  0.27394201042E+02  0.47000000000E+01 0.  1.
<mgrwt>
<rscale>  2 0.28627284E+03</rscale>
<asrwt>0</asrwt>
<pdfrwt beam="1">  1       21 0.35186283E-01 0.28634547E+03</pdfrwt>
<pdfrwt beam="2">  1       21 0.59945181E-01 0.28634547E+03</pdfrwt>
<totfact> 0.19271992E+04</totfact>
</mgrwt>
</event>
<event>
12    1  0.1410528E-001  0.2907710E+03  0.7546771E-02  0.1090047E+00
         21   -1    0    0  502  503  0.00000000000E+00  0.00000000000E+00  0.73011726156E+03  0.73011726156E+03  0.00000000000E+00 0.  1.
         21   -1    0    0  503  504 -0.00000000000E+00 -0.00000000000E+00 -0.19250714340E+03  0.19250714340E+03  0.00000000000E+00 0. -1.
         -6    2    1    2    0  504 -0.17309009398E+03  0.15715067757E+03 -0.23184682573E+02  0.29092942000E+03  0.17159802395E+03 0.  0.
        -24    2    3    3    0    0 -0.17199713612E+03  0.13733837692E+03  0.26306333089E+02  0.23740211440E+03  0.84987623524E+02 0.  0.
          6    2    1    2  502    0  0.17309009398E+03 -0.15715067757E+03  0.56079480073E+03  0.63169498495E+03  0.17289080194E+03 0.  0.
         24    2    5    5    0    0  0.86802931883E+02 -0.16142755548E+03  0.40960315104E+03  0.45749747934E+03  0.89081971281E+02 0.  0.
          4    1    6    6  501    0  0.86305045696E+02 -0.87145615597E+02  0.19462776909E+03  0.23004975056E+03  0.00000000000E+00 0. -1.
         -3    1    6    6    0  501  0.49788618765E+00 -0.74281939881E+02  0.21497538195E+03  0.22744772878E+03  0.00000000000E+00 0.  1.
          5    1    5    5  502    0  0.86287162092E+02  0.42768779053E+01  0.15119164969E+03  0.17419750562E+03  0.47000000000E+01 0. -1.
         13    1    4    4    0    0 -0.29281075993E+01  0.15990347189E+02 -0.18391732375E+02  0.24546299865E+02  0.00000000000E+00 0. -1.
        -14    1    4    4    0    0 -0.16906902852E+03  0.12134802973E+03  0.44698065464E+02  0.21285581453E+03  0.00000000000E+00 0.  1.
         -5    1    3    3    0  504 -0.10929578540E+01  0.19812300655E+02 -0.49491015663E+02  0.53527305606E+02  0.47000000000E+01 0.  1.
<mgrwt>
<rscale>  2 0.29057906E+03</rscale>
<asrwt>0</asrwt>
<pdfrwt beam="1">  1       21 0.11232573E+00 0.29077095E+03</pdfrwt>
<pdfrwt beam="2">  1       21 0.29616484E-01 0.29077095E+03</pdfrwt>
<totfact> 0.63712023E+03</totfact>
</mgrwt>
</event>
<event>
12    1  0.1410528E-001  0.2045471E+03  0.7546771E-02  0.1146006E+00
         21   -1    0    0  502  503  0.00000000000E+00  0.00000000000E+00  0.30106084818E+03  0.30106084818E+03  0.00000000000E+00 0.  1.
         21   -1    0    0  503  504 -0.00000000000E+00 -0.00000000000E+00 -0.16164134510E+03  0.16164134510E+03  0.00000000000E+00 0.  1.
         -6    2    1    2    0  504  0.10881404703E+03  0.44548465759E+01 -0.17259268175E+02  0.20504396068E+03  0.17287220999E+03 0.  0.
        -24    2    3    3    0    0  0.43478726889E+02  0.67423966809E+02 -0.13407921626E+02  0.11410036811E+03  0.80017064730E+02 0.  0.
          6    2    1    2  502    0 -0.10881404703E+03 -0.44548465759E+01  0.15667877126E+03  0.25765823259E+03  0.17314498252E+03 0.  0.
         24    2    5    5    0    0 -0.29879139762E+02  0.32239987229E+02  0.14250320768E+03  0.16933911226E+03  0.80227121174E+02 0.  0.
          4    1    6    6  501    0 -0.39636195881E+02 -0.92075193509E+01  0.10495806379E+03  0.11256998530E+03  0.00000000000E+00 0. -1.
         -3    1    6    6    0  501  0.97570561189E+01  0.41447506580E+02  0.37545143899E+02  0.56769126964E+02  0.00000000000E+00 0.  1.
          5    1    5    5  502    0 -0.78934907264E+02 -0.36694833805E+02  0.14175563571E+02  0.88319120327E+02  0.47000000000E+01 0. -1.
         13    1    4    4    0    0  0.16135690671E+02  0.42556887455E+02  0.31937339116E+02  0.55600744717E+02  0.00000000000E+00 0. -1.
        -14    1    4    4    0    0  0.27343036217E+02  0.24867079354E+02 -0.45345260742E+02  0.58499623391E+02  0.00000000000E+00 0.  1.
         -5    1    3    3    0  504  0.65335320138E+02 -0.62969120233E+02 -0.38513465486E+01  0.90943592576E+02  0.47000000000E+01 0.  1.
<mgrwt>
<rscale>  2 0.20448939E+03</rscale>
<asrwt>0</asrwt>
<pdfrwt beam="1">  1       21 0.46317053E-01 0.20454713E+03</pdfrwt>
<pdfrwt beam="2">  1       21 0.24867899E-01 0.20454713E+03</pdfrwt>
<totfact> 0.67960719E+04</totfact>
</mgrwt>
</event>
<event>
12    1  0.1410528E-001  0.2340059E+03  0.7546771E-02  0.1123919E+00
         21   -1    0    0  502  503  0.00000000000E+00  0.00000000000E+00  0.44443932128E+02  0.44443932128E+02  0.00000000000E+00 0.  1.
         21   -1    0    0  503  504 -0.00000000000E+00 -0.00000000000E+00 -0.13400427214E+04  0.13400427214E+04  0.00000000000E+00 0.  1.
         -6    2    1    2    0  504 -0.99429667363E+02 -0.12210801665E+03 -0.84664958571E+03  0.87839300224E+03  0.17309569294E+03 0.  0.
        -24    2    3    3    0    0 -0.12370067456E+03 -0.97779278398E+02 -0.80218760780E+03  0.82200216277E+03  0.85556725816E+02 0.  0.
          6    2    1    2  502    0  0.99429667363E+02  0.12210801665E+03 -0.44894920355E+03  0.50609365128E+03  0.17256526305E+03 0.  0.
         24    2    5    5    0    0  0.59716853057E+02  0.99146193955E+02 -0.43626103907E+03  0.45826654140E+03  0.79299800979E+02 0.  0.
          2    1    6    6  501    0  0.34896854080E+02  0.60770192589E+01 -0.20021218191E+03  0.20332151478E+03  0.00000000000E+00 0. -1.
         -1    1    6    6    0  501  0.24819998977E+02  0.93069174696E+02 -0.23604885717E+03  0.25494502662E+03  0.00000000000E+00 0.  1.
          5    1    5    5  502    0  0.39712814306E+02  0.22961822700E+02 -0.12688164476E+02  0.47827109881E+02  0.47000000000E+01 0. -1.
         11    1    4    4    0    0 -0.11038885687E+03 -0.38125306983E+02 -0.47432326255E+03  0.48848929993E+03  0.00000000000E+00 0. -1.
        -12    1    4    4    0    0 -0.13311817687E+02 -0.59653971416E+02 -0.32786434525E+03  0.33351286284E+03  0.00000000000E+00 0.  1.
         -5    1    3    3    0  504  0.24271007195E+02 -0.24328738256E+02 -0.44461977912E+02  0.56390839462E+02  0.47000000000E+01 0.  1.
<mgrwt>
<rscale>  2 0.23390778E+03</rscale>
<asrwt>0</asrwt>
<pdfrwt beam="1">  1       21 0.68375282E-02 0.23400587E+03</pdfrwt>
<pdfrwt beam="2">  1       21 0.20616041E+00 0.23400587E+03</pdfrwt>
<totfact> 0.18747917E+04</totfact>
</mgrwt>
</event>
<event>
12    1  0.1410528E-001  0.1860740E+03  0.7546771E-02  0.1162228E+00
         21   -1    0    0  502  503  0.00000000000E+00  0.00000000000E+00  0.11311408333E+03  0.11311408333E+03  0.00000000000E+00 0.  1.
         21   -1    0    0  503  504 -0.00000000000E+00 -0.00000000000E+00 -0.32802550907E+03  0.32802550907E+03  0.00000000000E+00 0. -1.
         -6    2    1    2    0  504 -0.21596819794E+02 -0.67364926059E+02 -0.16588855428E+03  0.24871612268E+03  0.17127825709E+03 0.  0.
        -24    2    3    3    0    0 -0.17534701595E+02  0.24504701855E+02 -0.54956858455E+02  0.10454795534E+03  0.83678387298E+02 0.  0.
          6    2    1    2  502    0  0.21596819794E+02  0.67364926059E+02 -0.49022871464E+02  0.19242346972E+03  0.17210198687E+03 0.  0.
         24    2    5    5    0    0 -0.10998911226E+02  0.38792491722E+02  0.33774935311E+02  0.98847658259E+02  0.83691575597E+02 0.  0.
          4    1    6    6  501    0  0.15484301654E+02  0.56951192909E+02  0.30873482942E+02  0.66606110233E+02  0.00000000000E+00 0. -1.
         -3    1    6    6    0  501 -0.26483212880E+02 -0.18158701187E+02  0.29014523692E+01  0.32241548026E+02  0.00000000000E+00 0.  1.
          5    1    5    5  502    0  0.32595731021E+02  0.28572434337E+02 -0.82797806774E+02  0.93575811465E+02  0.47000000000E+01 0. -1.
         13    1    4    4    0    0  0.11595756134E+02 -0.17447315339E+02 -0.48796976476E+02  0.53103816116E+02  0.00000000000E+00 0. -1.
        -14    1    4    4    0    0 -0.29130457729E+02  0.41952017194E+02 -0.61598819792E+01  0.51444139221E+02  0.00000000000E+00 0.  1.
         -5    1    3    3    0  504 -0.40621181987E+01 -0.91869627914E+02 -0.11093169582E+03  0.14416816734E+03  0.47000000000E+01 0.  1.
<mgrwt>
<rscale>  2 0.18588335E+03</rscale>
<asrwt>0</asrwt>
<pdfrwt beam="1">  1       21 0.17402167E-01 0.18607404E+03</pdfrwt>
<pdfrwt beam="2">  1       21 0.50465462E-01 0.18607404E+03</pdfrwt>
<totfact> 0.11195039E+05</totfact>
</mgrwt>
</event>
<event>
12    1  0.1410528E-001  0.1862426E+03  0.7546771E-02  0.1162090E+00
         21   -1    0    0  502  503  0.00000000000E+00  0.00000000000E+00  0.24856611872E+03  0.24856611872E+03  0.00000000000E+00 0.  1.
         21   -1    0    0  503  504 -0.00000000000E+00 -0.00000000000E+00 -0.42554605188E+03  0.42554605188E+03  0.00000000000E+00 0.  1.
         -6    2    1    2    0  504 -0.90385146544E+00 -0.66836845980E+02 -0.36504906694E+03  0.40943066868E+03  0.17292966853E+03 0.  0.
        -24    2    3    3    0    0  0.24191497723E+02 -0.16178053382E+02 -0.93641440470E+02  0.13215773541E+03  0.88600167512E+02 0.  0.
          6    2    1    2  502    0  0.90385146544E+00  0.66836845980E+02  0.18806913378E+03  0.26468150191E+03  0.17383416652E+03 0.  0.
         24    2    5    5    0    0  0.32239050648E+02  0.32528081645E+02  0.24898728492E+02  0.94959207626E+02  0.79371732690E+02 0.  0.
          2    1    6    6  501    0  0.58068242681E+01 -0.26399388556E+02  0.63954711770E+01  0.27776770435E+02  0.00000000000E+00 0. -1.
         -1    1    6    6    0  501  0.26432226380E+02  0.58927470201E+02  0.18503257315E+02  0.67182437191E+02  0.00000000000E+00 0.  1.
          5    1    5    5  502    0 -0.31335199182E+02  0.34308764335E+02  0.16317040528E+03  0.16972229429E+03  0.47000000000E+01 0. -1.
         13    1    4    4    0    0  0.31715683111E+02  0.20422438108E+02 -0.86152178888E+02  0.94048702599E+02  0.00000000000E+00 0. -1.
        -14    1    4    4    0    0 -0.75241853876E+01 -0.36600491490E+02 -0.74892615821E+01  0.38109032815E+02  0.00000000000E+00 0.  1.
         -5    1    3    3    0  504 -0.25095349189E+02 -0.50658792598E+02 -0.27140762647E+03  0.27727293327E+03  0.47000000000E+01 0.  1.
<mgrwt>
<rscale>  2 0.18603123E+03</rscale>
<asrwt>0</asrwt>
<pdfrwt beam="1">  1       21 0.38240942E-01 0.18624258E+03</pdfrwt>
<pdfrwt beam="2">  1       21 0.65468622E-01 0.18624258E+03</pdfrwt>
<totfact> 0.14207646E+04</totfact>
</mgrwt>
</event>
<event>
12    1  0.1410528E-001  0.1952132E+03  0.7546771E-02  0.1154028E+00
         21   -1    0    0  502  503  0.00000000000E+00  0.00000000000E+00  0.21022110554E+03  0.21022110554E+03  0.00000000000E+00 0.  1.
         21   -1    0    0  503  504 -0.00000000000E+00 -0.00000000000E+00 -0.84503565564E+03  0.84503565564E+03  0.00000000000E+00 0.  1.
         -6    2    1    2    0  504  0.34070491675E+02  0.83680451694E+02 -0.78545877531E+03  0.80935387488E+03  0.17304620962E+03 0.  0.
        -24    2    3    3    0    0  0.42668265686E+02 -0.77457209665E+01 -0.53019222647E+03  0.53803161681E+03  0.80583165650E+02 0.  0.
          6    2    1    2  502    0 -0.34070491675E+02 -0.83680451694E+02  0.15064422521E+03  0.24590288630E+03  0.17207943080E+03 0.  0.
         24    2    5    5    0    0  0.25415210066E+02  0.40314621840E+01  0.43570601981E+02  0.95175386027E+02  0.80608753609E+02 0.  0.
          4    1    6    6  501    0  0.32152775422E+02  0.25433785382E+02 -0.53604806936E+01  0.41345049999E+02  0.00000000000E+00 0. -1.
         -3    1    6    6    0  501 -0.67375653558E+01 -0.21402323198E+02  0.48931082675E+02  0.53830336028E+02  0.00000000000E+00 0.  1.
          5    1    5    5  502    0 -0.59485701741E+02 -0.87711913878E+02  0.10707362323E+03  0.15072750027E+03  0.47000000000E+01 0. -1.
         11    1    4    4    0    0 -0.20612735906E+02 -0.45111913183E+01 -0.60274936897E+02  0.63861598372E+02  0.00000000000E+00 0. -1.
        -12    1    4    4    0    0  0.63281001592E+02 -0.32345296482E+01 -0.46991728957E+03  0.47417001843E+03  0.00000000000E+00 0.  1.
         -5    1    3    3    0  504 -0.85977740104E+01  0.91426172660E+02 -0.25526654884E+03  0.27132225807E+03  0.47000000000E+01 0.  1.
<mgrwt>
<rscale>  2 0.19499876E+03</rscale>
<asrwt>0</asrwt>
<pdfrwt beam="1">  1       21 0.32341708E-01 0.19521323E+03</pdfrwt>
<pdfrwt beam="2">  1       21 0.13000549E+00 0.19521323E+03</pdfrwt>
<totfact> 0.39670434E+03</totfact>
</mgrwt>
</event>
<event>
12    1  0.1410528E-001  0.1864291E+03  0.7546771E-02  0.1162411E+00
         21   -1    0    0  502  503  0.00000000000E+00  0.00000000000E+00  0.34111427569E+03  0.34111427569E+03  0.00000000000E+00 0. -1.
         21   -1    0    0  503  504 -0.00000000000E+00 -0.00000000000E+00 -0.18127292807E+03  0.18127292807E+03  0.00000000000E+00 0. -1.
         -6    2    1    2    0  504  0.22778832382E+02  0.65330281581E+02 -0.94312749939E+02  0.20892748079E+03  0.17311521172E+03 0.  0.
        -24    2    3    3    0    0 -0.49530584665E+02  0.52794131727E+02 -0.78271397550E+02  0.13365981287E+03  0.80610388540E+02 0.  0.
          6    2    1    2  502    0 -0.22778832382E+02 -0.65330281581E+02  0.25415409755E+03  0.31345972298E+03  0.16992872544E+03 0.  0.
         24    2    5    5    0    0 -0.57966745280E+01 -0.29930840978E+02  0.37037784405E+02  0.92771940092E+02  0.79406414838E+02 0.  0.
          4    1    6    6  501    0 -0.17682756973E+02 -0.52647367767E+02  0.37700886609E+02  0.67125122555E+02  0.00000000000E+00 0. -1.
         -3    1    6    6    0  501  0.11886082445E+02  0.22716526789E+02 -0.66310220365E+00  0.25646817537E+02  0.00000000000E+00 0.  1.
          5    1    5    5  502    0 -0.16982157854E+02 -0.35399440603E+02  0.21711631315E+03  0.22068778289E+03  0.47000000000E+01 0. -1.
         11    1    4    4    0    0 -0.37846866935E+02  0.33157342564E+02 -0.93514649640E+02  0.10619220499E+03  0.00000000000E+00 0. -1.
        -12    1    4    4    0    0 -0.11683717730E+02  0.19636789163E+02  0.15243252091E+02  0.27467607885E+02  0.00000000000E+00 0.  1.
         -5    1    3    3    0  504  0.72309417046E+02  0.12536149854E+02 -0.16041352389E+02  0.75267667914E+02  0.47000000000E+01 0.  1.
<mgrwt>
<rscale>  2 0.18568586E+03</rscale>
<asrwt>0</asrwt>
<pdfrwt beam="1">  1       21 0.52479119E-01 0.18642907E+03</pdfrwt>
<pdfrwt beam="2">  1       21 0.27888143E-01 0.18642907E+03</pdfrwt>
<totfact> 0.42408494E+04</totfact>
</mgrwt>
</event>
<event>
12    1  0.1410528E-001  0.2129043E+03  0.7546771E-02  0.1139325E+00
         21   -1    0    0  502  503  0.00000000000E+00  0.00000000000E+00  0.79006474018E+03  0.79006474018E+03  0.00000000000E+00 0. -1.
         21   -1    0    0  503  504 -0.00000000000E+00 -0.00000000000E+00 -0.58772064228E+02  0.58772064228E+02  0.00000000000E+00 0.  1.
         -6    2    1    2    0  504 -0.49397383432E+02 -0.11331475970E+03  0.43219948732E+03  0.48170605730E+03  0.17310110498E+03 0.  0.
        -24    2    3    3    0    0 -0.52585193284E+02 -0.30840161562E+01  0.15104493391E+03  0.17966143832E+03  0.81785980771E+02 0.  0.
          6    2    1    2  502    0  0.49397383432E+02  0.11331475970E+03  0.29909318864E+03  0.36713074711E+03  0.17334334060E+03 0.  0.
         24    2    5    5    0    0  0.11190878996E+01  0.37003122891E+02  0.48237767622E+02  0.10047592907E+03  0.79987790544E+02 0.  0.
          4    1    6    6  501    0 -0.28732705972E+02  0.11992785309E+02  0.52768456589E+02  0.61269121935E+02  0.00000000000E+00 0. -1.
         -3    1    6    6    0  501  0.29851793871E+02  0.25010337582E+02 -0.45306889668E+01  0.39206807136E+02  0.00000000000E+00 0.  1.
          5    1    5    5  502    0  0.48278295532E+02  0.76311636806E+02  0.25085542101E+03  0.26665481804E+03  0.47000000000E+01 0. -1.
         13    1    4    4    0    0 -0.63540925514E+02 -0.23012653032E+02  0.13745282288E+03  0.15316758774E+03  0.00000000000E+00 0. -1.
        -14    1    4    4    0    0  0.10955732230E+02  0.19928636876E+02  0.13592111024E+02  0.26493850579E+02  0.00000000000E+00 0.  1.
         -5    1    3    3    0  504  0.31878098519E+01 -0.11023074354E+03  0.28115455341E+03  0.30204461898E+03  0.47000000000E+01 0.  1.
<mgrwt>
<rscale>  2 0.21285501E+03</rscale>
<asrwt>0</asrwt>
<pdfrwt beam="1">  1       21 0.12154841E+00 0.21290432E+03</pdfrwt>
<pdfrwt beam="2">  1       21 0.90418566E-02 0.21290432E+03</pdfrwt>
<totfact> 0.49037809E+04</totfact>
</mgrwt>
</event>
<event>
12    1  0.1410528E-001  0.1835876E+03  0.7546771E-02  0.1169228E+00
         21   -1    0    0  502  503  0.00000000000E+00  0.00000000000E+00  0.26066868030E+03  0.26066868030E+03  0.00000000000E+00 0.  1.
         21   -1    0    0  503  504 -0.00000000000E+00 -0.00000000000E+00 -0.11812320436E+03  0.11812320436E+03  0.00000000000E+00 0.  1.
         -6    2    1    2    0  504  0.42959118084E+02  0.26154061507E+02  0.42044881575E+02  0.16949601547E+03  0.15630613050E+03 0.  0.
        -24    2    3    3    0    0  0.69062234230E+00 -0.14959914833E+01 -0.27240727745E+02  0.83625550107E+02  0.79047203827E+02 0.  0.
          6    2    1    2  502    0 -0.42959118084E+02 -0.26154061507E+02  0.10050059436E+03  0.20929586919E+03  0.17656406949E+03 0.  0.
         24    2    5    5    0    0 -0.26138252975E+02 -0.85167889982E+02  0.49317926820E+02  0.12925007661E+03  0.79602428632E+02 0.  0.
          2    1    6    6  501    0  0.13884495743E+02 -0.38968282353E+02  0.53910325134E+02  0.67953141264E+02  0.00000000000E+00 0. -1.
         -1    1    6    6    0  501 -0.40022748718E+02 -0.46199607628E+02 -0.45923983133E+01  0.61296935341E+02  0.00000000000E+00 0.  1.
          5    1    5    5  502    0 -0.16820865109E+02  0.59013828475E+02  0.51182667544E+02  0.80045792589E+02  0.47000000000E+01 0. -1.
         13    1    4    4    0    0  0.28330138947E+02 -0.27497622046E+02 -0.54184187863E+01  0.39850661890E+02  0.00000000000E+00 0. -1.
        -14    1    4    4    0    0 -0.27639516605E+02  0.26001630563E+02 -0.21822308958E+02  0.43774888216E+02  0.00000000000E+00 0.  1.
         -5    1    3    3    0  504  0.42268495742E+02  0.27650052990E+02  0.69285609320E+02  0.85870465362E+02  0.47000000000E+01 0.  1.
<mgrwt>
<rscale>  2 0.17853554E+03</rscale>
<asrwt>0</asrwt>
<pdfrwt beam="1">  1       21 0.40102874E-01 0.18358756E+03</pdfrwt>
<pdfrwt beam="2">  1       21 0.18172801E-01 0.18358756E+03</pdfrwt>
<totfact> 0.16575413E+05</totfact>
</mgrwt>
</event>
<event>
12    1  0.1410528E-001  0.2079240E+03  0.7546771E-02  0.1143654E+00
         21   -1    0    0  502  503  0.00000000000E+00  0.00000000000E+00  0.88598231467E+03  0.88598231467E+03  0.00000000000E+00 0.  1.
         21   -1    0    0  503  504 -0.00000000000E+00 -0.00000000000E+00 -0.65895751631E+02  0.65895751631E+02  0.00000000000E+00 0. -1.
         -6    2    1    2    0  504  0.49269114008E+01 -0.11304323599E+03  0.16562043341E+03  0.26582419139E+03  0.17444003299E+03 0.  0.
        -24    2    3    3    0    0 -0.23430891291E+02 -0.11077626401E+03  0.18426127201E+03  0.23148944225E+03  0.82551548598E+02 0.  0.
          6    2    1    2  502    0 -0.49269114008E+01  0.11304323599E+03  0.65446612963E+03  0.68605387491E+03  0.17187482881E+03 0.  0.
         24    2    5    5    0    0 -0.13451752646E+02  0.12063540874E+03  0.32553314276E+03  0.35688930534E+03  0.81635150155E+02 0.  0.
          2    1    6    6  501    0  0.29039870782E+00 -0.56907078512E+01 -0.16204548486E+01  0.59240493899E+01  0.00000000000E+00 0. -1.
         -1    1    6    6    0  501 -0.13742151354E+02  0.12632611659E+03  0.32715359761E+03  0.35096525595E+03  0.00000000000E+00 0.  1.
          5    1    5    5  502    0  0.85248412453E+01 -0.75921727483E+01  0.32893298687E+03  0.32916456956E+03  0.47000000000E+01 0. -1.
         11    1    4    4    0    0  0.91997423590E+01 -0.38502588046E+02  0.11223319078E+02  0.41146657663E+02  0.00000000000E+00 0. -1.
        -12    1    4    4    0    0 -0.32630633650E+02 -0.72273675960E+02  0.17303795293E+03  0.19034278458E+03  0.00000000000E+00 0.  1.
         -5    1    3    3    0  504  0.28357802691E+02 -0.22669719824E+01 -0.18640838600E+02  0.34334749150E+02  0.47000000000E+01 0.  1.
<mgrwt>
<rscale>  2 0.20738502E+03</rscale>
<asrwt>0</asrwt>
<pdfrwt beam="1">  1       21 0.13630496E+00 0.20792396E+03</pdfrwt>
<pdfrwt beam="2">  1       21 0.10137809E-01 0.20792396E+03</pdfrwt>
<totfact> 0.30083010E+04</totfact>
</mgrwt>
</event>
<event>
12    1  0.1410528E-001  0.1990374E+03  0.7546771E-02  0.1150561E+00
         21   -1    0    0  502  503  0.00000000000E+00  0.00000000000E+00  0.11232636217E+04  0.11232636217E+04  0.00000000000E+00 0.  1.
         21   -1    0    0  503  504 -0.00000000000E+00 -0.00000000000E+00 -0.49225726134E+02  0.49225726134E+02  0.00000000000E+00 0.  1.
         -6    2    1    2    0  504  0.81801387770E+02 -0.54566663722E+02  0.22482245177E+03  0.30026825452E+03  0.17305173221E+03 0.  0.
        -24    2    3    3    0    0  0.91486960546E+00  0.25567392740E+02  0.10783747500E+03  0.13695361765E+03  0.80453985700E+02 0.  0.
          6    2    1    2  502    0 -0.81801387770E+02  0.54566663722E+02  0.84921544375E+03  0.87222109327E+03  0.17301380815E+03 0.  0.
         24    2    5    5    0    0 -0.79718598287E+02  0.12240662421E+02  0.79539918981E+03  0.80356173422E+03  0.80911685241E+02 0.  0.
          2    1    6    6  501    0 -0.48680988584E+02 -0.30568189722E+02  0.30939503778E+03  0.31468959671E+03  0.00000000000E+00 0. -1.
         -1    1    6    6    0  501 -0.31037609702E+02  0.42808852143E+02  0.48600415203E+03  0.48887213750E+03  0.00000000000E+00 0.  1.
          5    1    5    5  502    0 -0.20827894834E+01  0.42326001301E+02  0.53816253933E+02  0.68659359053E+02  0.47000000000E+01 0. -1.
         11    1    4    4    0    0 -0.34291476224E+01 -0.28793198833E+02  0.28312319350E+02  0.40526470108E+02  0.00000000000E+00 0. -1.
        -12    1    4    4    0    0  0.43440172279E+01  0.54360591573E+02  0.79525155651E+02  0.96427147542E+02  0.00000000000E+00 0.  1.
         -5    1    3    3    0  504  0.80886518164E+02 -0.80134056461E+02  0.11698497677E+03  0.16331463687E+03  0.47000000000E+01 0.  1.
<mgrwt>
<rscale>  2 0.19902916E+03</rscale>
<asrwt>0</asrwt>
<pdfrwt beam="1">  1       21 0.17280977E+00 0.19903741E+03</pdfrwt>
<pdfrwt beam="2">  1       21 0.75731895E-02 0.19903741E+03</pdfrwt>
<totfact> 0.26804105E+04</totfact>
</mgrwt>
</event>
<event>
12    1  0.1410528E-001  0.1756770E+03  0.7546771E-02  0.1172825E+00
         21   -1    0    0  502  503  0.00000000000E+00  0.00000000000E+00  0.21451075706E+03  0.21451075706E+03  0.00000000000E+00 0. -1.
         21   -1    0    0  503  504 -0.00000000000E+00 -0.00000000000E+00 -0.14613892315E+03  0.14613892315E+03  0.00000000000E+00 0. -1.
         -6    2    1    2    0  504  0.27841542665E+02  0.19919874316E+02  0.66443313017E+02  0.18496214513E+03  0.16918725838E+03 0.  0.
        -24    2    3    3    0    0  0.73292255953E+02  0.46611027504E+02  0.36186307480E+02  0.12400509976E+03  0.80768021203E+02 0.  0.
          6    2    1    2  502    0 -0.27841542665E+02 -0.19919874316E+02  0.19285208912E+01  0.17568753507E+03  0.17230913469E+03 0.  0.
         24    2    5    5    0    0  0.20893273919E+02 -0.48610847183E+02  0.43650611446E+02  0.10525262106E+03  0.79832292976E+02 0.  0.
          4    1    6    6  501    0  0.51529182770E+02 -0.30874825770E+02  0.23381204168E+02  0.64460780725E+02  0.00000000000E+00 0. -1.
         -3    1    6    6    0  501 -0.30635908851E+02 -0.17736021413E+02  0.20269407278E+02  0.40791840337E+02  0.00000000000E+00 0.  1.
          5    1    5    5  502    0 -0.48734816584E+02  0.28690972867E+02 -0.41722090554E+02  0.70434914011E+02  0.47000000000E+01 0. -1.
         13    1    4    4    0    0 -0.22539654156E+01  0.34160292777E+02  0.32728028428E+02  0.47361691350E+02  0.00000000000E+00 0. -1.
        -14    1    4    4    0    0  0.75546221369E+02  0.12450734727E+02  0.34582790518E+01  0.76643408407E+02  0.00000000000E+00 0.  1.
         -5    1    3    3    0  504 -0.45450713288E+02 -0.26691153188E+02  0.30257005537E+02  0.60957045376E+02  0.47000000000E+01 0.  1.
<mgrwt>
<rscale>  2 0.17490666E+03</rscale>
<asrwt>0</asrwt>
<pdfrwt beam="1">  1       21 0.33001655E-01 0.17567695E+03</pdfrwt>
<pdfrwt beam="2">  1       21 0.22482911E-01 0.17567695E+03</pdfrwt>
<totfact> 0.16465127E+05</totfact>
</mgrwt>
</event>
<event>
12    1  0.1410528E-001  0.2288584E+03  0.7546771E-02  0.1127448E+00
         21   -1    0    0  502  503  0.00000000000E+00  0.00000000000E+00  0.15879677206E+03  0.15879677206E+03  0.00000000000E+00 0. -1.
         21   -1    0    0  503  504 -0.00000000000E+00 -0.00000000000E+00 -0.34745045328E+03  0.34745045328E+03  0.00000000000E+00 0. -1.
         -6    2    1    2    0  504 -0.77165633574E+02 -0.12821709516E+03 -0.15135485372E+03  0.27438011410E+03  0.17315310212E+03 0.  0.
        -24    2    3    3    0    0 -0.53028698154E+02 -0.15519721157E+03 -0.15139966582E+03  0.23787517825E+03  0.82246728274E+02 0.  0.
          6    2    1    2  502    0  0.77165633574E+02  0.12821709516E+03 -0.37298827498E+02  0.23186711124E+03  0.17313866191E+03 0.  0.
         24    2    5    5    0    0  0.81009531121E+02  0.14605976708E+03 -0.66756106005E+02  0.19689629846E+03  0.80098532844E+02 0.  0.
          4    1    6    6  501    0  0.50570574227E+02  0.14409548331E+03 -0.66056101983E+02  0.16638599670E+03  0.00000000000E+00 0. -1.
         -3    1    6    6    0  501  0.30438956894E+02  0.19642837700E+01 -0.70000402116E+00  0.30510301755E+02  0.00000000000E+00 0.  1.
          5    1    5    5  502    0 -0.38438975475E+01 -0.17842671925E+02  0.29457278507E+02  0.34970812784E+02  0.47000000000E+01 0. -1.
         13    1    4    4    0    0  0.94414440342E+01 -0.27804124906E+02 -0.66085856823E+02  0.72315632468E+02  0.00000000000E+00 0. -1.
        -14    1    4    4    0    0 -0.62470142189E+02 -0.12739308667E+03 -0.85313808994E+02  0.16555954579E+03  0.00000000000E+00 0.  1.
         -5    1    3    3    0  504 -0.24136935420E+02  0.26980116415E+02  0.44812096546E-01  0.36504935849E+02  0.47000000000E+01 0.  1.
<mgrwt>
<rscale>  2 0.22885564E+03</rscale>
<asrwt>0</asrwt>
<pdfrwt beam="1">  1       21 0.24430272E-01 0.22885837E+03</pdfrwt>
<pdfrwt beam="2">  1       21 0.53453916E-01 0.22885837E+03</pdfrwt>
<totfact> 0.51559695E+04</totfact>
</mgrwt>
</event>
<event>
12    1  0.1410528E-001  0.1778346E+03  0.7546771E-02  0.1170328E+00
         21   -1    0    0  502  503  0.00000000000E+00  0.00000000000E+00  0.17587056663E+04  0.17587056663E+04  0.00000000000E+00 0.  1.
         21   -1    0    0  503  504 -0.00000000000E+00 -0.00000000000E+00 -0.30288346255E+02  0.30288346255E+02  0.00000000000E+00 0.  1.
         -6    2    1    2    0  504 -0.41520022764E+02  0.61943975675E+01  0.28775027726E+03  0.33739259285E+03  0.17108844729E+03 0.  0.
        -24    2    3    3    0    0 -0.37272176675E+02 -0.22538343926E+02  0.29316787131E+03  0.30747512378E+03  0.81831282969E+02 0.  0.
          6    2    1    2  502    0  0.41520022764E+02 -0.61943975675E+01  0.14406670428E+04  0.14516014197E+04  0.17280876908E+03 0.  0.
         24    2    5    5    0    0  0.59565501739E+02 -0.51549332059E+01  0.14209986919E+04  0.14244784806E+04  0.79542674233E+02 0.  0.
          2    1    6    6  501    0  0.59326275012E+02 -0.21723022792E+02  0.60084791349E+03  0.60416033615E+03  0.00000000000E+00 0. -1.
         -1    1    6    6    0  501  0.23922672739E+00  0.16568089586E+02  0.82015077843E+03  0.82031814449E+03  0.00000000000E+00 0.  1.
          5    1    5    5  502    0 -0.18045478975E+02 -0.10394643616E+01  0.19668350836E+02  0.27122939041E+02  0.47000000000E+01 0. -1.
         11    1    4    4    0    0  0.15040975283E+02  0.12598887700E+02  0.14696686248E+03  0.14827077114E+03  0.00000000000E+00 0. -1.
        -12    1    4    4    0    0 -0.52313151959E+02 -0.35137231626E+02  0.14620100883E+03  0.15920435264E+03  0.00000000000E+00 0.  1.
         -5    1    3    3    0  504 -0.42478460893E+01  0.28732741494E+02 -0.54175940534E+01  0.29917469069E+02  0.47000000000E+01 0.  1.
<mgrwt>
<rscale>  2 0.17741533E+03</rscale>
<asrwt>0</asrwt>
<pdfrwt beam="1">  1       21 0.27057002E+00 0.17783462E+03</pdfrwt>
<pdfrwt beam="2">  1       21 0.46597470E-02 0.17783462E+03</pdfrwt>
<totfact> 0.15514305E+04</totfact>
</mgrwt>
</event>
<event>
12    1  0.1410528E-001  0.2319740E+03  0.7546771E-02  0.1125469E+00
         21   -1    0    0  502  503  0.00000000000E+00  0.00000000000E+00  0.47492464975E+03  0.47492464975E+03  0.00000000000E+00 0. -1.
         21   -1    0    0  503  504 -0.00000000000E+00 -0.00000000000E+00 -0.11950155975E+03  0.11950155975E+03  0.00000000000E+00 0. -1.
         -6    2    1    2    0  504 -0.71404890101E+02  0.13694385865E+03  0.24896225249E+03  0.34028535651E+03  0.17308853785E+03 0.  0.
        -24    2    3    3    0    0 -0.41331484713E+02  0.67025481951E+01  0.14368518956E+03  0.17007208252E+03  0.80782818553E+02 0.  0.
          6    2    1    2  502    0  0.71404890101E+02 -0.13694385865E+03  0.10646083750E+03  0.25414085299E+03  0.17146831919E+03 0.  0.
         24    2    5    5    0    0  0.75096551906E+01 -0.59338525089E+00  0.40980626515E+02  0.89873386121E+02  0.79630815367E+02 0.  0.
          2    1    6    6  501    0 -0.34337886491E+02 -0.12244183127E+02  0.16561485713E+02  0.40041144815E+02  0.00000000000E+00 0. -1.
         -1    1    6    6    0  501  0.41847541682E+02  0.11650797876E+02  0.24419140803E+02  0.49832241305E+02  0.00000000000E+00 0.  1.
          5    1    5    5  502    0  0.63895234911E+02 -0.13635047340E+03  0.65480210986E+02  0.16426746687E+03  0.47000000000E+01 0. -1.
         13    1    4    4    0    0 -0.33926295119E+02  0.30355946146E+02  0.31940933280E+02  0.55612050724E+02  0.00000000000E+00 0. -1.
        -14    1    4    4    0    0 -0.74051895933E+01 -0.23653397951E+02  0.11174425628E+03  0.11446003180E+03  0.00000000000E+00 0.  1.
         -5    1    3    3    0  504 -0.30073405389E+02  0.13024131046E+03  0.10527706294E+03  0.17021327399E+03  0.47000000000E+01 0.  1.
<mgrwt>
<rscale>  2 0.23167177E+03</rscale>
<asrwt>0</asrwt>
<pdfrwt beam="1">  1       21 0.73065329E-01 0.23197397E+03</pdfrwt>
<pdfrwt beam="2">  1       21 0.18384856E-01 0.23197397E+03</pdfrwt>
<totfact> 0.44641523E+04</totfact>
</mgrwt>
</event>
<event>
12    1  0.1410528E-001  0.2656010E+03  0.7546771E-02  0.1104465E+00
         21   -1    0    0  502  503  0.00000000000E+00  0.00000000000E+00  0.43890854069E+03  0.43890854069E+03  0.00000000000E+00 0.  1.
         21   -1    0    0  503  504 -0.00000000000E+00 -0.00000000000E+00 -0.15819939360E+03  0.15819939360E+03  0.00000000000E+00 0. -1.
         -6    2    1    2    0  504 -0.18797318953E+03  0.61755734044E+02  0.13429381632E+03  0.29762174608E+03  0.17718968359E+03 0.  0.
        -24    2    3    3    0    0 -0.10577332391E+03  0.48340883702E+02  0.57708030976E+01  0.14439958370E+03  0.85399651737E+02 0.  0.
          6    2    1    2  502    0  0.18797318953E+03 -0.61755734044E+02  0.14641533078E+03  0.29948618821E+03  0.17060726002E+03 0.  0.
         24    2    5    5    0    0  0.22460853252E+02 -0.36735093733E+02  0.70906379453E+02  0.11579063129E+03  0.80782415210E+02 0.  0.
          4    1    6    6  501    0 -0.27053130679E+02 -0.25050920930E+02  0.13947964587E+02  0.39420378424E+02  0.00000000000E+00 0. -1.
         -3    1    6    6    0  501  0.49513983931E+02 -0.11684172803E+02  0.56958414866E+02  0.76370252867E+02  0.00000000000E+00 0.  1.
          5    1    5    5  502    0  0.16551233628E+03 -0.25020640311E+02  0.75508951322E+02  0.18369555692E+03  0.47000000000E+01 0. -1.
         13    1    4    4    0    0 -0.13758787531E+02  0.46106602707E+02 -0.14298494207E+02  0.50195318348E+02  0.00000000000E+00 0. -1.
        -14    1    4    4    0    0 -0.92014536378E+02  0.22342809958E+01  0.20069297305E+02  0.94204265354E+02  0.00000000000E+00 0.  1.
         -5    1    3    3    0  504 -0.82199865618E+02  0.13414850342E+02  0.12852301322E+03  0.15322216238E+03  0.47000000000E+01 0.  1.
<mgrwt>
<rscale>  2 0.26450792E+03</rscale>
<asrwt>0</asrwt>
<pdfrwt beam="1">  1       21 0.67524390E-01 0.26560097E+03</pdfrwt>
<pdfrwt beam="2">  1       21 0.24338368E-01 0.26560097E+03</pdfrwt>
<totfact> 0.30858265E+04</totfact>
</mgrwt>
</event>
<event>
12    1  0.1410528E-001  0.1824661E+03  0.7546771E-02  0.1165535E+00
         21   -1    0    0  502  503  0.00000000000E+00  0.00000000000E+00  0.16851319190E+03  0.16851319190E+03  0.00000000000E+00 0.  1.
         21   -1    0    0  503  504 -0.00000000000E+00 -0.00000000000E+00 -0.19760961183E+03  0.19760961183E+03  0.00000000000E+00 0.  1.
         -6    2    1    2    0  504 -0.58321585072E+02  0.52637313873E+01 -0.55558026095E+01  0.18255062007E+03  0.17281420021E+03 0.  0.
        -24    2    3    3    0    0 -0.41585430800E+02 -0.21753671015E+02 -0.62571336975E+02  0.11710675060E+03  0.87156460278E+02 0.  0.
          6    2    1    2  502    0  0.58321585072E+02 -0.52637313873E+01 -0.23540617328E+02  0.18357218366E+03  0.17238176178E+03 0.  0.
         24    2    5    5    0    0 -0.48492301771E+01 -0.46804209385E+02 -0.49400795473E+02  0.10352843296E+03  0.77868792137E+02 0.  0.
          2    1    6    6  501    0 -0.37870237265E+02 -0.15591352518E+02 -0.73310699045E+01  0.41605164701E+02  0.00000000000E+00 0. -1.
         -1    1    6    6    0  501  0.33021007087E+02 -0.31212856867E+02 -0.42069725568E+02  0.61923268262E+02  0.00000000000E+00 0.  1.
          5    1    5    5  502    0  0.63170815249E+02  0.41540477998E+02  0.25860178145E+02  0.80043750694E+02  0.47000000000E+01 0. -1.
         11    1    4    4    0    0 -0.27558814470E+02 -0.55656475436E+02 -0.42837668371E+02  0.75446652307E+02  0.00000000000E+00 0. -1.
        -12    1    4    4    0    0 -0.14026616330E+02  0.33902804421E+02 -0.19733668604E+02  0.41660098294E+02  0.00000000000E+00 0.  1.
         -5    1    3    3    0  504 -0.16736154271E+02  0.27017402402E+02  0.57015534366E+02  0.65443869471E+02  0.47000000000E+01 0.  1.
<mgrwt>
<rscale>  2 0.18236359E+03</rscale>
<asrwt>0</asrwt>
<pdfrwt beam="1">  1       21 0.25925107E-01 0.18246606E+03</pdfrwt>
<pdfrwt beam="2">  1       21 0.30401479E-01 0.18246606E+03</pdfrwt>
<totfact> 0.14719807E+05</totfact>
</mgrwt>
</event>
<event>
12    1  0.1410528E-001  0.2255170E+03  0.7546771E-02  0.1130662E+00
         21   -1    0    0  502  503  0.00000000000E+00  0.00000000000E+00  0.29809080199E+03  0.29809080199E+03  0.00000000000E+00 0. -1.
         21   -1    0    0  503  504 -0.00000000000E+00 -0.00000000000E+00 -0.19633315144E+03  0.19633315144E+03  0.00000000000E+00 0. -1.
         -6    2    1    2    0  504  0.49954598355E+02  0.12842244097E+03 -0.44782075173E+02  0.22547823797E+03  0.17276346923E+03 0.  0.
        -24    2    3    3    0    0 -0.32777656197E+01  0.11557198754E+03 -0.78191080610E+02  0.16115817600E+03  0.80563543571E+02 0.  0.
          6    2    1    2  502    0 -0.49954598355E+02 -0.12842244097E+03  0.14653972573E+03  0.26894571546E+03  0.17852204739E+03 0.  0.
         24    2    5    5    0    0 -0.77390637441E+02 -0.14942664070E+03  0.14182388535E+03  0.23375705539E+03  0.78808088247E+02 0.  0.
          4    1    6    6  501    0 -0.63435429871E+02 -0.13913619884E+03  0.15033852620E+03  0.21444022022E+03  0.00000000000E+00 0. -1.
         -3    1    6    6    0  501 -0.13955207570E+02 -0.10290441867E+02 -0.85146408474E+01  0.19316835168E+02  0.00000000000E+00 0.  1.
          5    1    5    5  502    0  0.27436039086E+02  0.21004199731E+02  0.47158403832E+01  0.35188660072E+02  0.47000000000E+01 0. -1.
         13    1    4    4    0    0  0.38632419662E+01  0.99137432674E+02 -0.94435815555E+02  0.13697181628E+03  0.00000000000E+00 0. -1.
        -14    1    4    4    0    0 -0.71410075860E+01  0.16434554869E+02  0.16244734945E+02  0.24186359720E+02  0.00000000000E+00 0.  1.
         -5    1    3    3    0  504  0.53232363975E+02  0.12850453430E+02  0.33409005437E+02  0.64320061971E+02  0.47000000000E+01 0.  1.
<mgrwt>
<rscale>  2 0.22437571E+03</rscale>
<asrwt>0</asrwt>
<pdfrwt beam="1">  1       21 0.45860124E-01 0.22551698E+03</pdfrwt>
<pdfrwt beam="2">  1       21 0.30205100E-01 0.22551698E+03</pdfrwt>
<totfact> 0.47184483E+04</totfact>
</mgrwt>
</event>
<event>
12    1  0.1410528E-001  0.1841572E+03  0.7546771E-02  0.1164026E+00
         21   -1    0    0  502  503  0.00000000000E+00  0.00000000000E+00  0.14729053343E+03  0.14729053343E+03  0.00000000000E+00 0.  1.
         21   -1    0    0  503  504 -0.00000000000E+00 -0.00000000000E+00 -0.33700099351E+03  0.33700099351E+03  0.00000000000E+00 0.  1.
         -6    2    1    2    0  504 -0.15834011606E+02 -0.61388865725E+02 -0.23163132618E+03  0.29542319121E+03  0.17205371801E+03 0.  0.
        -24    2    3    3    0    0  0.40930113300E+02  0.81454918541E+01 -0.92376155544E+02  0.12967855236E+03  0.80879846795E+02 0.  0.
          6    2    1    2  502    0  0.15834011606E+02  0.61388865725E+02  0.41920866095E+02  0.18886833573E+03  0.17290049297E+03 0.  0.
         24    2    5    5    0    0  0.64961076539E+02  0.88857976471E+00  0.38544125020E+02  0.11071946824E+03  0.80947019919E+02 0.  0.
          2    1    6    6  501    0  0.17663034892E+02 -0.37020244697E+02  0.26743919076E+02  0.48966504128E+02  0.00000000000E+00 0. -1.
         -1    1    6    6    0  501  0.47298041647E+02  0.37908824462E+02  0.11800205944E+02  0.61752964107E+02  0.00000000000E+00 0.  1.
          5    1    5    5  502    0 -0.49127064933E+02  0.60500285961E+02  0.33767410753E+01  0.78148867494E+02  0.47000000000E+01 0. -1.
         11    1    4    4    0    0 -0.77130759223E+01  0.33601394068E+02 -0.47932003297E+02  0.59042545368E+02  0.00000000000E+00 0. -1.
        -12    1    4    4    0    0  0.48643189222E+02 -0.25455902214E+02 -0.44444152247E+02  0.70636006995E+02  0.00000000000E+00 0.  1.
         -5    1    3    3    0  504 -0.56764124905E+02 -0.69534357579E+02 -0.13925517063E+03  0.16574463885E+03  0.47000000000E+01 0.  1.
<mgrwt>
<rscale>  2 0.18395822E+03</rscale>
<asrwt>0</asrwt>
<pdfrwt beam="1">  1       21 0.22660082E-01 0.18415724E+03</pdfrwt>
<pdfrwt beam="2">  1       21 0.51846306E-01 0.18415724E+03</pdfrwt>
<totfact> 0.64721068E+04</totfact>
</mgrwt>
</event>
<event>
12    1  0.1410528E-001  0.1847236E+03  0.7546771E-02  0.1164635E+00
         21   -1    0    0  502  503  0.00000000000E+00  0.00000000000E+00  0.34872861965E+03  0.34872861965E+03  0.00000000000E+00 0.  1.
         21   -1    0    0  503  504 -0.00000000000E+00 -0.00000000000E+00 -0.95056901524E+02  0.95056901524E+02  0.00000000000E+00 0.  1.
         -6    2    1    2    0  504 -0.31763737654E+02 -0.28890266546E+02  0.11638353504E+03  0.21363152959E+03  0.17392446830E+03 0.  0.
        -24    2    3    3    0    0 -0.50529670518E+02  0.81496938154E+01  0.13796725799E+03  0.16659892392E+03  0.78106158935E+02 0.  0.
          6    2    1    2  502    0  0.31763737654E+02  0.28890266546E+02  0.13728818308E+03  0.23015399158E+03  0.17966422041E+03 0.  0.
         24    2    5    5    0    0 -0.52436941993E+02  0.95447329337E+01  0.86172063401E+02  0.12966045042E+03  0.80904098042E+02 0.  0.
          2    1    6    6  501    0 -0.53709097754E+02 -0.15755032843E+01  0.12531527214E+02  0.55174165752E+02  0.00000000000E+00 0. -1.
         -1    1    6    6    0  501  0.12721557608E+01  0.11120236218E+02  0.73640536186E+02  0.74486284668E+02  0.00000000000E+00 0.  1.
          5    1    5    5  502    0  0.84200679647E+02  0.19345533612E+02  0.51116119677E+02  0.10049354116E+03  0.47000000000E+01 0. -1.
         13    1    4    4    0    0 -0.49726765791E+00  0.88141525453E+01  0.10782240993E+03  0.10818321794E+03  0.00000000000E+00 0. -1.
        -14    1    4    4    0    0 -0.50032402860E+02 -0.66445872987E+00  0.30144848059E+02  0.58415705986E+02  0.00000000000E+00 0.  1.
         -5    1    3    3    0  504  0.18765932863E+02 -0.37039960361E+02 -0.21583722944E+02  0.47032605668E+02  0.47000000000E+01 0.  1.
<mgrwt>
<rscale>  2 0.18331315E+03</rscale>
<asrwt>0</asrwt>
<pdfrwt beam="1">  1       21 0.53650556E-01 0.18472362E+03</pdfrwt>
<pdfrwt beam="2">  1       21 0.14624139E-01 0.18472362E+03</pdfrwt>
<totfact> 0.13540525E+05</totfact>
</mgrwt>
</event>
<event>
12    1  0.1410528E-001  0.2485662E+03  0.7546771E-02  0.1116036E+00
         21   -1    0    0  502  503  0.00000000000E+00  0.00000000000E+00  0.12059098180E+03  0.12059098180E+03  0.00000000000E+00 0.  1.
         21   -1    0    0  503  504 -0.00000000000E+00 -0.00000000000E+00 -0.55969812393E+03  0.55969812393E+03  0.00000000000E+00 0. -1.
         -6    2    1    2    0  504 -0.16217053468E+03 -0.27929979278E+02 -0.33549132493E+03  0.41099116495E+03  0.17111382908E+03 0.  0.
        -24    2    3    3    0    0 -0.19827947069E+02 -0.38949941635E+02 -0.11205543462E+03  0.14579588049E+03  0.82400078296E+02 0.  0.
          6    2    1    2  502    0  0.16217053468E+03  0.27929979278E+02 -0.10361581720E+03  0.26929794078E+03  0.18629486646E+03 0.  0.
         24    2    5    5    0    0  0.32495653374E+01  0.45823690847E+01  0.22553654844E+01  0.76861502639E+02  0.76622752059E+02 0.  0.
          4    1    6    6  501    0 -0.21105561250E+02 -0.47298476656E+01 -0.28987436976E+02  0.36167494758E+02  0.00000000000E+00 0. -1.
         -3    1    6    6    0  501  0.24355126587E+02  0.93122167504E+01  0.31242802460E+02  0.40694007881E+02  0.00000000000E+00 0.  1.
          5    1    5    5  502    0  0.15892096935E+03  0.23347610193E+02 -0.10587118269E+03  0.19243643814E+03  0.47000000000E+01 0. -1.
         11    1    4    4    0    0 -0.27191023686E+02 -0.33385121632E+02 -0.12367561094E+03  0.13095638533E+03  0.00000000000E+00 0. -1.
        -12    1    4    4    0    0  0.73630766175E+01 -0.55648200033E+01  0.11620176326E+02  0.14839495167E+02  0.00000000000E+00 0.  1.
         -5    1    3    3    0  504 -0.14234258761E+03  0.11019962358E+02 -0.22343589031E+03  0.26519528446E+03  0.47000000000E+01 0.  1.
<mgrwt>
<rscale>  2 0.24572663E+03</rscale>
<asrwt>0</asrwt>
<pdfrwt beam="1">  1       21 0.18552459E-01 0.24856617E+03</pdfrwt>
<pdfrwt beam="2">  1       21 0.86107404E-01 0.24856617E+03</pdfrwt>
<totfact> 0.30006720E+04</totfact>
</mgrwt>
</event>
<event>
12    1  0.1410528E-001  0.1795729E+03  0.7546771E-02  0.1168307E+00
         21   -1    0    0  502  503  0.00000000000E+00  0.00000000000E+00  0.12072437933E+04  0.12072437933E+04  0.00000000000E+00 0.  1.
         21   -1    0    0  503  504 -0.00000000000E+00 -0.00000000000E+00 -0.83140327890E+02  0.83140327890E+02  0.00000000000E+00 0.  1.
         -6    2    1    2    0  504 -0.24717645925E+02 -0.40688139889E+02  0.30438043173E+02  0.18213433883E+03  0.17314720951E+03 0.  0.
        -24    2    3    3    0    0 -0.48455290566E+02 -0.48890692554E+01  0.73926994680E+02  0.12082831845E+03  0.82234201011E+02 0.  0.
          6    2    1    2  502    0  0.24717645925E+02  0.40688139889E+02  0.10936654222E+04  0.11082497823E+04  0.17276295190E+03 0.  0.
         24    2    5    5    0    0  0.16039561671E+02  0.66464473889E+01  0.10448105634E+04  0.10478922376E+04  0.78406539752E+02 0.  0.
          4    1    6    6  501    0 -0.28566887376E+02  0.18612386388E+02  0.45723289464E+03  0.45850235324E+03  0.00000000000E+00 0. -1.
         -3    1    6    6    0  501  0.44606449047E+02 -0.11965938999E+02  0.58757766872E+03  0.58938988435E+03  0.00000000000E+00 0.  1.
          5    1    5    5  502    0  0.86780842536E+01  0.34041692500E+02  0.48854858844E+02  0.60357544742E+02  0.47000000000E+01 0. -1.
         13    1    4    4    0    0  0.14910223815E+02  0.18746668857E+02  0.36141333595E+02  0.43358371297E+02  0.00000000000E+00 0. -1.
        -14    1    4    4    0    0 -0.63365514381E+02 -0.23635738113E+02  0.37785661085E+02  0.77469947157E+02  0.00000000000E+00 0.  1.
         -5    1    3    3    0  504  0.23737644641E+02 -0.35799070634E+02 -0.43488951507E+02  0.61306020378E+02  0.47000000000E+01 0.  1.
<mgrwt>
<rscale>  2 0.17948025E+03</rscale>
<asrwt>0</asrwt>
<pdfrwt beam="1">  1       21 0.18572980E+00 0.17957295E+03</pdfrwt>
<pdfrwt beam="2">  1       21 0.12790821E-01 0.17957295E+03</pdfrwt>
<totfact> 0.88099772E+03</totfact>
</mgrwt>
</event>
<event>
12    1  0.1410528E-001  0.2043754E+03  0.7546771E-02  0.1146291E+00
         21   -1    0    0  502  503  0.00000000000E+00  0.00000000000E+00  0.10228624547E+04  0.10228624547E+04  0.00000000000E+00 0. -1.
         21   -1    0    0  503  504 -0.00000000000E+00 -0.00000000000E+00 -0.41100589133E+02  0.41100589133E+02  0.00000000000E+00 0.  1.
         -6    2    1    2    0  504 -0.69689519703E+02  0.83265309149E+02  0.43625970458E+03  0.48175908867E+03  0.17314603319E+03 0.  0.
        -24    2    3    3    0    0  0.32646647775E+01  0.10023474317E+03  0.26149801911E+03  0.29156442147E+03  0.81061310696E+02 0.  0.
          6    2    1    2  502    0  0.69689519703E+02 -0.83265309149E+02  0.54550216098E+03  0.58220395516E+03  0.17204388075E+03 0.  0.
         24    2    5    5    0    0  0.62883621566E+00 -0.96850096299E+02  0.30552015559E+03  0.33206923675E+03  0.86873908234E+02 0.  0.
          4    1    6    6  501    0  0.31283718720E+02 -0.33792686285E+02  0.20101937993E+03  0.20622659337E+03  0.00000000000E+00 0. -1.
         -3    1    6    6    0  501 -0.30654882504E+02 -0.63057410013E+02  0.10450077566E+03  0.12584264338E+03  0.00000000000E+00 0.  1.
          5    1    5    5  502    0  0.69060683488E+02  0.13584787150E+02  0.23998200539E+03  0.25013471842E+03  0.47000000000E+01 0. -1.
         11    1    4    4    0    0  0.19524555269E+02  0.74165017604E+02  0.24493226186E+03  0.25665827669E+03  0.00000000000E+00 0. -1.
        -12    1    4    4    0    0 -0.16259890492E+02  0.26069725562E+02  0.16565757252E+02  0.34906144775E+02  0.00000000000E+00 0.  1.
         -5    1    3    3    0  504 -0.72954184481E+02 -0.16969434017E+02  0.17476168547E+03  0.19019466720E+03  0.47000000000E+01 0.  1.
<mgrwt>
<rscale>  2 0.20414174E+03</rscale>
<asrwt>0</asrwt>
<pdfrwt beam="1">  1       21 0.15736344E+00 0.20437536E+03</pdfrwt>
<pdfrwt beam="2">  1       21 0.63231683E-02 0.20437536E+03</pdfrwt>
<totfact> 0.47109325E+04</totfact>
</mgrwt>
</event>
<event>
12    1  0.1410528E-001  0.1840773E+03  0.7546771E-02  0.1164369E+00
         21   -1    0    0  502  503  0.00000000000E+00  0.00000000000E+00  0.63356887488E+03  0.63356887488E+03  0.00000000000E+00 0. -1.
         21   -1    0    0  503  504 -0.00000000000E+00 -0.00000000000E+00 -0.87657831591E+02  0.87657831591E+02  0.00000000000E+00 0. -1.
         -6    2    1    2    0  504  0.61699775088E+02 -0.15117566833E+02  0.45095053670E+02  0.18765280843E+03  0.17071792399E+03 0.  0.
        -24    2    3    3    0    0 -0.14916450133E+02  0.13413829920E+01 -0.25413954134E+02  0.82132416190E+02  0.76652233703E+02 0.  0.
          6    2    1    2  502    0 -0.61699775088E+02  0.15117566833E+02  0.50081598962E+03  0.53357389804E+03  0.17276876495E+03 0.  0.
         24    2    5    5    0    0  0.22262011111E+02  0.39436555512E+02  0.16999937416E+03  0.19137115431E+03  0.75314623014E+02 0.  0.
          2    1    6    6  501    0  0.41520005766E+02 -0.85785276516E+00  0.10070659226E+03  0.10893330306E+03  0.00000000000E+00 0. -1.
         -1    1    6    6    0  501 -0.19257994656E+02  0.40294408278E+02  0.69292781895E+02  0.82437851254E+02  0.00000000000E+00 0.  1.
          5    1    5    5  502    0 -0.83961786198E+02 -0.24318988680E+02  0.33081661546E+03  0.34220274373E+03  0.47000000000E+01 0. -1.
         13    1    4    4    0    0  0.62894942239E+01  0.13121107627E+02 -0.47283409427E+02  0.49471628334E+02  0.00000000000E+00 0. -1.
        -14    1    4    4    0    0 -0.21205944357E+02 -0.11779724635E+02  0.21869455294E+02  0.32660787856E+02  0.00000000000E+00 0.  1.
         -5    1    3    3    0  504  0.76616225221E+02 -0.16458949825E+02  0.70509007803E+02  0.10552039224E+03  0.47000000000E+01 0.  1.
<mgrwt>
<rscale>  2 0.18359453E+03</rscale>
<asrwt>0</asrwt>
<pdfrwt beam="1">  1       21 0.97472132E-01 0.18407729E+03</pdfrwt>
<pdfrwt beam="2">  1       21 0.13485821E-01 0.18407729E+03</pdfrwt>
<totfact> 0.41677864E+04</totfact>
</mgrwt>
</event>
<event>
12    1  0.1410528E-001  0.2073254E+03  0.7546771E-02  0.1143740E+00
         21   -1    0    0  502  503  0.00000000000E+00  0.00000000000E+00  0.11183351698E+04  0.11183351698E+04  0.00000000000E+00 0.  1.
         21   -1    0    0  503  504 -0.00000000000E+00 -0.00000000000E+00 -0.54575984571E+02  0.54575984571E+02  0.00000000000E+00 0. -1.
         -6    2    1    2    0  504 -0.10859134274E+03  0.35467485521E+02  0.21277344162E+03  0.29707973224E+03  0.17301389424E+03 0.  0.
        -24    2    3    3    0    0 -0.12768207774E+03  0.56368192988E+02  0.12366785084E+03  0.20346780968E+03  0.81396106110E+02 0.  0.
          6    2    1    2  502    0  0.10859134274E+03 -0.35467485521E+02  0.85098574357E+03  0.87583142209E+03  0.17278287508E+03 0.  0.
         24    2    5    5    0    0  0.22263978853E+02  0.38120137900E+02  0.44207255878E+03  0.45144994892E+03  0.80187776427E+02 0.  0.
          4    1    6    6  501    0 -0.22832738551E+01  0.58823433758E+02  0.26148523792E+03  0.26802973594E+03  0.00000000000E+00 0. -1.
         -3    1    6    6    0  501  0.24547252709E+02 -0.20703295858E+02  0.18058732086E+03  0.18342021298E+03  0.00000000000E+00 0.  1.
          5    1    5    5  502    0  0.86327363887E+02 -0.73587623421E+02  0.40891318479E+03  0.42438147317E+03  0.47000000000E+01 0. -1.
         11    1    4    4    0    0 -0.45758122120E+02 -0.13834647354E+01  0.84010916077E+02  0.95674206214E+02  0.00000000000E+00 0. -1.
        -12    1    4    4    0    0 -0.81923955619E+02  0.57751657723E+02  0.39656934759E+02  0.10779360347E+03  0.00000000000E+00 0.  1.
         -5    1    3    3    0  504  0.19090734999E+02 -0.20900707467E+02  0.89105590784E+02  0.93611922554E+02  0.47000000000E+01 0.  1.
<mgrwt>
<rscale>  2 0.20727722E+03</rscale>
<asrwt>0</asrwt>
<pdfrwt beam="1">  1       21 0.17205155E+00 0.20732542E+03</pdfrwt>
<pdfrwt beam="2">  1       21 0.83963061E-02 0.20732542E+03</pdfrwt>
<totfact> 0.22541661E+04</totfact>
</mgrwt>
</event>
<event>
12    1  0.1410528E-001  0.2047510E+03  0.7546771E-02  0.1146268E+00
         21   -1    0    0  502  503  0.00000000000E+00  0.00000000000E+00  0.62705271749E+03  0.62705271749E+03  0.00000000000E+00 0. -1.
         21   -1    0    0  503  504 -0.00000000000E+00 -0.00000000000E+00 -0.90868466711E+02  0.90868466711E+02  0.00000000000E+00 0. -1.
         -6    2    1    2    0  504 -0.91190597073E+02  0.44932182730E+02  0.79586749783E+02  0.21751710216E+03  0.17505717052E+03 0.  0.
        -24    2    3    3    0    0  0.94946702237E+01 -0.21246435437E+02  0.32578255553E+02  0.88099093043E+02  0.78476414792E+02 0.  0.
          6    2    1    2  502    0  0.91190597073E+02 -0.44932182730E+02  0.45659750100E+03  0.50040408205E+03  0.17773109287E+03 0.  0.
         24    2    5    5    0    0  0.89470709684E+02  0.32409778551E+02  0.31412735709E+03  0.33821724876E+03  0.81605816258E+02 0.  0.
          4    1    6    6  501    0  0.49038240424E+02 -0.21180534264E+02  0.18665658977E+03  0.19414954690E+03  0.00000000000E+00 0. -1.
         -3    1    6    6    0  501  0.40432469260E+02  0.53590312815E+02  0.12747076732E+03  0.14406770186E+03  0.00000000000E+00 0.  1.
          5    1    5    5  502    0  0.17198873896E+01 -0.77341961281E+02  0.14247014391E+03  0.16218683329E+03  0.47000000000E+01 0. -1.
         11    1    4    4    0    0 -0.20099073247E+02  0.72935144888E+01 -0.14317917109E+02  0.25732680570E+02  0.00000000000E+00 0. -1.
        -12    1    4    4    0    0  0.29593743471E+02 -0.28539949925E+02  0.46896172662E+02  0.62366412473E+02  0.00000000000E+00 0.  1.
         -5    1    3    3    0  504 -0.10068526730E+03  0.66178618166E+02  0.47008494230E+02  0.12941800911E+03  0.47000000000E+01 0.  1.
<mgrwt>
<rscale>  2 0.20416934E+03</rscale>
<asrwt>0</asrwt>
<pdfrwt beam="1">  1       21 0.96469646E-01 0.20475099E+03</pdfrwt>
<pdfrwt beam="2">  1       21 0.13979765E-01 0.20475099E+03</pdfrwt>
<totfact> 0.39579047E+04</totfact>
</mgrwt>
</event>
<event>
12    1  0.1410528E-001  0.2655018E+03  0.7546771E-02  0.1103900E+00
         21   -1    0    0  502  503  0.00000000000E+00  0.00000000000E+00  0.17932986940E+04  0.17932986940E+04  0.00000000000E+00 0.  1.
         21   -1    0    0  503  504 -0.00000000000E+00 -0.00000000000E+00 -0.40064612577E+02  0.40064612577E+02  0.00000000000E+00 0. -1.
         -6    2    1    2    0  504 -0.16791483686E+03 -0.11119205754E+03  0.74893434699E+03  0.79456152513E+03  0.17281867672E+03 0.  0.
        -24    2    3    3    0    0 -0.85199799732E+02 -0.17766063136E+02  0.20032676003E+03  0.23192259272E+03  0.77991277433E+02 0.  0.
          6    2    1    2  502    0  0.16791483686E+03  0.11119205754E+03  0.10042997345E+04  0.10388017815E+04  0.17300901262E+03 0.  0.
         24    2    5    5    0    0  0.17301799349E+03  0.69324681611E+02  0.94044692843E+03  0.96213242506E+03  0.80729428312E+02 0.  0.
          4    1    6    6  501    0  0.56523165374E+02  0.29594210753E+02  0.16369911813E+03  0.17569316096E+03  0.00000000000E+00 0. -1.
         -3    1    6    6    0  501  0.11649482812E+03  0.39730470859E+02  0.77674781031E+03  0.78643926409E+03  0.00000000000E+00 0.  1.
          5    1    5    5  502    0 -0.51031566296E+01  0.41867375931E+02  0.63852806021E+02  0.76669356406E+02  0.47000000000E+01 0. -1.
         13    1    4    4    0    0 -0.44228497404E+01 -0.34148336399E+02  0.60373989473E+02  0.69503158803E+02  0.00000000000E+00 0. -1.
        -14    1    4    4    0    0 -0.80776949992E+02  0.16382273263E+02  0.13995277055E+03  0.16241943391E+03  0.00000000000E+00 0.  1.
         -5    1    3    3    0  504 -0.82715037131E+02 -0.93425994406E+02  0.54860758696E+03  0.56263893242E+03  0.47000000000E+01 0.  1.
<mgrwt>
<rscale>  2 0.26547076E+03</rscale>
<asrwt>0</asrwt>
<pdfrwt beam="1">  1       21 0.27589204E+00 0.26550176E+03</pdfrwt>
<pdfrwt beam="2">  1       21 0.61637879E-02 0.26550176E+03</pdfrwt>
<totfact> 0.82923821E+03</totfact>
</mgrwt>
</event>
<event>
12    1  0.1410528E-001  0.1906528E+03  0.7546771E-02  0.1160785E+00
         21   -1    0    0  502  503  0.00000000000E+00  0.00000000000E+00  0.17865727641E+02  0.17865727641E+02  0.00000000000E+00 0.  1.
         21   -1    0    0  503  504 -0.00000000000E+00 -0.00000000000E+00 -0.19719224708E+04  0.19719224708E+04  0.00000000000E+00 0.  1.
         -6    2    1    2    0  504  0.71808324774E+02  0.33721456545E+02 -0.11945326638E+04  0.12096515116E+04  0.17336355640E+03 0.  0.
        -24    2    3    3    0    0  0.70744643092E+02 -0.41062761264E+02 -0.63980762934E+03  0.64988748595E+03  0.79429131533E+02 0.  0.
          6    2    1    2  502    0 -0.71808324774E+02 -0.33721456545E+02 -0.75952407942E+03  0.78013668682E+03  0.15950815267E+03 0.  0.
         24    2    5    5    0    0 -0.10711124554E+03 -0.30047033118E+02 -0.66986566485E+03  0.68359385226E+03  0.78771205298E+02 0.  0.
          4    1    6    6  501    0 -0.78696389745E+02  0.13477669145E+02 -0.48630274275E+03  0.49281348087E+03  0.00000000000E+00 0. -1.
         -3    1    6    6    0  501 -0.28414855791E+02 -0.43524702263E+02 -0.18356292210E+03  0.19078037139E+03  0.00000000000E+00 0.  1.
          5    1    5    5  502    0  0.35302920763E+02 -0.36744234264E+01 -0.89658414576E+02  0.96542834567E+02  0.47000000000E+01 0. -1.
         13    1    4    4    0    0  0.77932346754E+02 -0.41243892117E+02 -0.63532553966E+03  0.64141488185E+03  0.00000000000E+00 0. -1.
        -14    1    4    4    0    0 -0.71877036618E+01  0.18113085296E+00 -0.44820896789E+01  0.84726040982E+01  0.00000000000E+00 0.  1.
         -5    1    3    3    0  504  0.10636816814E+01  0.74784217808E+02 -0.55472503441E+03  0.55976402569E+03  0.47000000000E+01 0.  1.
<mgrwt>
<rscale>  2 0.18744642E+03</rscale>
<asrwt>0</asrwt>
<pdfrwt beam="1">  1       21 0.27485745E-02 0.19065281E+03</pdfrwt>
<pdfrwt beam="2">  1       21 0.30337258E+00 0.19065281E+03</pdfrwt>
<totfact> 0.23914884E+04</totfact>
</mgrwt>
</event>
<event>
12    1  0.1410528E-001  0.1826755E+03  0.7546771E-02  0.1166955E+00
         21   -1    0    0  502  503  0.00000000000E+00  0.00000000000E+00  0.14996184033E+03  0.14996184033E+03  0.00000000000E+00 0.  1.
         21   -1    0    0  503  504 -0.00000000000E+00 -0.00000000000E+00 -0.28215527187E+03  0.28215527187E+03  0.00000000000E+00 0.  1.
         -6    2    1    2    0  504  0.33798378331E+02 -0.11642108784E+02 -0.17327118160E+03  0.25178013289E+03  0.17914369615E+03 0.  0.
        -24    2    3    3    0    0  0.62364122590E+02 -0.52139201530E+02 -0.65762722998E+02  0.13330576884E+03  0.82691669161E+02 0.  0.
          6    2    1    2  502    0 -0.33798378331E+02  0.11642108784E+02  0.41077750058E+02  0.18033697931E+03  0.17191909575E+03 0.  0.
         24    2    5    5    0    0 -0.59417707911E+01 -0.23377286628E+02 -0.40469197242E+02  0.87200824931E+02  0.73378646574E+02 0.  0.
          2    1    6    6  501    0  0.29975706166E+02 -0.10163036710E+02 -0.37121449217E+02  0.48783524548E+02  0.00000000000E+00 0. -1.
         -1    1    6    6    0  501 -0.35917476958E+02 -0.13214249918E+02 -0.33477480252E+01  0.38417300383E+02  0.00000000000E+00 0.  1.
          5    1    5    5  502    0 -0.27856607539E+02  0.35019395412E+02  0.81546947300E+02  0.93136154379E+02  0.47000000000E+01 0. -1.
         11    1    4    4    0    0 -0.14575475332E+02  0.37262404139E+01  0.37726983726E+01  0.15510080651E+02  0.00000000000E+00 0. -1.
        -12    1    4    4    0    0  0.76939597922E+02 -0.55865441943E+02 -0.69535421370E+02  0.11779568819E+03  0.00000000000E+00 0.  1.
         -5    1    3    3    0  504 -0.28565744259E+02  0.40497092746E+02 -0.10750845860E+03  0.11847436405E+03  0.47000000000E+01 0.  1.
<mgrwt>
<rscale>  2 0.18087936E+03</rscale>
<asrwt>0</asrwt>
<pdfrwt beam="1">  1       21 0.23071053E-01 0.18267549E+03</pdfrwt>
<pdfrwt beam="2">  1       21 0.43408503E-01 0.18267549E+03</pdfrwt>
<totfact> 0.90364482E+04</totfact>
</mgrwt>
</event>
<event>
12    1  0.1410528E-001  0.1742423E+03  0.7546771E-02  0.1173828E+00
         21   -1    0    0  502  503  0.00000000000E+00  0.00000000000E+00  0.51701190575E+03  0.51701190575E+03  0.00000000000E+00 0.  1.
         21   -1    0    0  503  504 -0.00000000000E+00 -0.00000000000E+00 -0.58365744543E+02  0.58365744543E+02  0.00000000000E+00 0.  1.
         -6    2    1    2    0  504 -0.14651280709E+02 -0.15207503708E+02  0.23947753497E+03  0.29538610588E+03  0.17163197138E+03 0.  0.
        -24    2    3    3    0    0  0.84397401744E+01  0.55974785755E+02  0.13601386324E+03  0.16760921068E+03  0.79929160252E+02 0.  0.
          6    2    1    2  502    0  0.14651280709E+02  0.15207503708E+02  0.21916862624E+03  0.27999154441E+03  0.17295794292E+03 0.  0.
         24    2    5    5    0    0  0.76799186901E+02  0.16263246537E+02  0.13295843651E+03  0.17360656591E+03  0.79364258910E+02 0.  0.
          2    1    6    6  501    0  0.54529582531E+02  0.30029643350E+02  0.13362819153E+03  0.14741692041E+03  0.00000000000E+00 0. -1.
         -1    1    6    6    0  501  0.22269604371E+02 -0.13766396813E+02 -0.66975501811E+00  0.26189645508E+02  0.00000000000E+00 0.  1.
          5    1    5    5  502    0 -0.62147906192E+02 -0.10557428286E+01  0.86210189729E+02  0.10638497850E+03  0.47000000000E+01 0. -1.
         13    1    4    4    0    0 -0.71485898165E+01 -0.16374350355E+02  0.76447795475E+01  0.19433587941E+02  0.00000000000E+00 0. -1.
        -14    1    4    4    0    0  0.15588329991E+02  0.72349136110E+02  0.12836908369E+03  0.14817562274E+03  0.00000000000E+00 0.  1.
         -5    1    3    3    0  504 -0.23091020883E+02 -0.71182289463E+02  0.10346367173E+03  0.12777689520E+03  0.47000000000E+01 0.  1.
<mgrwt>
<rscale>  2 0.17391233E+03</rscale>
<asrwt>0</asrwt>
<pdfrwt beam="1">  1       21 0.79540290E-01 0.17424230E+03</pdfrwt>
<pdfrwt beam="2">  1       21 0.89793457E-02 0.17424230E+03</pdfrwt>
<totfact> 0.13755941E+05</totfact>
</mgrwt>
</event>
<event>
12    1  0.1410528E-001  0.1954547E+03  0.7546771E-02  0.1154480E+00
         21   -1    0    0  502  503  0.00000000000E+00  0.00000000000E+00  0.19394486487E+04  0.19394486487E+04  0.00000000000E+00 0.  1.
         21   -1    0    0  503  504 -0.00000000000E+00 -0.00000000000E+00 -0.19313242005E+02  0.19313242005E+02  0.00000000000E+00 0.  1.
         -6    2    1    2    0  504 -0.81502604957E+02  0.13151085882E+01  0.98152423842E+03  0.10007958603E+04  0.17764605040E+03 0.  0.
        -24    2    3    3    0    0 -0.90795060103E+01 -0.62443044466E+02  0.49511435067E+03  0.50488571092E+03  0.76090667076E+02 0.  0.
          6    2    1    2  502    0  0.81502604957E+02 -0.13151085882E+01  0.93861116827E+03  0.95796603042E+03  0.17338854088E+03 0.  0.
         24    2    5    5    0    0  0.93987203145E+01 -0.23034354066E+01  0.20038557460E+03  0.21621198485E+03  0.80620109935E+02 0.  0.
          2    1    6    6  501    0 -0.45663572278E+01  0.29642595565E+02  0.30463641166E+02  0.42750070448E+02  0.00000000000E+00 0. -1.
         -1    1    6    6    0  501  0.13965077542E+02 -0.31946030972E+02  0.16992193343E+03  0.17346191440E+03  0.00000000000E+00 0.  1.
          5    1    5    5  502    0  0.72103884643E+02  0.98832681848E+00  0.73822559367E+03  0.74175404557E+03  0.47000000000E+01 0. -1.
         13    1    4    4    0    0 -0.35635873285E+02 -0.62851676686E+02  0.36825984247E+03  0.37528064206E+03  0.00000000000E+00 0. -1.
        -14    1    4    4    0    0  0.26556367275E+02  0.40863221998E+00  0.12685450820E+03  0.12960506886E+03  0.00000000000E+00 0.  1.
         -5    1    3    3    0  504 -0.72423098947E+02  0.63758153054E+02  0.48640988775E+03  0.49591014936E+03  0.47000000000E+01 0.  1.
<mgrwt>
<rscale>  2 0.19448208E+03</rscale>
<asrwt>0</asrwt>
<pdfrwt beam="1">  1       21 0.29837656E+00 0.19545466E+03</pdfrwt>
<pdfrwt beam="2">  1       21 0.29712695E-02 0.19545466E+03</pdfrwt>
<totfact> 0.22361301E+04</totfact>
</mgrwt>
</event>
<event>
12    1  0.1410528E-001  0.1983002E+03  0.7546771E-02  0.1151354E+00
         21   -1    0    0  502  503  0.00000000000E+00  0.00000000000E+00  0.67455752063E+02  0.67455752063E+02  0.00000000000E+00 0. -1.
         21   -1    0    0  503  504 -0.00000000000E+00 -0.00000000000E+00 -0.66403596607E+03  0.66403596607E+03  0.00000000000E+00 0.  1.
         -6    2    1    2    0  504 -0.84706199447E+02  0.52213760853E+02 -0.16808585461E+03  0.25933668359E+03  0.17059086696E+03 0.  0.
        -24    2    3    3    0    0 -0.15571710283E+02  0.53174051539E+01 -0.15046582967E+02  0.84917778555E+02  0.81938248072E+02 0.  0.
          6    2    1    2  502    0  0.84706199447E+02 -0.52213760853E+02 -0.42849435940E+03  0.47215503455E+03  0.17152709278E+03 0.  0.
         24    2    5    5    0    0  0.42846018266E+02  0.37568451833E+02 -0.23047531486E+03  0.25069002041E+03  0.80495004317E+02 0.  0.
          2    1    6    6  501    0  0.63341121538E+02  0.25205171963E+02 -0.20355743975E+03  0.21466958249E+03  0.00000000000E+00 0. -1.
         -1    1    6    6    0  501 -0.20495103272E+02  0.12363279869E+02 -0.26917875110E+02  0.36020437916E+02  0.00000000000E+00 0.  1.
          5    1    5    5  502    0  0.41860181180E+02 -0.89782212685E+02 -0.19801904455E+03  0.22146501414E+03  0.47000000000E+01 0. -1.
         13    1    4    4    0    0  0.12048067444E+02 -0.26742371110E+02 -0.28114757113E+02  0.40629421719E+02  0.00000000000E+00 0. -1.
        -14    1    4    4    0    0 -0.27619777727E+02  0.32059776264E+02  0.13068174146E+02  0.44288356836E+02  0.00000000000E+00 0.  1.
         -5    1    3    3    0  504 -0.69134489164E+02  0.46896355699E+02 -0.15303927164E+03  0.17441890504E+03  0.47000000000E+01 0.  1.
<mgrwt>
<rscale>  2 0.19809755E+03</rscale>
<asrwt>0</asrwt>
<pdfrwt beam="1">  1       21 0.10377808E-01 0.19830018E+03</pdfrwt>
<pdfrwt beam="2">  1       21 0.10215938E+00 0.19830018E+03</pdfrwt>
<totfact> 0.59125308E+04</totfact>
</mgrwt>
</event>
<event>
12    1  0.1410528E-001  0.1962035E+03  0.7546771E-02  0.1153115E+00
         21   -1    0    0  502  503  0.00000000000E+00  0.00000000000E+00  0.56147569397E+03  0.56147569397E+03  0.00000000000E+00 0. -1.
         21   -1    0    0  503  504 -0.00000000000E+00 -0.00000000000E+00 -0.82791381226E+02  0.82791381226E+02  0.00000000000E+00 0. -1.
         -6    2    1    2    0  504  0.73455534965E+02 -0.56883173216E+02  0.37419556524E+03  0.42251408502E+03  0.17281325176E+03 0.  0.
        -24    2    3    3    0    0  0.57083930411E+02 -0.36189305330E+02  0.38090140322E+03  0.39488576863E+03  0.79250554297E+02 0.  0.
          6    2    1    2  502    0 -0.73455534965E+02  0.56883173216E+02  0.10448874751E+03  0.22175299018E+03  0.17211937510E+03 0.  0.
         24    2    5    5    0    0 -0.40258868581E+02  0.44590177291E+02  0.13971578545E+03  0.17159154472E+03  0.79461293137E+02 0.  0.
          4    1    6    6  501    0 -0.97891468545E+01  0.50504396160E+02  0.34620946510E+02  0.62009123239E+02  0.00000000000E+00 0. -1.
         -3    1    6    6    0  501 -0.30469721727E+02 -0.59142188691E+01  0.10509483894E+03  0.10958242148E+03  0.00000000000E+00 0.  1.
          5    1    5    5  502    0 -0.33196666383E+02  0.12292995925E+02 -0.35227037941E+02  0.50161445453E+02  0.47000000000E+01 0. -1.
         11    1    4    4    0    0  0.60030152571E+02 -0.94673675304E-01  0.15720097055E+03  0.16827291322E+03  0.00000000000E+00 0. -1.
        -12    1    4    4    0    0 -0.29462221602E+01 -0.36094631655E+02  0.22370043268E+03  0.22661285541E+03  0.00000000000E+00 0.  1.
         -5    1    3    3    0  504  0.16371604554E+02 -0.20693867886E+02 -0.67058379827E+01  0.27628316394E+02  0.47000000000E+01 0.  1.
<mgrwt>
<rscale>  2 0.19605065E+03</rscale>
<asrwt>0</asrwt>
<pdfrwt beam="1">  1       21 0.86380874E-01 0.19620354E+03</pdfrwt>
<pdfrwt beam="2">  1       21 0.12737136E-01 0.19620354E+03</pdfrwt>
<totfact> 0.60794885E+04</totfact>
</mgrwt>
</event>
<event>
12    1  0.1410528E-001  0.1946009E+03  0.7546771E-02  0.1154735E+00
         21   -1    0    0  502  503  0.00000000000E+00  0.00000000000E+00  0.83956861423E+02  0.83956861423E+02  0.00000000000E+00 0.  1.
         21   -1    0    0  503  504 -0.00000000000E+00 -0.00000000000E+00 -0.48312158710E+03  0.48312158710E+03  0.00000000000E+00 0.  1.
         -6    2    1    2    0  504 -0.70514132610E+02  0.52877554965E+02 -0.27759895799E+03  0.33901428432E+03  0.17349704546E+03 0.  0.
        -24    2    3    3    0    0 -0.58989063191E+02  0.10605455507E+02 -0.27721303603E+03  0.29494619435E+03  0.80956809212E+02 0.  0.
          6    2    1    2  502    0  0.70514132610E+02 -0.52877554965E+02 -0.12156576769E+03  0.22806416420E+03  0.17165881393E+03 0.  0.
         24    2    5    5    0    0  0.31967781033E+02 -0.94612906905E+02 -0.49239394280E+02  0.13597260589E+03  0.78041594207E+02 0.  0.
          2    1    6    6  501    0  0.15046619100E+02 -0.87523757777E+02 -0.60094321615E+01  0.89010798202E+02  0.00000000000E+00 0. -1.
         -1    1    6    6    0  501  0.16921161933E+02 -0.70891491277E+01 -0.43229962119E+02  0.46961807688E+02  0.00000000000E+00 0.  1.
          5    1    5    5  502    0  0.38546351577E+02  0.41735351939E+02 -0.72326373406E+02  0.92091558307E+02  0.47000000000E+01 0. -1.
         11    1    4    4    0    0 -0.17891682956E+02  0.37741342385E+02 -0.19231394883E+03  0.19679729713E+03  0.00000000000E+00 0. -1.
        -12    1    4    4    0    0 -0.41097380236E+02 -0.27135886879E+02 -0.84899087199E+02  0.98148897223E+02  0.00000000000E+00 0.  1.
         -5    1    3    3    0  504 -0.11525069419E+02  0.42272099458E+02 -0.38592195987E+00  0.44068089969E+02  0.47000000000E+01 0.  1.
<mgrwt>
<rscale>  2 0.19419031E+03</rscale>
<asrwt>0</asrwt>
<pdfrwt beam="1">  1       21 0.12916440E-01 0.19460088E+03</pdfrwt>
<pdfrwt beam="2">  1       21 0.74326398E-01 0.19460088E+03</pdfrwt>
<totfact> 0.83356498E+04</totfact>
</mgrwt>
</event>
<event>
12    1  0.1410528E-001  0.2383426E+03  0.7546771E-02  0.1120981E+00
         21   -1    0    0  502  503  0.00000000000E+00  0.00000000000E+00  0.63830615028E+03  0.63830615028E+03  0.00000000000E+00 0. -1.
         21   -1    0    0  503  504 -0.00000000000E+00 -0.00000000000E+00 -0.88838577667E+02  0.88838577667E+02  0.00000000000E+00 0. -1.
         -6    2    1    2    0  504 -0.44606755502E+02  0.15782886507E+03  0.26939116846E+03  0.35938123859E+03  0.17228917470E+03 0.  0.
        -24    2    3    3    0    0 -0.36967697301E+02  0.14371443299E+02  0.64807629282E+02  0.10935143721E+03  0.78641967050E+02 0.  0.
          6    2    1    2  502    0  0.44606755502E+02 -0.15782886507E+03  0.28007640415E+03  0.36776348936E+03  0.17293778839E+03 0.  0.
         24    2    5    5    0    0  0.69827861371E+02 -0.17327081182E+03  0.21678963059E+03  0.29775017913E+03  0.82211439525E+02 0.  0.
          4    1    6    6  501    0  0.72612851655E+02 -0.18142867783E+03  0.20904156943E+03  0.28615969163E+03  0.00000000000E+00 0. -1.
         -3    1    6    6    0  501 -0.27849902840E+01  0.81578660109E+01  0.77480611624E+01  0.11590487501E+02  0.00000000000E+00 0.  1.
          5    1    5    5  502    0 -0.25221105869E+02  0.15441946749E+02  0.63286773564E+02  0.70013310226E+02  0.47000000000E+01 0. -1.
         13    1    4    4    0    0  0.11413550984E+02  0.32607479906E+02  0.15357692671E+02  0.37807084205E+02  0.00000000000E+00 0. -1.
        -14    1    4    4    0    0 -0.48381248286E+02 -0.18236036606E+02  0.49449936611E+02  0.71544353010E+02  0.00000000000E+00 0.  1.
         -5    1    3    3    0  504 -0.76390582006E+01  0.14345742177E+03  0.20458353918E+03  0.25002980137E+03  0.47000000000E+01 0.  1.
<mgrwt>
<rscale>  2 0.23822496E+03</rscale>
<asrwt>0</asrwt>
<pdfrwt beam="1">  1       21 0.98200943E-01 0.23834259E+03</pdfrwt>
<pdfrwt beam="2">  1       21 0.13667474E-01 0.23834259E+03</pdfrwt>
<totfact> 0.38889060E+04</totfact>
</mgrwt>
</event>
<event>
12    1  0.1410528E-001  0.1990155E+03  0.7546771E-02  0.1154559E+00
         21   -1    0    0  502  503  0.00000000000E+00  0.00000000000E+00  0.12780817443E+03  0.12780817443E+03  0.00000000000E+00 0.  1.
         21   -1    0    0  503  504 -0.00000000000E+00 -0.00000000000E+00 -0.32115910812E+03  0.32115910812E+03  0.00000000000E+00 0.  1.
         -6    2    1    2    0  504 -0.98890599011E+01  0.50643827495E+02 -0.17827383255E+03  0.26718671394E+03  0.19220975513E+03 0.  0.
        -24    2    3    3    0    0 -0.84152140528E+02  0.35151515361E+02 -0.11149615621E+03  0.16601179148E+03  0.82530662613E+02 0.  0.
          6    2    1    2  502    0  0.98890599011E+01 -0.50643827495E+02 -0.15077101142E+02  0.18178056861E+03  0.17364983552E+03 0.  0.
         24    2    5    5    0    0 -0.30613120455E+02 -0.64103915120E+02 -0.58549466852E+02  0.12067789147E+03  0.78029727309E+02 0.  0.
          4    1    6    6  501    0  0.45348913020E+01 -0.50725589387E+02 -0.64943029508E+02  0.82530283772E+02  0.00000000000E+00 0. -1.
         -3    1    6    6    0  501 -0.35148011757E+02 -0.13378325733E+02  0.63935626559E+01  0.38147607701E+02  0.00000000000E+00 0.  1.
          5    1    5    5  502    0  0.40502180356E+02  0.13460087626E+02  0.43472365709E+02  0.61102677133E+02  0.47000000000E+01 0. -1.
         11    1    4    4    0    0 -0.89801536553E+02  0.48429792728E+02 -0.11208734556E+03  0.15156956761E+03  0.00000000000E+00 0. -1.
        -12    1    4    4    0    0  0.56493960252E+01 -0.13278277367E+02  0.59118934931E+00  0.14442223864E+02  0.00000000000E+00 0.  1.
         -5    1    3    3    0  504  0.74263080627E+02  0.15492312134E+02 -0.66777676337E+02  0.10117492247E+03  0.47000000000E+01 0.  1.
<mgrwt>
<rscale>  2 0.19439153E+03</rscale>
<asrwt>0</asrwt>
<pdfrwt beam="1">  1       21 0.19662796E-01 0.19901553E+03</pdfrwt>
<pdfrwt beam="2">  1       21 0.49409093E-01 0.19901553E+03</pdfrwt>
<totfact> 0.92824970E+04</totfact>
</mgrwt>
</event>
<event>
12    1  0.1410528E-001  0.2733309E+03  0.7546771E-02  0.1099446E+00
         21   -1    0    0  502  503  0.00000000000E+00  0.00000000000E+00  0.25506081050E+03  0.25506081050E+03  0.00000000000E+00 0.  1.
         21   -1    0    0  503  504 -0.00000000000E+00 -0.00000000000E+00 -0.55404272795E+03  0.55404272795E+03  0.00000000000E+00 0.  1.
         -6    2    1    2    0  504  0.67420495364E+02  0.20014242305E+03 -0.42751909662E+03  0.50742721692E+03  0.17351452331E+03 0.  0.
        -24    2    3    3    0    0  0.72316358064E+01  0.61158868465E+02 -0.83843450388E+02  0.13182880495E+03  0.80971636357E+02 0.  0.
          6    2    1    2  502    0 -0.67420495364E+02 -0.20014242305E+03  0.12853717916E+03  0.30167632153E+03  0.17287071424E+03 0.  0.
         24    2    5    5    0    0  0.13574013293E+02 -0.93373276342E+02  0.12857076277E+01  0.11681207910E+03  0.68851915059E+02 0.  0.
          2    1    6    6  501    0 -0.21557147354E+02 -0.38265196439E+02 -0.19750610837E+02  0.48156230013E+02  0.00000000000E+00 0. -1.
         -1    1    6    6    0  501  0.35131160648E+02 -0.55108079902E+02  0.21036318465E+02  0.68655849085E+02  0.00000000000E+00 0.  1.
          5    1    5    5  502    0 -0.80994508657E+02 -0.10676914671E+03  0.12725147153E+03  0.18486424243E+03  0.47000000000E+01 0. -1.
         13    1    4    4    0    0 -0.23130388925E+02  0.52095668964E+02 -0.82292387303E+02  0.10010499800E+03  0.00000000000E+00 0. -1.
        -14    1    4    4    0    0  0.30362024731E+02  0.90631995013E+01 -0.15510630847E+01  0.31723806954E+02  0.00000000000E+00 0.  1.
         -5    1    3    3    0  504  0.60188859557E+02  0.13898355459E+03 -0.34367564623E+03  0.37559841197E+03  0.47000000000E+01 0.  1.
<mgrwt>
<rscale>  2 0.27322882E+03</rscale>
<asrwt>0</asrwt>
<pdfrwt beam="1">  1       21 0.39240125E-01 0.27333094E+03</pdfrwt>
<pdfrwt beam="2">  1       21 0.85237341E-01 0.27333094E+03</pdfrwt>
<totfact> 0.70822103E+03</totfact>
</mgrwt>
</event>
<event>
12    1  0.1410528E-001  0.1872744E+03  0.7546771E-02  0.1161281E+00
         21   -1    0    0  502  503  0.00000000000E+00  0.00000000000E+00  0.20521942300E+03  0.20521942300E+03  0.00000000000E+00 0.  1.
         21   -1    0    0  503  504 -0.00000000000E+00 -0.00000000000E+00 -0.20750187890E+03  0.20750187890E+03  0.00000000000E+00 0.  1.
         -6    2    1    2    0  504  0.36184933965E+02  0.58154660364E+02  0.87090777628E+02  0.20653454696E+03  0.17429974634E+03 0.  0.
        -24    2    3    3    0    0  0.60918637839E+02  0.14178816740E+02  0.11230286491E+03  0.14993622301E+03  0.77180426426E+02 0.  0.
          6    2    1    2  502    0 -0.36184933965E+02 -0.58154660364E+02 -0.89373233534E+02  0.20618675494E+03  0.17272547314E+03 0.  0.
         24    2    5    5    0    0  0.16785775857E+02  0.17066449221E+02 -0.93616499722E+01  0.84170137503E+02  0.80149520254E+02 0.  0.
          4    1    6    6  501    0  0.26781810347E+02  0.45435909045E+02 -0.25333959424E+00  0.52742311072E+02  0.00000000000E+00 0. -1.
         -3    1    6    6    0  501 -0.99960344904E+01 -0.28369459824E+02 -0.91083103780E+01  0.31427826431E+02  0.00000000000E+00 0.  1.
          5    1    5    5  502    0 -0.52970709822E+02 -0.75221109584E+02 -0.80011583561E+02  0.12201661743E+03  0.47000000000E+01 0. -1.
         13    1    4    4    0    0  0.21868149428E+02  0.25810293673E+01 -0.76060725383E+01  0.23296566516E+02  0.00000000000E+00 0. -1.
        -14    1    4    4    0    0  0.39050488411E+02  0.11597787373E+02  0.11990893745E+03  0.12663965649E+03  0.00000000000E+00 0.  1.
         -5    1    3    3    0  504 -0.24733703874E+02  0.43975843623E+02 -0.25212087279E+02  0.56598323957E+02  0.47000000000E+01 0.  1.
<mgrwt>
<rscale>  2 0.18690728E+03</rscale>
<asrwt>0</asrwt>
<pdfrwt beam="1">  1       21 0.31572219E-01 0.18727444E+03</pdfrwt>
<pdfrwt beam="2">  1       21 0.31923366E-01 0.18727444E+03</pdfrwt>
<totfact> 0.91192439E+04</totfact>
</mgrwt>
</event>
<event>
12    1  0.1410528E-001  0.1746060E+03  0.7546771E-02  0.1173962E+00
         21   -1    0    0  502  503  0.00000000000E+00  0.00000000000E+00  0.19318901350E+04  0.19318901350E+04  0.00000000000E+00 0.  1.
         21   -1    0    0  503  504 -0.00000000000E+00 -0.00000000000E+00 -0.16583371140E+02  0.16583371140E+02  0.00000000000E+00 0.  1.
         -6    2    1    2    0  504 -0.29447217998E+02 -0.13170851216E+02  0.71552274692E+03  0.73651888589E+03  0.17160028541E+03 0.  0.
        -24    2    3    3    0    0  0.38063542506E+02 -0.56359487402E+01  0.55598574834E+03  0.56305816569E+03  0.80210650204E+02 0.  0.
          6    2    1    2  502    0  0.29447217998E+02  0.13170851216E+02  0.11997840169E+04  0.12119546202E+04  0.16826082209E+03 0.  0.
         24    2    5    5    0    0  0.30510189797E+02  0.33290468963E+02  0.35016734209E+03  0.36208609328E+03  0.80312168935E+02 0.  0.
          4    1    6    6  501    0  0.32659545031E+01  0.27397722348E+01 -0.38294981625E+01  0.57304333948E+01  0.00000000000E+00 0. -1.
         -3    1    6    6    0  501  0.27244235294E+02  0.30550696729E+02  0.35399684025E+03  0.35635565989E+03  0.00000000000E+00 0.  1.
          5    1    5    5  502    0 -0.10629717992E+01 -0.20119617748E+02  0.84961667483E+03  0.84986852694E+03  0.47000000000E+01 0. -1.
         11    1    4    4    0    0 -0.10563667975E+02 -0.26173327286E+02  0.96282756789E+02  0.10033445768E+03  0.00000000000E+00 0. -1.
        -12    1    4    4    0    0  0.48627210481E+02  0.20537378545E+02  0.45970299155E+03  0.46272370801E+03  0.00000000000E+00 0.  1.
         -5    1    3    3    0  504 -0.67510760504E+02 -0.75349024753E+01  0.15953699858E+03  0.17346072021E+03  0.47000000000E+01 0.  1.
<mgrwt>
<rscale>  2 0.17377998E+03</rscale>
<asrwt>0</asrwt>
<pdfrwt beam="1">  1       21 0.29721369E+00 0.17460604E+03</pdfrwt>
<pdfrwt beam="2">  1       21 0.25512894E-02 0.17460604E+03</pdfrwt>
<totfact> 0.29801167E+04</totfact>
</mgrwt>
</event>
<event>
12    1  0.1410528E-001  0.2091846E+03  0.7546771E-02  0.1142924E+00
         21   -1    0    0  502  503  0.00000000000E+00  0.00000000000E+00  0.15577301311E+03  0.15577301311E+03  0.00000000000E+00 0. -1.
         21   -1    0    0  503  504 -0.00000000000E+00 -0.00000000000E+00 -0.41274324226E+03  0.41274324226E+03  0.00000000000E+00 0. -1.
         -6    2    1    2    0  504 -0.11019992413E+03  0.14904801329E+01 -0.29125613877E+03  0.35654053302E+03  0.17362248847E+03 0.  0.
        -24    2    3    3    0    0 -0.60518966868E+02 -0.59026514964E+02 -0.11475300641E+03  0.16339305065E+03  0.79889684577E+02 0.  0.
          6    2    1    2  502    0  0.11019992413E+03 -0.14904801329E+01  0.34285909624E+02  0.21197572235E+03  0.17779746470E+03 0.  0.
         24    2    5    5    0    0  0.67305623562E+02 -0.45476384838E+02 -0.33487517833E+02  0.12037873384E+03  0.82288985709E+02 0.  0.
          2    1    6    6  501    0  0.35950881833E+02 -0.34923557065E+02  0.22820075752E+02  0.55071558902E+02  0.00000000000E+00 0. -1.
         -1    1    6    6    0  501  0.31354741729E+02 -0.10552827773E+02 -0.56307593585E+02  0.65307174937E+02  0.00000000000E+00 0.  1.
          5    1    5    5  502    0  0.42894300572E+02  0.43985904705E+02  0.67773427457E+02  0.91596988507E+02  0.47000000000E+01 0. -1.
         13    1    4    4    0    0 -0.80105434620E+02 -0.51371431081E+02 -0.91017306139E+02  0.13168164110E+03  0.00000000000E+00 0. -1.
        -14    1    4    4    0    0  0.19586467752E+02 -0.76550838832E+01 -0.23735700266E+02  0.31711409545E+02  0.00000000000E+00 0.  1.
         -5    1    3    3    0  504 -0.49680957266E+02  0.60516995097E+02 -0.17650313237E+03  0.19314748237E+03  0.47000000000E+01 0.  1.
<mgrwt>
<rscale>  2 0.20829471E+03</rscale>
<asrwt>0</asrwt>
<pdfrwt beam="1">  1       21 0.23965079E-01 0.20918457E+03</pdfrwt>
<pdfrwt beam="2">  1       21 0.63498960E-01 0.20918457E+03</pdfrwt>
<totfact> 0.37319670E+04</totfact>
</mgrwt>
</event>
<event>
12    1  0.1410528E-001  0.1748265E+03  0.7546771E-02  0.1173009E+00
         21   -1    0    0  502  503  0.00000000000E+00  0.00000000000E+00  0.99975253670E+02  0.99975253670E+02  0.00000000000E+00 0.  1.
         21   -1    0    0  503  504 -0.00000000000E+00 -0.00000000000E+00 -0.31416427721E+03  0.31416427721E+03  0.00000000000E+00 0.  1.
         -6    2    1    2    0  504 -0.10184042681E+02 -0.20947515604E+02 -0.14258093715E+03  0.22559614254E+03  0.17326795075E+03 0.  0.
        -24    2    3    3    0    0 -0.42971035209E+01  0.74677259605E+01 -0.43927069825E+00  0.80446477206E+02  0.79982565015E+02 0.  0.
          6    2    1    2  502    0  0.10184042681E+02  0.20947515604E+02 -0.71608086389E+02  0.18854338834E+03  0.17285363205E+03 0.  0.
         24    2    5    5    0    0  0.25300743051E+01  0.55858495497E+02 -0.10023441737E+03  0.14251169736E+03  0.84475278409E+02 0.  0.
          2    1    6    6  501    0 -0.31435202924E+02  0.12738933549E+02 -0.74809907788E+01  0.34733523199E+02  0.00000000000E+00 0. -1.
         -1    1    6    6    0  501  0.33965277229E+02  0.43119561948E+02 -0.92753426592E+02  0.10777817416E+03  0.00000000000E+00 0.  1.
          5    1    5    5  502    0  0.76539683755E+01 -0.34910979894E+02  0.28626330982E+02  0.46031690980E+02  0.47000000000E+01 0. -1.
         11    1    4    4    0    0  0.32144854265E+02  0.16144952969E+02 -0.16638465492E+02  0.39633189324E+02  0.00000000000E+00 0. -1.
        -12    1    4    4    0    0 -0.36441957785E+02 -0.86772270084E+01  0.16199194794E+02  0.40813287882E+02  0.00000000000E+00 0.  1.
         -5    1    3    3    0  504 -0.58869391598E+01 -0.28415241564E+02 -0.14214166645E+03  0.14514966534E+03  0.47000000000E+01 0.  1.
<mgrwt>
<rscale>  2 0.17472373E+03</rscale>
<asrwt>0</asrwt>
<pdfrwt beam="1">  1       21 0.15380808E-01 0.17482647E+03</pdfrwt>
<pdfrwt beam="2">  1       21 0.48332965E-01 0.17482647E+03</pdfrwt>
<totfact> 0.15412394E+05</totfact>
</mgrwt>
</event>
<event>
12    1  0.1410528E-001  0.1879145E+03  0.7546771E-02  0.1162796E+00
         21   -1    0    0  502  503  0.00000000000E+00  0.00000000000E+00  0.10302769588E+03  0.10302769588E+03  0.00000000000E+00 0.  1.
         21   -1    0    0  503  504 -0.00000000000E+00 -0.00000000000E+00 -0.37381281037E+03  0.37381281037E+03  0.00000000000E+00 0.  1.
         -6    2    1    2    0  504 -0.11322441340E+02  0.35462724198E+02 -0.21896057552E+03  0.28191062438E+03  0.17362045967E+03 0.  0.
        -24    2    3    3    0    0  0.54556398223E+02  0.50594538469E+02 -0.13298036664E+03  0.17244063020E+03  0.80720413295E+02 0.  0.
          6    2    1    2  502    0  0.11322441340E+02 -0.35462724198E+02 -0.51824538969E+02  0.19492988187E+03  0.18419031875E+03 0.  0.
         24    2    5    5    0    0 -0.60145651173E+02 -0.38746290737E+02 -0.43326572006E+01  0.10892965576E+03  0.82025139960E+02 0.  0.
          4    1    6    6  501    0 -0.70016472339E+02 -0.48419874952E+02 -0.20598873631E+02  0.87584840492E+02  0.00000000000E+00 0. -1.
         -3    1    6    6    0  501  0.98708211655E+01  0.96735842149E+01  0.16266216430E+02  0.21344815272E+02  0.00000000000E+00 0.  1.
          5    1    5    5  502    0  0.71468092513E+02  0.32835665392E+01 -0.47491881769E+02  0.86000226108E+02  0.47000000000E+01 0. -1.
         13    1    4    4    0    0  0.19387255993E+02  0.37098763444E+02 -0.89355369490E+01  0.42802193455E+02  0.00000000000E+00 0. -1.
        -14    1    4    4    0    0  0.35169142230E+02  0.13495775025E+02 -0.12404482969E+03  0.12963843675E+03  0.00000000000E+00 0.  1.
         -5    1    3    3    0  504 -0.65878839563E+02 -0.15131814271E+02 -0.85980208882E+02  0.10946999418E+03  0.47000000000E+01 0.  1.
<mgrwt>
<rscale>  2 0.18527233E+03</rscale>
<asrwt>0</asrwt>
<pdfrwt beam="1">  1       21 0.15850415E-01 0.18791454E+03</pdfrwt>
<pdfrwt beam="2">  1       21 0.57509662E-01 0.18791454E+03</pdfrwt>
<totfact> 0.10082601E+05</totfact>
</mgrwt>
</event>
<event>
12    1  0.1410528E-001  0.2566462E+03  0.7546771E-02  0.1109693E+00
         21   -1    0    0  502  503  0.00000000000E+00  0.00000000000E+00  0.95856386512E+02  0.95856386512E+02  0.00000000000E+00 0.  1.
         21   -1    0    0  503  504 -0.00000000000E+00 -0.00000000000E+00 -0.67837065374E+03  0.67837065374E+03  0.00000000000E+00 0.  1.
         -6    2    1    2    0  504  0.12169177910E+03  0.14498747007E+03 -0.28254889166E+03  0.37945308570E+03  0.16828699442E+03 0.  0.
        -24    2    3    3    0    0  0.44613849711E+01  0.77978049620E+02 -0.84300138630E+02  0.13954083963E+03  0.79149557000E+02 0.  0.
          6    2    1    2  502    0 -0.12169177910E+03 -0.14498747007E+03 -0.29996537557E+03  0.39477395456E+03  0.17331183766E+03 0.  0.
         24    2    5    5    0    0 -0.14190907373E+03 -0.16073001950E+03 -0.26875822506E+03  0.35412247109E+03  0.84849376074E+02 0.  0.
          4    1    6    6  501    0 -0.10203868043E+03 -0.61610159222E+02 -0.10646679685E+03  0.15982140925E+03  0.00000000000E+00 0. -1.
         -3    1    6    6    0  501 -0.39870393303E+02 -0.99119860279E+02 -0.16229142821E+03  0.19430106184E+03  0.00000000000E+00 0.  1.
          5    1    5    5  502    0  0.20217294631E+02  0.15742549427E+02 -0.31207150516E+02  0.40651483466E+02  0.47000000000E+01 0. -1.
         11    1    4    4    0    0 -0.64359190400E+01 -0.82785929700E+01 -0.41177679390E+02  0.42491851400E+02  0.00000000000E+00 0. -1.
        -12    1    4    4    0    0  0.10897304011E+02  0.86256642590E+02 -0.43122459240E+02  0.97048988231E+02  0.00000000000E+00 0.  1.
         -5    1    3    3    0  504  0.11723039413E+03  0.67009420453E+02 -0.19824875303E+03  0.23991224607E+03  0.47000000000E+01 0.  1.
<mgrwt>
<rscale>  2 0.25580045E+03</rscale>
<asrwt>0</asrwt>
<pdfrwt beam="1">  1       21 0.14747136E-01 0.25664615E+03</pdfrwt>
<pdfrwt beam="2">  1       21 0.10436472E+00 0.25664615E+03</pdfrwt>
<totfact> 0.29012417E+04</totfact>
</mgrwt>
</event>
<event>
12    1  0.1410528E-001  0.1912036E+03  0.7546771E-02  0.1157764E+00
         21   -1    0    0  502  503  0.00000000000E+00  0.00000000000E+00  0.16726156676E+03  0.16726156676E+03  0.00000000000E+00 0.  1.
         21   -1    0    0  503  504 -0.00000000000E+00 -0.00000000000E+00 -0.25580839274E+03  0.25580839274E+03  0.00000000000E+00 0. -1.
         -6    2    1    2    0  504  0.33010482171E+02  0.70548236808E+02 -0.12723045102E+03  0.22966588326E+03  0.17461982882E+03 0.  0.
        -24    2    3    3    0    0 -0.30538868835E+02  0.86280445691E+02 -0.44308892997E+02  0.12391099120E+03  0.70807612039E+02 0.  0.
          6    2    1    2  502    0 -0.33010482171E+02 -0.70548236808E+02  0.38683625037E+02  0.19340407625E+03  0.17274827992E+03 0.  0.
         24    2    5    5    0    0 -0.80217222717E+02 -0.15174205324E+02  0.13718139757E+02  0.11633186874E+03  0.81730392133E+02 0.  0.
          2    1    6    6  501    0 -0.12450426195E+01 -0.30344784100E+02 -0.10844073540E+02  0.32248255521E+02  0.00000000000E+00 0. -1.
         -1    1    6    6    0  501 -0.78972180097E+02  0.15170578776E+02  0.24562213297E+02  0.84083613218E+02  0.00000000000E+00 0.  1.
          5    1    5    5  502    0  0.47206740546E+02 -0.55374031485E+02  0.24965485280E+02  0.77072207514E+02  0.47000000000E+01 0. -1.
         11    1    4    4    0    0  0.69168247324E+01  0.48981122179E+01 -0.32453478794E+02  0.33541947671E+02  0.00000000000E+00 0. -1.
        -12    1    4    4    0    0 -0.37455693567E+02  0.81382333473E+02 -0.11855414203E+02  0.90369043528E+02  0.00000000000E+00 0.  1.
         -5    1    3    3    0  504  0.63549351006E+02 -0.15732208883E+02 -0.82921558020E+02  0.10575489206E+03  0.47000000000E+01 0.  1.
<mgrwt>
<rscale>  2 0.19077528E+03</rscale>
<asrwt>0</asrwt>
<pdfrwt beam="1">  1       21 0.25732549E-01 0.19120364E+03</pdfrwt>
<pdfrwt beam="2">  1       21 0.39355137E-01 0.19120364E+03</pdfrwt>
<totfact> 0.89268538E+04</totfact>
</mgrwt>
</event>
<event>
12    1  0.1410528E-001  0.2187872E+03  0.7546771E-02  0.1135409E+00
         21   -1    0    0  502  503  0.00000000000E+00  0.00000000000E+00  0.21607392151E+02  0.21607392151E+02  0.00000000000E+00 0.  1.
         21   -1    0    0  503  504 -0.00000000000E+00 -0.00000000000E+00 -0.38528004730E+04  0.38528004730E+04  0.00000000000E+00 0. -1.
         -6    2    1    2    0  504  0.12439616395E+03  0.52202074258E+02 -0.31829711091E+04  0.31902590798E+04  0.16807276132E+03 0.  0.
        -24    2    3    3    0    0  0.11520709792E+03  0.81201521552E+02 -0.30230259920E+04  0.30273789480E+04  0.80441182392E+02 0.  0.
          6    2    1    2  502    0 -0.12439616395E+03 -0.52202074258E+02 -0.64822197181E+03  0.68414878535E+03  0.17224509746E+03 0.  0.
         24    2    5    5    0    0 -0.47796036196E+02 -0.89162938328E+02 -0.45550351793E+03  0.47344478085E+03  0.80199844306E+02 0.  0.
          4    1    6    6  501    0 -0.12325871521E+02 -0.39035577549E+02 -0.34158867339E+03  0.34403273858E+03  0.00000000000E+00 0. -1.
         -3    1    6    6    0  501 -0.35470164675E+02 -0.50127360779E+02 -0.11391484453E+03  0.12941204227E+03  0.00000000000E+00 0.  1.
          5    1    5    5  502    0 -0.76600127751E+02  0.36960864070E+02 -0.19271845388E+03  0.21070400449E+03  0.47000000000E+01 0. -1.
         13    1    4    4    0    0  0.10590560430E+03  0.30712448176E+02 -0.19291516431E+04  0.19323005237E+04  0.00000000000E+00 0. -1.
        -14    1    4    4    0    0  0.93014936152E+01  0.50489073376E+02 -0.10938743489E+04  0.10950784244E+04  0.00000000000E+00 0.  1.
         -5    1    3    3    0  504  0.91890660312E+01 -0.28999447294E+02 -0.15994511700E+03  0.16288013179E+03  0.47000000000E+01 0.  1.
<mgrwt>
<rscale>  2 0.21796522E+03</rscale>
<asrwt>0</asrwt>
<pdfrwt beam="1">  1       21 0.33242155E-02 0.21878719E+03</pdfrwt>
<pdfrwt beam="2">  1       21 0.59273829E+00 0.21878719E+03</pdfrwt>
<totfact> 0.19900373E+02</totfact>
</mgrwt>
</event>
<event>
12    1  0.1410528E-001  0.2267380E+03  0.7546771E-02  0.1129256E+00
         21   -1    0    0  502  503  0.00000000000E+00  0.00000000000E+00  0.13160650479E+03  0.13160650479E+03  0.00000000000E+00 0. -1.
         21   -1    0    0  503  504 -0.00000000000E+00 -0.00000000000E+00 -0.40993632674E+03  0.40993632674E+03  0.00000000000E+00 0. -1.
         -6    2    1    2    0  504  0.13433406978E+03 -0.55820862562E+02 -0.20163206239E+03  0.30218393180E+03  0.17174990264E+03 0.  0.
        -24    2    3    3    0    0  0.14351029691E+03 -0.49058455703E+01 -0.18627010299E+03  0.24801178124E+03  0.78702094813E+02 0.  0.
          6    2    1    2  502    0 -0.13433406978E+03  0.55820862562E+02 -0.76697759557E+02  0.23935889973E+03  0.17392103253E+03 0.  0.
         24    2    5    5    0    0 -0.81153212498E+02  0.10307940913E+03 -0.63989937694E+02  0.16693547436E+03  0.81003283817E+02 0.  0.
          2    1    6    6  501    0 -0.40293261363E+02  0.10228492056E+03 -0.30470457800E+02  0.11407979963E+03  0.00000000000E+00 0. -1.
         -1    1    6    6    0  501 -0.40859951135E+02  0.79448856917E+00 -0.33519479894E+02  0.52855674731E+02  0.00000000000E+00 0.  1.
          5    1    5    5  502    0 -0.53180857281E+02 -0.47258546568E+02 -0.12707821863E+02  0.72423425363E+02  0.47000000000E+01 0. -1.
         13    1    4    4    0    0  0.13848261924E+02 -0.27546171861E+02 -0.48515007431E+02  0.57482796457E+02  0.00000000000E+00 0. -1.
        -14    1    4    4    0    0  0.12966203499E+03  0.22640326291E+02 -0.13775509556E+03  0.19052898479E+03  0.00000000000E+00 0.  1.
         -5    1    3    3    0  504 -0.91762271315E+01 -0.50915016992E+02 -0.15361959400E+02  0.54172150560E+02  0.47000000000E+01 0.  1.
<mgrwt>
<rscale>  2 0.22632162E+03</rscale>
<asrwt>0</asrwt>
<pdfrwt beam="1">  1       21 0.20247154E-01 0.22673804E+03</pdfrwt>
<pdfrwt beam="2">  1       21 0.63067128E-01 0.22673804E+03</pdfrwt>
<totfact> 0.51667496E+04</totfact>
</mgrwt>
</event>
<event>
12    1  0.1410528E-001  0.2201862E+03  0.7546771E-02  0.1134174E+00
         21   -1    0    0  502  503  0.00000000000E+00  0.00000000000E+00  0.67755932363E+03  0.67755932363E+03  0.00000000000E+00 0. -1.
         21   -1    0    0  503  504 -0.00000000000E+00 -0.00000000000E+00 -0.94784196621E+02  0.94784196621E+02  0.00000000000E+00 0.  1.
         -6    2    1    2    0  504  0.10793737296E+03  0.82826935971E+02  0.96028207047E+02  0.23811084760E+03  0.17018983927E+03 0.  0.
        -24    2    3    3    0    0  0.93159382480E+02 -0.82830511608E+00  0.20976149495E+02  0.12465825967E+03  0.80126938191E+02 0.  0.
          6    2    1    2  502    0 -0.10793737296E+03 -0.82826935971E+02  0.48674691996E+03  0.53423267265E+03  0.17312194151E+03 0.  0.
         24    2    5    5    0    0 -0.17034714084E+02  0.79721618363E+01  0.12877680116E+03  0.15387433436E+03  0.82098169343E+02 0.  0.
          4    1    6    6  501    0  0.14954324283E+02 -0.16989914048E+02  0.10377400625E+03  0.10621362138E+03  0.00000000000E+00 0. -1.
         -3    1    6    6    0  501 -0.31989038368E+02  0.24962075885E+02  0.25002794910E+02  0.47660712977E+02  0.00000000000E+00 0.  1.
          5    1    5    5  502    0 -0.90902658874E+02 -0.90799097808E+02  0.35797011880E+03  0.38035833829E+03  0.47000000000E+01 0. -1.
         13    1    4    4    0    0  0.53365435558E+02  0.22488589560E+02  0.44359151605E+02  0.72947520203E+02  0.00000000000E+00 0. -1.
        -14    1    4    4    0    0  0.39793946922E+02 -0.23316894676E+02 -0.23383002110E+02  0.51710739471E+02  0.00000000000E+00 0.  1.
         -5    1    3    3    0  504  0.14777990478E+02  0.83655241087E+02  0.75052057552E+02  0.11345258792E+03  0.47000000000E+01 0.  1.
<mgrwt>
<rscale>  2 0.21960953E+03</rscale>
<asrwt>0</asrwt>
<pdfrwt beam="1">  1       21 0.10423989E+00 0.22018625E+03</pdfrwt>
<pdfrwt beam="2">  1       21 0.14582184E-01 0.22018625E+03</pdfrwt>
<totfact> 0.30233985E+04</totfact>
</mgrwt>
</event>
<event>
12    1  0.1410528E-001  0.2110901E+03  0.7546771E-02  0.1143011E+00
         21   -1    0    0  502  503  0.00000000000E+00  0.00000000000E+00  0.14392551161E+04  0.14392551161E+04  0.00000000000E+00 0.  1.
         21   -1    0    0  503  504 -0.00000000000E+00 -0.00000000000E+00 -0.41826392654E+02  0.41826392654E+02  0.00000000000E+00 0. -1.
         -6    2    1    2    0  504 -0.28540091577E+02  0.11860908491E+03  0.11172258579E+04  0.11369928030E+04  0.17226829289E+03 0.  0.
        -24    2    3    3    0    0 -0.84736623699E+02  0.81952154472E+02  0.76452056863E+03  0.77793167753E+03  0.82398689430E+02 0.  0.
          6    2    1    2  502    0  0.28540091577E+02 -0.11860908491E+03  0.28020286555E+03  0.34408870573E+03  0.15811622212E+03 0.  0.
         24    2    5    5    0    0 -0.84677484715E+01 -0.91829564882E+02  0.10056297851E+03  0.15867214246E+03  0.80991137759E+02 0.  0.
          2    1    6    6  501    0 -0.14975468450E+02 -0.88920204524E+02  0.41645155312E+02  0.99324651466E+02  0.00000000000E+00 0. -1.
         -1    1    6    6    0  501  0.65077199783E+01 -0.29093603588E+01  0.58917823197E+02  0.59347490994E+02  0.00000000000E+00 0.  1.
          5    1    5    5  502    0  0.37007840049E+02 -0.26779520024E+02  0.17963988704E+03  0.18541656327E+03  0.47000000000E+01 0. -1.
         13    1    4    4    0    0 -0.12903070505E+02 -0.16474504074E+02  0.82576490131E+02  0.85186708091E+02  0.00000000000E+00 0. -1.
        -14    1    4    4    0    0 -0.71833553195E+02  0.98426658545E+02  0.68194407850E+03  0.69274496944E+03  0.00000000000E+00 0.  1.
         -5    1    3    3    0  504  0.56196532122E+02  0.36656930434E+02  0.35270528928E+03  0.35906112552E+03  0.47000000000E+01 0.  1.
<mgrwt>
<rscale>  2 0.20818520E+03</rscale>
<asrwt>0</asrwt>
<pdfrwt beam="1">  1       21 0.22142383E+00 0.21109007E+03</pdfrwt>
<pdfrwt beam="2">  1       21 0.64348307E-02 0.21109007E+03</pdfrwt>
<totfact> 0.16988000E+04</totfact>
</mgrwt>
</event>
<event>
12    1  0.1410528E-001  0.1886499E+03  0.7546771E-02  0.1159809E+00
         21   -1    0    0  502  503  0.00000000000E+00  0.00000000000E+00  0.48699093240E+02  0.48699093240E+02  0.00000000000E+00 0.  1.
         21   -1    0    0  503  504 -0.00000000000E+00 -0.00000000000E+00 -0.80660991888E+03  0.80660991888E+03  0.00000000000E+00 0.  1.
         -6    2    1    2    0  504 -0.63458394668E+02 -0.43961161589E+02 -0.51238429338E+03  0.54600956453E+03  0.17213142907E+03 0.  0.
        -24    2    3    3    0    0  0.30336652090E+02 -0.73143666248E+01 -0.27191530280E+03  0.28526462439E+03  0.80400010036E+02 0.  0.
          6    2    1    2  502    0  0.63458394668E+02  0.43961161589E+02 -0.24552653226E+03  0.30929944759E+03  0.17153226709E+03 0.  0.
         24    2    5    5    0    0 -0.13203450861E+02  0.66938317017E+02 -0.12959460140E+03  0.16834807007E+03  0.83013508446E+02 0.  0.
          2    1    6    6  501    0 -0.30373641925E+02 -0.62312068176E+01 -0.26635672762E+02  0.40875972474E+02  0.00000000000E+00 0. -1.
         -1    1    6    6    0  501  0.17170191064E+02  0.73169523834E+02 -0.10295892863E+03  0.12747209759E+03  0.00000000000E+00 0.  1.
          5    1    5    5  502    0  0.76661845529E+02 -0.22977155428E+02 -0.11593193087E+03  0.14095137752E+03  0.47000000000E+01 0. -1.
         11    1    4    4    0    0  0.54548820655E+01  0.27185538701E+02 -0.35458767512E+02  0.45012592086E+02  0.00000000000E+00 0. -1.
        -12    1    4    4    0    0  0.24881770024E+02 -0.34499905326E+02 -0.23645653528E+03  0.24025203230E+03  0.00000000000E+00 0.  1.
         -5    1    3    3    0  504 -0.93795046758E+02 -0.36646794964E+02 -0.24046899058E+03  0.26074494014E+03  0.47000000000E+01 0.  1.
<mgrwt>
<rscale>  2 0.18851311E+03</rscale>
<asrwt>0</asrwt>
<pdfrwt beam="1">  1       21 0.74921687E-02 0.18864989E+03</pdfrwt>
<pdfrwt beam="2">  1       21 0.12409382E+00 0.18864989E+03</pdfrwt>
<totfact> 0.65458725E+04</totfact>
</mgrwt>
</event>
<event>
12    1  0.1410528E-001  0.2122255E+03  0.7546771E-02  0.1140789E+00
         21   -1    0    0  502  503  0.00000000000E+00  0.00000000000E+00  0.12007410043E+03  0.12007410043E+03  0.00000000000E+00 0. -1.
         21   -1    0    0  503  504 -0.00000000000E+00 -0.00000000000E+00 -0.12236437753E+04  0.12236437753E+04  0.00000000000E+00 0.  1.
         -6    2    1    2    0  504  0.19377944504E+02 -0.11677574169E+03 -0.11160413948E+04  0.11360405142E+04  0.17614646294E+03 0.  0.
        -24    2    3    3    0    0  0.32886599801E+02 -0.10671670097E+03 -0.45169150149E+03  0.47146054248E+03  0.76025310802E+02 0.  0.
          6    2    1    2  502    0 -0.19377944504E+02  0.11677574169E+03  0.12471719903E+02  0.20767736157E+03  0.17018303127E+03 0.  0.
         24    2    5    5    0    0  0.40556716561E+02  0.11303062084E+03  0.24546033832E+02  0.14624391316E+03  0.79774719387E+02 0.  0.
          4    1    6    6  501    0 -0.80530738015E+01  0.60062860705E+02  0.40128709861E+02  0.72682271489E+02  0.00000000000E+00 0. -1.
         -3    1    6    6    0  501  0.48609790362E+02  0.52967760134E+02 -0.15582676029E+02  0.73561641668E+02  0.00000000000E+00 0.  1.
          5    1    5    5  502    0 -0.59934661065E+02  0.37451208518E+01 -0.12074313929E+02  0.61433448414E+02  0.47000000000E+01 0. -1.
         11    1    4    4    0    0  0.33860112992E+02 -0.64114949293E+01 -0.13018592501E+03  0.13466992830E+03  0.00000000000E+00 0. -1.
        -12    1    4    4    0    0 -0.97351319126E+00 -0.10030520604E+03 -0.32150557649E+03  0.33679061418E+03  0.00000000000E+00 0.  1.
         -5    1    3    3    0  504 -0.13508655296E+02 -0.10059040722E+02 -0.66434989332E+03  0.66457997173E+03  0.47000000000E+01 0.  1.
<mgrwt>
<rscale>  2 0.21098389E+03</rscale>
<asrwt>0</asrwt>
<pdfrwt beam="1">  1       21 0.18472938E-01 0.21222548E+03</pdfrwt>
<pdfrwt beam="2">  1       21 0.18825289E+00 0.21222548E+03</pdfrwt>
<totfact> 0.42112184E+03</totfact>
</mgrwt>
</event>
<event>
12    1  0.1410528E-001  0.2195080E+03  0.7546771E-02  0.1134454E+00
         21   -1    0    0  502  503  0.00000000000E+00  0.00000000000E+00  0.43256884019E+03  0.43256884019E+03  0.00000000000E+00 0. -1.
         21   -1    0    0  503  504 -0.00000000000E+00 -0.00000000000E+00 -0.11177308155E+03  0.11177308155E+03  0.00000000000E+00 0. -1.
         -6    2    1    2    0  504  0.49889928318E+02  0.12539043074E+03  0.18565816726E+03  0.28749384240E+03  0.17312420190E+03 0.  0.
        -24    2    3    3    0    0 -0.63040095165E+01  0.10067406311E+03  0.49794026846E+02  0.13833013326E+03  0.80503249233E+02 0.  0.
          6    2    1    2  502    0 -0.49889928318E+02 -0.12539043074E+03  0.13513759139E+03  0.25684807934E+03  0.17174691317E+03 0.  0.
         24    2    5    5    0    0 -0.25961395680E+02 -0.97522009258E+02  0.16393128163E+03  0.20993976250E+03  0.83765759274E+02 0.  0.
          4    1    6    6  501    0 -0.11790019780E+01 -0.10011069086E+03  0.15273184714E+03  0.18262135034E+03  0.00000000000E+00 0. -1.
         -3    1    6    6    0  501 -0.24782393702E+02  0.25886816053E+01  0.11199434498E+02  0.27318412163E+02  0.00000000000E+00 0.  1.
          5    1    5    5  502    0 -0.23928532639E+02 -0.27868421478E+02 -0.28793690248E+02  0.46908316832E+02  0.47000000000E+01 0. -1.
         13    1    4    4    0    0  0.33107918966E+02  0.22028137944E+02  0.65330305333E+01  0.40299548974E+02  0.00000000000E+00 0. -1.
        -14    1    4    4    0    0 -0.39411928483E+02  0.78645925170E+02  0.43260996313E+02  0.98030584281E+02  0.00000000000E+00 0.  1.
         -5    1    3    3    0  504  0.56193937835E+02  0.24716367622E+02  0.13586414041E+03  0.14916370915E+03  0.47000000000E+01 0.  1.
<mgrwt>
<rscale>  2 0.21923632E+03</rscale>
<asrwt>0</asrwt>
<pdfrwt beam="1">  1       21 0.66549052E-01 0.21950798E+03</pdfrwt>
<pdfrwt beam="2">  1       21 0.17195859E-01 0.21950798E+03</pdfrwt>
<totfact> 0.62474985E+04</totfact>
</mgrwt>
</event>
<event>
12    1  0.1410528E-001  0.2320927E+03  0.7546771E-02  0.1125310E+00
         21   -1    0    0  502  503  0.00000000000E+00  0.00000000000E+00  0.20342452604E+03  0.20342452604E+03  0.00000000000E+00 0. -1.
         21   -1    0    0  503  504 -0.00000000000E+00 -0.00000000000E+00 -0.27713696506E+03  0.27713696506E+03  0.00000000000E+00 0. -1.
         -6    2    1    2    0  504 -0.21838001014E+02  0.15108786784E+03 -0.89275623887E+02  0.24794752486E+03  0.17379124249E+03 0.  0.
        -24    2    3    3    0    0 -0.26530660822E+02  0.89974536863E+00 -0.23766232765E+02  0.83959526787E+02  0.76024225173E+02 0.  0.
          6    2    1    2  502    0  0.21838001014E+02 -0.15108786784E+03  0.15563184865E+02  0.23261396624E+03  0.17482163044E+03 0.  0.
         24    2    5    5    0    0 -0.33954377964E+01 -0.60315830645E+02  0.71083762889E+02  0.12315660580E+03  0.80405968570E+02 0.  0.
          2    1    6    6  501    0  0.35377891165E+02 -0.48079524397E+02  0.46255222228E+02  0.75516762596E+02  0.00000000000E+00 0. -1.
         -1    1    6    6    0  501 -0.38773328961E+02 -0.12236306248E+02  0.24828540661E+02  0.47639843206E+02  0.00000000000E+00 0.  1.
          5    1    5    5  502    0  0.25233438811E+02 -0.90772037191E+02 -0.55520578024E+02  0.10945736044E+03  0.47000000000E+01 0. -1.
         11    1    4    4    0    0 -0.24890715765E+02  0.31410214065E+02  0.69038862672E+01  0.40667098797E+02  0.00000000000E+00 0. -1.
        -12    1    4    4    0    0 -0.16399450564E+01 -0.30510468697E+02 -0.30670119032E+02  0.43292427991E+02  0.00000000000E+00 0.  1.
         -5    1    3    3    0  504  0.46926598076E+01  0.15018812247E+03 -0.65509391122E+02  0.16398799807E+03  0.47000000000E+01 0.  1.
<mgrwt>
<rscale>  2 0.23189872E+03</rscale>
<asrwt>0</asrwt>
<pdfrwt beam="1">  1       21 0.31296081E-01 0.23209275E+03</pdfrwt>
<pdfrwt beam="2">  1       21 0.42636456E-01 0.23209275E+03</pdfrwt>
<totfact> 0.50984998E+04</totfact>
</mgrwt>
</event>
<event>
12    1  0.1410528E-001  0.1912602E+03  0.7546771E-02  0.1157639E+00
         21   -1    0    0  502  503  0.00000000000E+00  0.00000000000E+00  0.22989463149E+03  0.22989463149E+03  0.00000000000E+00 0.  1.
         21   -1    0    0  503  504 -0.00000000000E+00 -0.00000000000E+00 -0.21710653845E+03  0.21710653845E+03  0.00000000000E+00 0.  1.
         -6    2    1    2    0  504 -0.30401784279E+02  0.75520748247E+02 -0.11026312545E+03  0.21957631998E+03  0.17154635396E+03 0.  0.
        -24    2    3    3    0    0 -0.61455774736E+02  0.84527908254E+02 -0.32825844481E+02  0.13552810918E+03  0.79803212904E+02 0.  0.
          6    2    1    2  502    0  0.30401784279E+02 -0.75520748247E+02  0.12305121848E+03  0.22742484996E+03  0.17306879588E+03 0.  0.
         24    2    5    5    0    0 -0.34391611196E+02 -0.19338253951E+02  0.10585910761E+03  0.13983309556E+03  0.82403840708E+02 0.  0.
          4    1    6    6  501    0 -0.14380487342E+02  0.23089789690E+02  0.83591251686E+02  0.87905825533E+02  0.00000000000E+00 0. -1.
         -3    1    6    6    0  501 -0.20011123854E+02 -0.42428043641E+02  0.22267855926E+02  0.51927270028E+02  0.00000000000E+00 0.  1.
          5    1    5    5  502    0  0.64793395475E+02 -0.56182494296E+02  0.17192110872E+02  0.87591754399E+02  0.47000000000E+01 0. -1.
         11    1    4    4    0    0 -0.57956393862E+00  0.47202274816E+02  0.15060537250E+02  0.49550079964E+02  0.00000000000E+00 0. -1.
        -12    1    4    4    0    0 -0.60876210797E+02  0.37325633438E+02 -0.47886381731E+02  0.85978029216E+02  0.00000000000E+00 0.  1.
         -5    1    3    3    0  504  0.31053990457E+02 -0.90071600072E+01 -0.77437280967E+02  0.84048210797E+02  0.47000000000E+01 0.  1.
<mgrwt>
<rscale>  2 0.19091512E+03</rscale>
<asrwt>0</asrwt>
<pdfrwt beam="1">  1       21 0.35368405E-01 0.19126019E+03</pdfrwt>
<pdfrwt beam="2">  1       21 0.33401006E-01 0.19126019E+03</pdfrwt>
<totfact> 0.66576843E+04</totfact>
</mgrwt>
</event>
<event>
12    1  0.1410528E-001  0.2062661E+03  0.7546771E-02  0.1144898E+00
         21   -1    0    0  502  503  0.00000000000E+00  0.00000000000E+00  0.50791427131E+03  0.50791427131E+03  0.00000000000E+00 0.  1.
         21   -1    0    0  503  504 -0.00000000000E+00 -0.00000000000E+00 -0.85358891197E+02  0.85358891197E+02  0.00000000000E+00 0. -1.
         -6    2    1    2    0  504  0.11221892654E+03  0.61825395355E+01  0.16205261686E+03  0.26099708722E+03  0.17095940348E+03 0.  0.
        -24    2    3    3    0    0  0.80808307148E+01 -0.41000175045E+02  0.84347949976E+02  0.12268202364E+03  0.78676477309E+02 0.  0.
          6    2    1    2  502    0 -0.11221892654E+03 -0.61825395355E+01  0.26050276325E+03  0.33227607529E+03  0.17295776732E+03 0.  0.
         24    2    5    5    0    0 -0.92755623001E+02 -0.58636236931E+02  0.23340910242E+03  0.26993534211E+03  0.79645878433E+02 0.  0.
          4    1    6    6  501    0 -0.32924634796E+02 -0.42774783185E+02  0.18084808142E+03  0.18873193213E+03  0.00000000000E+00 0. -1.
         -3    1    6    6    0  501 -0.59830988206E+02 -0.15861453746E+02  0.52561020999E+02  0.81203409984E+02  0.00000000000E+00 0.  1.
          5    1    5    5  502    0 -0.19463303534E+02  0.52453697395E+02  0.27093660834E+02  0.62340733171E+02  0.47000000000E+01 0. -1.
         13    1    4    4    0    0  0.30675088913E+02 -0.31396927650E+02  0.87536598613E+02  0.97925401416E+02  0.00000000000E+00 0. -1.
        -14    1    4    4    0    0 -0.22594258198E+02 -0.96032473946E+01 -0.31886486377E+01  0.24756622229E+02  0.00000000000E+00 0.  1.
         -5    1    3    3    0  504  0.10413809582E+03  0.47182714580E+02  0.77704666884E+02  0.13831506358E+03  0.47000000000E+01 0.  1.
<mgrwt>
<rscale>  2 0.20584662E+03</rscale>
<asrwt>0</asrwt>
<pdfrwt beam="1">  1       21 0.78140655E-01 0.20626609E+03</pdfrwt>
<pdfrwt beam="2">  1       21 0.13132137E-01 0.20626609E+03</pdfrwt>
<totfact> 0.71940932E+04</totfact>
</mgrwt>
</event>
<event>
12    1  0.1410528E-001  0.2148089E+03  0.7546771E-02  0.1137846E+00
         21   -1    0    0  502  503  0.00000000000E+00  0.00000000000E+00  0.45373533753E+03  0.45373533753E+03  0.00000000000E+00 0.  1.
         21   -1    0    0  503  504 -0.00000000000E+00 -0.00000000000E+00 -0.12715752477E+03  0.12715752477E+03  0.00000000000E+00 0.  1.
         -6    2    1    2    0  504 -0.12292977562E+03  0.31893720402E+02  0.29351117056E+03  0.36371922260E+03  0.17324527847E+03 0.  0.
        -24    2    3    3    0    0 -0.10584787914E+02  0.15912216383E+02  0.54154307079E+02  0.98784130877E+02  0.80376483952E+02 0.  0.
          6    2    1    2  502    0  0.12292977562E+03 -0.31893720402E+02  0.33066642196E+02  0.21717363970E+03  0.17303770635E+03 0.  0.
         24    2    5    5    0    0  0.34116194263E+02 -0.19309677240E+02  0.76674072069E+02  0.11732421148E+03  0.79682362694E+02 0.  0.
          4    1    6    6  501    0 -0.19231052345E+02 -0.67306998657E+01  0.54525700515E+02  0.58208141283E+02  0.00000000000E+00 0. -1.
         -3    1    6    6    0  501  0.53347246608E+02 -0.12578977375E+02  0.22148371554E+02  0.59116070192E+02  0.00000000000E+00 0.  1.
          5    1    5    5  502    0  0.88813581358E+02 -0.12584043161E+02 -0.43607429873E+02  0.99849428221E+02  0.47000000000E+01 0. -1.
         11    1    4    4    0    0  0.14009769153E+02  0.18964097833E+02  0.66887372462E+02  0.70921303099E+02  0.00000000000E+00 0. -1.
        -12    1    4    4    0    0 -0.24594557067E+02 -0.30518814497E+01 -0.12733065384E+02  0.27862827778E+02  0.00000000000E+00 0.  1.
         -5    1    3    3    0  504 -0.11234498771E+03  0.15981504019E+02  0.23935686348E+03  0.26493509173E+03  0.47000000000E+01 0.  1.
<mgrwt>
<rscale>  2 0.21476705E+03</rscale>
<asrwt>0</asrwt>
<pdfrwt beam="1">  1       21 0.69805436E-01 0.21480890E+03</pdfrwt>
<pdfrwt beam="2">  1       21 0.19562696E-01 0.21480890E+03</pdfrwt>
<totfact> 0.44352940E+04</totfact>
</mgrwt>
</event>
<event>
12    1  0.1410528E-001  0.2113371E+03  0.7546771E-02  0.1140793E+00
         21   -1    0    0  502  503  0.00000000000E+00  0.00000000000E+00  0.33850278381E+03  0.33850278381E+03  0.00000000000E+00 0.  1.
         21   -1    0    0  503  504 -0.00000000000E+00 -0.00000000000E+00 -0.13418613306E+03  0.13418613306E+03  0.00000000000E+00 0.  1.
         -6    2    1    2    0  504 -0.11906256864E+03 -0.22391899652E+02  0.13792516402E+03  0.25116874431E+03  0.17142081212E+03 0.  0.
        -24    2    3    3    0    0 -0.12827559436E+03 -0.64534961165E+02  0.97357172968E+02  0.19176529850E+03  0.81707534899E+02 0.  0.
          6    2    1    2  502    0  0.11906256864E+03  0.22391899652E+02  0.66391486723E+02  0.22152017255E+03  0.17316484896E+03 0.  0.
         24    2    5    5    0    0  0.11545291238E+03  0.69096102994E+02  0.22930658118E+02  0.15744798006E+03  0.78488246995E+02 0.  0.
          4    1    6    6  501    0  0.39528378143E+02  0.61183557775E+02 -0.11434102029E+02  0.73733704029E+02  0.00000000000E+00 0. -1.
         -3    1    6    6    0  501  0.75924534238E+02  0.79125452197E+01  0.34364760147E+02  0.83714276029E+02  0.00000000000E+00 0.  1.
          5    1    5    5  502    0  0.36096562638E+01 -0.46704203342E+02  0.43460828606E+02  0.64072192496E+02  0.47000000000E+01 0. -1.
         13    1    4    4    0    0  0.10637040115E+02  0.24540392098E+01  0.79183063566E+01  0.13485863206E+02  0.00000000000E+00 0. -1.
        -14    1    4    4    0    0 -0.13891263447E+03 -0.66989000374E+02  0.89438866611E+02  0.17827943529E+03  0.00000000000E+00 0.  1.
         -5    1    3    3    0  504  0.92130257144E+01  0.42143061512E+02  0.40567991055E+02  0.59403445815E+02  0.47000000000E+01 0.  1.
<mgrwt>
<rscale>  2 0.21097950E+03</rscale>
<asrwt>0</asrwt>
<pdfrwt beam="1">  1       21 0.52077351E-01 0.21133707E+03</pdfrwt>
<pdfrwt beam="2">  1       21 0.20644021E-01 0.21133707E+03</pdfrwt>
<totfact> 0.75512156E+04</totfact>
</mgrwt>
</event>
<event>
12    1  0.1410528E-001  0.1840865E+03  0.7546771E-02  0.1164033E+00
         21   -1    0    0  502  503  0.00000000000E+00  0.00000000000E+00  0.28216387478E+03  0.28216387478E+03  0.00000000000E+00 0. -1.
         21   -1    0    0  503  504 -0.00000000000E+00 -0.00000000000E+00 -0.12590088116E+03  0.12590088116E+03  0.00000000000E+00 0. -1.
         -6    2    1    2    0  504  0.34674320177E+02  0.39513629131E+02  0.32919035800E+02  0.18647598790E+03  0.17585788517E+03 0.  0.
        -24    2    3    3    0    0  0.51255347892E+02 -0.13071973819E+02 -0.32751060742E+02  0.10059917090E+03  0.79054247322E+02 0.  0.
          6    2    1    2  502    0 -0.34674320177E+02 -0.39513629131E+02  0.12334395783E+03  0.22158876804E+03  0.17642056236E+03 0.  0.
         24    2    5    5    0    0 -0.39524701767E+02 -0.93365261177E+02  0.87108871181E+02  0.15633084913E+03  0.81068519835E+02 0.  0.
          2    1    6    6  501    0 -0.50224156215E+02 -0.99394154839E+02  0.59835053115E+02  0.12641952960E+03  0.00000000000E+00 0. -1.
         -1    1    6    6    0  501  0.10699454448E+02  0.60288936620E+01  0.27273818066E+02  0.29911319532E+02  0.00000000000E+00 0.  1.
          5    1    5    5  502    0  0.48503815899E+01  0.53851632045E+02  0.36235086647E+02  0.65257918905E+02  0.47000000000E+01 0. -1.
         11    1    4    4    0    0 -0.14083052529E+02  0.11467254908E+02  0.79267337427E+01  0.19815736461E+02  0.00000000000E+00 0. -1.
        -12    1    4    4    0    0  0.65338400421E+02 -0.24539228727E+02 -0.40677794484E+02  0.80783434442E+02  0.00000000000E+00 0.  1.
         -5    1    3    3    0  504 -0.16581027715E+02  0.52585602950E+02  0.65670096541E+02  0.85876816996E+02  0.47000000000E+01 0.  1.
<mgrwt>
<rscale>  2 0.18395159E+03</rscale>
<asrwt>0</asrwt>
<pdfrwt beam="1">  1       21 0.43409827E-01 0.18408653E+03</pdfrwt>
<pdfrwt beam="2">  1       21 0.19369366E-01 0.18408653E+03</pdfrwt>
<totfact> 0.12536957E+05</totfact>
</mgrwt>
</event>
<event>
12    1  0.1410528E-001  0.2585012E+03  0.7546771E-02  0.1108212E+00
         21   -1    0    0  502  503  0.00000000000E+00  0.00000000000E+00  0.13335733598E+03  0.13335733598E+03  0.00000000000E+00 0.  1.
         21   -1    0    0  503  504 -0.00000000000E+00 -0.00000000000E+00 -0.63795504795E+03  0.63795504795E+03  0.00000000000E+00 0.  1.
         -6    2    1    2    0  504 -0.10911106810E+03 -0.15543943696E+03 -0.72713776263E+02  0.26853331666E+03  0.17537447121E+03 0.  0.
        -24    2    3    3    0    0 -0.44414857107E+02 -0.15100144861E+02  0.11191563321E+02  0.92627339970E+02  0.79081471368E+02 0.  0.
          6    2    1    2  502    0  0.10911106810E+03  0.15543943696E+03 -0.43188393570E+03  0.50277906727E+03  0.17377115072E+03 0.  0.
         24    2    5    5    0    0  0.78176045795E+02  0.10620394028E+03 -0.41322154535E+03  0.44152970358E+03  0.82496439559E+02 0.  0.
          4    1    6    6  501    0  0.20182595987E+02  0.74859581050E+02 -0.30595256584E+03  0.31562361541E+03  0.00000000000E+00 0. -1.
         -3    1    6    6    0  501  0.57993449808E+02  0.31344359226E+02 -0.10726897950E+03  0.12590608817E+03  0.00000000000E+00 0.  1.
          5    1    5    5  502    0  0.30935022305E+02  0.49235496683E+02 -0.18662390360E+02  0.61249363691E+02  0.47000000000E+01 0. -1.
         13    1    4    4    0    0 -0.54330976248E+02 -0.38405864119E+02  0.63058855664E+01  0.66832847998E+02  0.00000000000E+00 0. -1.
        -14    1    4    4    0    0  0.99161191412E+01  0.23305719258E+02  0.48856777546E+01  0.25794491972E+02  0.00000000000E+00 0.  1.
         -5    1    3    3    0  504 -0.64696210993E+02 -0.14033929210E+03 -0.83905339584E+02  0.17590597669E+03  0.47000000000E+01 0.  1.
<mgrwt>
<rscale>  2 0.25822947E+03</rscale>
<asrwt>0</asrwt>
<pdfrwt beam="1">  1       21 0.20516513E-01 0.25850116E+03</pdfrwt>
<pdfrwt beam="2">  1       21 0.98146930E-01 0.25850116E+03</pdfrwt>
<totfact> 0.18198126E+04</totfact>
</mgrwt>
</event>
<event>
12    1  0.1410528E-001  0.2244113E+03  0.7546771E-02  0.1130913E+00
         21   -1    0    0  502  503  0.00000000000E+00  0.00000000000E+00  0.11679100876E+04  0.11679100876E+04  0.00000000000E+00 0. -1.
         21   -1    0    0  503  504 -0.00000000000E+00 -0.00000000000E+00 -0.45345300103E+02  0.45345300103E+02  0.00000000000E+00 0.  1.
         -6    2    1    2    0  504 -0.88201678757E+02 -0.10850323920E+03  0.70596246546E+03  0.74077217845E+03  0.17552187520E+03 0.  0.
        -24    2    3    3    0    0 -0.10590150702E+02 -0.12226227474E+03  0.43163350485E+03  0.45530531702E+03  0.77040470400E+02 0.  0.
          6    2    1    2  502    0  0.88201678757E+02  0.10850323920E+03  0.41660232203E+03  0.47248320925E+03  0.17358110279E+03 0.  0.
         24    2    5    5    0    0  0.67055019040E+02  0.13845060331E+03  0.24837001035E+03  0.30023853871E+03  0.69213965004E+02 0.  0.
          4    1    6    6  501    0 -0.77180488420E+01  0.19920102269E+02  0.96945757067E+01  0.23459828441E+02  0.00000000000E+00 0. -1.
         -3    1    6    6    0  501  0.74773067882E+02  0.11853050104E+03  0.23867543464E+03  0.27677871027E+03  0.00000000000E+00 0.  1.
          5    1    5    5  502    0  0.21146659717E+02 -0.29947364111E+02  0.16823231168E+03  0.17224467053E+03  0.47000000000E+01 0. -1.
         13    1    4    4    0    0 -0.55502887599E+01 -0.12245887725E+03  0.30699120461E+03  0.33056101105E+03  0.00000000000E+00 0. -1.
        -14    1    4    4    0    0 -0.50398619417E+01  0.19660250725E+00  0.12464230025E+03  0.12474430597E+03  0.00000000000E+00 0.  1.
         -5    1    3    3    0  504 -0.77611528056E+02  0.13759035541E+02  0.27432896061E+03  0.28546686143E+03  0.47000000000E+01 0.  1.
<mgrwt>
<rscale>  2 0.22403164E+03</rscale>
<asrwt>0</asrwt>
<pdfrwt beam="1">  1       21 0.17967845E+00 0.22441127E+03</pdfrwt>
<pdfrwt beam="2">  1       21 0.69762009E-02 0.22441127E+03</pdfrwt>
<totfact> 0.27251065E+04</totfact>
</mgrwt>
</event>
<event>
12    1  0.1410528E-001  0.2147874E+03  0.7546771E-02  0.1137911E+00
         21   -1    0    0  502  503  0.00000000000E+00  0.00000000000E+00  0.84129020124E+02  0.84129020124E+02  0.00000000000E+00 0.  1.
         21   -1    0    0  503  504 -0.00000000000E+00 -0.00000000000E+00 -0.67620952948E+03  0.67620952948E+03  0.00000000000E+00 0.  1.
         -6    2    1    2    0  504  0.10845142454E+02 -0.12669967221E+03 -0.46226788784E+03  0.50973052722E+03  0.17309877585E+03 0.  0.
        -24    2    3    3    0    0 -0.47371245436E+02 -0.33826546522E+02 -0.16321153257E+03  0.19118483360E+03  0.80779738138E+02 0.  0.
          6    2    1    2  502    0 -0.10845142454E+02  0.12669967221E+03 -0.12981262152E+03  0.25060802239E+03  0.17257647617E+03 0.  0.
         24    2    5    5    0    0  0.33791693574E-01  0.63300548952E+02  0.30050442531E+01  0.10295836144E+03  0.81144520821E+02 0.  0.
          4    1    6    6  501    0 -0.14818970450E+02 -0.11801969744E+02  0.16618292145E+02  0.25200317634E+02  0.00000000000E+00 0. -1.
         -3    1    6    6    0  501  0.14852762144E+02  0.75102518696E+02 -0.13613247892E+02  0.77758043802E+02  0.00000000000E+00 0.  1.
          5    1    5    5  502    0 -0.10878934147E+02  0.63399123253E+02 -0.13281766577E+03  0.14764966095E+03  0.47000000000E+01 0. -1.
         11    1    4    4    0    0  0.21404503626E+02 -0.14705415510E+01 -0.21481577567E+02  0.30360722038E+02  0.00000000000E+00 0. -1.
        -12    1    4    4    0    0 -0.68775749062E+02 -0.32356004971E+02 -0.14172995500E+03  0.16082411157E+03  0.00000000000E+00 0.  1.
         -5    1    3    3    0  504  0.58216387890E+02 -0.92873125683E+02 -0.29905635527E+03  0.31854569362E+03  0.47000000000E+01 0.  1.
<mgrwt>
<rscale>  2 0.21468211E+03</rscale>
<asrwt>0</asrwt>
<pdfrwt beam="1">  1       21 0.12942926E-01 0.21478736E+03</pdfrwt>
<pdfrwt beam="2">  1       21 0.10403223E+00 0.21478736E+03</pdfrwt>
<totfact> 0.37820297E+04</totfact>
</mgrwt>
</event>
<event>
12    1  0.1410528E-001  0.2216088E+03  0.7546771E-02  0.1132690E+00
         21   -1    0    0  502  503  0.00000000000E+00  0.00000000000E+00  0.10052777851E+04  0.10052777851E+04  0.00000000000E+00 0. -1.
         21   -1    0    0  503  504 -0.00000000000E+00 -0.00000000000E+00 -0.16942111232E+03  0.16942111232E+03  0.00000000000E+00 0. -1.
         -6    2    1    2    0  504 -0.11147442933E+03 -0.82626790738E+02 -0.77556935392E+02  0.23478673663E+03  0.17278888427E+03 0.  0.
        -24    2    3    3    0    0 -0.10224502246E+02 -0.13339561168E+02 -0.21626362223E+02  0.99869773533E+02  0.96040552811E+02 0.  0.
          6    2    1    2  502    0  0.11147442933E+03  0.82626790738E+02  0.91341360815E+03  0.93991216076E+03  0.17279095881E+03 0.  0.
         24    2    5    5    0    0  0.31928265043E+02  0.90728063121E+02  0.37378928192E+03  0.39437597834E+03  0.81012279736E+02 0.  0.
          4    1    6    6  501    0 -0.95147884176E+01 -0.10668994600E+02  0.25096330013E+02  0.28882251029E+02  0.00000000000E+00 0. -1.
         -3    1    6    6    0  501  0.41443053461E+02  0.10139705772E+03  0.34869295191E+03  0.36549372731E+03  0.00000000000E+00 0.  1.
          5    1    5    5  502    0  0.79546164290E+02 -0.81012723831E+01  0.53962432623E+03  0.54553618242E+03  0.47000000000E+01 0. -1.
         11    1    4    4    0    0 -0.45400993403E+02 -0.18077760846E+02  0.12701322074E+02  0.50491377695E+02  0.00000000000E+00 0. -1.
        -12    1    4    4    0    0  0.35176491157E+02  0.47381996785E+01 -0.34327684297E+02  0.49378395837E+02  0.00000000000E+00 0.  1.
         -5    1    3    3    0  504 -0.10124992709E+03 -0.69287229570E+02 -0.55930573169E+02  0.13491696310E+03  0.47000000000E+01 0.  1.
<mgrwt>
<rscale>  2 0.22160837E+03</rscale>
<asrwt>0</asrwt>
<pdfrwt beam="1">  1       21 0.15465812E+00 0.22160878E+03</pdfrwt>
<pdfrwt beam="2">  1       21 0.26064787E-01 0.22160878E+03</pdfrwt>
<totfact> 0.37621395E+03</totfact>
</mgrwt>
</event>
<event>
12    1  0.1410528E-001  0.3978762E+03  0.7546771E-02  0.1044536E+00
         21   -1    0    0  502  503  0.00000000000E+00  0.00000000000E+00  0.64909292106E+03  0.64909292106E+03  0.00000000000E+00 0.  1.
         21   -1    0    0  503  504 -0.00000000000E+00 -0.00000000000E+00 -0.53471576616E+03  0.53471576616E+03  0.00000000000E+00 0. -1.
         -6    2    1    2    0  504  0.20271310676E+03 -0.29530001448E+03 -0.37942810091E+03  0.54979193585E+03  0.17323621665E+03 0.  0.
        -24    2    3    3    0    0  0.35831715272E+02 -0.12380421453E+03 -0.19904415871E+03  0.25009097684E+03  0.79470272598E+02 0.  0.
          6    2    1    2  502    0 -0.20271310676E+03  0.29530001448E+03  0.49380525581E+03  0.63401675138E+03  0.17273942272E+03 0.  0.
         24    2    5    5    0    0 -0.20230214926E+03  0.27641918384E+03  0.50186061041E+03  0.61295414495E+03  0.80715467806E+02 0.  0.
          2    1    6    6  501    0 -0.17173933209E+03  0.24003308056E+03  0.37322744744E+03  0.47582455325E+03  0.00000000000E+00 0. -1.
         -1    1    6    6    0  501 -0.30562817171E+02  0.36386103275E+02  0.12863316298E+03  0.13712959171E+03  0.00000000000E+00 0.  1.
          5    1    5    5  502    0 -0.41095750255E+00  0.18880830638E+02 -0.80553546028E+01  0.21062606426E+02  0.47000000000E+01 0. -1.
         11    1    4    4    0    0  0.48568966412E+02 -0.52720498219E+02 -0.13810097160E+03  0.15559650956E+03  0.00000000000E+00 0. -1.
        -12    1    4    4    0    0 -0.12737251140E+02 -0.71083716315E+02 -0.60943187104E+02  0.94494467279E+02  0.00000000000E+00 0.  1.
         -5    1    3    3    0  504  0.16688139149E+03 -0.17149579994E+03 -0.18038394220E+03  0.29970095900E+03  0.47000000000E+01 0.  1.
<mgrwt>
<rscale>  2 0.39782220E+03</rscale>
<asrwt>0</asrwt>
<pdfrwt beam="1">  1       21 0.99860449E-01 0.39787622E+03</pdfrwt>
<pdfrwt beam="2">  1       21 0.82263964E-01 0.39787622E+03</pdfrwt>
<totfact> 0.92328541E+02</totfact>
</mgrwt>
</event>
<event>
12    1  0.1410528E-001  0.1776939E+03  0.7546771E-02  0.1170520E+00
         21   -1    0    0  502  503  0.00000000000E+00  0.00000000000E+00  0.14871714221E+03  0.14871714221E+03  0.00000000000E+00 0. -1.
         21   -1    0    0  503  504 -0.00000000000E+00 -0.00000000000E+00 -0.79562530933E+03  0.79562530933E+03  0.00000000000E+00 0. -1.
         -6    2    1    2    0  504  0.10970116035E+02  0.25435034457E+02 -0.72897528283E+03  0.75031998370E+03  0.17552159562E+03 0.  0.
        -24    2    3    3    0    0 -0.28731396446E+02 -0.22200177677E+02 -0.60549290850E+03  0.61206185446E+03  0.81729495368E+02 0.  0.
          6    2    1    2  502    0 -0.10970116035E+02 -0.25435034457E+02  0.82067115719E+02  0.19402246784E+03  0.17361573120E+03 0.  0.
         24    2    5    5    0    0 -0.25572879578E+02 -0.73858184792E+02  0.20587719077E+02  0.11427381015E+03  0.80781469904E+02 0.  0.
          2    1    6    6  501    0 -0.36228637456E+02 -0.86618725659E+02  0.96740152013E+01  0.94386992625E+02  0.00000000000E+00 0. -1.
         -1    1    6    6    0  501  0.10655757879E+02  0.12760540867E+02  0.10913703876E+02  0.19886817530E+02  0.00000000000E+00 0.  1.
          5    1    5    5  502    0  0.14602763542E+02  0.48423150335E+02  0.61479396642E+02  0.79748657687E+02  0.47000000000E+01 0. -1.
         11    1    4    4    0    0 -0.21008368178E+02  0.25159125132E+02 -0.38578851577E+03  0.38717839817E+03  0.00000000000E+00 0. -1.
        -12    1    4    4    0    0 -0.77230282681E+01 -0.47359302809E+02 -0.21970439273E+03  0.22488345629E+03  0.00000000000E+00 0.  1.
         -5    1    3    3    0  504  0.39701512481E+02  0.47635212134E+02 -0.12348237434E+03  0.13825812924E+03  0.47000000000E+01 0.  1.
<mgrwt>
<rscale>  2 0.17722142E+03</rscale>
<asrwt>0</asrwt>
<pdfrwt beam="1">  1       21 0.22879560E-01 0.17769388E+03</pdfrwt>
<pdfrwt beam="2">  1       21 0.12240389E+00 0.17769388E+03</pdfrwt>
<totfact> 0.91125455E+03</totfact>
</mgrwt>
</event>
<event>
12    1  0.1410528E-001  0.1750403E+03  0.7546771E-02  0.1172747E+00
         21   -1    0    0  502  503  0.00000000000E+00  0.00000000000E+00  0.19568646994E+04  0.19568646994E+04  0.00000000000E+00 0.  1.
         21   -1    0    0  503  504 -0.00000000000E+00 -0.00000000000E+00 -0.16151287495E+02  0.16151287495E+02  0.00000000000E+00 0.  1.
         -6    2    1    2    0  504 -0.28868195076E+02 -0.20024964052E+02  0.79498634450E+03  0.81402850387E+03  0.17147811903E+03 0.  0.
        -24    2    3    3    0    0 -0.35815159877E+02 -0.64961628604E+02  0.70173052822E+03  0.71017138370E+03  0.80093202708E+02 0.  0.
          6    2    1    2  502    0  0.28868195076E+02  0.20024964052E+02  0.11457270674E+04  0.11589874830E+04  0.17125157209E+03 0.  0.
         24    2    5    5    0    0  0.18577919337E+02  0.67551649499E+02  0.99172851410E+03  0.99742535867E+03  0.80146965035E+02 0.  0.
          2    1    6    6  501    0  0.49816885392E+02  0.46260917012E+02  0.68887263532E+03  0.69221911430E+03  0.00000000000E+00 0. -1.
         -1    1    6    6    0  501 -0.31238966055E+02  0.21290732487E+02  0.30285587878E+03  0.30520624437E+03  0.00000000000E+00 0.  1.
          5    1    5    5  502    0  0.10290275739E+02 -0.47526685447E+02  0.15399855331E+03  0.16156212436E+03  0.47000000000E+01 0. -1.
         11    1    4    4    0    0 -0.13020747961E+02  0.15397278713E+02  0.67011062597E+02  0.69979272499E+02  0.00000000000E+00 0. -1.
        -12    1    4    4    0    0 -0.22794411916E+02 -0.80358907317E+02  0.63471946563E+03  0.64019211120E+03  0.00000000000E+00 0.  1.
         -5    1    3    3    0  504  0.69469648010E+01  0.44936664553E+02  0.93255816275E+02  0.10385712017E+03  0.47000000000E+01 0.  1.
<mgrwt>
<rscale>  2 0.17498482E+03</rscale>
<asrwt>0</asrwt>
<pdfrwt beam="1">  1       21 0.30105592E+00 0.17504033E+03</pdfrwt>
<pdfrwt beam="2">  1       21 0.24848150E-02 0.17504033E+03</pdfrwt>
<totfact> 0.29570246E+04</totfact>
</mgrwt>
</event>
<event>
12    1  0.1410528E-001  0.1755970E+03  0.7546771E-02  0.1172206E+00
         21   -1    0    0  502  503  0.00000000000E+00  0.00000000000E+00  0.49057473870E+03  0.49057473870E+03  0.00000000000E+00 0.  1.
         21   -1    0    0  503  504 -0.00000000000E+00 -0.00000000000E+00 -0.72723494910E+02  0.72723494910E+02  0.00000000000E+00 0.  1.
         -6    2    1    2    0  504  0.16619671468E+02 -0.23025498816E+02  0.10476858383E+03  0.20447682274E+03  0.17328568263E+03 0.  0.
        -24    2    3    3    0    0 -0.10311746607E+02 -0.79326772055E+02  0.70862443765E+02  0.13329500637E+03  0.79668085850E+02 0.  0.
          6    2    1    2  502    0 -0.16619671468E+02  0.23025498816E+02  0.31308265995E+03  0.35882141087E+03  0.17299036348E+03 0.  0.
         24    2    5    5    0    0 -0.50741331343E+02  0.77494780724E+02  0.19923705096E+03  0.22800052938E+03  0.60899221505E+02 0.  0.
          2    1    6    6  501    0 -0.70336350418E+01  0.56522412475E+02  0.71766066464E+02  0.91622177608E+02  0.00000000000E+00 0. -1.
         -1    1    6    6    0  501 -0.43707696301E+02  0.20972368249E+02  0.12747098449E+03  0.13637835178E+03  0.00000000000E+00 0.  1.
          5    1    5    5  502    0  0.34121659875E+02 -0.54469281908E+02  0.11384560899E+03  0.13082088148E+03  0.47000000000E+01 0. -1.
         11    1    4    4    0    0 -0.62449147950E+01  0.15234706726E+00  0.50852658033E+02  0.51234900209E+02  0.00000000000E+00 0. -1.
        -12    1    4    4    0    0 -0.40668318121E+01 -0.79479119122E+02  0.20009785732E+02  0.82060106157E+02  0.00000000000E+00 0.  1.
         -5    1    3    3    0  504  0.26931418075E+02  0.56301273239E+02  0.33906140070E+02  0.71181816374E+02  0.47000000000E+01 0.  1.
<mgrwt>
<rscale>  2 0.17552412E+03</rscale>
<asrwt>0</asrwt>
<pdfrwt beam="1">  1       21 0.75473035E-01 0.17559702E+03</pdfrwt>
<pdfrwt beam="2">  1       21 0.11188230E-01 0.17559702E+03</pdfrwt>
<totfact> 0.10494063E+05</totfact>
</mgrwt>
</event>
<event>
12    1  0.1410528E-001  0.1840735E+03  0.7546771E-02  0.1163945E+00
         21   -1    0    0  502  503  0.00000000000E+00  0.00000000000E+00  0.22458316152E+03  0.22458316152E+03  0.00000000000E+00 0. -1.
         21   -1    0    0  503  504 -0.00000000000E+00 -0.00000000000E+00 -0.17670477563E+03  0.17670477563E+03  0.00000000000E+00 0. -1.
         -6    2    1    2    0  504  0.63041402564E+02 -0.22246647006E+01 -0.52914324807E+02  0.19152805670E+03  0.17292745058E+03 0.  0.
        -24    2    3    3    0    0  0.53579340088E+02  0.69670296396E+02 -0.44336494100E+02  0.11835644173E+03  0.65710172010E+02 0.  0.
          6    2    1    2  502    0 -0.63041402564E+02  0.22246647006E+01  0.10079271069E+03  0.20975988045E+03  0.17280297841E+03 0.  0.
         24    2    5    5    0    0 -0.20432062080E+02 -0.62642755766E+02  0.33464296652E+02  0.10690783394E+03  0.77251807727E+02 0.  0.
          4    1    6    6  501    0  0.15243046618E+02 -0.35911927697E+02  0.46274098205E+02  0.60525277246E+02  0.00000000000E+00 0. -1.
         -3    1    6    6    0  501 -0.35675108698E+02 -0.26730828070E+02 -0.12809801552E+02  0.46382556696E+02  0.00000000000E+00 0.  1.
          5    1    5    5  502    0 -0.42609340483E+02  0.64867420467E+02  0.67328414038E+02  0.10285204651E+03  0.47000000000E+01 0. -1.
         11    1    4    4    0    0 -0.88715026307E+01  0.38941615167E+02 -0.19604848851E+02  0.44491606502E+02  0.00000000000E+00 0. -1.
        -12    1    4    4    0    0  0.62450842719E+02  0.30728681230E+02 -0.24731645249E+02  0.73864835227E+02  0.00000000000E+00 0.  1.
         -5    1    3    3    0  504  0.94620624756E+01 -0.71894961097E+02 -0.85778307069E+01  0.73171614968E+02  0.47000000000E+01 0.  1.
<mgrwt>
<rscale>  2 0.18404431E+03</rscale>
<asrwt>0</asrwt>
<pdfrwt beam="1">  1       21 0.34551256E-01 0.18407355E+03</pdfrwt>
<pdfrwt beam="2">  1       21 0.27185350E-01 0.18407355E+03</pdfrwt>
<totfact> 0.10446168E+05</totfact>
</mgrwt>
</event>
<event>
12    1  0.1410528E-001  0.1755264E+03  0.7546771E-02  0.1172328E+00
         21   -1    0    0  502  503  0.00000000000E+00  0.00000000000E+00  0.10762286762E+04  0.10762286762E+04  0.00000000000E+00 0. -1.
         21   -1    0    0  503  504 -0.00000000000E+00 -0.00000000000E+00 -0.73729031721E+02  0.73729031721E+02  0.00000000000E+00 0. -1.
         -6    2    1    2    0  504  0.99963175385E+01  0.27066655693E+02  0.50869691806E+02  0.18227538785E+03  0.17263852773E+03 0.  0.
        -24    2    3    3    0    0  0.35656095317E+02 -0.17753416890E+02  0.82352595623E+02  0.12160804626E+03  0.80125064529E+02 0.  0.
          6    2    1    2  502    0 -0.99963175385E+01 -0.27066655693E+02  0.95162995264E+03  0.96768232004E+03  0.17313860212E+03 0.  0.
         24    2    5    5    0    0  0.31135756076E+02 -0.19144452688E+02  0.88184947917E+03  0.88615923584E+03  0.79270057239E+02 0.  0.
          2    1    6    6  501    0  0.15756746657E+02  0.23353191163E+02  0.60412208335E+03  0.60477858609E+03  0.00000000000E+00 0. -1.
         -1    1    6    6    0  501  0.15379009419E+02 -0.42497643851E+02  0.27772739582E+03  0.28138064974E+03  0.00000000000E+00 0.  1.
          5    1    5    5  502    0 -0.41132073614E+02 -0.79222030047E+01  0.69780473471E+02  0.81523084204E+02  0.47000000000E+01 0. -1.
         11    1    4    4    0    0  0.46856274417E+02  0.19311552607E+02  0.44137759871E+02  0.67205567945E+02  0.00000000000E+00 0. -1.
        -12    1    4    4    0    0 -0.11200179100E+02 -0.37064969498E+02  0.38214835752E+02  0.54402478319E+02  0.00000000000E+00 0.  1.
         -5    1    3    3    0  504 -0.25659777778E+02  0.44820072583E+02 -0.31482903817E+02  0.60667341583E+02  0.47000000000E+01 0.  1.
<mgrwt>
<rscale>  2 0.17540292E+03</rscale>
<asrwt>0</asrwt>
<pdfrwt beam="1">  1       21 0.16557363E+00 0.17552637E+03</pdfrwt>
<pdfrwt beam="2">  1       21 0.11342929E-01 0.17552637E+03</pdfrwt>
<totfact> 0.15075450E+04</totfact>
</mgrwt>
</event>
<event>
12    1  0.1410528E-001  0.1898084E+03  0.7546771E-02  0.1159008E+00
         21   -1    0    0  502  503  0.00000000000E+00  0.00000000000E+00  0.32855707255E+03  0.32855707255E+03  0.00000000000E+00 0.  1.
         21   -1    0    0  503  504 -0.00000000000E+00 -0.00000000000E+00 -0.10409429798E+04  0.10409429798E+04  0.00000000000E+00 0.  1.
         -6    2    1    2    0  504  0.63732516038E+02  0.45606982890E+02 -0.10043653804E+04  0.10221433520E+04  0.17287389688E+03 0.  0.
        -24    2    3    3    0    0  0.54368924672E+02 -0.12224935640E+02 -0.29952756112E+03  0.31485935733E+03  0.79462104214E+02 0.  0.
          6    2    1    2  502    0 -0.63732516038E+02 -0.45606982890E+02  0.29197947308E+03  0.34735670042E+03  0.17106383059E+03 0.  0.
         24    2    5    5    0    0 -0.81645502745E+02 -0.69323599405E+02  0.28717602544E+03  0.31688513825E+03  0.80463480551E+02 0.  0.
          4    1    6    6  501    0 -0.28834414506E+02 -0.48160339524E+02  0.57849088309E+02  0.80606195675E+02  0.00000000000E+00 0. -1.
         -3    1    6    6    0  501 -0.52811088239E+02 -0.21163259880E+02  0.22932693713E+03  0.23627894257E+03  0.00000000000E+00 0.  1.
          5    1    5    5  502    0  0.17912986707E+02  0.23716616514E+02  0.48034476384E+01  0.30471562166E+02  0.47000000000E+01 0. -1.
         13    1    4    4    0    0 -0.26196870937E+01 -0.33301147547E+02 -0.72222358575E+02  0.79573225814E+02  0.00000000000E+00 0. -1.
        -14    1    4    4    0    0  0.56988611766E+02  0.21076211907E+02 -0.22730520254E+03  0.23528613151E+03  0.00000000000E+00 0.  1.
         -5    1    3    3    0  504  0.93635913660E+01  0.57831918530E+02 -0.70483781923E+03  0.70728399463E+03  0.47000000000E+01 0.  1.
<mgrwt>
<rscale>  2 0.18939524E+03</rscale>
<asrwt>0</asrwt>
<pdfrwt beam="1">  1       21 0.50547242E-01 0.18980836E+03</pdfrwt>
<pdfrwt beam="2">  1       21 0.16014507E+00 0.18980836E+03</pdfrwt>
<totfact> 0.93813960E+02</totfact>
</mgrwt>
</event>
<event>
12    1  0.1410528E-001  0.2293170E+03  0.7546771E-02  0.1127141E+00
         21   -1    0    0  502  503  0.00000000000E+00  0.00000000000E+00  0.20771299322E+03  0.20771299322E+03  0.00000000000E+00 0.  1.
         21   -1    0    0  503  504 -0.00000000000E+00 -0.00000000000E+00 -0.25569540034E+03  0.25569540034E+03  0.00000000000E+00 0.  1.
         -6    2    1    2    0  504 -0.77369875395E+02 -0.12952881053E+03 -0.47581511134E+02  0.23409100858E+03  0.17254213896E+03 0.  0.
        -24    2    3    3    0    0 -0.38064088153E+02 -0.13794647745E+03  0.89237608093E+01  0.16458749943E+03  0.80816495910E+02 0.  0.
          6    2    1    2  502    0  0.77369875395E+02  0.12952881053E+03 -0.40089599389E+00  0.22931738498E+03  0.17269189894E+03 0.  0.
         24    2    5    5    0    0  0.83251075507E+02  0.15607188552E+03 -0.19975775832E+02  0.19548856199E+03  0.80793386025E+02 0.  0.
          2    1    6    6  501    0  0.54112899615E+01  0.62840204501E+02 -0.36566872140E+02  0.72906169142E+02  0.00000000000E+00 0. -1.
         -1    1    6    6    0  501  0.77839785546E+02  0.93231681017E+02  0.16591096308E+02  0.12258239285E+03  0.00000000000E+00 0.  1.
          5    1    5    5  502    0 -0.58812001127E+01 -0.26543074986E+02  0.19574879838E+02  0.33828822994E+02  0.47000000000E+01 0. -1.
         13    1    4    4    0    0 -0.24804924934E+02  0.53340277772E+00 -0.28658053933E+01  0.24975621315E+02  0.00000000000E+00 0. -1.
        -14    1    4    4    0    0 -0.13259163219E+02 -0.13847988023E+03  0.11789566203E+02  0.13961187811E+03  0.00000000000E+00 0.  1.
         -5    1    3    3    0  504 -0.39305787242E+02  0.84176669212E+01 -0.56505271943E+02  0.69503509152E+02  0.47000000000E+01 0.  1.
<mgrwt>
<rscale>  2 0.22928884E+03</rscale>
<asrwt>0</asrwt>
<pdfrwt beam="1">  1       21 0.31955845E-01 0.22931703E+03</pdfrwt>
<pdfrwt beam="2">  1       21 0.39337754E-01 0.22931703E+03</pdfrwt>
<totfact> 0.57717738E+04</totfact>
</mgrwt>
</event>
<event>
12    1  0.1410528E-001  0.2425307E+03  0.7546771E-02  0.1118207E+00
         21   -1    0    0  502  503  0.00000000000E+00  0.00000000000E+00  0.35416685357E+03  0.35416685357E+03  0.00000000000E+00 0. -1.
         21   -1    0    0  503  504 -0.00000000000E+00 -0.00000000000E+00 -0.25514291347E+03  0.25514291347E+03  0.00000000000E+00 0.  1.
         -6    2    1    2    0  504 -0.33506226527E+01 -0.16901672769E+03 -0.13089158463E+03  0.27512079781E+03  0.17315012431E+03 0.  0.
        -24    2    3    3    0    0  0.56886528742E+02 -0.73508898060E+02 -0.37128559960E+02  0.12827443346E+03  0.80225713256E+02 0.  0.
          6    2    1    2  502    0  0.33506226527E+01  0.16901672769E+03  0.22991552472E+03  0.33418896923E+03  0.17390583008E+03 0.  0.
         24    2    5    5    0    0  0.49554918485E+02  0.16480145762E+03  0.15162913908E+03  0.24306568115E+03  0.80463153996E+02 0.  0.
          2    1    6    6  501    0  0.18701077833E+02  0.14029170572E+03  0.83405389324E+02  0.16428010218E+03  0.00000000000E+00 0. -1.
         -1    1    6    6    0  501  0.30853840651E+02  0.24509751910E+02  0.68223749760E+02  0.78785578966E+02  0.00000000000E+00 0.  1.
          5    1    5    5  502    0 -0.46204295832E+02  0.42152700689E+01  0.78286385636E+02  0.91123288083E+02  0.47000000000E+01 0. -1.
         11    1    4    4    0    0  0.46640744738E+02 -0.14525377314E+02  0.12598773594E+02  0.50448733897E+02  0.00000000000E+00 0. -1.
        -12    1    4    4    0    0  0.10245784005E+02 -0.58983520746E+02 -0.49727333554E+02  0.77825699559E+02  0.00000000000E+00 0.  1.
         -5    1    3    3    0  504 -0.60237151395E+02 -0.95507829634E+02 -0.93763024665E+02  0.14684636435E+03  0.47000000000E+01 0.  1.
<mgrwt>
<rscale>  2 0.24239522E+03</rscale>
<asrwt>0</asrwt>
<pdfrwt beam="1">  1       21 0.54487208E-01 0.24253066E+03</pdfrwt>
<pdfrwt beam="2">  1       21 0.39252756E-01 0.24253066E+03</pdfrwt>
<totfact> 0.19361037E+04</totfact>
</mgrwt>
</event>
<event>
12    1  0.1410528E-001  0.2044005E+03  0.7546771E-02  0.1148466E+00
         21   -1    0    0  502  503  0.00000000000E+00  0.00000000000E+00  0.49229856099E+03  0.49229856099E+03  0.00000000000E+00 0. -1.
         21   -1    0    0  503  504 -0.00000000000E+00 -0.00000000000E+00 -0.95217171458E+02  0.95217171458E+02  0.00000000000E+00 0.  1.
         -6    2    1    2    0  504  0.10522473201E+03 -0.21504162154E+02  0.86832627587E+02  0.22207987430E+03  0.17391058662E+03 0.  0.
        -24    2    3    3    0    0  0.73889798264E+02  0.22850619268E+02  0.11598273154E+03  0.16026528647E+03  0.79063992716E+02 0.  0.
          6    2    1    2  502    0 -0.10522473201E+03  0.21504162154E+02  0.31024876195E+03  0.36543585815E+03  0.16048177129E+03 0.  0.
         24    2    5    5    0    0 -0.14176569710E+02 -0.23732661902E+02  0.10328235378E+03  0.13479908264E+03  0.82093444979E+02 0.  0.
          2    1    6    6  501    0 -0.16856069685E+02 -0.94126933329E+00  0.10968313173E+03  0.11097478299E+03  0.00000000000E+00 0. -1.
         -1    1    6    6    0  501  0.26794999745E+01 -0.22791392569E+02 -0.64007779538E+01  0.23824299649E+02  0.00000000000E+00 0.  1.
          5    1    5    5  502    0 -0.91048162299E+02  0.45236824056E+02  0.20696640817E+03  0.23063677552E+03  0.47000000000E+01 0. -1.
         11    1    4    4    0    0  0.59609940814E+02 -0.19490852260E+02  0.86059220363E+02  0.10648674929E+03  0.00000000000E+00 0. -1.
        -12    1    4    4    0    0  0.14279857451E+02  0.42341471528E+02  0.29923511175E+02  0.53778537178E+02  0.00000000000E+00 0.  1.
         -5    1    3    3    0  504  0.31334933745E+02 -0.44354781421E+02 -0.29150103952E+02  0.61814587826E+02  0.47000000000E+01 0.  1.
<mgrwt>
<rscale>  2 0.20151583E+03</rscale>
<asrwt>0</asrwt>
<pdfrwt beam="1">  1       21 0.75738239E-01 0.20440050E+03</pdfrwt>
<pdfrwt beam="2">  1       21 0.14648796E-01 0.20440050E+03</pdfrwt>
<totfact> 0.63356884E+04</totfact>
</mgrwt>
</event>
<event>
12    1  0.1410528E-001  0.1930611E+03  0.7546771E-02  0.1157391E+00
         21   -1    0    0  502  503  0.00000000000E+00  0.00000000000E+00  0.12216476542E+04  0.12216476542E+04  0.00000000000E+00 0.  1.
         21   -1    0    0  503  504 -0.00000000000E+00 -0.00000000000E+00 -0.64775058390E+02  0.64775058390E+02  0.00000000000E+00 0.  1.
         -6    2    1    2    0  504  0.56051258054E+02 -0.55671771597E+02  0.10795317454E+03  0.22119326931E+03  0.17615755678E+03 0.  0.
        -24    2    3    3    0    0 -0.29474191870E+02  0.34028173695E+01  0.30317036369E+02  0.91370815177E+02  0.80927103121E+02 0.  0.
          6    2    1    2  502    0 -0.56051258054E+02  0.55671771597E+02  0.10489194212E+04  0.10652294433E+04  0.16804976894E+03 0.  0.
         24    2    5    5    0    0 -0.15298166488E+02  0.10855093324E+02  0.90748419992E+03  0.91129646773E+03  0.81128367709E+02 0.  0.
          2    1    6    6  501    0  0.29217428627E+02  0.20212377853E+02  0.50544797429E+03  0.50669502965E+03  0.00000000000E+00 0. -1.
         -1    1    6    6    0  501 -0.44515595116E+02 -0.93572845294E+01  0.40203622563E+03  0.40460143808E+03  0.00000000000E+00 0.  1.
          5    1    5    5  502    0 -0.40753091565E+02  0.44816678273E+02  0.14143522132E+03  0.15393297553E+03  0.47000000000E+01 0. -1.
         11    1    4    4    0    0 -0.40934810727E+02 -0.25830141641E+02  0.34853184385E+02  0.59645615163E+02  0.00000000000E+00 0. -1.
        -12    1    4    4    0    0  0.11460618857E+02  0.29232959010E+02 -0.45361480166E+01  0.31725200014E+02  0.00000000000E+00 0.  1.
         -5    1    3    3    0  504  0.85525449924E+02 -0.59074588967E+02  0.77636138176E+02  0.12982245413E+03  0.47000000000E+01 0.  1.
<mgrwt>
<rscale>  2 0.19119203E+03</rscale>
<asrwt>0</asrwt>
<pdfrwt beam="1">  1       21 0.18794578E+00 0.19306106E+03</pdfrwt>
<pdfrwt beam="2">  1       21 0.99653945E-02 0.19306106E+03</pdfrwt>
<totfact> 0.13134516E+04</totfact>
</mgrwt>
</event>
<event>
12    1  0.1410528E-001  0.2479318E+03  0.7546771E-02  0.1115238E+00
         21   -1    0    0  502  503  0.00000000000E+00  0.00000000000E+00  0.77973154680E+02  0.77973154680E+02  0.00000000000E+00 0. -1.
         21   -1    0    0  503  504 -0.00000000000E+00 -0.00000000000E+00 -0.15875491002E+04  0.15875491002E+04  0.00000000000E+00 0.  1.
         -6    2    1    2    0  504  0.89759149202E+02  0.15470430205E+03 -0.13472381935E+04  0.13691715809E+04  0.16610220336E+03 0.  0.
        -24    2    3    3    0    0  0.83666745663E+02  0.78338608821E+02 -0.11107788752E+04  0.11205676073E+04  0.93300540983E+02 0.  0.
          6    2    1    2  502    0 -0.89759149202E+02 -0.15470430205E+03 -0.16233775195E+03  0.29635067391E+03  0.17169755468E+03 0.  0.
         24    2    5    5    0    0 -0.80732074285E+02 -0.11051110314E+03 -0.36854827969E+02  0.16292436046E+03  0.80347353112E+02 0.  0.
          4    1    6    6  501    0 -0.11774235278E+02 -0.57702212014E+02  0.16285714384E+02  0.61101574290E+02  0.00000000000E+00 0. -1.
         -3    1    6    6    0  501 -0.68957839007E+02 -0.52808891127E+02 -0.53140542354E+02  0.10182278617E+03  0.00000000000E+00 0.  1.
          5    1    5    5  502    0 -0.90270749168E+01 -0.44193198907E+02 -0.12548292398E+03  0.13342631345E+03  0.47000000000E+01 0. -1.
         13    1    4    4    0    0 -0.98787873217E+01  0.47153790853E+02 -0.42852992687E+03  0.43122960085E+03  0.00000000000E+00 0. -1.
        -14    1    4    4    0    0  0.93545532985E+02  0.31184817968E+02 -0.68224894831E+03  0.68933800641E+03  0.00000000000E+00 0.  1.
         -5    1    3    3    0  504  0.60924035385E+01  0.76365693227E+02 -0.23645931835E+03  0.24860397366E+03  0.47000000000E+01 0.  1.
<mgrwt>
<rscale>  2 0.24696579E+03</rscale>
<asrwt>0</asrwt>
<pdfrwt beam="1">  1       21 0.11995869E-01 0.24793180E+03</pdfrwt>
<pdfrwt beam="2">  1       21 0.24423834E+00 0.24793180E+03</pdfrwt>
<totfact> 0.40088992E+03</totfact>
</mgrwt>
</event>
<event>
12    1  0.1410528E-001  0.1893863E+03  0.7546771E-02  0.1159124E+00
         21   -1    0    0  502  503  0.00000000000E+00  0.00000000000E+00  0.16752555003E+03  0.16752555003E+03  0.00000000000E+00 0. -1.
         21   -1    0    0  503  504 -0.00000000000E+00 -0.00000000000E+00 -0.26886337919E+03  0.26886337919E+03  0.00000000000E+00 0.  1.
         -6    2    1    2    0  504 -0.85111701170E+00  0.77856807030E+02 -0.14957417579E+03  0.24095628874E+03  0.17211941268E+03 0.  0.
        -24    2    3    3    0    0  0.49478020952E+02 -0.54552433922E+00 -0.84169330309E+02  0.12702722527E+03  0.81259261873E+02 0.  0.
          6    2    1    2  502    0  0.85111701170E+00 -0.77856807030E+02  0.48236346629E+02  0.19543264048E+03  0.17264056599E+03 0.  0.
         24    2    5    5    0    0 -0.61675858329E+02 -0.67326155775E+02  0.56274974111E+02  0.13134499117E+03  0.75814980335E+02 0.  0.
          2    1    6    6  501    0 -0.64152154033E+02 -0.81819114154E+02  0.49706254383E+02  0.11524139028E+03  0.00000000000E+00 0. -1.
         -1    1    6    6    0  501  0.24762957041E+01  0.14492958379E+02  0.65687197280E+01  0.16103600897E+02  0.00000000000E+00 0.  1.
          5    1    5    5  502    0  0.62526975341E+02 -0.10530651255E+02 -0.80386274819E+01  0.64087649301E+02  0.47000000000E+01 0. -1.
         13    1    4    4    0    0 -0.13000665163E+01 -0.15973741294E+02  0.10030520286E+02  0.18906663404E+02  0.00000000000E+00 0. -1.
        -14    1    4    4    0    0  0.50778087469E+02  0.15428216954E+02 -0.94199850595E+02  0.10812056186E+03  0.00000000000E+00 0.  1.
         -5    1    3    3    0  504 -0.50329137964E+02  0.78402331370E+02 -0.65404845482E+02  0.11392906348E+03  0.47000000000E+01 0.  1.
<mgrwt>
<rscale>  2 0.18926745E+03</rscale>
<asrwt>0</asrwt>
<pdfrwt beam="1">  1       21 0.25773161E-01 0.18938630E+03</pdfrwt>
<pdfrwt beam="2">  1       21 0.41363597E-01 0.18938630E+03</pdfrwt>
<totfact> 0.80533158E+04</totfact>
</mgrwt>
</event>
<event>
12    1  0.1410528E-001  0.1895763E+03  0.7546771E-02  0.1159315E+00
         21   -1    0    0  502  503  0.00000000000E+00  0.00000000000E+00  0.45680813420E+03  0.45680813420E+03  0.00000000000E+00 0.  1.
         21   -1    0    0  503  504 -0.00000000000E+00 -0.00000000000E+00 -0.78113622499E+02  0.78113622499E+02  0.00000000000E+00 0.  1.
         -6    2    1    2    0  504 -0.66593938902E+02 -0.34571862751E+02  0.17391439237E+03  0.25726518275E+03  0.17409535316E+03 0.  0.
        -24    2    3    3    0    0  0.16569819069E+02 -0.55012369232E+02  0.12199268467E+03  0.15700562622E+03  0.80421588399E+02 0.  0.
          6    2    1    2  502    0  0.66593938902E+02  0.34571862751E+02  0.20478011933E+03  0.27765657395E+03  0.17183803243E+03 0.  0.
         24    2    5    5    0    0  0.10851327357E+02  0.30256494978E+02  0.20360278159E+03  0.22153761757E+03  0.81188770976E+02 0.  0.
          2    1    6    6  501    0 -0.25174355946E+02  0.96174442754E+01  0.15626558182E+03  0.15857230368E+03  0.00000000000E+00 0. -1.
         -1    1    6    6    0  501  0.36025683303E+02  0.20639050703E+02  0.47337199770E+02  0.62965313891E+02  0.00000000000E+00 0.  1.
          5    1    5    5  502    0  0.55742611545E+02  0.43153677730E+01  0.11773377396E+01  0.56118956378E+02  0.47000000000E+01 0. -1.
         13    1    4    4    0    0 -0.20523953161E+01  0.16770765904E+02  0.53322633004E+02  0.55935445882E+02  0.00000000000E+00 0. -1.
        -14    1    4    4    0    0  0.18622214385E+02 -0.71783135136E+02  0.68670051662E+02  0.10107018034E+03  0.00000000000E+00 0.  1.
         -5    1    3    3    0  504 -0.83163757971E+02  0.20440506481E+02  0.51921707706E+02  0.10025955653E+03  0.47000000000E+01 0.  1.
<mgrwt>
<rscale>  2 0.18905641E+03</rscale>
<asrwt>0</asrwt>
<pdfrwt beam="1">  1       21 0.70278173E-01 0.18957626E+03</pdfrwt>
<pdfrwt beam="2">  1       21 0.12017481E-01 0.18957626E+03</pdfrwt>
<totfact> 0.10763225E+05</totfact>
</mgrwt>
</event>
<event>
12    1  0.1410528E-001  0.2859003E+03  0.7546771E-02  0.1092694E+00
         21   -1    0    0  502  503  0.00000000000E+00  0.00000000000E+00  0.10640544766E+03  0.10640544766E+03  0.00000000000E+00 0.  1.
         21   -1    0    0  503  504 -0.00000000000E+00 -0.00000000000E+00 -0.76847718712E+03  0.76847718712E+03  0.00000000000E+00 0.  1.
         -6    2    1    2    0  504  0.62974163904E+02  0.21855072985E+03 -0.30020288516E+03  0.41456094263E+03  0.17323058637E+03 0.  0.
        -24    2    3    3    0    0 -0.28091293799E+02  0.13361880978E+03 -0.19924663567E+03  0.25418450126E+03  0.79167112746E+02 0.  0.
          6    2    1    2  502    0 -0.62974163904E+02 -0.21855072985E+03 -0.36186885430E+03  0.46032169215E+03  0.17092930033E+03 0.  0.
         24    2    5    5    0    0 -0.23588528928E+02 -0.66410683741E+02 -0.22885390136E+03  0.25437779305E+03  0.85832137417E+02 0.  0.
          4    1    6    6  501    0  0.25013697129E+02  0.21573128911E+01 -0.74626000900E+02  0.78736135625E+02  0.00000000000E+00 0. -1.
         -3    1    6    6    0  501 -0.48602226056E+02 -0.68567996632E+02 -0.15422790046E+03  0.17564165742E+03  0.00000000000E+00 0.  1.
          5    1    5    5  502    0 -0.39385634976E+02 -0.15214004611E+03 -0.13301495294E+03  0.20594389910E+03  0.47000000000E+01 0. -1.
         13    1    4    4    0    0 -0.14778370293E+02  0.15331305467E+02  0.90268287424E+00  0.21313469737E+02  0.00000000000E+00 0. -1.
        -14    1    4    4    0    0 -0.13312923506E+02  0.11828750431E+03 -0.20014931854E+03  0.23287103152E+03  0.00000000000E+00 0.  1.
         -5    1    3    3    0  504  0.91065457703E+02  0.84931920072E+02 -0.10095624949E+03  0.16037644137E+03  0.47000000000E+01 0.  1.
<mgrwt>
<rscale>  2 0.28555258E+03</rscale>
<asrwt>0</asrwt>
<pdfrwt beam="1">  1       21 0.16370069E-01 0.28590034E+03</pdfrwt>
<pdfrwt beam="2">  1       21 0.11822726E+00 0.28590034E+03</pdfrwt>
<totfact> 0.17403991E+04</totfact>
</mgrwt>
</event>
<event>
12    1  0.1410528E-001  0.3216446E+03  0.7546771E-02  0.1075106E+00
         21   -1    0    0  502  503  0.00000000000E+00  0.00000000000E+00  0.27391979591E+03  0.27391979591E+03  0.00000000000E+00 0.  1.
         21   -1    0    0  503  504 -0.00000000000E+00 -0.00000000000E+00 -0.38486251957E+03  0.38486251957E+03  0.00000000000E+00 0. -1.
         -6    2    1    2    0  504  0.16247448752E+03  0.21653969218E+03 -0.43244086585E+01  0.32167370361E+03  0.17368901433E+03 0.  0.
        -24    2    3    3    0    0  0.13400158152E+03  0.19981369570E+03  0.49154205328E+02  0.25864579322E+03  0.81237759749E+02 0.  0.
          6    2    1    2  502    0 -0.16247448752E+03 -0.21653969218E+03 -0.10661831500E+03  0.33710861187E+03  0.17025672886E+03 0.  0.
         24    2    5    5    0    0 -0.42301768300E+02 -0.14714222321E+03 -0.20563662846E+02  0.17375321924E+03  0.79542715039E+02 0.  0.
          2    1    6    6  501    0  0.36859482395E+01 -0.78709775977E+02 -0.40977787488E+02  0.88814380121E+02  0.00000000000E+00 0. -1.
         -1    1    6    6    0  501 -0.45987716539E+02 -0.68432447230E+02  0.20414124642E+02  0.84938839121E+02  0.00000000000E+00 0.  1.
          5    1    5    5  502    0 -0.12017271922E+03 -0.69397468972E+02 -0.86054652154E+02  0.16335539263E+03  0.47000000000E+01 0. -1.
         11    1    4    4    0    0  0.70104718144E+02  0.42384455983E+02  0.31733086012E+02  0.87852731107E+02  0.00000000000E+00 0. -1.
        -12    1    4    4    0    0  0.63896863377E+02  0.15742923972E+03  0.17421119315E+02  0.17079306211E+03  0.00000000000E+00 0.  1.
         -5    1    3    3    0  504  0.28472905997E+02  0.16725996476E+02 -0.53478613986E+02  0.63027910388E+02  0.47000000000E+01 0.  1.
<mgrwt>
<rscale>  2 0.32118355E+03</rscale>
<asrwt>0</asrwt>
<pdfrwt beam="1">  1       21 0.42141507E-01 0.32164463E+03</pdfrwt>
<pdfrwt beam="2">  1       21 0.59209618E-01 0.32164463E+03</pdfrwt>
<totfact> 0.13524916E+04</totfact>
</mgrwt>
</event>
<event>
12    1  0.1410528E-001  0.8543550E+03  0.7546771E-02  0.9484585E-01
         21   -1    0    0  502  503  0.00000000000E+00  0.00000000000E+00  0.25810651172E+04  0.25810651172E+04  0.00000000000E+00 0. -1.
         21   -1    0    0  503  504 -0.00000000000E+00 -0.00000000000E+00 -0.49609806284E+03  0.49609806284E+03  0.00000000000E+00 0.  1.
         -6    2    1    2    0  504  0.34564125985E+03  0.76121556940E+03  0.33368564386E+02  0.85478184481E+03  0.17499004977E+03 0.  0.
        -24    2    3    3    0    0  0.65947082553E+02  0.24220164213E+03  0.34455332855E+01  0.26442452309E+03  0.83053016594E+02 0.  0.
          6    2    1    2  502    0 -0.34564125985E+03 -0.76121556940E+03  0.20515984900E+04  0.22223813352E+04  0.17608353551E+03 0.  0.
         24    2    5    5    0    0 -0.21400148197E+03 -0.60186360001E+03  0.14570040434E+04  0.15928682479E+04  0.79574149404E+02 0.  0.
          4    1    6    6  501    0 -0.12550465572E+03 -0.28432778122E+03  0.62699837825E+03  0.69980045163E+03  0.00000000000E+00 0. -1.
         -3    1    6    6    0  501 -0.88496826254E+02 -0.31753581879E+03  0.83000566520E+03  0.89306779627E+03  0.00000000000E+00 0.  1.
          5    1    5    5  502    0 -0.13163977788E+03 -0.15935196940E+03  0.59459444651E+03  0.62951308731E+03  0.47000000000E+01 0. -1.
         11    1    4    4    0    0  0.14716596531E+02  0.17890016376E+03  0.22159477201E+02  0.18086704851E+03  0.00000000000E+00 0. -1.
        -12    1    4    4    0    0  0.51230486022E+02  0.63301478374E+02 -0.18713943916E+02  0.83557474586E+02  0.00000000000E+00 0.  1.
         -5    1    3    3    0  504  0.27969417729E+03  0.51901392727E+03  0.29923031100E+02  0.59035732172E+03  0.47000000000E+01 0.  1.
<mgrwt>
<rscale>  2 0.85429880E+03</rscale>
<asrwt>0</asrwt>
<pdfrwt beam="1">  1       21 0.39708693E+00 0.85435498E+03</pdfrwt>
<pdfrwt beam="2">  1       21 0.76322780E-01 0.85435498E+03</pdfrwt>
<totfact> 0.79735003E+00</totfact>
</mgrwt>
</event>
<event>
12    1  0.1410528E-001  0.2196521E+03  0.7546771E-02  0.1134279E+00
         21   -1    0    0  502  503  0.00000000000E+00  0.00000000000E+00  0.11135066258E+04  0.11135066258E+04  0.00000000000E+00 0.  1.
         21   -1    0    0  503  504 -0.00000000000E+00 -0.00000000000E+00 -0.99012994243E+02  0.99012994243E+02  0.00000000000E+00 0. -1.
         -6    2    1    2    0  504 -0.13297202741E+03  0.23001610108E+02  0.52378258136E+02  0.22581080151E+03  0.17331013245E+03 0.  0.
        -24    2    3    3    0    0 -0.95559195111E+02  0.78496357130E+01  0.10149854135E+03  0.16205976566E+03  0.82269296808E+02 0.  0.
          6    2    1    2  502    0  0.13297202741E+03 -0.23001610108E+02  0.96211537347E+03  0.98670881858E+03  0.17238812797E+03 0.  0.
         24    2    5    5    0    0  0.62154680069E+02  0.20005591150E+02  0.77307372708E+03  0.78025410172E+03  0.83006311939E+02 0.  0.
          4    1    6    6  501    0 -0.53081111321E+01  0.34555956685E+02  0.19910816549E+03  0.20215427710E+03  0.00000000000E+00 0. -1.
         -3    1    6    6    0  501  0.67462791201E+02 -0.14550365535E+02  0.57396556159E+03  0.57809982462E+03  0.00000000000E+00 0.  1.
          5    1    5    5  502    0  0.70817347345E+02 -0.43007201259E+02  0.18904164639E+03  0.20645471686E+03  0.47000000000E+01 0. -1.
         11    1    4    4    0    0 -0.85373440720E+02  0.20611973714E+02  0.36615198087E+02  0.95153300372E+02  0.00000000000E+00 0. -1.
        -12    1    4    4    0    0 -0.10185754391E+02 -0.12762338001E+02  0.64883343263E+02  0.66906465283E+02  0.00000000000E+00 0.  1.
         -5    1    3    3    0  504 -0.37412832303E+02  0.15151974395E+02 -0.49120283214E+02  0.63751035850E+02  0.47000000000E+01 0.  1.
<mgrwt>
<rscale>  2 0.21947017E+03</rscale>
<asrwt>0</asrwt>
<pdfrwt beam="1">  1       21 0.17130870E+00 0.21965208E+03</pdfrwt>
<pdfrwt beam="2">  1       21 0.15232769E-01 0.21965208E+03</pdfrwt>
<totfact> 0.78006477E+03</totfact>
</mgrwt>
</event>
<event>
12    1  0.1410528E-001  0.1776321E+03  0.7546771E-02  0.1170872E+00
         21   -1    0    0  502  503  0.00000000000E+00  0.00000000000E+00  0.38497097971E+02  0.38497097971E+02  0.00000000000E+00 0.  1.
         21   -1    0    0  503  504 -0.00000000000E+00 -0.00000000000E+00 -0.81803777020E+03  0.81803777020E+03  0.00000000000E+00 0.  1.
         -6    2    1    2    0  504  0.15735539599E+02  0.29178676410E+02 -0.33366554754E+03  0.37657884314E+03  0.17140573245E+03 0.  0.
        -24    2    3    3    0    0  0.54610976591E+02  0.30000639163E+02 -0.31543299639E+03  0.33337593646E+03  0.88085995946E+02 0.  0.
          6    2    1    2  502    0 -0.15735539599E+02 -0.29178676410E+02 -0.44587512469E+03  0.47995602504E+03  0.17451119388E+03 0.  0.
         24    2    5    5    0    0 -0.64964400090E+02 -0.61763800922E+02 -0.29561117561E+03  0.31844251031E+03  0.77359710749E+02 0.  0.
          4    1    6    6  501    0 -0.40447465656E+02  0.73031855864E+01 -0.14854461508E+03  0.15412604150E+03  0.00000000000E+00 0. -1.
         -3    1    6    6    0  501 -0.24516934434E+02 -0.69066986509E+02 -0.14706656053E+03  0.16431646882E+03  0.00000000000E+00 0.  1.
          5    1    5    5  502    0  0.49228860491E+02  0.32585124513E+02 -0.15026394908E+03  0.16151351472E+03  0.47000000000E+01 0. -1.
         13    1    4    4    0    0  0.18303068001E+02 -0.10098888600E+02 -0.23801563264E+03  0.23893185478E+03  0.00000000000E+00 0. -1.
        -14    1    4    4    0    0  0.36307908590E+02  0.40099527763E+02 -0.77417363752E+02  0.94444081674E+02  0.00000000000E+00 0.  1.
         -5    1    3    3    0  504 -0.38875436992E+02 -0.82196275322E+00 -0.18232551152E+02  0.43202906680E+02  0.47000000000E+01 0.  1.
<mgrwt>
<rscale>  2 0.17686465E+03</rscale>
<asrwt>0</asrwt>
<pdfrwt beam="1">  1       21 0.59226300E-02 0.17763209E+03</pdfrwt>
<pdfrwt beam="2">  1       21 0.12585197E+00 0.17763209E+03</pdfrwt>
<totfact> 0.95188263E+04</totfact>
</mgrwt>
</event>
<event>
12    1  0.1410528E-001  0.1895760E+03  0.7546771E-02  0.1160170E+00
         21   -1    0    0  502  503  0.00000000000E+00  0.00000000000E+00  0.21872571544E+02  0.21872571544E+02  0.00000000000E+00 0. -1.
         21   -1    0    0  503  504 -0.00000000000E+00 -0.00000000000E+00 -0.17339747051E+04  0.17339747051E+04  0.00000000000E+00 0. -1.
         -6    2    1    2    0  504  0.12034867049E+02  0.75886024409E+02 -0.61835641913E+03  0.64676403920E+03  0.17330762995E+03 0.  0.
        -24    2    3    3    0    0 -0.28929587914E+02  0.89521885234E+02 -0.30754638690E+03  0.33293448449E+03  0.86078463504E+02 0.  0.
          6    2    1    2  502    0 -0.12034867049E+02 -0.75886024409E+02 -0.10937457144E+04  0.11090832374E+04  0.16698027735E+03 0.  0.
         24    2    5    5    0    0 -0.68596914961E+01 -0.75163154467E+01 -0.88842891805E+03  0.89256932006E+03  0.85267217144E+02 0.  0.
          4    1    6    6  501    0 -0.97247580201E+01  0.12721101391E+02 -0.83803796057E+03  0.83819092139E+03  0.00000000000E+00 0. -1.
         -3    1    6    6    0  501  0.28650665240E+01 -0.20237416838E+02 -0.50390957476E+02  0.54378398669E+02  0.00000000000E+00 0.  1.
          5    1    5    5  502    0 -0.51751755528E+01 -0.68369708962E+02 -0.20531679633E+03  0.21651391734E+03  0.47000000000E+01 0. -1.
         11    1    4    4    0    0  0.34228723169E+01  0.13202193163E+02  0.77851945705E+00  0.13660894983E+02  0.00000000000E+00 0. -1.
        -12    1    4    4    0    0 -0.32352460231E+02  0.76319692071E+02 -0.30832490635E+03  0.31927358951E+03  0.00000000000E+00 0.  1.
         -5    1    3    3    0  504  0.40964454963E+02 -0.13635860825E+02 -0.31081003223E+03  0.31382955471E+03  0.47000000000E+01 0.  1.
<mgrwt>
<rscale>  2 0.18811764E+03</rscale>
<asrwt>0</asrwt>
<pdfrwt beam="1">  1       21 0.33650109E-02 0.18957600E+03</pdfrwt>
<pdfrwt beam="2">  1       21 0.26676535E+00 0.18957600E+03</pdfrwt>
<totfact> 0.27834113E+04</totfact>
</mgrwt>
</event>
<event>
12    1  0.1410528E-001  0.2000361E+03  0.7546771E-02  0.1149926E+00
         21   -1    0    0  502  503  0.00000000000E+00  0.00000000000E+00  0.40515094869E+03  0.40515094869E+03  0.00000000000E+00 0.  1.
         21   -1    0    0  503  504 -0.00000000000E+00 -0.00000000000E+00 -0.11371206381E+03  0.11371206381E+03  0.00000000000E+00 0.  1.
         -6    2    1    2    0  504 -0.10017246180E+03  0.14345932767E+02  0.50402949218E+02  0.20628842474E+03  0.17255181541E+03 0.  0.
        -24    2    3    3    0    0  0.62687922137E+01  0.33151367603E+02  0.53914726370E+01  0.89106907600E+02  0.82296185058E+02 0.  0.
          6    2    1    2  502    0  0.10017246180E+03 -0.14345932767E+02  0.24103593566E+03  0.31257458775E+03  0.17135992163E+03 0.  0.
         24    2    5    5    0    0  0.13210044441E+03  0.11639309716E+02  0.16781102059E+03  0.22844012937E+03  0.80239349011E+02 0.  0.
          2    1    6    6  501    0  0.23260576097E+02  0.15144514238E+02  0.91107302231E+02  0.95241541523E+02  0.00000000000E+00 0. -1.
         -1    1    6    6    0  501  0.10883986832E+03 -0.35052045222E+01  0.76703718354E+02  0.13319858784E+03  0.00000000000E+00 0.  1.
          5    1    5    5  502    0 -0.31927982613E+02 -0.25985242482E+02  0.73224915074E+02  0.84134458388E+02  0.47000000000E+01 0. -1.
         11    1    4    4    0    0 -0.93817480833E+01  0.23362957562E+02 -0.35916735286E+02  0.43861792676E+02  0.00000000000E+00 0. -1.
        -12    1    4    4    0    0  0.15650540297E+02  0.97884100406E+01  0.41308207923E+02  0.45245114924E+02  0.00000000000E+00 0.  1.
         -5    1    3    3    0  504 -0.10644125401E+03 -0.18805434836E+02  0.45011476581E+02  0.11718151714E+03  0.47000000000E+01 0.  1.
<mgrwt>
<rscale>  2 0.19977884E+03</rscale>
<asrwt>0</asrwt>
<pdfrwt beam="1">  1       21 0.62330914E-01 0.20003614E+03</pdfrwt>
<pdfrwt beam="2">  1       21 0.17494164E-01 0.20003614E+03</pdfrwt>
<totfact> 0.70402724E+04</totfact>
</mgrwt>
</event>
<event>
12    1  0.1410528E-001  0.2855179E+03  0.7546771E-02  0.1092773E+00
         21   -1    0    0  502  503  0.00000000000E+00  0.00000000000E+00  0.90015561975E+02  0.90015561975E+02  0.00000000000E+00 0.  1.
         21   -1    0    0  503  504 -0.00000000000E+00 -0.00000000000E+00 -0.13055596288E+04  0.13055596288E+04  0.00000000000E+00 0. -1.
         -6    2    1    2    0  504  0.22480065034E+03  0.26264520450E+02 -0.99433404161E+03  0.10343905382E+04  0.17331601717E+03 0.  0.
        -24    2    3    3    0    0  0.98825179562E+02 -0.50822393844E+02 -0.52090825631E+03  0.53844066596E+03  0.78889843719E+02 0.  0.
          6    2    1    2  502    0 -0.22480065034E+03 -0.26264520450E+02 -0.22121002522E+03  0.36118465257E+03  0.17405551001E+03 0.  0.
         24    2    5    5    0    0 -0.22918924988E+03 -0.47260261319E+02 -0.15717170438E+03  0.29348622219E+03  0.81669905070E+02 0.  0.
          2    1    6    6  501    0 -0.95339351533E+02  0.20765571822E+02 -0.57206061461E+02  0.11310762305E+03  0.00000000000E+00 0. -1.
         -1    1    6    6    0  501 -0.13384989835E+03 -0.68025833141E+02 -0.99965642923E+02  0.18037859914E+03  0.00000000000E+00 0.  1.
          5    1    5    5  502    0  0.43885995402E+01  0.20995740869E+02 -0.64038320835E+02  0.67698430380E+02  0.47000000000E+01 0. -1.
         11    1    4    4    0    0  0.47521117631E+02 -0.61140719442E+01 -0.87832313145E+02  0.10005075576E+03  0.00000000000E+00 0. -1.
        -12    1    4    4    0    0  0.51304061931E+02 -0.44708321900E+02 -0.43307594316E+03  0.43838991020E+03  0.00000000000E+00 0.  1.
         -5    1    3    3    0  504  0.12597547078E+03  0.77086914294E+02 -0.47342578530E+03  0.49594987225E+03  0.47000000000E+01 0.  1.
<mgrwt>
<rscale>  2 0.28540529E+03</rscale>
<asrwt>0</asrwt>
<pdfrwt beam="1">  1       21 0.13848548E-01 0.28551791E+03</pdfrwt>
<pdfrwt beam="2">  1       21 0.20085532E+00 0.28551791E+03</pdfrwt>
<totfact> 0.56026914E+03</totfact>
</mgrwt>
</event>
<event>
12    1  0.1410528E-001  0.2802267E+03  0.7546771E-02  0.1095761E+00
         21   -1    0    0  502  503  0.00000000000E+00  0.00000000000E+00  0.31371746554E+03  0.31371746554E+03  0.00000000000E+00 0.  1.
         21   -1    0    0  503  504 -0.00000000000E+00 -0.00000000000E+00 -0.76154255167E+03  0.76154255167E+03  0.00000000000E+00 0. -1.
         -6    2    1    2    0  504  0.21146333383E+03  0.49450405436E+02 -0.66515052402E+03  0.72177020038E+03  0.17710143531E+03 0.  0.
        -24    2    3    3    0    0  0.19394100697E+03  0.92008638027E+02 -0.59600438738E+03  0.63857456760E+03  0.80483196727E+02 0.  0.
          6    2    1    2  502    0 -0.21146333383E+03 -0.49450405436E+02  0.21732543789E+03  0.35348981683E+03  0.17482168199E+03 0.  0.
         24    2    5    5    0    0 -0.93099740509E+02 -0.72403602794E+02  0.17434077498E+03  0.22540171926E+03  0.80631171656E+02 0.  0.
          4    1    6    6  501    0 -0.39741559119E+02 -0.37201745753E+02  0.19396604113E+02  0.57789182892E+02  0.00000000000E+00 0. -1.
         -3    1    6    6    0  501 -0.53358181391E+02 -0.35201857041E+02  0.15494417087E+03  0.16761253637E+03  0.00000000000E+00 0.  1.
          5    1    5    5  502    0 -0.11836359332E+03  0.22953197358E+02  0.42984662909E+02  0.12808809757E+03  0.47000000000E+01 0. -1.
         11    1    4    4    0    0  0.89808750969E+02  0.47928548548E+02 -0.39541070492E+03  0.40830427757E+03  0.00000000000E+00 0. -1.
        -12    1    4    4    0    0  0.10413225600E+03  0.44080089479E+02 -0.20059368246E+03  0.23027029003E+03  0.00000000000E+00 0.  1.
         -5    1    3    3    0  504  0.17522326862E+02 -0.42558232591E+02 -0.69146136642E+02  0.83195632772E+02  0.47000000000E+01 0.  1.
<mgrwt>
<rscale>  2 0.27986721E+03</rscale>
<asrwt>0</asrwt>
<pdfrwt beam="1">  1       21 0.48264225E-01 0.28022670E+03</pdfrwt>
<pdfrwt beam="2">  1       21 0.11716039E+00 0.28022670E+03</pdfrwt>
<totfact> 0.21480384E+03</totfact>
</mgrwt>
</event>
<event>
12    1  0.1410528E-001  0.2219179E+03  0.7546771E-02  0.1132648E+00
         21   -1    0    0  502  503  0.00000000000E+00  0.00000000000E+00  0.30074065196E+02  0.30074065196E+02  0.00000000000E+00 0.  1.
         21   -1    0    0  503  504 -0.00000000000E+00 -0.00000000000E+00 -0.17847487064E+04  0.17847487064E+04  0.00000000000E+00 0.  1.
         -6    2    1    2    0  504 -0.13418653952E+03 -0.33571777432E+02 -0.11462771471E+04  0.11675610700E+04  0.17353519104E+03 0.  0.
        -24    2    3    3    0    0 -0.70074038040E+02  0.44530904707E+02 -0.77531458717E+03  0.78305391442E+03  0.71884292646E+02 0.  0.
          6    2    1    2  502    0  0.13418653952E+03  0.33571777432E+02 -0.60839749413E+03  0.64726170164E+03  0.17224142337E+03 0.  0.
         24    2    5    5    0    0  0.56490093346E+02  0.67867203520E+01 -0.50817023241E+03  0.51756293132E+03  0.79982576556E+02 0.  0.
          2    1    6    6  501    0 -0.47793413363E+01  0.53115630428E+01 -0.31111481363E+03  0.31119685421E+03  0.00000000000E+00 0. -1.
         -1    1    6    6    0  501  0.61269434683E+02  0.14751573091E+01 -0.19705541878E+03  0.20636607712E+03  0.00000000000E+00 0.  1.
          5    1    5    5  502    0  0.77696446176E+02  0.26785057080E+02 -0.10022726172E+03  0.12969877032E+03  0.47000000000E+01 0. -1.
         11    1    4    4    0    0 -0.19932273297E+02 -0.68719652709E+01 -0.42144348381E+03  0.42197053152E+03  0.00000000000E+00 0. -1.
        -12    1    4    4    0    0 -0.50141764743E+02  0.51402869978E+02 -0.35387110336E+03  0.36108338290E+03  0.00000000000E+00 0.  1.
         -5    1    3    3    0  504 -0.64112501482E+02 -0.78102682139E+02 -0.37096255994E+03  0.38450715556E+03  0.47000000000E+01 0.  1.
<mgrwt>
<rscale>  2 0.22166491E+03</rscale>
<asrwt>0</asrwt>
<pdfrwt beam="1">  1       21 0.46267790E-02 0.22191790E+03</pdfrwt>
<pdfrwt beam="2">  1       21 0.27457674E+00 0.22191790E+03</pdfrwt>
<totfact> 0.14278378E+04</totfact>
</mgrwt>
</event>
<event>
12    1  0.1410528E-001  0.1741256E+03  0.7546771E-02  0.1176369E+00
         21   -1    0    0  502  503  0.00000000000E+00  0.00000000000E+00  0.16049033990E+03  0.16049033990E+03  0.00000000000E+00 0.  1.
         21   -1    0    0  503  504 -0.00000000000E+00 -0.00000000000E+00 -0.27275481903E+03  0.27275481903E+03  0.00000000000E+00 0.  1.
         -6    2    1    2    0  504  0.25288980010E+01 -0.20963624505E+02 -0.18515084123E+03  0.25416640438E+03  0.17284055725E+03 0.  0.
        -24    2    3    3    0    0 -0.39954252640E+02  0.40532827355E+02 -0.10177870089E+03  0.14209662494E+03  0.81199103858E+02 0.  0.
          6    2    1    2  502    0 -0.25288980010E+01  0.20963624505E+02  0.72886362097E+02  0.17907875455E+03  0.16220637989E+03 0.  0.
         24    2    5    5    0    0 -0.34753257888E+02  0.42703162507E+02  0.10728569659E+01  0.97284583601E+02  0.80198442394E+02 0.  0.
          4    1    6    6  501    0 -0.85587324715E+01  0.53768781105E+02 -0.23880346270E+02  0.59452541250E+02  0.00000000000E+00 0. -1.
         -3    1    6    6    0  501 -0.26194525417E+02 -0.11065618598E+02  0.24953203236E+02  0.37832042352E+02  0.00000000000E+00 0.  1.
          5    1    5    5  502    0  0.32224359887E+02 -0.21739538002E+02  0.71813505131E+02  0.81794170953E+02  0.47000000000E+01 0. -1.
         11    1    4    4    0    0 -0.26720415457E+02  0.59936948762E+02 -0.42111433067E+02  0.77973015999E+02  0.00000000000E+00 0. -1.
        -12    1    4    4    0    0 -0.13233837182E+02 -0.19404121407E+02 -0.59667267825E+02  0.64123608942E+02  0.00000000000E+00 0.  1.
         -5    1    3    3    0  504  0.42483150641E+02 -0.61496451860E+02 -0.83372140334E+02  0.11206977944E+03  0.47000000000E+01 0.  1.
<mgrwt>
<rscale>  2 0.17142581E+03</rscale>
<asrwt>0</asrwt>
<pdfrwt beam="1">  1       21 0.24690822E-01 0.17412561E+03</pdfrwt>
<pdfrwt beam="2">  1       21 0.41962280E-01 0.17412561E+03</pdfrwt>
<totfact> 0.85419369E+04</totfact>
</mgrwt>
</event>
<event>
12    1  0.1410528E-001  0.2155874E+03  0.7546771E-02  0.1138781E+00
         21   -1    0    0  502  503  0.00000000000E+00  0.00000000000E+00  0.36456263986E+03  0.36456263986E+03  0.00000000000E+00 0.  1.
         21   -1    0    0  503  504 -0.00000000000E+00 -0.00000000000E+00 -0.12880107671E+03  0.12880107671E+03  0.00000000000E+00 0. -1.
         -6    2    1    2    0  504 -0.84615691207E+02  0.98395851762E+02  0.62497401122E+02  0.21678026266E+03  0.16200678471E+03 0.  0.
        -24    2    3    3    0    0 -0.11246886005E+03  0.66843546287E+02  0.12546428399E+02  0.15129334282E+03  0.74933027128E+02 0.  0.
          6    2    1    2  502    0  0.84615691207E+02 -0.98395851762E+02  0.17326416204E+03  0.27658345391E+03  0.17215219513E+03 0.  0.
         24    2    5    5    0    0 -0.21936809899E+02 -0.52264957647E+02  0.63018578985E+02  0.11640332572E+03  0.79784356331E+02 0.  0.
          2    1    6    6  501    0 -0.24470747006E+02  0.16183039330E+02  0.17449604018E+02  0.34134980611E+02  0.00000000000E+00 0. -1.
         -1    1    6    6    0  501  0.25339371062E+01 -0.68447996977E+02  0.45568974967E+02  0.82268345109E+02  0.00000000000E+00 0.  1.
          5    1    5    5  502    0  0.10655250111E+03 -0.46130894114E+02  0.11024558305E+03  0.16018012819E+03  0.47000000000E+01 0. -1.
         13    1    4    4    0    0 -0.24222229197E+01  0.15197551508E+01 -0.19222977408E+02  0.19434497164E+02  0.00000000000E+00 0. -1.
        -14    1    4    4    0    0 -0.11004663713E+03  0.65323791137E+02  0.31769405807E+02  0.13185884565E+03  0.00000000000E+00 0.  1.
         -5    1    3    3    0  504  0.27853168839E+02  0.31552305474E+02  0.49950972723E+02  0.65486919847E+02  0.47000000000E+01 0.  1.
<mgrwt>
<rscale>  2 0.21355601E+03</rscale>
<asrwt>0</asrwt>
<pdfrwt beam="1">  1       21 0.56086559E-01 0.21558742E+03</pdfrwt>
<pdfrwt beam="2">  1       21 0.19815550E-01 0.21558742E+03</pdfrwt>
<totfact> 0.69573822E+04</totfact>
</mgrwt>
</event>
<event>
12    1  0.1410528E-001  0.2901892E+03  0.7546771E-02  0.1090271E+00
         21   -1    0    0  502  503  0.00000000000E+00  0.00000000000E+00  0.51556336390E+02  0.51556336390E+02  0.00000000000E+00 0.  1.
         21   -1    0    0  503  504 -0.00000000000E+00 -0.00000000000E+00 -0.18965992218E+04  0.18965992218E+04  0.00000000000E+00 0.  1.
         -6    2    1    2    0  504 -0.11930307419E+03 -0.20023958516E+03 -0.12858084816E+04  0.13181135762E+04  0.17260021261E+03 0.  0.
        -24    2    3    3    0    0 -0.51857748168E+02 -0.53697841406E+02 -0.77409288926E+03  0.78155203069E+03  0.77660100767E+02 0.  0.
          6    2    1    2  502    0  0.11930307419E+03  0.20023958516E+03 -0.55923440377E+03  0.63004198197E+03  0.17286024905E+03 0.  0.
         24    2    5    5    0    0  0.14208420162E+03  0.19275886322E+03 -0.54727210906E+03  0.60283669825E+03  0.81002615386E+02 0.  0.
          4    1    6    6  501    0  0.61504100356E+02  0.50875268650E+02 -0.10842183296E+03  0.13463410111E+03  0.00000000000E+00 0. -1.
         -3    1    6    6    0  501  0.80580101263E+02  0.14188359457E+03 -0.43885027610E+03  0.46820259714E+03  0.00000000000E+00 0.  1.
          5    1    5    5  502    0 -0.22781127425E+02  0.74807219357E+01 -0.11962294711E+02  0.27205283718E+02  0.47000000000E+01 0. -1.
         13    1    4    4    0    0  0.11815844755E+02 -0.40664158101E+02 -0.27385996684E+03  0.27711454199E+03  0.00000000000E+00 0. -1.
        -14    1    4    4    0    0 -0.63673592923E+02 -0.13033683306E+02 -0.50023292242E+03  0.50443748870E+03  0.00000000000E+00 0.  1.
         -5    1    3    3    0  504 -0.67445326026E+02 -0.14654174375E+03 -0.51171559234E+03  0.53656154550E+03  0.47000000000E+01 0.  1.
<mgrwt>
<rscale>  2 0.29015050E+03</rscale>
<asrwt>0</asrwt>
<pdfrwt beam="1">  1       21 0.79317440E-02 0.29018922E+03</pdfrwt>
<pdfrwt beam="2">  1       21 0.29178450E+00 0.29018922E+03</pdfrwt>
<totfact> 0.42301358E+03</totfact>
</mgrwt>
</event>
<event>
12    1  0.1410528E-001  0.2004736E+03  0.7546771E-02  0.1150478E+00
         21   -1    0    0  502  503  0.00000000000E+00  0.00000000000E+00  0.67947949520E+03  0.67947949520E+03  0.00000000000E+00 0. -1.
         21   -1    0    0  503  504 -0.00000000000E+00 -0.00000000000E+00 -0.30452868753E+03  0.30452868753E+03  0.00000000000E+00 0.  1.
         -6    2    1    2    0  504 -0.94858562946E+02  0.30786310654E+00 -0.25604674700E+03  0.32192995405E+03  0.17053069203E+03 0.  0.
        -24    2    3    3    0    0 -0.81773456209E+02 -0.60488898101E+02 -0.22290372020E+03  0.25130406349E+03  0.55873597681E+02 0.  0.
          6    2    1    2  502    0  0.94858562946E+02 -0.30786310654E+00  0.63099755467E+03  0.66207822867E+03  0.17661094285E+03 0.  0.
         24    2    5    5    0    0  0.10293194228E+03 -0.77438750419E+01  0.27772981646E+03  0.30860876947E+03  0.86316680316E+02 0.  0.
          2    1    6    6  501    0  0.61729092931E+02 -0.16555484739E+02  0.25030443444E+03  0.25833481161E+03  0.00000000000E+00 0. -1.
         -1    1    6    6    0  501  0.41202849348E+02  0.88116096973E+01  0.27425382017E+02  0.50273957857E+02  0.00000000000E+00 0.  1.
          5    1    5    5  502    0 -0.80733793336E+01  0.74360119353E+01  0.35326773821E+03  0.35346945920E+03  0.47000000000E+01 0. -1.
         11    1    4    4    0    0 -0.29367572543E+02 -0.39029565488E+02 -0.52365421651E+02  0.71609347741E+02  0.00000000000E+00 0. -1.
        -12    1    4    4    0    0 -0.52405883666E+02 -0.21459332613E+02 -0.17053829854E+03  0.17969471575E+03  0.00000000000E+00 0.  1.
         -5    1    3    3    0  504 -0.13085106737E+02  0.60796761207E+02 -0.33143026802E+02  0.70625890558E+02  0.47000000000E+01 0.  1.
<mgrwt>
<rscale>  2 0.19912626E+03</rscale>
<asrwt>0</asrwt>
<pdfrwt beam="1">  1       21 0.10453531E+00 0.20047361E+03</pdfrwt>
<pdfrwt beam="2">  1       21 0.46850567E-01 0.20047361E+03</pdfrwt>
<totfact> 0.31990980E+03</totfact>
</mgrwt>
</event>
<event>
12    1  0.1410528E-001  0.2423239E+03  0.7546771E-02  0.1118427E+00
         21   -1    0    0  502  503  0.00000000000E+00  0.00000000000E+00  0.73558893308E+02  0.73558893308E+02  0.00000000000E+00 0.  1.
         21   -1    0    0  503  504 -0.00000000000E+00 -0.00000000000E+00 -0.10946705338E+04  0.10946705338E+04  0.00000000000E+00 0.  1.
         -6    2    1    2    0  504 -0.62684644514E+02  0.15744346497E+03 -0.81706181152E+03  0.85223874187E+03  0.17321391394E+03 0.  0.
        -24    2    3    3    0    0 -0.84009687017E+02  0.15265012407E+03 -0.54159378369E+03  0.57586497699E+03  0.89089602690E+02 0.  0.
          6    2    1    2  502    0  0.62684644514E+02 -0.15744346497E+03 -0.20404982898E+03  0.31599068524E+03  0.17174391150E+03 0.  0.
         24    2    5    5    0    0  0.79382844256E+02 -0.10788774725E+03 -0.21151427730E+03  0.26295855327E+03  0.80420826088E+02 0.  0.
          2    1    6    6  501    0 -0.97532715191E+01 -0.46574274376E+02 -0.55550105279E+02  0.73144401942E+02  0.00000000000E+00 0. -1.
         -1    1    6    6    0  501  0.89136115775E+02 -0.61313472879E+02 -0.15596417202E+03  0.18981415133E+03  0.00000000000E+00 0.  1.
          5    1    5    5  502    0 -0.16698199742E+02 -0.49555717712E+02  0.74644483200E+01  0.53032131970E+02  0.47000000000E+01 0. -1.
         11    1    4    4    0    0 -0.84971323016E+02  0.72918550377E+02 -0.37153311183E+03  0.38803877888E+03  0.00000000000E+00 0. -1.
        -12    1    4    4    0    0  0.96163599969E+00  0.79731573689E+02 -0.17006067185E+03  0.18782619811E+03  0.00000000000E+00 0.  1.
         -5    1    3    3    0  504  0.21325042503E+02  0.47933409008E+01 -0.27546802784E+03  0.27637376488E+03  0.47000000000E+01 0.  1.
<mgrwt>
<rscale>  2 0.24206132E+03</rscale>
<asrwt>0</asrwt>
<pdfrwt beam="1">  1       21 0.11316753E-01 0.24232389E+03</pdfrwt>
<pdfrwt beam="2">  1       21 0.16841084E+00 0.24232389E+03</pdfrwt>
<totfact> 0.13788350E+04</totfact>
</mgrwt>
</event>
<event>
12    1  0.1410528E-001  0.2834849E+03  0.7546771E-02  0.1093815E+00
         21   -1    0    0  502  503  0.00000000000E+00  0.00000000000E+00  0.76718057290E+03  0.76718057290E+03  0.00000000000E+00 0.  1.
         21   -1    0    0  503  504 -0.00000000000E+00 -0.00000000000E+00 -0.10505482047E+03  0.10505482047E+03  0.00000000000E+00 0.  1.
         -6    2    1    2    0  504 -0.21069276759E+03 -0.78538640629E+02  0.30624426913E+03  0.41731192505E+03  0.17263814767E+03 0.  0.
        -24    2    3    3    0    0 -0.74583400028E+02 -0.22498963524E+02  0.21983159922E+03  0.24656226951E+03  0.79988335462E+02 0.  0.
          6    2    1    2  502    0  0.21069276759E+03  0.78538640629E+02  0.35588148330E+03  0.45492346831E+03  0.17246440641E+03 0.  0.
         24    2    5    5    0    0  0.14547210980E+03  0.83270734014E+02  0.14671110488E+03  0.23571930750E+03  0.77092760741E+02 0.  0.
          4    1    6    6  501    0  0.79554438657E+02  0.87232585636E+02  0.10143788055E+03  0.15565370640E+03  0.00000000000E+00 0. -1.
         -3    1    6    6    0  501  0.65917671141E+02 -0.39618516222E+01  0.45273224332E+02  0.80065601093E+02  0.00000000000E+00 0.  1.
          5    1    5    5  502    0  0.65220657790E+02 -0.47320933845E+01  0.20917037842E+03  0.21920416081E+03  0.47000000000E+01 0. -1.
         13    1    4    4    0    0 -0.19595604637E+02  0.11404565327E+01  0.16249755538E+03  0.16367878258E+03  0.00000000000E+00 0. -1.
        -14    1    4    4    0    0 -0.54987795391E+02 -0.23639420056E+02  0.57334043842E+02  0.82883486931E+02  0.00000000000E+00 0.  1.
         -5    1    3    3    0  504 -0.13610936756E+03 -0.56039677106E+02  0.86412669912E+02  0.17074965555E+03  0.47000000000E+01 0.  1.
<mgrwt>
<rscale>  2 0.28345846E+03</rscale>
<asrwt>0</asrwt>
<pdfrwt beam="1">  1       21 0.11802778E+00 0.28348490E+03</pdfrwt>
<pdfrwt beam="2">  1       21 0.16162281E-01 0.28348490E+03</pdfrwt>
<totfact> 0.17914350E+04</totfact>
</mgrwt>
</event>
<event>
12    1  0.1410528E-001  0.1856957E+03  0.7546771E-02  0.1162776E+00
         21   -1    0    0  502  503  0.00000000000E+00  0.00000000000E+00  0.21142554497E+03  0.21142554497E+03  0.00000000000E+00 0.  1.
         21   -1    0    0  503  504 -0.00000000000E+00 -0.00000000000E+00 -0.16197286419E+03  0.16197286419E+03  0.00000000000E+00 0. -1.
         -6    2    1    2    0  504 -0.26334617126E+02  0.59276161525E+02  0.16863528463E+02  0.18486475319E+03  0.17228877791E+03 0.  0.
        -24    2    3    3    0    0 -0.71263132153E+02  0.34560237178E+02 -0.27862081358E+02  0.11665977865E+03  0.80996076312E+02 0.  0.
          6    2    1    2  502    0  0.26334617126E+02 -0.59276161525E+02  0.32589152311E+02  0.18853365597E+03  0.17399917011E+03 0.  0.
         24    2    5    5    0    0  0.49908616835E+01 -0.17503612291E+02  0.84487924463E+02  0.11841893343E+03  0.80953994778E+02 0.  0.
          4    1    6    6  501    0 -0.30786014113E+02 -0.31303356409E+02  0.52834239989E+02  0.68695965694E+02  0.00000000000E+00 0. -1.
         -3    1    6    6    0  501  0.35776875796E+02  0.13799744118E+02  0.31653684475E+02  0.49722967734E+02  0.00000000000E+00 0.  1.
          5    1    5    5  502    0  0.21343755443E+02 -0.41772549234E+02 -0.51898772152E+02  0.70114722539E+02  0.47000000000E+01 0. -1.
         13    1    4    4    0    0 -0.13963734118E+02 -0.22827585385E+02  0.80838471655E+01  0.27954125099E+02  0.00000000000E+00 0. -1.
        -14    1    4    4    0    0 -0.57299398035E+02  0.57387822564E+02 -0.35945928523E+02  0.88705653547E+02  0.00000000000E+00 0.  1.
         -5    1    3    3    0  504  0.44928515026E+02  0.24715924347E+02  0.44725609821E+02  0.68204974545E+02  0.47000000000E+01 0.  1.
<mgrwt>
<rscale>  2 0.18529396E+03</rscale>
<asrwt>0</asrwt>
<pdfrwt beam="1">  1       21 0.32527007E-01 0.18569568E+03</pdfrwt>
<pdfrwt beam="2">  1       21 0.24918902E-01 0.18569568E+03</pdfrwt>
<totfact> 0.13894344E+05</totfact>
</mgrwt>
</event>
<event>
12    1  0.1410528E-001  0.1727783E+03  0.7546771E-02  0.1175269E+00
         21   -1    0    0  502  503  0.00000000000E+00  0.00000000000E+00  0.38239058451E+02  0.38239058451E+02  0.00000000000E+00 0. -1.
         21   -1    0    0  503  504 -0.00000000000E+00 -0.00000000000E+00 -0.11765575322E+04  0.11765575322E+04  0.00000000000E+00 0. -1.
         -6    2    1    2    0  504 -0.13279429727E+01  0.69843771128E+01 -0.92496118178E+03  0.94095990306E+03  0.17263199704E+03 0.  0.
        -24    2    3    3    0    0 -0.23080821108E+02  0.43667878439E+01 -0.91043707798E+03  0.91425636262E+03  0.80107618169E+02 0.  0.
          6    2    1    2  502    0  0.13279429727E+01 -0.69843771128E+01 -0.21335729198E+03  0.27383668760E+03  0.17150700418E+03 0.  0.
         24    2    5    5    0    0  0.37036862621E+02  0.51658051384E+02 -0.13678421769E+03  0.17088239159E+03  0.80315540711E+02 0.  0.
          4    1    6    6  501    0 -0.17021304797E+02  0.44779188137E+02 -0.62081752967E+02  0.78415843799E+02  0.00000000000E+00 0. -1.
         -3    1    6    6    0  501  0.54058167418E+02  0.68788632463E+01 -0.74702464725E+02  0.92466547790E+02  0.00000000000E+00 0.  1.
          5    1    5    5  502    0 -0.35708919648E+02 -0.58642428496E+02 -0.76573074283E+02  0.10295429601E+03  0.47000000000E+01 0. -1.
         13    1    4    4    0    0 -0.27880692675E+02  0.21750186098E+02 -0.17190932708E+03  0.17550846235E+03  0.00000000000E+00 0. -1.
        -14    1    4    4    0    0  0.47998715673E+01 -0.17383398254E+02 -0.73852775090E+03  0.73874790027E+03  0.00000000000E+00 0.  1.
         -5    1    3    3    0  504  0.21752878135E+02  0.26175892689E+01 -0.14524103800E+02  0.26703540438E+02  0.47000000000E+01 0.  1.
<mgrwt>
<rscale>  2 0.17249663E+03</rscale>
<asrwt>0</asrwt>
<pdfrwt beam="1">  1       21 0.58829328E-02 0.17277833E+03</pdfrwt>
<pdfrwt beam="2">  1       21 0.18100883E+00 0.17277833E+03</pdfrwt>
<totfact> 0.37014349E+04</totfact>
</mgrwt>
</event>
<event>
12    1  0.1410528E-001  0.2530604E+03  0.7546771E-02  0.1111952E+00
         21   -1    0    0  502  503  0.00000000000E+00  0.00000000000E+00  0.17794914099E+03  0.17794914099E+03  0.00000000000E+00 0.  1.
         21   -1    0    0  503  504 -0.00000000000E+00 -0.00000000000E+00 -0.96874314865E+03  0.96874314865E+03  0.00000000000E+00 0. -1.
         -6    2    1    2    0  504  0.14394874370E+03  0.11546045289E+03 -0.85288298557E+03  0.88963417434E+03  0.17316818439E+03 0.  0.
        -24    2    3    3    0    0  0.71943480219E+02  0.51351731992E+02 -0.22956287502E+03  0.25888482929E+03  0.80680707267E+02 0.  0.
          6    2    1    2  502    0 -0.14394874370E+03 -0.11546045289E+03  0.62088977914E+02  0.25705811530E+03  0.16784360717E+03 0.  0.
         24    2    5    5    0    0 -0.49642695157E+02 -0.89558530171E+01 -0.15065882715E+02  0.95157457163E+02  0.79267624830E+02 0.  0.
          4    1    6    6  501    0 -0.23903641174E+02  0.35336952746E+02 -0.86270630458E+01  0.43525975090E+02  0.00000000000E+00 0. -1.
         -3    1    6    6    0  501 -0.25739053983E+02 -0.44292805763E+02 -0.64388196689E+01  0.51631482073E+02  0.00000000000E+00 0.  1.
          5    1    5    5  502    0 -0.94306048543E+02 -0.10650459987E+03  0.77154860629E+02  0.16190065813E+03  0.47000000000E+01 0. -1.
         11    1    4    4    0    0  0.34931095156E+02  0.46179256938E+02 -0.20762899531E+03  0.21555162926E+03  0.00000000000E+00 0. -1.
        -12    1    4    4    0    0  0.37012385063E+02  0.51724750535E+01 -0.21933879704E+02  0.43333200033E+02  0.00000000000E+00 0.  1.
         -5    1    3    3    0  504  0.72005263482E+02  0.64108720896E+02 -0.62332011055E+03  0.63074934505E+03  0.47000000000E+01 0.  1.
<mgrwt>
<rscale>  2 0.25215220E+03</rscale>
<asrwt>0</asrwt>
<pdfrwt beam="1">  1       21 0.27376791E-01 0.25306042E+03</pdfrwt>
<pdfrwt beam="2">  1       21 0.14903740E+00 0.25306042E+03</pdfrwt>
<totfact> 0.36897140E+03</totfact>
</mgrwt>
</event>
<event>
12    1  0.1410528E-001  0.2225451E+03  0.7546771E-02  0.1132219E+00
         21   -1    0    0  502  503  0.00000000000E+00  0.00000000000E+00  0.87576172692E+03  0.87576172692E+03  0.00000000000E+00 0.  1.
         21   -1    0    0  503  504 -0.00000000000E+00 -0.00000000000E+00 -0.70460853947E+02  0.70460853947E+02  0.00000000000E+00 0. -1.
         -6    2    1    2    0  504  0.55662971233E+02  0.12940973078E+03  0.19104262895E+03  0.29329781536E+03  0.17228197129E+03 0.  0.
        -24    2    3    3    0    0  0.32753562232E+01  0.14630918522E+03  0.14706360073E+03  0.22268408660E+03  0.80891248768E+02 0.  0.
          6    2    1    2  502    0 -0.55662971233E+02 -0.12940973078E+03  0.61425824402E+03  0.65292476550E+03  0.17074048809E+03 0.  0.
         24    2    5    5    0    0  0.23901983881E+02 -0.81093832575E+02  0.44465141916E+03  0.45939550895E+03  0.78624643524E+02 0.  0.
          2    1    6    6  501    0  0.36145779659E+02 -0.81073324404E+02  0.26795081859E+03  0.28227122153E+03  0.00000000000E+00 0. -1.
         -1    1    6    6    0  501 -0.12243795778E+02 -0.20508171605E-01  0.17670060056E+03  0.17712428742E+03  0.00000000000E+00 0.  1.
          5    1    5    5  502    0 -0.79564955114E+02 -0.48315898206E+02  0.16960682486E+03  0.19352925655E+03  0.47000000000E+01 0. -1.
         13    1    4    4    0    0 -0.44001592507E+00  0.10609459061E+03  0.14822386073E+03  0.18228156424E+03  0.00000000000E+00 0. -1.
        -14    1    4    4    0    0  0.37153721483E+01  0.40214594607E+02 -0.11602600053E+01  0.40402522357E+02  0.00000000000E+00 0.  1.
         -5    1    3    3    0  504  0.52387615009E+02 -0.16899454436E+02  0.43979028218E+02  0.70613728762E+02  0.47000000000E+01 0.  1.
<mgrwt>
<rscale>  2 0.22224671E+03</rscale>
<asrwt>0</asrwt>
<pdfrwt beam="1">  1       21 0.13473257E+00 0.22254510E+03</pdfrwt>
<pdfrwt beam="2">  1       21 0.10840132E-01 0.22254510E+03</pdfrwt>
<totfact> 0.27281183E+04</totfact>
</mgrwt>
</event>
<event>
12    1  0.1410528E-001  0.2138441E+03  0.7546771E-02  0.1138978E+00
         21   -1    0    0  502  503  0.00000000000E+00  0.00000000000E+00  0.15577661640E+04  0.15577661640E+04  0.00000000000E+00 0.  1.
         21   -1    0    0  503  504 -0.00000000000E+00 -0.00000000000E+00 -0.30019174706E+02  0.30019174706E+02  0.00000000000E+00 0.  1.
         -6    2    1    2    0  504  0.11590693358E+03  0.36177626529E+02  0.61817346895E+03  0.65341213380E+03  0.17339475473E+03 0.  0.
        -24    2    3    3    0    0  0.11304377543E+03  0.39870826387E+02  0.27894223818E+03  0.31411616369E+03  0.80570553503E+02 0.  0.
          6    2    1    2  502    0 -0.11590693358E+03 -0.36177626529E+02  0.90957352033E+03  0.93437320489E+03  0.17602857503E+03 0.  0.
         24    2    5    5    0    0 -0.14175883684E+03 -0.33721539436E+02  0.55975919057E+03  0.58356484044E+03  0.77361886795E+02 0.  0.
          2    1    6    6  501    0 -0.68881065942E+02 -0.52982589085E+02  0.35151588783E+03  0.36209829520E+03  0.00000000000E+00 0. -1.
         -1    1    6    6    0  501 -0.72877770893E+02  0.19261049649E+02  0.20824330274E+03  0.22146654524E+03  0.00000000000E+00 0.  1.
          5    1    5    5  502    0  0.25851903251E+02 -0.24560870935E+01  0.34981432976E+03  0.35080836446E+03  0.47000000000E+01 0. -1.
         13    1    4    4    0    0  0.58611835089E+02  0.38528105439E+02  0.73566667320E+02  0.10164554423E+03  0.00000000000E+00 0. -1.
        -14    1    4    4    0    0  0.54431940341E+02  0.13427209481E+01  0.20537557086E+03  0.21247061946E+03  0.00000000000E+00 0.  1.
         -5    1    3    3    0  504  0.28631581553E+01 -0.36931998580E+01  0.33923123077E+03  0.33929597011E+03  0.47000000000E+01 0.  1.
<mgrwt>
<rscale>  2 0.21330134E+03</rscale>
<asrwt>0</asrwt>
<pdfrwt beam="1">  1       21 0.23965627E+00 0.21384410E+03</pdfrwt>
<pdfrwt beam="2">  1       21 0.46183358E-02 0.21384410E+03</pdfrwt>
<totfact> 0.23151803E+04</totfact>
</mgrwt>
</event>
<event>
12    1  0.1410528E-001  0.1901148E+03  0.7546771E-02  0.1158424E+00
         21   -1    0    0  502  503  0.00000000000E+00  0.00000000000E+00  0.62013542462E+02  0.62013542462E+02  0.00000000000E+00 0. -1.
         21   -1    0    0  503  504 -0.00000000000E+00 -0.00000000000E+00 -0.58507075234E+03  0.58507075234E+03  0.00000000000E+00 0.  1.
         -6    2    1    2    0  504 -0.78560830127E+02  0.78657376551E+01 -0.23764613407E+03  0.30415116407E+03  0.17262262802E+03 0.  0.
        -24    2    3    3    0    0 -0.38723113047E+02 -0.13316358709E+02 -0.31352350469E+02  0.92928674587E+02  0.77304358138E+02 0.  0.
          6    2    1    2  502    0  0.78560830127E+02 -0.78657376551E+01 -0.28541107580E+03  0.34293313073E+03  0.17294500890E+03 0.  0.
         24    2    5    5    0    0  0.44613190583E+02  0.39994039281E+02 -0.26036973945E+03  0.27896314554E+03  0.80238241485E+02 0.  0.
          4    1    6    6  501    0 -0.87478079705E+01  0.45633169674E+02 -0.12346169808E+03  0.13191550785E+03  0.00000000000E+00 0. -1.
         -3    1    6    6    0  501  0.53360998554E+02 -0.56391303936E+01 -0.13690804137E+03  0.14704763769E+03  0.00000000000E+00 0.  1.
          5    1    5    5  502    0  0.33947639544E+02 -0.47859776936E+02 -0.25041336350E+02  0.63969985190E+02  0.47000000000E+01 0. -1.
         13    1    4    4    0    0 -0.29412298536E+02  0.21404735886E+02 -0.41878711197E+02  0.55471366263E+02  0.00000000000E+00 0. -1.
        -14    1    4    4    0    0 -0.93108145111E+01 -0.34721094595E+02  0.10526360728E+02  0.37457308324E+02  0.00000000000E+00 0.  1.
         -5    1    3    3    0  504 -0.39837717080E+02  0.21182096364E+02 -0.20629378360E+03  0.21122248948E+03  0.47000000000E+01 0.  1.
<mgrwt>
<rscale>  2 0.19004149E+03</rscale>
<asrwt>0</asrwt>
<pdfrwt beam="1">  1       21 0.95405450E-02 0.19011483E+03</pdfrwt>
<pdfrwt beam="2">  1       21 0.90010885E-01 0.19011483E+03</pdfrwt>
<totfact> 0.92696471E+04</totfact>
</mgrwt>
</event>
<event>
12    1  0.1410528E-001  0.1829416E+03  0.7546771E-02  0.1165384E+00
         21   -1    0    0  502  503  0.00000000000E+00  0.00000000000E+00  0.14459414446E+03  0.14459414446E+03  0.00000000000E+00 0.  1.
         21   -1    0    0  503  504 -0.00000000000E+00 -0.00000000000E+00 -0.23054804983E+03  0.23054804983E+03  0.00000000000E+00 0.  1.
         -6    2    1    2    0  504  0.60784436031E+02 -0.12434164671E+02 -0.56710803480E+02  0.19153004558E+03  0.17209964269E+03 0.  0.
        -24    2    3    3    0    0 -0.31762431624E+01  0.48979359032E+02 -0.34214380932E+02  0.99928908016E+02  0.80038095073E+02 0.  0.
          6    2    1    2  502    0 -0.60784436031E+02  0.12434164671E+02 -0.29243101891E+02  0.18361214870E+03  0.17032001065E+03 0.  0.
         24    2    5    5    0    0  0.77507748194E+01 -0.45173461081E+02 -0.13243918144E+02  0.92541969433E+02  0.79296271302E+02 0.  0.
          4    1    6    6  501    0 -0.79965078634E+01 -0.51750195930E+02 -0.36402817306E+02  0.63774540567E+02  0.00000000000E+00 0. -1.
         -3    1    6    6    0  501  0.15747282683E+02  0.65767348482E+01  0.23158899162E+02  0.28767428866E+02  0.00000000000E+00 0.  1.
          5    1    5    5  502    0 -0.68535210850E+02  0.57607625752E+02 -0.15999183747E+02  0.91070179267E+02  0.47000000000E+01 0. -1.
         11    1    4    4    0    0 -0.30118880102E+02  0.38686959541E+02  0.71030715624E+01  0.49540704504E+02  0.00000000000E+00 0. -1.
        -12    1    4    4    0    0  0.26942636940E+02  0.10292399490E+02 -0.41317452494E+02  0.50388203512E+02  0.00000000000E+00 0.  1.
         -5    1    3    3    0  504  0.63960679193E+02 -0.61413523702E+02 -0.22496422548E+02  0.91601137568E+02  0.47000000000E+01 0.  1.
<mgrwt>
<rscale>  2 0.18252191E+03</rscale>
<asrwt>0</asrwt>
<pdfrwt beam="1">  1       21 0.22245253E-01 0.18294164E+03</pdfrwt>
<pdfrwt beam="2">  1       21 0.35468931E-01 0.18294164E+03</pdfrwt>
<totfact> 0.14533651E+05</totfact>
</mgrwt>
</event>
<event>
12    1  0.1410528E-001  0.2175251E+03  0.7546771E-02  0.1135788E+00
         21   -1    0    0  502  503  0.00000000000E+00  0.00000000000E+00  0.43864739589E+03  0.43864739589E+03  0.00000000000E+00 0.  1.
         21   -1    0    0  503  504 -0.00000000000E+00 -0.00000000000E+00 -0.11708736318E+03  0.11708736318E+03  0.00000000000E+00 0. -1.
         -6    2    1    2    0  504  0.13131835017E+03  0.14140587606E+01  0.82395990037E+02  0.23260755107E+03  0.17340895302E+03 0.  0.
        -24    2    3    3    0    0  0.10462430002E+03 -0.62225375161E+02  0.73436995909E+02  0.16285869131E+03  0.79446330921E+02 0.  0.
          6    2    1    2  502    0 -0.13131835017E+03 -0.14140587606E+01  0.23916404267E+03  0.32312720799E+03  0.17310472144E+03 0.  0.
         24    2    5    5    0    0 -0.68892493935E+02  0.27182143526E+02  0.46024415499E+02  0.11809126993E+03  0.79638285800E+02 0.  0.
          4    1    6    6  501    0 -0.47544410332E+02 -0.22309835833E+02  0.10557563790E+02  0.53569225138E+02  0.00000000000E+00 0. -1.
         -3    1    6    6    0  501 -0.21348083603E+02  0.49491979359E+02  0.35466851709E+02  0.64522044795E+02  0.00000000000E+00 0.  1.
          5    1    5    5  502    0 -0.62425856231E+02 -0.28596202287E+02  0.19313962717E+03  0.20503593806E+03  0.47000000000E+01 0. -1.
         13    1    4    4    0    0  0.77304705129E+01  0.12986427364E+02 -0.64995025439E+01  0.16451474200E+02  0.00000000000E+00 0. -1.
        -14    1    4    4    0    0  0.96893829508E+02 -0.75211802525E+02  0.79936498452E+02  0.14640721711E+03  0.00000000000E+00 0.  1.
         -5    1    3    3    0  504  0.26694050145E+02  0.63639433921E+02  0.89589941280E+01  0.69748859767E+02  0.47000000000E+01 0.  1.
<mgrwt>
<rscale>  2 0.21746447E+03</rscale>
<asrwt>0</asrwt>
<pdfrwt beam="1">  1       21 0.67484214E-01 0.21752511E+03</pdfrwt>
<pdfrwt beam="2">  1       21 0.18013441E-01 0.21752511E+03</pdfrwt>
<totfact> 0.55647588E+04</totfact>
</mgrwt>
</event>
<event>
12    1  0.1410528E-001  0.1911225E+03  0.7546771E-02  0.1157556E+00
         21   -1    0    0  502  503  0.00000000000E+00  0.00000000000E+00  0.74654949190E+03  0.74654949190E+03  0.00000000000E+00 0.  1.
         21   -1    0    0  503  504 -0.00000000000E+00 -0.00000000000E+00 -0.49752910908E+02  0.49752910908E+02  0.00000000000E+00 0.  1.
         -6    2    1    2    0  504 -0.18859570281E+02  0.80541537262E+02  0.29404024741E+03  0.35069568973E+03  0.17229386839E+03 0.  0.
        -24    2    3    3    0    0  0.84959752613E+01  0.70707856914E+02  0.80284836356E+02  0.13492151868E+03  0.81770279614E+02 0.  0.
          6    2    1    2  502    0  0.18859570281E+02 -0.80541537262E+02  0.40275633358E+03  0.44560671307E+03  0.17178491168E+03 0.  0.
         24    2    5    5    0    0 -0.40888653171E+02 -0.55468796644E+02  0.14642156193E+03  0.18116749948E+03  0.81447650127E+02 0.  0.
          4    1    6    6  501    0 -0.64356957062E+02 -0.38965301136E+02  0.12275642089E+03  0.14397656575E+03  0.00000000000E+00 0. -1.
         -3    1    6    6    0  501  0.23468303892E+02 -0.16503495508E+02  0.23665141041E+02  0.37190933734E+02  0.00000000000E+00 0.  1.
          5    1    5    5  502    0  0.59748223452E+02 -0.25072740618E+02  0.25633477165E+03  0.26443921359E+03  0.47000000000E+01 0. -1.
         13    1    4    4    0    0 -0.24318192091E+02 -0.53173432185E+01  0.12207869294E+02  0.27725091130E+02  0.00000000000E+00 0. -1.
        -14    1    4    4    0    0  0.32814167352E+02  0.76025200132E+02  0.68076967063E+02  0.10719642755E+03  0.00000000000E+00 0.  1.
         -5    1    3    3    0  504 -0.27355545543E+02  0.98336803482E+01  0.21375541105E+03  0.21577417106E+03  0.47000000000E+01 0.  1.
<mgrwt>
<rscale>  2 0.19100770E+03</rscale>
<asrwt>0</asrwt>
<pdfrwt beam="1">  1       21 0.11485376E+00 0.19112247E+03</pdfrwt>
<pdfrwt beam="2">  1       21 0.76542945E-02 0.19112247E+03</pdfrwt>
<totfact> 0.76260056E+04</totfact>
</mgrwt>
</event>
<event>
12    1  0.1410528E-001  0.3028469E+03  0.7546771E-02  0.1084086E+00
         21   -1    0    0  502  503  0.00000000000E+00  0.00000000000E+00  0.34210272449E+03  0.34210272449E+03  0.00000000000E+00 0.  1.
         21   -1    0    0  503  504 -0.00000000000E+00 -0.00000000000E+00 -0.53897541195E+03  0.53897541195E+03  0.00000000000E+00 0. -1.
         -6    2    1    2    0  504 -0.12745651559E+03 -0.21145880280E+03 -0.41164604605E+03  0.50980482678E+03  0.17172217540E+03 0.  0.
        -24    2    3    3    0    0 -0.20156136258E+02 -0.15114172177E+03 -0.28556392910E+03  0.33353709891E+03  0.80312818801E+02 0.  0.
          6    2    1    2  502    0  0.12745651559E+03  0.21145880280E+03  0.21477335860E+03  0.37127330967E+03  0.17537470246E+03 0.  0.
         24    2    5    5    0    0  0.14125378047E+03  0.16669413855E+03  0.22485565794E+03  0.32312787952E+03  0.78179238233E+02 0.  0.
          2    1    6    6  501    0  0.27680473429E+02  0.53758975112E+02  0.21288173232E+02  0.64104776217E+02  0.00000000000E+00 0. -1.
         -1    1    6    6    0  501  0.11357330704E+03  0.11293516343E+03  0.20356748471E+03  0.25902310330E+03  0.00000000000E+00 0.  1.
          5    1    5    5  502    0 -0.13797264883E+02  0.44764664258E+02 -0.10082299347E+02  0.48145430152E+02  0.47000000000E+01 0. -1.
         13    1    4    4    0    0 -0.35722904414E+00 -0.91255737977E+02 -0.90472452053E+02  0.12850292567E+03  0.00000000000E+00 0. -1.
        -14    1    4    4    0    0 -0.19798907214E+02 -0.59885983790E+02 -0.19509147704E+03  0.20503417324E+03  0.00000000000E+00 0.  1.
         -5    1    3    3    0  504 -0.10730037933E+03 -0.60317081038E+02 -0.12608211696E+03  0.17626772786E+03  0.47000000000E+01 0.  1.
<mgrwt>
<rscale>  2 0.30232048E+03</rscale>
<asrwt>0</asrwt>
<pdfrwt beam="1">  1       21 0.52631188E-01 0.30284695E+03</pdfrwt>
<pdfrwt beam="2">  1       21 0.82919294E-01 0.30284695E+03</pdfrwt>
<totfact> 0.40381468E+03</totfact>
</mgrwt>
</event>
<event>
12    1  0.1410528E-001  0.2148288E+03  0.7546771E-02  0.1137976E+00
         21   -1    0    0  502  503  0.00000000000E+00  0.00000000000E+00  0.48111110786E+02  0.48111110786E+02  0.00000000000E+00 0.  1.
         21   -1    0    0  503  504 -0.00000000000E+00 -0.00000000000E+00 -0.12301552517E+04  0.12301552517E+04  0.00000000000E+00 0.  1.
         -6    2    1    2    0  504 -0.11026160768E+03  0.59448747072E+02 -0.89222517134E+03  0.91750821936E+03  0.17338915929E+03 0.  0.
        -24    2    3    3    0    0 -0.13115254437E+03  0.60888579627E+01 -0.57389575504E+03  0.59402805570E+03  0.79214450791E+02 0.  0.
          6    2    1    2  502    0  0.11026160768E+03 -0.59448747072E+02 -0.28981896957E+03  0.36075814312E+03  0.17452686627E+03 0.  0.
         24    2    5    5    0    0  0.13854876597E+03 -0.13543097788E+02 -0.19613562529E+03  0.25256317580E+03  0.77070086343E+02 0.  0.
          4    1    6    6  501    0  0.14768065901E+02  0.11866112082E+02 -0.75579381071E+02  0.77917541218E+02  0.00000000000E+00 0. -1.
         -3    1    6    6    0  501  0.12378070007E+03 -0.25409209870E+02 -0.12055624422E+03  0.17464563458E+03  0.00000000000E+00 0.  1.
          5    1    5    5  502    0 -0.28287158290E+02 -0.45905649284E+02 -0.93683344274E+02  0.10819496733E+03  0.47000000000E+01 0. -1.
         13    1    4    4    0    0 -0.49845545077E+02  0.26718739116E+02 -0.12277286881E+03  0.13517265515E+03  0.00000000000E+00 0. -1.
        -14    1    4    4    0    0 -0.81306999292E+02 -0.20629881153E+02 -0.45112288623E+03  0.45885540055E+03  0.00000000000E+00 0.  1.
         -5    1    3    3    0  504  0.20890936689E+02  0.53359889109E+02 -0.31832941630E+03  0.32348016366E+03  0.47000000000E+01 0.  1.
<mgrwt>
<rscale>  2 0.21459759E+03</rscale>
<asrwt>0</asrwt>
<pdfrwt beam="1">  1       21 0.74017093E-02 0.21482878E+03</pdfrwt>
<pdfrwt beam="2">  1       21 0.18925466E+00 0.21482878E+03</pdfrwt>
<totfact> 0.21325509E+04</totfact>
</mgrwt>
</event>
<event>
12    1  0.1410528E-001  0.2872963E+03  0.7546771E-02  0.1091786E+00
         21   -1    0    0  502  503  0.00000000000E+00  0.00000000000E+00  0.32466686300E+04  0.32466686300E+04  0.00000000000E+00 0. -1.
         21   -1    0    0  503  504 -0.00000000000E+00 -0.00000000000E+00 -0.53764331713E+02  0.53764331713E+02  0.00000000000E+00 0.  1.
         -6    2    1    2    0  504  0.45389767131E+02 -0.22501421474E+03  0.39792028454E+03  0.49072215515E+03  0.17255739018E+03 0.  0.
        -24    2    3    3    0    0  0.36507100097E+02 -0.42827910121E+02  0.95587597256E+02  0.13759626376E+03  0.81417103909E+02 0.  0.
          6    2    1    2  502    0 -0.45389767131E+02  0.22501421474E+03  0.27949840138E+04  0.28097108066E+04  0.17276443983E+03 0.  0.
         24    2    5    5    0    0  0.36786189644E+02  0.15662389124E+03  0.16759256417E+04  0.16855471822E+04  0.80363424495E+02 0.  0.
          2    1    6    6  501    0  0.16074435123E+02  0.10564722915E+03  0.70391249919E+03  0.71197790065E+03  0.00000000000E+00 0. -1.
         -1    1    6    6    0  501  0.20711754521E+02  0.50976662085E+02  0.97201314249E+03  0.97356928158E+03  0.00000000000E+00 0.  1.
          5    1    5    5  502    0 -0.82175956775E+02  0.68390323498E+02  0.11190583721E+04  0.11241636244E+04  0.47000000000E+01 0. -1.
         11    1    4    4    0    0  0.62034084542E+02 -0.36502804799E+02  0.62462629992E+02  0.95300905288E+02  0.00000000000E+00 0. -1.
        -12    1    4    4    0    0 -0.25526984444E+02 -0.63251053223E+01  0.33124967263E+02  0.42295358473E+02  0.00000000000E+00 0.  1.
         -5    1    3    3    0  504  0.88826670335E+01 -0.18218630462E+03  0.30233268729E+03  0.35312589138E+03  0.47000000000E+01 0.  1.
<mgrwt>
<rscale>  2 0.28726521E+03</rscale>
<asrwt>0</asrwt>
<pdfrwt beam="1">  1       21 0.49948733E+00 0.28729633E+03</pdfrwt>
<pdfrwt beam="2">  1       21 0.82714382E-02 0.28729633E+03</pdfrwt>
<totfact> 0.18872958E+02</totfact>
</mgrwt>
</event>
<event>
12    1  0.1410528E-001  0.1729550E+03  0.7546771E-02  0.1175074E+00
         21   -1    0    0  502  503  0.00000000000E+00  0.00000000000E+00  0.64160922194E+03  0.64160922194E+03  0.00000000000E+00 0.  1.
         21   -1    0    0  503  504 -0.00000000000E+00 -0.00000000000E+00 -0.59728715885E+02  0.59728715885E+02  0.00000000000E+00 0.  1.
         -6    2    1    2    0  504  0.30427713093E+01 -0.16063610585E+02  0.12418813113E+03  0.21205707989E+03  0.17110878170E+03 0.  0.
        -24    2    3    3    0    0  0.13421205166E+02 -0.68110522007E+02  0.41449421172E+02  0.11364784758E+03  0.79866180505E+02 0.  0.
          6    2    1    2  502    0 -0.30427713093E+01  0.16063610585E+02  0.45769237492E+03  0.48928085793E+03  0.17218057334E+03 0.  0.
         24    2    5    5    0    0  0.95852670166E+01  0.28282690050E+02  0.46299078514E+03  0.47033524088E+03  0.77220358638E+02 0.  0.
          4    1    6    6  501    0  0.31064027496E+02  0.45247398179E+02  0.28266419493E+03  0.28794330681E+03  0.00000000000E+00 0. -1.
         -3    1    6    6    0  501 -0.21478760479E+02 -0.16964708129E+02  0.18032659021E+03  0.18239193406E+03  0.00000000000E+00 0.  1.
          5    1    5    5  502    0 -0.12628038326E+02 -0.12219079465E+02 -0.52984102118E+01  0.18945617058E+02  0.47000000000E+01 0. -1.
         13    1    4    4    0    0 -0.11668839016E+02  0.80926406537E+01  0.29227837416E+02  0.32494909090E+02  0.00000000000E+00 0. -1.
        -14    1    4    4    0    0  0.25090044183E+02 -0.76203162661E+02  0.12221583756E+02  0.81152938493E+02  0.00000000000E+00 0.  1.
         -5    1    3    3    0  504 -0.10378433857E+02  0.52046911422E+02  0.82738709961E+02  0.98409232311E+02  0.47000000000E+01 0.  1.
<mgrwt>
<rscale>  2 0.17268769E+03</rscale>
<asrwt>0</asrwt>
<pdfrwt beam="1">  1       21 0.98709106E-01 0.17295505E+03</pdfrwt>
<pdfrwt beam="2">  1       21 0.91890337E-02 0.17295505E+03</pdfrwt>
<totfact> 0.80433027E+04</totfact>
</mgrwt>
</event>
<event>
12    1  0.1410528E-001  0.2708870E+03  0.7546771E-02  0.1100979E+00
         21   -1    0    0  502  503  0.00000000000E+00  0.00000000000E+00  0.27425216222E+02  0.27425216222E+02  0.00000000000E+00 0. -1.
         21   -1    0    0  503  504 -0.00000000000E+00 -0.00000000000E+00 -0.27147835675E+04  0.27147835675E+04  0.00000000000E+00 0.  1.
         -6    2    1    2    0  504  0.11399815866E+03  0.17261016561E+03 -0.15324101455E+04  0.15559182884E+04  0.17265867040E+03 0.  0.
        -24    2    3    3    0    0  0.98179039610E+02  0.13409208936E+03 -0.14653685862E+04  0.14768578849E+04  0.78640360845E+02 0.  0.
          6    2    1    2  502    0 -0.11399815866E+03 -0.17261016561E+03 -0.11549482057E+04  0.11862904953E+04  0.17489977697E+03 0.  0.
         24    2    5    5    0    0 -0.13232613209E+03 -0.79973765636E+02 -0.69668836633E+03  0.71837855105E+03  0.82383580934E+02 0.  0.
          2    1    6    6  501    0 -0.11274938632E+03 -0.95092919076E+02 -0.54137423636E+03  0.56110707639E+03  0.00000000000E+00 0. -1.
         -1    1    6    6    0  501 -0.19576745765E+02  0.15119153440E+02 -0.15531412997E+03  0.15727147466E+03  0.00000000000E+00 0.  1.
          5    1    5    5  502    0  0.18327973423E+02 -0.92636399969E+02 -0.45825983939E+03  0.46791194428E+03  0.47000000000E+01 0. -1.
         11    1    4    4    0    0  0.75760456657E+01 -0.98746022578E+01 -0.63630331676E+02  0.64836126865E+02  0.00000000000E+00 0. -1.
        -12    1    4    4    0    0  0.90602993944E+02  0.14396669162E+03 -0.14017382546E+04  0.14120217580E+04  0.00000000000E+00 0.  1.
         -5    1    3    3    0  504  0.15819119054E+02  0.38518076247E+02 -0.67041559300E+02  0.79060403483E+02  0.47000000000E+01 0.  1.
<mgrwt>
<rscale>  2 0.27052592E+03</rscale>
<asrwt>0</asrwt>
<pdfrwt beam="1">  1       21 0.42192648E-02 0.27088703E+03</pdfrwt>
<pdfrwt beam="2">  1       21 0.41765893E+00 0.27088703E+03</pdfrwt>
<totfact> 0.21950200E+03</totfact>
</mgrwt>
</event>
<event>
12    1  0.1410528E-001  0.1817883E+03  0.7546771E-02  0.1166242E+00
         21   -1    0    0  502  503  0.00000000000E+00  0.00000000000E+00  0.21612226663E+03  0.21612226663E+03  0.00000000000E+00 0. -1.
         21   -1    0    0  503  504 -0.00000000000E+00 -0.00000000000E+00 -0.26271128666E+03  0.26271128666E+03  0.00000000000E+00 0. -1.
         -6    2    1    2    0  504 -0.34041838787E+02 -0.34950224255E+02 -0.17844400995E+03  0.25426120473E+03  0.17443087623E+03 0.  0.
        -24    2    3    3    0    0  0.36578393820E+02 -0.37734905652E+02 -0.14941785597E+03  0.17771331568E+03  0.80587994690E+02 0.  0.
          6    2    1    2  502    0  0.34041838787E+02  0.34950224255E+02  0.13185498993E+03  0.22457234856E+03  0.17511892075E+03 0.  0.
         24    2    5    5    0    0 -0.30427601314E+02  0.55464212835E+02  0.40015629623E+02  0.11040715887E+03  0.81156467943E+02 0.  0.
          2    1    6    6  501    0 -0.39253778654E+02  0.61011410783E+02  0.55776237703E+02  0.91510874090E+02  0.00000000000E+00 0. -1.
         -1    1    6    6    0  501  0.88261773406E+01 -0.55471979479E+01 -0.15760608080E+02  0.18896284782E+02  0.00000000000E+00 0.  1.
          5    1    5    5  502    0  0.64469440101E+02 -0.20513988580E+02  0.91839360304E+02  0.11416518968E+03  0.47000000000E+01 0. -1.
         11    1    4    4    0    0 -0.64019863409E+01 -0.24968371537E+02 -0.12300239095E+03  0.12567415481E+03  0.00000000000E+00 0. -1.
        -12    1    4    4    0    0  0.42980380161E+02 -0.12766534115E+02 -0.26415465013E+02  0.52039160869E+02  0.00000000000E+00 0.  1.
         -5    1    3    3    0  504 -0.70620232608E+02  0.27846813972E+01 -0.29026153987E+02  0.76547889058E+02  0.47000000000E+01 0.  1.
<mgrwt>
<rscale>  2 0.18162244E+03</rscale>
<asrwt>0</asrwt>
<pdfrwt beam="1">  1       21 0.33249580E-01 0.18178834E+03</pdfrwt>
<pdfrwt beam="2">  1       21 0.40417121E-01 0.18178834E+03</pdfrwt>
<totfact> 0.51636779E+04</totfact>
</mgrwt>
</event>
<event>
12    1  0.1410528E-001  0.2151018E+03  0.7546771E-02  0.1138397E+00
         21   -1    0    0  502  503  0.00000000000E+00  0.00000000000E+00  0.93725223423E+03  0.93725223423E+03  0.00000000000E+00 0.  1.
         21   -1    0    0  503  504 -0.00000000000E+00 -0.00000000000E+00 -0.57375722301E+03  0.57375722301E+03  0.00000000000E+00 0. -1.
         -6    2    1    2    0  504  0.78728420314E+02 -0.99741050065E+02 -0.54132661911E+03  0.58097131371E+03  0.16836483469E+03 0.  0.
        -24    2    3    3    0    0 -0.19489111166E+02 -0.43203321320E+02 -0.30172082373E+03  0.31587467955E+03  0.80591595599E+02 0.  0.
          6    2    1    2  502    0 -0.78728420314E+02  0.99741050065E+02  0.90482163033E+03  0.93003814354E+03  0.17355784189E+03 0.  0.
         24    2    5    5    0    0 -0.11599446506E+03  0.10554144932E+03  0.76865877728E+03  0.78867048360E+03  0.81062336326E+02 0.  0.
          2    1    6    6  501    0 -0.52305918336E+02  0.41127736428E+02  0.15963688324E+03  0.17294893549E+03  0.00000000000E+00 0. -1.
         -1    1    6    6    0  501 -0.63688546725E+02  0.64413712897E+02  0.60902189404E+03  0.61572154812E+03  0.00000000000E+00 0.  1.
          5    1    5    5  502    0  0.37266044747E+02 -0.58003992599E+01  0.13616285306E+03  0.14136765993E+03  0.47000000000E+01 0. -1.
         11    1    4    4    0    0  0.43118212093E+01  0.12339040796E+02 -0.17496120086E+03  0.17544875473E+03  0.00000000000E+00 0. -1.
        -12    1    4    4    0    0 -0.23800932375E+02 -0.55542362115E+02 -0.12675962287E+03  0.14042592482E+03  0.00000000000E+00 0.  1.
         -5    1    3    3    0  504  0.98217531480E+02 -0.56537728745E+02 -0.23960579538E+03  0.26509663416E+03  0.47000000000E+01 0.  1.
<mgrwt>
<rscale>  2 0.21405216E+03</rscale>
<asrwt>0</asrwt>
<pdfrwt beam="1">  1       21 0.14419265E+00 0.21510176E+03</pdfrwt>
<pdfrwt beam="2">  1       21 0.88270342E-01 0.21510176E+03</pdfrwt>
<totfact> 0.35499354E+02</totfact>
</mgrwt>
</event>
<event>
12    1  0.1410528E-001  0.2033027E+03  0.7546771E-02  0.1147088E+00
         21   -1    0    0  502  503  0.00000000000E+00  0.00000000000E+00  0.93424268315E+02  0.93424268315E+02  0.00000000000E+00 0.  1.
         21   -1    0    0  503  504 -0.00000000000E+00 -0.00000000000E+00 -0.44893965647E+03  0.44893965647E+03  0.00000000000E+00 0.  1.
         -6    2    1    2    0  504  0.53915897159E+02  0.92229226063E+02 -0.21290869460E+03  0.29403217977E+03  0.17237069472E+03 0.  0.
        -24    2    3    3    0    0  0.43668823167E+02  0.78974360493E+02 -0.23628973964E+03  0.26488672980E+03  0.78665258114E+02 0.  0.
          6    2    1    2  502    0 -0.53915897159E+02 -0.92229226063E+02 -0.14260669355E+03  0.24833174501E+03  0.17297061145E+03 0.  0.
         24    2    5    5    0    0 -0.31914445936E+02 -0.12866900499E+03 -0.13289125380E+03  0.20441818089E+03  0.80947283054E+02 0.  0.
          2    1    6    6  501    0 -0.24178454337E+02 -0.32499370971E+02 -0.90272347488E+02  0.98943941141E+02  0.00000000000E+00 0. -1.
         -1    1    6    6    0  501 -0.77359915994E+01 -0.96169634023E+02 -0.42618906314E+02  0.10547423974E+03  0.00000000000E+00 0.  1.
          5    1    5    5  502    0 -0.22001451223E+02  0.36439778932E+02 -0.97154397508E+01  0.43913564124E+02  0.47000000000E+01 0. -1.
         13    1    4    4    0    0  0.47288178596E+02  0.45735270915E+02 -0.73256097140E+02  0.98459852776E+02  0.00000000000E+00 0. -1.
        -14    1    4    4    0    0 -0.36193554291E+01  0.33239089579E+02 -0.16303364250E+03  0.16642687703E+03  0.00000000000E+00 0.  1.
         -5    1    3    3    0  504  0.10247073992E+02  0.13254865570E+02  0.23381045042E+02  0.29145449969E+02  0.47000000000E+01 0.  1.
<mgrwt>
<rscale>  2 0.20317504E+03</rscale>
<asrwt>0</asrwt>
<pdfrwt beam="1">  1       21 0.14372965E-01 0.20330270E+03</pdfrwt>
<pdfrwt beam="2">  1       21 0.69067639E-01 0.20330270E+03</pdfrwt>
<totfact> 0.80530902E+04</totfact>
</mgrwt>
</event>
<event>
12    1  0.1410528E-001  0.1756287E+03  0.7546771E-02  0.1172358E+00
         21   -1    0    0  502  503  0.00000000000E+00  0.00000000000E+00  0.29281365917E+03  0.29281365917E+03  0.00000000000E+00 0.  1.
         21   -1    0    0  503  504 -0.00000000000E+00 -0.00000000000E+00 -0.10777499734E+03  0.10777499734E+03  0.00000000000E+00 0.  1.
         -6    2    1    2    0  504 -0.10798647135E+02 -0.22901223543E+02  0.58589059467E+02  0.18417481405E+03  0.17276170704E+03 0.  0.
        -24    2    3    3    0    0 -0.36740417946E+02  0.38345007154E+02  0.52868402844E+02  0.11725028820E+03  0.90179621755E+02 0.  0.
          6    2    1    2  502    0  0.10798647135E+02  0.22901223543E+02  0.12644960236E+03  0.21641384246E+03  0.17379405183E+03 0.  0.
         24    2    5    5    0    0 -0.56184686293E+02  0.18155524077E+02  0.39493724591E+02  0.10644701428E+03  0.79277175401E+02 0.  0.
          2    1    6    6  501    0 -0.44977163033E+02  0.41535635538E+02  0.49424680883E+02  0.78682611132E+02  0.00000000000E+00 0. -1.
         -1    1    6    6    0  501 -0.11207523260E+02 -0.23380111461E+02 -0.99309562920E+01  0.27764403152E+02  0.00000000000E+00 0.  1.
          5    1    5    5  502    0  0.66983333428E+02  0.47456994657E+01  0.86955877766E+02  0.10996682817E+03  0.47000000000E+01 0. -1.
         13    1    4    4    0    0 -0.29253198345E+02  0.57587899289E+02  0.66343924050E+02  0.92593909174E+02  0.00000000000E+00 0. -1.
        -14    1    4    4    0    0 -0.74872196013E+01 -0.19242892134E+02 -0.13475521206E+02  0.24656379029E+02  0.00000000000E+00 0.  1.
         -5    1    3    3    0  504  0.25941770811E+02 -0.61246230697E+02  0.57206566232E+01  0.66924525846E+02  0.47000000000E+01 0.  1.
<mgrwt>
<rscale>  2 0.17537279E+03</rscale>
<asrwt>0</asrwt>
<pdfrwt beam="1">  1       21 0.45048255E-01 0.17562873E+03</pdfrwt>
<pdfrwt beam="2">  1       21 0.16580769E-01 0.17562873E+03</pdfrwt>
<totfact> 0.15528193E+05</totfact>
</mgrwt>
</event>
<event>
12    1  0.1410528E-001  0.2253642E+03  0.7546771E-02  0.1131309E+00
         21   -1    0    0  502  503  0.00000000000E+00  0.00000000000E+00  0.82451942149E+03  0.82451942149E+03  0.00000000000E+00 0. -1.
         21   -1    0    0  503  504 -0.00000000000E+00 -0.00000000000E+00 -0.59589907313E+02  0.59589907313E+02  0.00000000000E+00 0.  1.
         -6    2    1    2    0  504 -0.12432561008E+03  0.51754367145E+02  0.38787185700E+03  0.44859066551E+03  0.18070317065E+03 0.  0.
        -24    2    3    3    0    0 -0.13807639091E+03  0.30582855270E+02  0.19541929818E+03  0.25443249729E+03  0.80912253770E+02 0.  0.
          6    2    1    2  502    0  0.12432561008E+03 -0.51754367145E+02  0.37705765717E+03  0.43551866330E+03  0.17137286076E+03 0.  0.
         24    2    5    5    0    0  0.12153230833E+03 -0.87769541958E+02  0.23403830050E+03  0.28793302126E+03  0.75219041266E+02 0.  0.
          4    1    6    6  501    0  0.83054486181E+02 -0.78418455913E+02  0.21616386845E+03  0.24448787275E+03  0.00000000000E+00 0. -1.
         -3    1    6    6    0  501  0.38477822148E+02 -0.93510860450E+01  0.17874432051E+02  0.43445148505E+02  0.00000000000E+00 0.  1.
          5    1    5    5  502    0  0.27933017518E+01  0.36015174813E+02  0.14301935668E+03  0.14758564204E+03  0.47000000000E+01 0. -1.
         13    1    4    4    0    0 -0.69921701252E+02  0.40242380375E+02  0.15465366163E+03  0.17443121435E+03  0.00000000000E+00 0. -1.
        -14    1    4    4    0    0 -0.68154689662E+02 -0.96595251045E+01  0.40765636551E+02  0.80001282937E+02  0.00000000000E+00 0.  1.
         -5    1    3    3    0  504  0.13750780833E+02  0.21171511875E+02  0.19245255882E+03  0.19415816822E+03  0.47000000000E+01 0.  1.
<mgrwt>
<rscale>  2 0.22348838E+03</rscale>
<asrwt>0</asrwt>
<pdfrwt beam="1">  1       21 0.12684913E+00 0.22536417E+03</pdfrwt>
<pdfrwt beam="2">  1       21 0.91676786E-02 0.22536417E+03</pdfrwt>
<totfact> 0.42726541E+04</totfact>
</mgrwt>
</event>
<event>
12    1  0.1410528E-001  0.3163066E+03  0.7546771E-02  0.1077685E+00
         21   -1    0    0  502  503  0.00000000000E+00  0.00000000000E+00  0.10363340695E+03  0.10363340695E+03  0.00000000000E+00 0.  1.
         21   -1    0    0  503  504 -0.00000000000E+00 -0.00000000000E+00 -0.95979924757E+03  0.95979924757E+03  0.00000000000E+00 0. -1.
         -6    2    1    2    0  504  0.23857503005E+03 -0.10572804765E+03 -0.39769997987E+03  0.50643999698E+03  0.17383823379E+03 0.  0.
        -24    2    3    3    0    0  0.10668463029E+03  0.16372316640E+02 -0.16326679741E+03  0.21100035246E+03  0.78838052445E+02 0.  0.
          6    2    1    2  502    0 -0.23857503005E+03  0.10572804765E+03 -0.45846586075E+03  0.55699265754E+03  0.17875516792E+03 0.  0.
         24    2    5    5    0    0 -0.24484543614E+03  0.84930585188E+02 -0.46053099526E+03  0.53467210159E+03  0.81381611780E+02 0.  0.
          4    1    6    6  501    0 -0.28211853653E+01 -0.81976441884E+01 -0.38205728831E+01  0.94740294627E+01  0.00000000000E+00 0. -1.
         -3    1    6    6    0  501 -0.24202425077E+03  0.93128229376E+02 -0.45671042237E+03  0.52519807213E+03  0.00000000000E+00 0.  1.
          5    1    5    5  502    0  0.62704060829E+01  0.20797462462E+02  0.20651345058E+01  0.22320555948E+02  0.47000000000E+01 0. -1.
         11    1    4    4    0    0  0.10863437132E+03 -0.26268182184E+01 -0.15692442728E+03  0.19087588292E+03  0.00000000000E+00 0. -1.
        -12    1    4    4    0    0 -0.19497410281E+01  0.18999134859E+02 -0.63423701257E+01  0.20124469540E+02  0.00000000000E+00 0.  1.
         -5    1    3    3    0  504  0.13189039976E+03 -0.12210036429E+03 -0.23443318246E+03  0.29543964451E+03  0.47000000000E+01 0.  1.
<mgrwt>
<rscale>  2 0.31561624E+03</rscale>
<asrwt>0</asrwt>
<pdfrwt beam="1">  1       21 0.15943601E-01 0.31630662E+03</pdfrwt>
<pdfrwt beam="2">  1       21 0.14766142E+00 0.31630662E+03</pdfrwt>
<totfact> 0.10156470E+04</totfact>
</mgrwt>
</event>
<event>
12    1  0.1410528E-001  0.1857541E+03  0.7546771E-02  0.1163595E+00
         21   -1    0    0  502  503  0.00000000000E+00  0.00000000000E+00  0.56558955223E+03  0.56558955223E+03  0.00000000000E+00 0.  1.
         21   -1    0    0  503  504 -0.00000000000E+00 -0.00000000000E+00 -0.64404781604E+02  0.64404781604E+02  0.00000000000E+00 0.  1.
         -6    2    1    2    0  504 -0.28962284110E+01  0.50956941358E+02  0.15842437210E+03  0.24013632234E+03  0.17309585096E+03 0.  0.
        -24    2    3    3    0    0 -0.41421807844E+02 -0.14378635093E+02  0.12918495822E+03  0.15871156477E+03  0.81105462512E+02 0.  0.
          6    2    1    2  502    0  0.28962284110E+01 -0.50956941358E+02  0.34276039852E+03  0.38985801149E+03  0.17860453611E+03 0.  0.
         24    2    5    5    0    0 -0.90773884140E+01  0.31526075774E+02  0.88616328915E+02  0.12235452791E+03  0.77726985756E+02 0.  0.
          4    1    6    6  501    0 -0.14866923564E+02  0.54490569984E+02  0.78241744590E+02  0.96498799111E+02  0.00000000000E+00 0. -1.
         -3    1    6    6    0  501  0.57895351503E+01 -0.22964494210E+02  0.10374584325E+02  0.25855728795E+02  0.00000000000E+00 0.  1.
          5    1    5    5  502    0  0.11973616825E+02 -0.82483017132E+02  0.25414406960E+03  0.26750348358E+03  0.47000000000E+01 0. -1.
         11    1    4    4    0    0 -0.55117237005E+02  0.11487095016E+02  0.11041869443E+03  0.12394414568E+03  0.00000000000E+00 0. -1.
        -12    1    4    4    0    0  0.13695429162E+02 -0.25865730109E+02  0.18766263789E+02  0.34767419096E+02  0.00000000000E+00 0.  1.
         -5    1    3    3    0  504  0.38525579433E+02  0.65335576452E+02  0.29239413882E+02  0.81424757568E+02  0.47000000000E+01 0.  1.
<mgrwt>
<rscale>  2 0.18441714E+03</rscale>
<asrwt>0</asrwt>
<pdfrwt beam="1">  1       21 0.87013774E-01 0.18575408E+03</pdfrwt>
<pdfrwt beam="2">  1       21 0.99084283E-02 0.18575408E+03</pdfrwt>
<totfact> 0.93921139E+04</totfact>
</mgrwt>
</event>
<event>
12    1  0.1410528E-001  0.2737536E+03  0.7546771E-02  0.1099206E+00
         21   -1    0    0  502  503  0.00000000000E+00  0.00000000000E+00  0.23850105654E+03  0.23850105654E+03  0.00000000000E+00 0.  1.
         21   -1    0    0  503  504 -0.00000000000E+00 -0.00000000000E+00 -0.37592113547E+03  0.37592113547E+03  0.00000000000E+00 0. -1.
         -6    2    1    2    0  504 -0.20977886053E+03 -0.28142642016E+02 -0.19359224981E+03  0.33496498929E+03  0.17298672274E+03 0.  0.
        -24    2    3    3    0    0 -0.13160291561E+03  0.25597311601E+02 -0.18079533597E+03  0.23912495599E+03  0.80741818870E+02 0.  0.
          6    2    1    2  502    0  0.20977886053E+03  0.28142642016E+02  0.56172170869E+02  0.27945720272E+03  0.17361404536E+03 0.  0.
         24    2    5    5    0    0  0.21416688681E+03  0.50741373882E+02  0.19157735217E+02  0.23561526043E+03  0.81886443940E+02 0.  0.
          4    1    6    6  501    0  0.49658838892E+02  0.14224010425E+02 -0.30437316430E+02  0.59956258924E+02  0.00000000000E+00 0. -1.
         -3    1    6    6    0  501  0.16450804792E+03  0.36517363458E+02  0.49595051646E+02  0.17565900151E+03  0.00000000000E+00 0.  1.
          5    1    5    5  502    0 -0.43880262818E+01 -0.22598731866E+02  0.37014435652E+02  0.43841942285E+02  0.47000000000E+01 0. -1.
         11    1    4    4    0    0 -0.10423500979E+03 -0.16127817279E+02 -0.10886063157E+03  0.15157730985E+03  0.00000000000E+00 0. -1.
        -12    1    4    4    0    0 -0.27367905823E+02  0.41725128879E+02 -0.71934704394E+02  0.87547646145E+02  0.00000000000E+00 0.  1.
         -5    1    3    3    0  504 -0.78175944918E+02 -0.53739953617E+02 -0.12796913840E+02  0.95840033297E+02  0.47000000000E+01 0.  1.
<mgrwt>
<rscale>  2 0.27365416E+03</rscale>
<asrwt>0</asrwt>
<pdfrwt beam="1">  1       21 0.36692470E-01 0.27375357E+03</pdfrwt>
<pdfrwt beam="2">  1       21 0.57834021E-01 0.27375357E+03</pdfrwt>
<totfact> 0.19246761E+04</totfact>
</mgrwt>
</event>
<event>
12    1  0.1410528E-001  0.1914383E+03  0.7546771E-02  0.1158103E+00
         21   -1    0    0  502  503  0.00000000000E+00  0.00000000000E+00  0.21012506069E+03  0.21012506069E+03  0.00000000000E+00 0. -1.
         21   -1    0    0  503  504 -0.00000000000E+00 -0.00000000000E+00 -0.22752912118E+03  0.22752912118E+03  0.00000000000E+00 0.  1.
         -6    2    1    2    0  504 -0.25000261590E+02  0.76838286819E+02 -0.11815502894E+03  0.22496496035E+03  0.17354966759E+03 0.  0.
        -24    2    3    3    0    0  0.43215281593E+02  0.75806427034E+02 -0.60418305861E+02  0.13546610975E+03  0.84181472224E+02 0.  0.
          6    2    1    2  502    0  0.25000261590E+02 -0.76838286819E+02  0.10075096846E+03  0.21268922152E+03  0.16898760873E+03 0.  0.
         24    2    5    5    0    0 -0.41854289701E+01 -0.20519272296E+02 -0.15305172718E+02  0.80345903462E+02  0.76043786991E+02 0.  0.
          2    1    6    6  501    0  0.11690977986E+02  0.31773064561E+01 -0.40509425465E+02  0.42282239701E+02  0.00000000000E+00 0. -1.
         -1    1    6    6    0  501 -0.15876406956E+02 -0.23696578752E+02  0.25204252747E+02  0.38063663761E+02  0.00000000000E+00 0.  1.
          5    1    5    5  502    0  0.29185690560E+02 -0.56319014523E+02  0.11605614117E+03  0.13234331806E+03  0.47000000000E+01 0. -1.
         11    1    4    4    0    0  0.20712530788E+01 -0.62534385761E+01 -0.41143517234E+02  0.41667548448E+02  0.00000000000E+00 0. -1.
        -12    1    4    4    0    0  0.41144028514E+02  0.82059865610E+02 -0.19274788627E+02  0.93798561305E+02  0.00000000000E+00 0.  1.
         -5    1    3    3    0  504 -0.68215543182E+02  0.10318597857E+01 -0.57736723083E+02  0.89498850599E+02  0.47000000000E+01 0.  1.
<mgrwt>
<rscale>  2 0.19039839E+03</rscale>
<asrwt>0</asrwt>
<pdfrwt beam="1">  1       21 0.32326932E-01 0.19143830E+03</pdfrwt>
<pdfrwt beam="2">  1       21 0.35004480E-01 0.19143830E+03</pdfrwt>
<totfact> 0.72471636E+04</totfact>
</mgrwt>
</event>
<event>
12    1  0.1410528E-001  0.2658705E+03  0.7546771E-02  0.1103733E+00
         21   -1    0    0  502  503  0.00000000000E+00  0.00000000000E+00  0.54702911389E+03  0.54702911389E+03  0.00000000000E+00 0.  1.
         21   -1    0    0  503  504 -0.00000000000E+00 -0.00000000000E+00 -0.17656467679E+03  0.17656467679E+03  0.00000000000E+00 0. -1.
         -6    2    1    2    0  504  0.25153253567E+02 -0.19944535045E+03 -0.24348640623E+01  0.26588164592E+03  0.17399996291E+03 0.  0.
        -24    2    3    3    0    0 -0.54531919063E+01 -0.13512883160E+03 -0.65823134775E+02  0.17041682536E+03  0.80122848561E+02 0.  0.
          6    2    1    2  502    0 -0.25153253567E+02  0.19944535045E+03  0.37289930116E+03  0.45771214476E+03  0.17330719740E+03 0.  0.
         24    2    5    5    0    0 -0.62790316763E+02  0.12048701963E+03  0.31110268900E+03  0.35051196842E+03  0.87258301185E+02 0.  0.
          2    1    6    6  501    0 -0.60336495853E+02  0.58154797869E+02  0.10044179945E+03  0.13080912936E+03  0.00000000000E+00 0. -1.
         -1    1    6    6    0  501 -0.24538209106E+01  0.62332221764E+02  0.21066088955E+03  0.21970283906E+03  0.00000000000E+00 0.  1.
          5    1    5    5  502    0  0.37637063196E+02  0.78958330814E+02  0.61796612164E+02  0.10720017633E+03  0.47000000000E+01 0. -1.
         13    1    4    4    0    0  0.33284984187E+02 -0.77884892846E+02 -0.53573760605E+02  0.10022023015E+03  0.00000000000E+00 0. -1.
        -14    1    4    4    0    0 -0.38738176093E+02 -0.57243938758E+02 -0.12249374170E+02  0.70196595210E+02  0.00000000000E+00 0.  1.
         -5    1    3    3    0  504  0.30606445473E+02 -0.64316518842E+02  0.63388270712E+02  0.95464820559E+02  0.47000000000E+01 0.  1.
<mgrwt>
<rscale>  2 0.26575721E+03</rscale>
<asrwt>0</asrwt>
<pdfrwt beam="1">  1       21 0.84158324E-01 0.26587050E+03</pdfrwt>
<pdfrwt beam="2">  1       21 0.27163797E-01 0.26587050E+03</pdfrwt>
<totfact> 0.15193715E+04</totfact>
</mgrwt>
</event>
<event>
12    1  0.1410528E-001  0.1949242E+03  0.7546771E-02  0.1154127E+00
         21   -1    0    0  502  503  0.00000000000E+00  0.00000000000E+00  0.14518595313E+03  0.14518595313E+03  0.00000000000E+00 0.  1.
         21   -1    0    0  503  504 -0.00000000000E+00 -0.00000000000E+00 -0.26613300187E+03  0.26613300187E+03  0.00000000000E+00 0.  1.
         -6    2    1    2    0  504 -0.69380890427E+02  0.58534296063E+02 -0.33297505191E+02  0.19759508063E+03  0.17232272126E+03 0.  0.
        -24    2    3    3    0    0 -0.11427559921E+03  0.45708408182E+02 -0.23266467281E+02  0.14960810325E+03  0.81811276152E+02 0.  0.
          6    2    1    2  502    0  0.69380890427E+02 -0.58534296063E+02 -0.87649543549E+02  0.21372387438E+03  0.17249776874E+03 0.  0.
         24    2    5    5    0    0  0.66616041344E+02 -0.89699889322E+02 -0.10929814837E+03  0.17538732935E+03  0.79566720117E+02 0.  0.
          4    1    6    6  501    0  0.59925965615E+02 -0.28444294336E+02 -0.24823733654E+02  0.70826668619E+02  0.00000000000E+00 0. -1.
         -3    1    6    6    0  501  0.66900757286E+01 -0.61255594986E+02 -0.84474414720E+02  0.10456066073E+03  0.00000000000E+00 0.  1.
          5    1    5    5  502    0  0.27648490834E+01  0.31165593259E+02  0.21648604824E+02  0.38336545025E+02  0.47000000000E+01 0. -1.
         11    1    4    4    0    0 -0.30381199505E+02 -0.21562259248E+02  0.69748439693E+01  0.37902463714E+02  0.00000000000E+00 0. -1.
        -12    1    4    4    0    0 -0.83894399702E+02  0.67270667430E+02 -0.30241311250E+02  0.11170563954E+03  0.00000000000E+00 0.  1.
         -5    1    3    3    0  504  0.44894708779E+02  0.12825887881E+02 -0.10031037910E+02  0.47986977378E+02  0.47000000000E+01 0.  1.
<mgrwt>
<rscale>  2 0.19488549E+03</rscale>
<asrwt>0</asrwt>
<pdfrwt beam="1">  1       21 0.22336300E-01 0.19492422E+03</pdfrwt>
<pdfrwt beam="2">  1       21 0.40943539E-01 0.19492422E+03</pdfrwt>
<totfact> 0.10769410E+05</totfact>
</mgrwt>
</event>
<event>
12    1  0.1410528E-001  0.2379655E+03  0.7546771E-02  0.1123265E+00
         21   -1    0    0  502  503  0.00000000000E+00  0.00000000000E+00  0.50749027714E+02  0.50749027714E+02  0.00000000000E+00 0.  1.
         21   -1    0    0  503  504 -0.00000000000E+00 -0.00000000000E+00 -0.11142373362E+04  0.11142373362E+04  0.00000000000E+00 0.  1.
         -6    2    1    2    0  504 -0.12841028494E+03 -0.10080421505E+03 -0.64758453476E+03  0.68581676418E+03  0.15597504069E+03 0.  0.
        -24    2    3    3    0    0 -0.15161646191E+03 -0.67401570232E+02 -0.54407228615E+03  0.57450127135E+03  0.80663095914E+02 0.  0.
          6    2    1    2  502    0  0.12841028494E+03  0.10080421505E+03 -0.41590377373E+03  0.47916959974E+03  0.17313828363E+03 0.  0.
         24    2    5    5    0    0  0.13530826872E+03  0.13147643999E+03 -0.37254150711E+03  0.42540396268E+03  0.81160181642E+02 0.  0.
          2    1    6    6  501    0  0.11397453545E+03  0.62535537856E+02 -0.20195602738E+03  0.24018144229E+03  0.00000000000E+00 0. -1.
         -1    1    6    6    0  501  0.21333733263E+02  0.68940902130E+02 -0.17058547973E+03  0.18522252038E+03  0.00000000000E+00 0.  1.
          5    1    5    5  502    0 -0.68979837737E+01 -0.30672224931E+02 -0.43362266618E+02  0.53765637062E+02  0.47000000000E+01 0. -1.
         11    1    4    4    0    0 -0.97717677421E+02 -0.14872682653E+02 -0.21060768075E+03  0.23264895521E+03  0.00000000000E+00 0. -1.
        -12    1    4    4    0    0 -0.53898784486E+02 -0.52528887579E+02 -0.33346460540E+03  0.34185231614E+03  0.00000000000E+00 0.  1.
         -5    1    3    3    0  504  0.23206176966E+02 -0.33402644823E+02 -0.10351224861E+03  0.11131549283E+03  0.47000000000E+01 0.  1.
<mgrwt>
<rscale>  2 0.23486010E+03</rscale>
<asrwt>0</asrwt>
<pdfrwt beam="1">  1       21 0.78075437E-02 0.23796545E+03</pdfrwt>
<pdfrwt beam="2">  1       21 0.17142111E+00 0.23796545E+03</pdfrwt>
<totfact> 0.25369123E+04</totfact>
</mgrwt>
</event>
<event>
12    1  0.1410528E-001  0.2074727E+03  0.7546771E-02  0.1143632E+00
         21   -1    0    0  502  503  0.00000000000E+00  0.00000000000E+00  0.29088493470E+02  0.29088493470E+02  0.00000000000E+00 0.  1.
         21   -1    0    0  503  504 -0.00000000000E+00 -0.00000000000E+00 -0.21593598202E+04  0.21593598202E+04  0.00000000000E+00 0.  1.
         -6    2    1    2    0  504  0.31574908730E+02 -0.10945882913E+03 -0.16801898734E+04  0.16929509561E+04  0.17339757564E+03 0.  0.
        -24    2    3    3    0    0  0.51084498182E+01 -0.84481334055E+01 -0.36844612630E+03  0.37704921891E+03  0.79473884271E+02 0.  0.
          6    2    1    2  502    0 -0.31574908730E+02  0.10945882913E+03 -0.45008145337E+03  0.49549735752E+03  0.17310721103E+03 0.  0.
         24    2    5    5    0    0 -0.77396020340E+01  0.12254908960E+02 -0.32462334895E+03  0.33494035859E+03  0.81207394338E+02 0.  0.
          2    1    6    6  501    0  0.35762797802E+02 -0.22328290273E+01 -0.11959722403E+03  0.12484974661E+03  0.00000000000E+00 0. -1.
         -1    1    6    6    0  501 -0.43502399836E+02  0.14487737988E+02 -0.20502612492E+03  0.21009061199E+03  0.00000000000E+00 0.  1.
          5    1    5    5  502    0 -0.23835306696E+02  0.97203920171E+02 -0.12545810442E+03  0.16055699893E+03  0.47000000000E+01 0. -1.
         13    1    4    4    0    0 -0.35981048763E+02 -0.10915856924E+01 -0.12622996883E+03  0.13126245640E+03  0.00000000000E+00 0. -1.
        -14    1    4    4    0    0  0.41089498581E+02 -0.73565477132E+01 -0.24221615747E+03  0.24578676251E+03  0.00000000000E+00 0.  1.
         -5    1    3    3    0  504  0.26466458912E+02 -0.10101069573E+03 -0.13117437471E+04  0.13159017372E+04  0.47000000000E+01 0.  1.
<mgrwt>
<rscale>  2 0.20741204E+03</rscale>
<asrwt>0</asrwt>
<pdfrwt beam="1">  1       21 0.44751518E-02 0.20747272E+03</pdfrwt>
<pdfrwt beam="2">  1       21 0.33220928E+00 0.20747272E+03</pdfrwt>
<totfact> 0.70913264E+03</totfact>
</mgrwt>
</event>
<event>
12    1  0.1410528E-001  0.1772713E+03  0.7546771E-02  0.1170535E+00
         21   -1    0    0  502  503  0.00000000000E+00  0.00000000000E+00  0.94919763488E+02  0.94919763488E+02  0.00000000000E+00 0. -1.
         21   -1    0    0  503  504 -0.00000000000E+00 -0.00000000000E+00 -0.88259745282E+03  0.88259745282E+03  0.00000000000E+00 0. -1.
         -6    2    1    2    0  504  0.67578715671E+01 -0.36221103220E+02 -0.78026491752E+03  0.80009102767E+03  0.17313195518E+03 0.  0.
        -24    2    3    3    0    0 -0.84081494722E+01  0.21889661237E+02 -0.66221289599E+03  0.66755711154E+03  0.80973596295E+02 0.  0.
          6    2    1    2  502    0 -0.67578715671E+01  0.36221103220E+02 -0.74127718187E+01  0.17742618864E+03  0.17339972919E+03 0.  0.
         24    2    5    5    0    0 -0.54087979430E+02 -0.16125765209E+02 -0.29124718158E+02  0.10344083632E+03  0.81646846772E+02 0.  0.
          4    1    6    6  501    0 -0.28390692921E+02 -0.49540407466E+02 -0.17212259635E+02  0.59636778067E+02  0.00000000000E+00 0. -1.
         -3    1    6    6    0  501 -0.25697286509E+02  0.33414642257E+02 -0.11912458523E+02  0.43804058250E+02  0.00000000000E+00 0.  1.
          5    1    5    5  502    0  0.47330107863E+02  0.52346868429E+02  0.21711946339E+02  0.73985352324E+02  0.47000000000E+01 0. -1.
         11    1    4    4    0    0 -0.35178449844E+02  0.31782048691E+02 -0.25670319583E+03  0.26104435006E+03  0.00000000000E+00 0. -1.
        -12    1    4    4    0    0  0.26770300372E+02 -0.98923874531E+01 -0.40550970017E+03  0.40651276148E+03  0.00000000000E+00 0.  1.
         -5    1    3    3    0  504  0.15166021039E+02 -0.58110764457E+02 -0.11805202152E+03  0.13253391613E+03  0.47000000000E+01 0.  1.
<mgrwt>
<rscale>  2 0.17720575E+03</rscale>
<asrwt>0</asrwt>
<pdfrwt beam="1">  1       21 0.14603040E-01 0.17727127E+03</pdfrwt>
<pdfrwt beam="2">  1       21 0.13578422E+00 0.17727127E+03</pdfrwt>
<totfact> 0.16113825E+04</totfact>
</mgrwt>
</event>
<event>
12    1  0.1410528E-001  0.2116927E+03  0.7546771E-02  0.1140428E+00
         21   -1    0    0  502  503  0.00000000000E+00  0.00000000000E+00  0.36888383354E+03  0.36888383354E+03  0.00000000000E+00 0. -1.
         21   -1    0    0  503  504 -0.00000000000E+00 -0.00000000000E+00 -0.40718308430E+03  0.40718308430E+03  0.00000000000E+00 0.  1.
         -6    2    1    2    0  504 -0.12398126455E+01 -0.12369760903E+03 -0.34452015744E+03  0.40436113873E+03  0.17178811373E+03 0.  0.
        -24    2    3    3    0    0  0.66512902097E+02 -0.79299133756E+02 -0.20305661949E+03  0.24127932634E+03  0.79192195598E+02 0.  0.
          6    2    1    2  502    0  0.12398126455E+01  0.12369760903E+03  0.30622090667E+03  0.37170577910E+03  0.17056173931E+03 0.  0.
         24    2    5    5    0    0 -0.48948790542E+02  0.56692769446E+02  0.97786523742E+02  0.14703818819E+03  0.80299255022E+02 0.  0.
          2    1    6    6  501    0 -0.11299366817E+02  0.15295739833E+02 -0.12921963792E+02  0.22991574451E+02  0.00000000000E+00 0. -1.
         -1    1    6    6    0  501 -0.37649423725E+02  0.41397029614E+02  0.11070848753E+03  0.12404661374E+03  0.00000000000E+00 0.  1.
          5    1    5    5  502    0  0.50188603187E+02  0.67004839588E+02  0.20843438293E+03  0.22466759091E+03  0.47000000000E+01 0. -1.
         13    1    4    4    0    0  0.49087559687E+02 -0.37721324878E+01 -0.52695652466E+02  0.72115527373E+02  0.00000000000E+00 0. -1.
        -14    1    4    4    0    0  0.17425342410E+02 -0.75527001268E+02 -0.15036096702E+03  0.16916379897E+03  0.00000000000E+00 0.  1.
         -5    1    3    3    0  504 -0.67752714743E+02 -0.44398475279E+02 -0.14146353795E+03  0.16308181239E+03  0.47000000000E+01 0.  1.
<mgrwt>
<rscale>  2 0.21144375E+03</rscale>
<asrwt>0</asrwt>
<pdfrwt beam="1">  1       21 0.56751359E-01 0.21169268E+03</pdfrwt>
<pdfrwt beam="2">  1       21 0.62643551E-01 0.21169268E+03</pdfrwt>
<totfact> 0.67969233E+03</totfact>
</mgrwt>
</event>
<event>
12    1  0.1410528E-001  0.2132458E+03  0.7546771E-02  0.1140271E+00
         21   -1    0    0  502  503  0.00000000000E+00  0.00000000000E+00  0.35998770105E+02  0.35998770105E+02  0.00000000000E+00 0.  1.
         21   -1    0    0  503  504 -0.00000000000E+00 -0.00000000000E+00 -0.13271485681E+04  0.13271485681E+04  0.00000000000E+00 0.  1.
         -6    2    1    2    0  504 -0.11406837892E+03 -0.14070741168E+02 -0.44840033797E+03  0.49383702851E+03  0.17205396483E+03 0.  0.
        -24    2    3    3    0    0 -0.70323620693E+02 -0.69000243478E+02 -0.21049501540E+03  0.24574050173E+03  0.79836066119E+02 0.  0.
          6    2    1    2  502    0  0.11406837892E+03  0.14070741168E+02 -0.84274946000E+03  0.86931030967E+03  0.17962232973E+03 0.  0.
         24    2    5    5    0    0  0.10846134705E+03  0.25606903224E+02 -0.34631882762E+03  0.37269175927E+03  0.80887822076E+02 0.  0.
          2    1    6    6  501    0  0.32062410093E+02  0.28005090178E+02 -0.45484264690E+02  0.62298487552E+02  0.00000000000E+00 0. -1.
         -1    1    6    6    0  501  0.76398936961E+02 -0.23981869546E+01 -0.30083456293E+03  0.31039327171E+03  0.00000000000E+00 0.  1.
          5    1    5    5  502    0  0.56070318623E+01 -0.11536162056E+02 -0.49643063238E+03  0.49661855040E+03  0.47000000000E+01 0. -1.
         13    1    4    4    0    0 -0.58905471007E+01 -0.47205529959E+02 -0.39914218339E+02  0.62098352872E+02  0.00000000000E+00 0. -1.
        -14    1    4    4    0    0 -0.64433073593E+02 -0.21794713519E+02 -0.17058079707E+03  0.18364214886E+03  0.00000000000E+00 0.  1.
         -5    1    3    3    0  504 -0.43744758223E+02  0.54929502310E+02 -0.23790532257E+03  0.24809652678E+03  0.47000000000E+01 0.  1.
<mgrwt>
<rscale>  2 0.21164412E+03</rscale>
<asrwt>0</asrwt>
<pdfrwt beam="1">  1       21 0.55382727E-02 0.21324578E+03</pdfrwt>
<pdfrwt beam="2">  1       21 0.20417669E+00 0.21324578E+03</pdfrwt>
<totfact> 0.28131452E+04</totfact>
</mgrwt>
</event>
<event>
12    1  0.1410528E-001  0.2470502E+03  0.7546771E-02  0.1115224E+00
         21   -1    0    0  502  503  0.00000000000E+00  0.00000000000E+00  0.17428363693E+03  0.17428363693E+03  0.00000000000E+00 0.  1.
         21   -1    0    0  503  504 -0.00000000000E+00 -0.00000000000E+00 -0.51529495257E+03  0.51529495257E+03  0.00000000000E+00 0.  1.
         -6    2    1    2    0  504  0.64421258957E+01 -0.17630479974E+03 -0.36594133894E+03  0.44152784836E+03  0.17294188022E+03 0.  0.
        -24    2    3    3    0    0 -0.28693538423E+02 -0.13713730691E+03 -0.15371127328E+03  0.22282188555E+03  0.79952967734E+02 0.  0.
          6    2    1    2  502    0 -0.64421258957E+01  0.17630479974E+03  0.24930023301E+02  0.24805074114E+03  0.17257688351E+03 0.  0.
         24    2    5    5    0    0 -0.33026393285E+02  0.35808430049E+02  0.41718006500E+02  0.10400255633E+03  0.81872787541E+02 0.  0.
          2    1    6    6  501    0 -0.26759779693E+02 -0.17301389632E+02  0.39127333997E+02  0.50461590920E+02  0.00000000000E+00 0. -1.
         -1    1    6    6    0  501 -0.62666135924E+01  0.53109819682E+02  0.25906725027E+01  0.53540965405E+02  0.00000000000E+00 0.  1.
          5    1    5    5  502    0  0.26584267389E+02  0.14049636969E+03 -0.16787983199E+02  0.14404818482E+03  0.47000000000E+01 0. -1.
         11    1    4    4    0    0 -0.32498247025E+02 -0.10374258483E+02 -0.39051282479E+02  0.51853292682E+02  0.00000000000E+00 0. -1.
        -12    1    4    4    0    0  0.38047086014E+01 -0.12676304843E+03 -0.11465999081E+03  0.17096859286E+03  0.00000000000E+00 0.  1.
         -5    1    3    3    0  504  0.35135664319E+02 -0.39167492829E+02 -0.21223006566E+03  0.21870596282E+03  0.47000000000E+01 0.  1.
<mgrwt>
<rscale>  2 0.24698628E+03</rscale>
<asrwt>0</asrwt>
<pdfrwt beam="1">  1       21 0.26812868E-01 0.24705015E+03</pdfrwt>
<pdfrwt beam="2">  1       21 0.79276145E-01 0.24705015E+03</pdfrwt>
<totfact> 0.18029979E+04</totfact>
</mgrwt>
</event>
<event>
12    1  0.1410528E-001  0.2183595E+03  0.7546771E-02  0.1135213E+00
         21   -1    0    0  502  503  0.00000000000E+00  0.00000000000E+00  0.42517008090E+03  0.42517008090E+03  0.00000000000E+00 0. -1.
         21   -1    0    0  503  504 -0.00000000000E+00 -0.00000000000E+00 -0.12936232777E+03  0.12936232777E+03  0.00000000000E+00 0. -1.
         -6    2    1    2    0  504 -0.94881326692E+02  0.91574610269E+02  0.45795790080E+02  0.22258835737E+03  0.17337804662E+03 0.  0.
        -24    2    3    3    0    0 -0.46333452668E+02  0.12088892696E+03  0.45672415090E+01  0.15231668134E+03  0.80116104622E+02 0.  0.
          6    2    1    2  502    0  0.94881326692E+02 -0.91574610269E+02  0.25001196305E+03  0.33194405130E+03  0.17404739620E+03 0.  0.
         24    2    5    5    0    0  0.62255513868E+02  0.17620123743E+02  0.13805919822E+03  0.17212088292E+03  0.79868882275E+02 0.  0.
          2    1    6    6  501    0  0.10771092524E+02  0.33696419180E+02  0.16300689449E+02  0.38950963739E+02  0.00000000000E+00 0. -1.
         -1    1    6    6    0  501  0.51484421344E+02 -0.16076295437E+02  0.12175850877E+03  0.13316991918E+03  0.00000000000E+00 0.  1.
          5    1    5    5  502    0  0.32625812824E+02 -0.10919473401E+03  0.11195276483E+03  0.15982316838E+03  0.47000000000E+01 0. -1.
         13    1    4    4    0    0 -0.63731277957E+02  0.66130379749E+02  0.17324683542E+02  0.93461476425E+02  0.00000000000E+00 0. -1.
        -14    1    4    4    0    0  0.17397825289E+02  0.54758547216E+02 -0.12757442033E+02  0.58855204912E+02  0.00000000000E+00 0.  1.
         -5    1    3    3    0  504 -0.48547874024E+02 -0.29314316695E+02  0.41228548571E+02  0.70271676036E+02  0.47000000000E+01 0.  1.
<mgrwt>
<rscale>  2 0.21822609E+03</rscale>
<asrwt>0</asrwt>
<pdfrwt beam="1">  1       21 0.65410781E-01 0.21835950E+03</pdfrwt>
<pdfrwt beam="2">  1       21 0.19901897E-01 0.21835950E+03</pdfrwt>
<totfact> 0.49465440E+04</totfact>
</mgrwt>
</event>
<event>
12    1  0.1410528E-001  0.1946928E+03  0.7546771E-02  0.1154515E+00
         21   -1    0    0  502  503  0.00000000000E+00  0.00000000000E+00  0.22384597409E+03  0.22384597409E+03  0.00000000000E+00 0.  1.
         21   -1    0    0  503  504 -0.00000000000E+00 -0.00000000000E+00 -0.18461681444E+03  0.18461681444E+03  0.00000000000E+00 0.  1.
         -6    2    1    2    0  504 -0.71718118730E+02  0.52168020701E+02  0.79975166562E+02  0.20955192408E+03  0.17219463024E+03 0.  0.
        -24    2    3    3    0    0  0.14469312446E+02  0.56861311007E+02  0.12984419700E+02  0.10018945140E+03  0.80167083795E+02 0.  0.
          6    2    1    2  502    0  0.71718118730E+02 -0.52168020701E+02 -0.40746006909E+02  0.19891086445E+03  0.17332138927E+03 0.  0.
         24    2    5    5    0    0  0.47032612976E+01  0.28654759591E+02 -0.38461072871E+02  0.93788916910E+02  0.80460492757E+02 0.  0.
          4    1    6    6  501    0  0.38280218796E+02  0.28077490880E+02 -0.74037615033E+01  0.48047230197E+02  0.00000000000E+00 0. -1.
         -3    1    6    6    0  501 -0.33576957498E+02  0.57726871060E+00 -0.31057311368E+02  0.45741686713E+02  0.00000000000E+00 0.  1.
          5    1    5    5  502    0  0.67014857433E+02 -0.80822780292E+02 -0.22849340376E+01  0.10512194754E+03  0.47000000000E+01 0. -1.
         13    1    4    4    0    0 -0.15036033141E+02  0.64679419774E+02 -0.14611100450E+01  0.66420211362E+02  0.00000000000E+00 0. -1.
        -14    1    4    4    0    0  0.29505345587E+02 -0.78181087670E+01  0.14445529745E+02  0.33769240034E+02  0.00000000000E+00 0.  1.
         -5    1    3    3    0  504 -0.86187431177E+02 -0.46932903052E+01  0.66990746863E+02  0.10936247269E+03  0.47000000000E+01 0.  1.
<mgrwt>
<rscale>  2 0.19444174E+03</rscale>
<asrwt>0</asrwt>
<pdfrwt beam="1">  1       21 0.34437842E-01 0.19469282E+03</pdfrwt>
<pdfrwt beam="2">  1       21 0.28402587E-01 0.19469282E+03</pdfrwt>
<totfact> 0.96232488E+04</totfact>
</mgrwt>
</event>
<event>
12    1  0.1410528E-001  0.2347736E+03  0.7546771E-02  0.1123385E+00
         21   -1    0    0  502  503  0.00000000000E+00  0.00000000000E+00  0.10367223788E+04  0.10367223788E+04  0.00000000000E+00 0.  1.
         21   -1    0    0  503  504 -0.00000000000E+00 -0.00000000000E+00 -0.53580477288E+02  0.53580477288E+02  0.00000000000E+00 0. -1.
         -6    2    1    2    0  504  0.15829955161E+03  0.32444151097E+01  0.43883897093E+03  0.49752605580E+03  0.17286775153E+03 0.  0.
        -24    2    3    3    0    0  0.70801980515E+02 -0.55193077809E+02  0.16489234358E+03  0.20403055300E+03  0.79873558216E+02 0.  0.
          6    2    1    2  502    0 -0.15829955161E+03 -0.32444151097E+01  0.54430293062E+03  0.59277680033E+03  0.17334757124E+03 0.  0.
         24    2    5    5    0    0 -0.62948952498E+02  0.17846245353E+02  0.12447727153E+03  0.16171737665E+03  0.79855242092E+02 0.  0.
          2    1    6    6  501    0 -0.37742364549E+02 -0.10191879229E+01  0.49096896593E+01  0.38074005284E+02  0.00000000000E+00 0. -1.
         -1    1    6    6    0  501 -0.25206587948E+02  0.18865433276E+02  0.11956758187E+03  0.12364337137E+03  0.00000000000E+00 0.  1.
          5    1    5    5  502    0 -0.95350599117E+02 -0.21090660463E+02  0.41982565909E+03  0.43105942368E+03  0.47000000000E+01 0. -1.
         13    1    4    4    0    0  0.27782433617E+02 -0.14007655438E+02  0.26781117576E+01  0.31228997921E+02  0.00000000000E+00 0. -1.
        -14    1    4    4    0    0  0.43019546898E+02 -0.41185422371E+02  0.16221423182E+03  0.17280155507E+03  0.00000000000E+00 0.  1.
         -5    1    3    3    0  504  0.87497571100E+02  0.58437492918E+02  0.27394662735E+03  0.29349550280E+03  0.47000000000E+01 0.  1.
<mgrwt>
<rscale>  2 0.23468506E+03</rscale>
<asrwt>0</asrwt>
<pdfrwt beam="1">  1       21 0.15949574E+00 0.23477362E+03</pdfrwt>
<pdfrwt beam="2">  1       21 0.82431511E-02 0.23477362E+03</pdfrwt>
<totfact> 0.28180203E+04</totfact>
</mgrwt>
</event>
<event>
12    1  0.1410528E-001  0.2429330E+03  0.7546771E-02  0.1117928E+00
         21   -1    0    0  502  503  0.00000000000E+00  0.00000000000E+00  0.10836235798E+04  0.10836235798E+04  0.00000000000E+00 0. -1.
         21   -1    0    0  503  504 -0.00000000000E+00 -0.00000000000E+00 -0.54537528531E+02  0.54537528531E+02  0.00000000000E+00 0.  1.
         -6    2    1    2    0  504 -0.16580949229E+03  0.39554319354E+02  0.48169731226E+03  0.53928642333E+03  0.17245351210E+03 0.  0.
        -24    2    3    3    0    0 -0.83705628282E+02 -0.10649703466E+02  0.38736322284E+03  0.40444392699E+03  0.80028590395E+02 0.  0.
          6    2    1    2  502    0  0.16580949229E+03 -0.39554319354E+02  0.54738873898E+03  0.59887468497E+03  0.17308704408E+03 0.  0.
         24    2    5    5    0    0  0.63412297968E+02 -0.78916074334E+02  0.24920744361E+03  0.28111894849E+03  0.81698512392E+02 0.  0.
          4    1    6    6  501    0 -0.18281945257E+02 -0.20883895781E+02  0.35318361625E+02  0.44919408870E+02  0.00000000000E+00 0. -1.
         -3    1    6    6    0  501  0.81694243225E+02 -0.58032178553E+02  0.21388908199E+03  0.23619953962E+03  0.00000000000E+00 0.  1.
          5    1    5    5  502    0  0.10239719432E+03  0.39361754981E+02  0.29818129537E+03  0.31775573648E+03  0.47000000000E+01 0. -1.
         11    1    4    4    0    0 -0.24914594078E+02  0.11759321873E+02  0.26891516000E+03  0.27032273660E+03  0.00000000000E+00 0. -1.
        -12    1    4    4    0    0 -0.58791034204E+02 -0.22409025339E+02  0.11844806284E+03  0.13412119039E+03  0.00000000000E+00 0.  1.
         -5    1    3    3    0  504 -0.82103864006E+02  0.50204022820E+02  0.94334089421E+02  0.13484249634E+03  0.47000000000E+01 0.  1.
<mgrwt>
<rscale>  2 0.24282021E+03</rscale>
<asrwt>0</asrwt>
<pdfrwt beam="1">  1       21 0.16671130E+00 0.24293303E+03</pdfrwt>
<pdfrwt beam="2">  1       21 0.83903898E-02 0.24293303E+03</pdfrwt>
<totfact> 0.24093498E+04</totfact>
</mgrwt>
</event>
<event>
12    1  0.1410528E-001  0.2219394E+03  0.7546771E-02  0.1134411E+00
         21   -1    0    0  502  503  0.00000000000E+00  0.00000000000E+00  0.12348086512E+03  0.12348086512E+03  0.00000000000E+00 0. -1.
         21   -1    0    0  503  504 -0.00000000000E+00 -0.00000000000E+00 -0.43967557267E+03  0.43967557267E+03  0.00000000000E+00 0.  1.
         -6    2    1    2    0  504  0.13873776488E+03  0.12752743440E+02 -0.58050175684E+02  0.22940562400E+03  0.17276086812E+03 0.  0.
        -24    2    3    3    0    0  0.12558629854E+03  0.54934797038E+01 -0.10276473583E+03  0.18200161714E+03  0.82230778987E+02 0.  0.
          6    2    1    2  502    0 -0.13873776488E+03 -0.12752743440E+02 -0.25814453187E+03  0.33375081380E+03  0.15918607510E+03 0.  0.
         24    2    5    5    0    0 -0.13031699687E+03 -0.31613333605E+02 -0.12826563703E+03  0.20215579672E+03  0.80205797608E+02 0.  0.
          4    1    6    6  501    0 -0.11343745250E+03 -0.86605097530E+01 -0.60965068724E+02  0.12907284635E+03  0.00000000000E+00 0. -1.
         -3    1    6    6    0  501 -0.16879544367E+02 -0.22952823852E+02 -0.67300568307E+02  0.73082950374E+02  0.00000000000E+00 0.  1.
          5    1    5    5  502    0 -0.84207680137E+01  0.18860590166E+02 -0.12987889484E+03  0.13159501708E+03  0.47000000000E+01 0. -1.
         11    1    4    4    0    0  0.30576947368E+02 -0.32464628671E+02 -0.14548394892E+02  0.46910101460E+02  0.00000000000E+00 0. -1.
        -12    1    4    4    0    0  0.95009351174E+02  0.37958108375E+02 -0.88216340934E+02  0.13509151568E+03  0.00000000000E+00 0.  1.
         -5    1    3    3    0  504  0.13151466341E+02  0.72592637360E+01  0.44714560142E+02  0.47404006851E+02  0.47000000000E+01 0.  1.
<mgrwt>
<rscale>  2 0.21929373E+03</rscale>
<asrwt>0</asrwt>
<pdfrwt beam="1">  1       21 0.18997056E-01 0.22193945E+03</pdfrwt>
<pdfrwt beam="2">  1       21 0.67642396E-01 0.22193945E+03</pdfrwt>
<totfact> 0.50051396E+04</totfact>
</mgrwt>
</event>
<event>
12    1  0.1410528E-001  0.2409827E+03  0.7546771E-02  0.1119781E+00
         21   -1    0    0  502  503  0.00000000000E+00  0.00000000000E+00  0.13391601336E+03  0.13391601336E+03  0.00000000000E+00 0.  1.
         21   -1    0    0  503  504 -0.00000000000E+00 -0.00000000000E+00 -0.59986164321E+03  0.59986164321E+03  0.00000000000E+00 0.  1.
         -6    2    1    2    0  504 -0.51801576896E+02 -0.15451636584E+03 -0.43137928503E+03  0.49412624107E+03  0.17752167157E+03 0.  0.
        -24    2    3    3    0    0 -0.41608305021E+01 -0.49618241787E+02 -0.31946147486E+03  0.33343727635E+03  0.81519941832E+02 0.  0.
          6    2    1    2  502    0  0.51801576896E+02  0.15451636584E+03 -0.34566344816E+02  0.23965141551E+03  0.17227669048E+03 0.  0.
         24    2    5    5    0    0  0.58689531033E+02  0.60473659291E+02  0.36741224518E+02  0.12133686015E+03  0.79190855094E+02 0.  0.
          2    1    6    6  501    0  0.26073757963E+02 -0.63730169293E+01  0.38504576745E+02  0.46936751373E+02  0.00000000000E+00 0. -1.
         -1    1    6    6    0  501  0.32615773070E+02  0.66846676220E+02 -0.17633522271E+01  0.74400108775E+02  0.00000000000E+00 0.  1.
          5    1    5    5  502    0 -0.68879541369E+01  0.94042706545E+02 -0.71307569334E+02  0.11831455536E+03  0.47000000000E+01 0. -1.
         13    1    4    4    0    0  0.29363097913E+02 -0.27476554843E+00 -0.55180092066E+02  0.62506876226E+02  0.00000000000E+00 0. -1.
        -14    1    4    4    0    0 -0.33523928415E+02 -0.49343476238E+02 -0.26428138279E+03  0.27093040013E+03  0.00000000000E+00 0.  1.
         -5    1    3    3    0  504 -0.47640746394E+02 -0.10489812405E+03 -0.11191781018E+03  0.16068896471E+03  0.47000000000E+01 0.  1.
<mgrwt>
<rscale>  2 0.24001760E+03</rscale>
<asrwt>0</asrwt>
<pdfrwt beam="1">  1       21 0.20602464E-01 0.24098269E+03</pdfrwt>
<pdfrwt beam="2">  1       21 0.92286406E-01 0.24098269E+03</pdfrwt>
<totfact> 0.21060995E+04</totfact>
</mgrwt>
</event>
<event>
12    1  0.1410528E-001  0.2263284E+03  0.7546771E-02  0.1130080E+00
         21   -1    0    0  502  503  0.00000000000E+00  0.00000000000E+00  0.61594038216E+02  0.61594038216E+02  0.00000000000E+00 0. -1.
         21   -1    0    0  503  504 -0.00000000000E+00 -0.00000000000E+00 -0.95367848271E+03  0.95367848271E+03  0.00000000000E+00 0.  1.
         -6    2    1    2    0  504 -0.15029615831E+02  0.14474704871E+03 -0.64351668099E+03  0.68215708080E+03  0.17334060895E+03 0.  0.
        -24    2    3    3    0    0 -0.38288903927E+02  0.85179640118E+02 -0.19619225663E+03  0.23026052042E+03  0.76202981900E+02 0.  0.
          6    2    1    2  502    0  0.15029615831E+02 -0.14474704871E+03 -0.24856776351E+03  0.33311544013E+03  0.16733907474E+03 0.  0.
         24    2    5    5    0    0  0.80572163550E+00 -0.17236064007E+03 -0.21562737893E+03  0.28759633941E+03  0.80669997304E+02 0.  0.
          4    1    6    6  501    0 -0.10603553693E+02 -0.92893766830E+02 -0.56177120226E+02  0.10907591899E+03  0.00000000000E+00 0. -1.
         -3    1    6    6    0  501  0.11409275329E+02 -0.79466873245E+02 -0.15945025871E+03  0.17852042042E+03  0.00000000000E+00 0.  1.
          5    1    5    5  502    0  0.14223894196E+02  0.27613591361E+02 -0.32940384579E+02  0.45519100718E+02  0.47000000000E+01 0. -1.
         13    1    4    4    0    0  0.14581585349E+02  0.45374125924E+02 -0.12124736174E+03  0.13027799762E+03  0.00000000000E+00 0. -1.
        -14    1    4    4    0    0 -0.52870489276E+02  0.39805514195E+02 -0.74944894883E+02  0.99982522801E+02  0.00000000000E+00 0.  1.
         -5    1    3    3    0  504  0.23259288096E+02  0.59567408595E+02 -0.44732442436E+03  0.45189656037E+03  0.47000000000E+01 0.  1.
<mgrwt>
<rscale>  2 0.22517900E+03</rscale>
<asrwt>0</asrwt>
<pdfrwt beam="1">  1       21 0.94760065E-02 0.22632844E+03</pdfrwt>
<pdfrwt beam="2">  1       21 0.14671976E+00 0.22632844E+03</pdfrwt>
<totfact> 0.27692526E+04</totfact>
</mgrwt>
</event>
<event>
12    1  0.1410528E-001  0.2678288E+03  0.7546771E-02  0.1102852E+00
         21   -1    0    0  502  503  0.00000000000E+00  0.00000000000E+00  0.11829887455E+03  0.11829887455E+03  0.00000000000E+00 0.  1.
         21   -1    0    0  503  504 -0.00000000000E+00 -0.00000000000E+00 -0.69060714541E+03  0.69060714541E+03  0.00000000000E+00 0.  1.
         -6    2    1    2    0  504  0.17633320234E+03 -0.10151954138E+03 -0.43261108862E+03  0.50880707718E+03  0.17416277519E+03 0.  0.
        -24    2    3    3    0    0  0.13893167732E+03 -0.69550277549E+02 -0.17949120745E+03  0.25090656895E+03  0.81226601044E+02 0.  0.
          6    2    1    2  502    0 -0.17633320234E+03  0.10151954138E+03 -0.13969718224E+03  0.30009894279E+03  0.17071747774E+03 0.  0.
         24    2    5    5    0    0 -0.17716371972E+03  0.10452663763E+03 -0.16048169102E+03  0.27856250409E+03  0.97621175840E+02 0.  0.
          4    1    6    6  501    0 -0.31301009145E+02  0.71608401011E+02 -0.56211692323E+02  0.96266664129E+02  0.00000000000E+00 0. -1.
         -3    1    6    6    0  501 -0.14586271057E+03  0.32918236619E+02 -0.10426999870E+03  0.18229583996E+03  0.00000000000E+00 0.  1.
          5    1    5    5  502    0  0.83051737625E+00 -0.30070962473E+01  0.20784508775E+02  0.21536438702E+02  0.47000000000E+01 0. -1.
         13    1    4    4    0    0  0.10509893257E+02 -0.12598086121E+02  0.66494565233E+01  0.17702680651E+02  0.00000000000E+00 0. -1.
        -14    1    4    4    0    0  0.12842178407E+03 -0.56952191428E+02 -0.18614066397E+03  0.23320388829E+03  0.00000000000E+00 0.  1.
         -5    1    3    3    0  504  0.37401525016E+02 -0.31969263833E+02 -0.25311988117E+03  0.25790050823E+03  0.47000000000E+01 0.  1.
<mgrwt>
<rscale>  2 0.26727022E+03</rscale>
<asrwt>0</asrwt>
<pdfrwt beam="1">  1       21 0.18199827E-01 0.26782884E+03</pdfrwt>
<pdfrwt beam="2">  1       21 0.10624725E+00 0.26782884E+03</pdfrwt>
<totfact> 0.18738242E+04</totfact>
</mgrwt>
</event>
<event>
12    1  0.1410528E-001  0.2504032E+03  0.7546771E-02  0.1113114E+00
         21   -1    0    0  502  503  0.00000000000E+00  0.00000000000E+00  0.73483868365E+02  0.73483868365E+02  0.00000000000E+00 0.  1.
         21   -1    0    0  503  504 -0.00000000000E+00 -0.00000000000E+00 -0.97023996935E+03  0.97023996935E+03  0.00000000000E+00 0. -1.
         -6    2    1    2    0  504 -0.49159452777E+02 -0.17296487876E+03 -0.63032416361E+03  0.67809052987E+03  0.17367991932E+03 0.  0.
        -24    2    3    3    0    0 -0.30389372211E+02 -0.76480293442E+02 -0.50874872972E+03  0.52167995716E+03  0.80944168904E+02 0.  0.
          6    2    1    2  502    0  0.49159452777E+02  0.17296487876E+03 -0.26643193737E+03  0.36563330785E+03  0.17426484865E+03 0.  0.
         24    2    5    5    0    0  0.91878844182E+02  0.16567989213E+03 -0.20400309051E+03  0.28949219968E+03  0.79353160474E+02 0.  0.
          2    1    6    6  501    0  0.59956516811E+02  0.16239468607E+03 -0.17658563738E+03  0.24728385573E+03  0.00000000000E+00 0. -1.
         -1    1    6    6    0  501  0.31922327371E+02  0.32852060510E+01 -0.27417453124E+02  0.42208343954E+02  0.00000000000E+00 0.  1.
          5    1    5    5  502    0 -0.42719391405E+02  0.72849866331E+01 -0.62428846863E+02  0.76141108167E+02  0.47000000000E+01 0. -1.
         11    1    4    4    0    0 -0.31022766581E+02 -0.24050391617E+02 -0.38873788490E+03  0.39071469967E+03  0.00000000000E+00 0. -1.
        -12    1    4    4    0    0  0.63339437042E+00 -0.52429901825E+02 -0.12001084482E+03  0.13096525749E+03  0.00000000000E+00 0.  1.
         -5    1    3    3    0  504 -0.18770080566E+02 -0.96484585316E+02 -0.12157543389E+03  0.15641057270E+03  0.47000000000E+01 0.  1.
<mgrwt>
<rscale>  2 0.25030141E+03</rscale>
<asrwt>0</asrwt>
<pdfrwt beam="1">  1       21 0.11305212E-01 0.25040315E+03</pdfrwt>
<pdfrwt beam="2">  1       21 0.14926766E+00 0.25040315E+03</pdfrwt>
<totfact> 0.19074341E+04</totfact>
</mgrwt>
</event>
<event>
12    1  0.1410528E-001  0.1858928E+03  0.7546771E-02  0.1162271E+00
         21   -1    0    0  502  503  0.00000000000E+00  0.00000000000E+00  0.48151646582E+02  0.48151646582E+02  0.00000000000E+00 0.  1.
         21   -1    0    0  503  504 -0.00000000000E+00 -0.00000000000E+00 -0.72854685584E+03  0.72854685584E+03  0.00000000000E+00 0.  1.
         -6    2    1    2    0  504 -0.29376431719E+02  0.62922294680E+02 -0.38976199121E+03  0.43182236020E+03  0.17243535329E+03 0.  0.
        -24    2    3    3    0    0  0.47922493813E+02  0.17869477724E+02 -0.21282364921E+03  0.23349397828E+03  0.81299745277E+02 0.  0.
          6    2    1    2  502    0  0.29376431719E+02 -0.62922294680E+02 -0.29063321805E+03  0.34487614223E+03  0.17219087123E+03 0.  0.
         24    2    5    5    0    0  0.42187846222E+02 -0.23312974249E+02 -0.60959814809E+02  0.11141309855E+03  0.79834017624E+02 0.  0.
          4    1    6    6  501    0 -0.20035862496E+02  0.56441503671E+01 -0.29019586752E+02  0.35713143723E+02  0.00000000000E+00 0. -1.
         -3    1    6    6    0  501  0.62223708718E+02 -0.28957124616E+02 -0.31940228057E+02  0.75699954828E+02  0.00000000000E+00 0.  1.
          5    1    5    5  502    0 -0.12811414502E+02 -0.39609320431E+02 -0.22967340324E+03  0.23346304367E+03  0.47000000000E+01 0. -1.
         13    1    4    4    0    0  0.59580562268E+02  0.38357640681E+02 -0.13935239987E+03  0.15633375627E+03  0.00000000000E+00 0. -1.
        -14    1    4    4    0    0 -0.11658068455E+02 -0.20488162958E+02 -0.73471249338E+02  0.77160222011E+02  0.00000000000E+00 0.  1.
         -5    1    3    3    0  504 -0.77298925533E+02  0.45052816957E+02 -0.17693834200E+03  0.19832838192E+03  0.47000000000E+01 0.  1.
<mgrwt>
<rscale>  2 0.18583611E+03</rscale>
<asrwt>0</asrwt>
<pdfrwt beam="1">  1       21 0.74079457E-02 0.18589282E+03</pdfrwt>
<pdfrwt beam="2">  1       21 0.11208413E+00 0.18589282E+03</pdfrwt>
<totfact> 0.85842512E+04</totfact>
</mgrwt>
</event>
<event>
12    1  0.1410528E-001  0.1745165E+03  0.7546771E-02  0.1173244E+00
         21   -1    0    0  502  503  0.00000000000E+00  0.00000000000E+00  0.81929865925E+02  0.81929865925E+02  0.00000000000E+00 0. -1.
         21   -1    0    0  503  504 -0.00000000000E+00 -0.00000000000E+00 -0.57250829101E+03  0.57250829101E+03  0.00000000000E+00 0. -1.
         -6    2    1    2    0  504 -0.23549436991E+02 -0.79889709322E+00 -0.43912436521E+03  0.47249440653E+03  0.17281649767E+03 0.  0.
        -24    2    3    3    0    0  0.31168977701E+02 -0.47904911859E+02 -0.21177326186E+03  0.23390753404E+03  0.81230747194E+02 0.  0.
          6    2    1    2  502    0  0.23549436991E+02  0.79889709322E+00 -0.51454059873E+02  0.18194375040E+03  0.17291846001E+03 0.  0.
         24    2    5    5    0    0  0.72934183014E+02 -0.31324302126E+02 -0.17054620336E+02  0.11356126355E+03  0.79402100398E+02 0.  0.
          4    1    6    6  501    0  0.71441767055E+02  0.89099955089E+01 -0.10014070745E+02  0.72688346472E+02  0.00000000000E+00 0. -1.
         -3    1    6    6    0  501  0.14924159588E+01 -0.40234297634E+02 -0.70405495908E+01  0.40872917073E+02  0.00000000000E+00 0.  1.
          5    1    5    5  502    0 -0.49384746023E+02  0.32123199219E+02 -0.34399439537E+02  0.68382486854E+02  0.47000000000E+01 0. -1.
         13    1    4    4    0    0 -0.75914289964E+01 -0.20682529704E+01 -0.14051480011E+03  0.14073491576E+03  0.00000000000E+00 0. -1.
        -14    1    4    4    0    0  0.38760406697E+02 -0.45836658888E+02 -0.71258461751E+02  0.93172618277E+02  0.00000000000E+00 0.  1.
         -5    1    3    3    0  504 -0.54718414692E+02  0.47106014765E+02 -0.22735110334E+03  0.23858687249E+03  0.47000000000E+01 0.  1.
<mgrwt>
<rscale>  2 0.17449124E+03</rscale>
<asrwt>0</asrwt>
<pdfrwt beam="1">  1       21 0.12604595E-01 0.17451650E+03</pdfrwt>
<pdfrwt beam="2">  1       21 0.88078199E-01 0.17451650E+03</pdfrwt>
<totfact> 0.59846334E+04</totfact>
</mgrwt>
</event>
<event>
12    1  0.1410528E-001  0.2074968E+03  0.7546771E-02  0.1143808E+00
         21   -1    0    0  502  503  0.00000000000E+00  0.00000000000E+00  0.29904486073E+03  0.29904486073E+03  0.00000000000E+00 0. -1.
         21   -1    0    0  503  504 -0.00000000000E+00 -0.00000000000E+00 -0.14979190299E+03  0.14979190299E+03  0.00000000000E+00 0. -1.
         -6    2    1    2    0  504 -0.18638498017E+02 -0.11197098843E+03  0.27109543415E+02  0.20805895754E+03  0.17224606414E+03 0.  0.
        -24    2    3    3    0    0  0.39537421245E+02 -0.11529446485E+03  0.31340010519E+02  0.14944607560E+03  0.80597220484E+02 0.  0.
          6    2    1    2  502    0  0.18638498017E+02  0.11197098843E+03  0.12214341432E+03  0.24077780618E+03  0.17369525736E+03 0.  0.
         24    2    5    5    0    0 -0.45502558943E+02  0.94963579772E+02  0.48282706613E+02  0.14137548588E+03  0.81038533407E+02 0.  0.
          4    1    6    6  501    0 -0.45003105362E+02  0.90280097656E+02  0.67639958819E+02  0.12145344604E+03  0.00000000000E+00 0. -1.
         -3    1    6    6    0  501 -0.49945358093E+00  0.46834821159E+01 -0.19357252206E+02  0.19922039845E+02  0.00000000000E+00 0.  1.
          5    1    5    5  502    0  0.64141056960E+02  0.17007408655E+02  0.73860707712E+02  0.99402320299E+02  0.47000000000E+01 0. -1.
         11    1    4    4    0    0  0.65832077917E+01 -0.22513856519E+02 -0.26391951714E+02  0.35309311455E+02  0.00000000000E+00 0. -1.
        -12    1    4    4    0    0  0.32954213454E+02 -0.92780608330E+02  0.57731962233E+02  0.11413676415E+03  0.00000000000E+00 0.  1.
         -5    1    3    3    0  504 -0.58175919262E+02  0.33234764222E+01 -0.42304671040E+01  0.58612881941E+02  0.47000000000E+01 0.  1.
<mgrwt>
<rscale>  2 0.20719328E+03</rscale>
<asrwt>0</asrwt>
<pdfrwt beam="1">  1       21 0.46006901E-01 0.20749684E+03</pdfrwt>
<pdfrwt beam="2">  1       21 0.23044908E-01 0.20749684E+03</pdfrwt>
<totfact> 0.79556086E+04</totfact>
</mgrwt>
</event>
<event>
12    1  0.1410528E-001  0.1747790E+03  0.7546771E-02  0.1173511E+00
         21   -1    0    0  502  503  0.00000000000E+00  0.00000000000E+00  0.25890380904E+02  0.25890380904E+02  0.00000000000E+00 0. -1.
         21   -1    0    0  503  504 -0.00000000000E+00 -0.00000000000E+00 -0.12342457504E+04  0.12342457504E+04  0.00000000000E+00 0. -1.
         -6    2    1    2    0  504  0.54581468955E+01  0.22645412078E+02 -0.45141204198E+03  0.48327650212E+03  0.17099923919E+03 0.  0.
        -24    2    3    3    0    0  0.78243551763E+00  0.79637642268E+02 -0.33226763418E+03  0.35103635508E+03  0.80510717272E+02 0.  0.
          6    2    1    2  502    0 -0.54581468955E+01 -0.22645412078E+02 -0.75694332748E+03  0.77685962915E+03  0.17321973422E+03 0.  0.
         24    2    5    5    0    0 -0.40261042218E+02 -0.70708025364E+02 -0.54760565857E+03  0.55922322147E+03  0.78981502692E+02 0.  0.
          2    1    6    6  501    0 -0.20042224619E+02 -0.73930001713E+02 -0.26422606182E+03  0.27510497572E+03  0.00000000000E+00 0. -1.
         -1    1    6    6    0  501 -0.20218817599E+02  0.32219763488E+01 -0.28337959675E+03  0.28411824575E+03  0.00000000000E+00 0.  1.
          5    1    5    5  502    0  0.34802895322E+02  0.48062613286E+02 -0.20933766891E+03  0.21763640767E+03  0.47000000000E+01 0. -1.
         13    1    4    4    0    0 -0.34658751161E+02  0.55489967994E+02 -0.14752798303E+03  0.16138423515E+03  0.00000000000E+00 0. -1.
        -14    1    4    4    0    0  0.35441186679E+02  0.24147674274E+02 -0.18473965115E+03  0.18965211993E+03  0.00000000000E+00 0.  1.
         -5    1    3    3    0  504  0.46757113779E+01 -0.56992230190E+02 -0.11914440780E+03  0.13224014704E+03  0.47000000000E+01 0.  1.
<mgrwt>
<rscale>  2 0.17422623E+03</rscale>
<asrwt>0</asrwt>
<pdfrwt beam="1">  1       21 0.39831363E-02 0.17477895E+03</pdfrwt>
<pdfrwt beam="2">  1       21 0.18988393E+00 0.17477895E+03</pdfrwt>
<totfact> 0.62343933E+04</totfact>
</mgrwt>
</event>
<event>
12    1  0.1410528E-001  0.2032501E+03  0.7546771E-02  0.1148938E+00
         21   -1    0    0  502  503  0.00000000000E+00  0.00000000000E+00  0.30160066268E+03  0.30160066268E+03  0.00000000000E+00 0. -1.
         21   -1    0    0  503  504 -0.00000000000E+00 -0.00000000000E+00 -0.17500600118E+03  0.17500600118E+03  0.00000000000E+00 0. -1.
         -6    2    1    2    0  504 -0.74354284427E+02 -0.73547239403E+02 -0.55168441124E+02  0.21060424519E+03  0.17427803981E+03 0.  0.
        -24    2    3    3    0    0 -0.25615628482E+02 -0.24841618153E+01  0.29759363420E+02  0.89524768963E+02  0.80416000052E+02 0.  0.
          6    2    1    2  502    0  0.74354284427E+02  0.73547239403E+02  0.18176310262E+03  0.26600241866E+03  0.16365116932E+03 0.  0.
         24    2    5    5    0    0  0.93582254864E+02  0.97715160538E+02  0.11876317192E+03  0.19568254574E+03  0.76688178207E+02 0.  0.
          4    1    6    6  501    0  0.75192608272E+02  0.84797221531E+02  0.12837114135E+03  0.17124148752E+03  0.00000000000E+00 0. -1.
         -3    1    6    6    0  501  0.18389646592E+02  0.12917939007E+02 -0.96079694291E+01  0.24441058212E+02  0.00000000000E+00 0.  1.
          5    1    5    5  502    0 -0.19227970437E+02 -0.24167921136E+02  0.62999930706E+02  0.70319872925E+02  0.47000000000E+01 0. -1.
         11    1    4    4    0    0 -0.44878160479E+02  0.24599780955E+02  0.17079911405E+02  0.53952959924E+02  0.00000000000E+00 0. -1.
        -12    1    4    4    0    0  0.19262531997E+02 -0.27083942770E+02  0.12679452015E+02  0.35571809039E+02  0.00000000000E+00 0.  1.
         -5    1    3    3    0  504 -0.48738655945E+02 -0.71063077587E+02 -0.84927804544E+02  0.12107947623E+03  0.47000000000E+01 0.  1.
<mgrwt>
<rscale>  2 0.20095264E+03</rscale>
<asrwt>0</asrwt>
<pdfrwt beam="1">  1       21 0.46400102E-01 0.20325007E+03</pdfrwt>
<pdfrwt beam="2">  1       21 0.26924000E-01 0.20325007E+03</pdfrwt>
<totfact> 0.58172064E+04</totfact>
</mgrwt>
</event>
<event>
12    1  0.1410528E-001  0.3029157E+03  0.7546771E-02  0.1084000E+00
         21   -1    0    0  502  503  0.00000000000E+00  0.00000000000E+00  0.12200919262E+04  0.12200919262E+04  0.00000000000E+00 0.  1.
         21   -1    0    0  503  504 -0.00000000000E+00 -0.00000000000E+00 -0.12358923380E+03  0.12358923380E+03  0.00000000000E+00 0. -1.
         -6    2    1    2    0  504 -0.12354907056E+03  0.21578713166E+03  0.12516678542E+03  0.32620813704E+03  0.17004871501E+03 0.  0.
        -24    2    3    3    0    0 -0.13320617283E+03  0.20503803334E+03  0.70388532595E+02  0.26936141575E+03  0.88411238983E+02 0.  0.
          6    2    1    2  502    0  0.12354907056E+03 -0.21578713166E+03  0.97133590702E+03  0.10174730230E+04  0.17300129839E+03 0.  0.
         24    2    5    5    0    0  0.59473391636E+02 -0.19866220390E+03  0.85419691504E+03  0.88277859393E+03  0.81497979535E+02 0.  0.
          4    1    6    6  501    0  0.62722692886E+02 -0.20568722306E+03  0.82152834742E+03  0.84920562618E+03  0.00000000000E+00 0. -1.
         -3    1    6    6    0  501 -0.32493012501E+01  0.70250191600E+01  0.32668567622E+02  0.33572967746E+02  0.00000000000E+00 0.  1.
          5    1    5    5  502    0  0.64075678927E+02 -0.17124927754E+02  0.11713899198E+03  0.13469442907E+03  0.47000000000E+01 0. -1.
         11    1    4    4    0    0 -0.18159753812E+02  0.84599770092E+02 -0.47147396442E+01  0.86655216393E+02  0.00000000000E+00 0. -1.
        -12    1    4    4    0    0 -0.11504641902E+03  0.12043826325E+03  0.75103272239E+02  0.18270619936E+03  0.00000000000E+00 0.  1.
         -5    1    3    3    0  504  0.96571022671E+01  0.10749098311E+02  0.54778252825E+02  0.56846721289E+02  0.47000000000E+01 0.  1.
<mgrwt>
<rscale>  2 0.30249567E+03</rscale>
<asrwt>0</asrwt>
<pdfrwt beam="1">  1       21 0.18770644E+00 0.30291568E+03</pdfrwt>
<pdfrwt beam="2">  1       21 0.19013729E-01 0.30291568E+03</pdfrwt>
<totfact> 0.37708656E+03</totfact>
</mgrwt>
</event>
<event>
12    1  0.1410528E-001  0.2308816E+03  0.7546771E-02  0.1126336E+00
         21   -1    0    0  502  503  0.00000000000E+00  0.00000000000E+00  0.12116661292E+03  0.12116661292E+03  0.00000000000E+00 0. -1.
         21   -1    0    0  503  504 -0.00000000000E+00 -0.00000000000E+00 -0.47959167374E+03  0.47959167374E+03  0.00000000000E+00 0. -1.
         -6    2    1    2    0  504 -0.12316142942E+03 -0.86736323861E+02 -0.26984699955E+03  0.35513904043E+03  0.17496973253E+03 0.  0.
        -24    2    3    3    0    0 -0.29788617511E+02 -0.78640436918E+02 -0.70219722273E+02  0.13455534833E+03  0.78119474631E+02 0.  0.
          6    2    1    2  502    0  0.12316142942E+03  0.86736323861E+02 -0.88578061266E+02  0.24561924623E+03  0.17260015529E+03 0.  0.
         24    2    5    5    0    0  0.16963944959E+02  0.76724290579E+02 -0.82810590936E+02  0.13869169959E+03  0.78761674505E+02 0.  0.
          4    1    6    6  501    0  0.43884153393E+01  0.47463862900E+02  0.23970621758E+01  0.47726537457E+02  0.00000000000E+00 0. -1.
         -3    1    6    6    0  501  0.12575529619E+02  0.29260427678E+02 -0.85207653112E+02  0.90965162134E+02  0.00000000000E+00 0.  1.
          5    1    5    5  502    0  0.10619748446E+03  0.10012033282E+02 -0.57674703291E+01  0.10692754663E+03  0.47000000000E+01 0. -1.
         11    1    4    4    0    0 -0.29067343168E+02  0.48979491016E+01 -0.84702850421E+01  0.30669953912E+02  0.00000000000E+00 0. -1.
        -12    1    4    4    0    0 -0.72127434270E+00 -0.83538386020E+02 -0.61749437230E+02  0.10388539442E+03  0.00000000000E+00 0.  1.
         -5    1    3    3    0  504 -0.93372811904E+02 -0.80958869426E+01 -0.19962727728E+03  0.22058369210E+03  0.47000000000E+01 0.  1.
<mgrwt>
<rscale>  2 0.23043271E+03</rscale>
<asrwt>0</asrwt>
<pdfrwt beam="1">  1       21 0.18641017E-01 0.23088165E+03</pdfrwt>
<pdfrwt beam="2">  1       21 0.73783336E-01 0.23088165E+03</pdfrwt>
<totfact> 0.42586725E+04</totfact>
</mgrwt>
</event>
<event>
12    1  0.1410528E-001  0.2261610E+03  0.7546771E-02  0.1129467E+00
         21   -1    0    0  502  503  0.00000000000E+00  0.00000000000E+00  0.69787417018E+03  0.69787417018E+03  0.00000000000E+00 0. -1.
         21   -1    0    0  503  504 -0.00000000000E+00 -0.00000000000E+00 -0.73480906777E+02  0.73480906777E+02  0.00000000000E+00 0. -1.
         -6    2    1    2    0  504  0.16156407489E+02 -0.14402160059E+03  0.33886180285E+03  0.40710653727E+03  0.17293108547E+03 0.  0.
        -24    2    3    3    0    0  0.47341101228E+02 -0.16257030582E+03  0.26247750841E+03  0.32241185015E+03  0.79904158207E+02 0.  0.
          6    2    1    2  502    0 -0.16156407489E+02  0.14402160059E+03  0.28553146055E+03  0.36424853968E+03  0.17362468936E+03 0.  0.
         24    2    5    5    0    0 -0.90152795164E+01  0.17503231476E+03  0.25833176273E+03  0.32212285080E+03  0.79437049923E+02 0.  0.
          2    1    6    6  501    0  0.14549922490E+02  0.10204698003E+03  0.20260604083E+03  0.22732024582E+03  0.00000000000E+00 0. -1.
         -1    1    6    6    0  501 -0.23565202006E+02  0.72985334727E+02  0.55725721898E+02  0.94802604985E+02  0.00000000000E+00 0.  1.
          5    1    5    5  502    0 -0.71411279728E+01 -0.31010714169E+02  0.27199697827E+02  0.42125688883E+02  0.47000000000E+01 0. -1.
         13    1    4    4    0    0  0.62247840635E+02 -0.74141261039E+02  0.12185756635E+03  0.15563093114E+03  0.00000000000E+00 0. -1.
        -14    1    4    4    0    0 -0.14906739407E+02 -0.88429044778E+02  0.14061994206E+03  0.16678091901E+03  0.00000000000E+00 0.  1.
         -5    1    3    3    0  504 -0.31184693739E+02  0.18548705229E+02  0.76384294438E+02  0.84694687118E+02  0.47000000000E+01 0.  1.
<mgrwt>
<rscale>  2 0.22602784E+03</rscale>
<asrwt>0</asrwt>
<pdfrwt beam="1">  1       21 0.10736525E+00 0.22616097E+03</pdfrwt>
<pdfrwt beam="2">  1       21 0.11304755E-01 0.22616097E+03</pdfrwt>
<totfact> 0.44437151E+04</totfact>
</mgrwt>
</event>
<event>
12    1  0.1410528E-001  0.4660755E+03  0.7546771E-02  0.1023185E+00
         21   -1    0    0  502  503  0.00000000000E+00  0.00000000000E+00  0.78232869480E+03  0.78232869480E+03  0.00000000000E+00 0. -1.
         21   -1    0    0  503  504 -0.00000000000E+00 -0.00000000000E+00 -0.42529989856E+03  0.42529989856E+03  0.00000000000E+00 0.  1.
         -6    2    1    2    0  504  0.38735768672E+03  0.18664536617E+03  0.53604614567E+03  0.71033221520E+03  0.17984414220E+03 0.  0.
        -24    2    3    3    0    0  0.27343705315E+03  0.17666619491E+03  0.47319180126E+03  0.57975559698E+03  0.78913275170E+02 0.  0.
          6    2    1    2  502    0 -0.38735768672E+03 -0.18664536617E+03 -0.17901734943E+03  0.49729637817E+03  0.17428139937E+03 0.  0.
         24    2    5    5    0    0 -0.14378828357E+03 -0.13432551330E+03 -0.10999121890E+03  0.23874248079E+03  0.78622451513E+02 0.  0.
          2    1    6    6  501    0 -0.32831343089E+02  0.56066944110E+01 -0.17870904393E+02  0.37798165764E+02  0.00000000000E+00 0. -1.
         -1    1    6    6    0  501 -0.11095694049E+03 -0.13993220771E+03 -0.92120314508E+02  0.20094431502E+03  0.00000000000E+00 0.  1.
          5    1    5    5  502    0 -0.24356940314E+03 -0.52319852873E+02 -0.69026130534E+02  0.25855389738E+03  0.47000000000E+01 0. -1.
         11    1    4    4    0    0  0.14896473264E+03  0.67912593916E+02  0.18103378838E+03  0.24408163495E+03  0.00000000000E+00 0. -1.
        -12    1    4    4    0    0  0.12447232051E+03  0.10875360099E+03  0.29215801288E+03  0.33567396204E+03  0.00000000000E+00 0.  1.
         -5    1    3    3    0  504  0.11392063357E+03  0.99791712604E+01  0.62854344413E+02  0.13057661821E+03  0.47000000000E+01 0.  1.
<mgrwt>
<rscale>  2 0.46554508E+03</rscale>
<asrwt>0</asrwt>
<pdfrwt beam="1">  1       21 0.12035826E+00 0.46607551E+03</pdfrwt>
<pdfrwt beam="2">  1       21 0.65430754E-01 0.46607551E+03</pdfrwt>
<totfact> 0.94852336E+02</totfact>
</mgrwt>
</event>
<event>
12    1  0.1410528E-001  0.2114703E+03  0.7546771E-02  0.1140434E+00
         21   -1    0    0  502  503  0.00000000000E+00  0.00000000000E+00  0.33931833172E+03  0.33931833172E+03  0.00000000000E+00 0.  1.
         21   -1    0    0  503  504 -0.00000000000E+00 -0.00000000000E+00 -0.17997560007E+03  0.17997560007E+03  0.00000000000E+00 0. -1.
         -6    2    1    2    0  504 -0.91113321326E+02 -0.81063292542E+02 -0.54773901088E+02  0.21844875541E+03  0.17276221745E+03 0.  0.
        -24    2    3    3    0    0 -0.24278004541E+02 -0.79403784287E+02 -0.86393581734E+02  0.14434337273E+03  0.80478418373E+02 0.  0.
          6    2    1    2  502    0  0.91113321326E+02  0.81063292542E+02  0.21411663274E+03  0.30084517637E+03  0.17259488118E+03 0.  0.
         24    2    5    5    0    0  0.65153228209E+02  0.10413407294E+03  0.22000775676E+03  0.26530670869E+03  0.83038475107E+02 0.  0.
          4    1    6    6  501    0  0.85247149236E+02  0.83039515247E+02  0.18105236641E+03  0.21666240312E+03  0.00000000000E+00 0. -1.
         -3    1    6    6    0  501 -0.20093921028E+02  0.21094557692E+02  0.38955390356E+02  0.48644305569E+02  0.00000000000E+00 0.  1.
          5    1    5    5  502    0  0.25960093118E+02 -0.23070780397E+02 -0.58911240259E+01  0.35538467681E+02  0.47000000000E+01 0. -1.
         11    1    4    4    0    0  0.12757177910E+02  0.11434102342E+02 -0.17364262911E+02  0.24392661008E+02  0.00000000000E+00 0. -1.
        -12    1    4    4    0    0 -0.37035182451E+02 -0.90837886629E+02 -0.69029318823E+02  0.11995071173E+03  0.00000000000E+00 0.  1.
         -5    1    3    3    0  504 -0.66835316786E+02 -0.16595082554E+01  0.31619680647E+02  0.74105382677E+02  0.47000000000E+01 0.  1.
<mgrwt>
<rscale>  2 0.21143610E+03</rscale>
<asrwt>0</asrwt>
<pdfrwt beam="1">  1       21 0.52202820E-01 0.21147028E+03</pdfrwt>
<pdfrwt beam="2">  1       21 0.27688554E-01 0.21147028E+03</pdfrwt>
<totfact> 0.42940912E+04</totfact>
</mgrwt>
</event>
<event>
12    1  0.1410528E-001  0.4763615E+03  0.7546771E-02  0.1020150E+00
         21   -1    0    0  502  503  0.00000000000E+00  0.00000000000E+00  0.70227220684E+03  0.70227220684E+03  0.00000000000E+00 0.  1.
         21   -1    0    0  503  504 -0.00000000000E+00 -0.00000000000E+00 -0.65892217971E+03  0.65892217971E+03  0.00000000000E+00 0. -1.
         -6    2    1    2    0  504  0.64441338049E+02  0.43933740610E+03 -0.46425713017E+03  0.66507275224E+03  0.17209602088E+03 0.  0.
        -24    2    3    3    0    0 -0.22214139328E+02  0.29827798763E+03 -0.28403509698E+03  0.42030959621E+03  0.80752674634E+02 0.  0.
          6    2    1    2  502    0 -0.64441338049E+02 -0.43933740610E+03  0.50760715731E+03  0.69612163432E+03  0.17248264021E+03 0.  0.
         24    2    5    5    0    0 -0.90446825806E+02 -0.41536216851E+03  0.42581043712E+03  0.60688099983E+03  0.79269541863E+02 0.  0.
          4    1    6    6  501    0 -0.12459234102E+02 -0.12993342148E+03  0.86063932775E+02  0.15634873539E+03  0.00000000000E+00 0. -1.
         -3    1    6    6    0  501 -0.77987591703E+02 -0.28542874703E+03  0.33974650435E+03  0.45053226444E+03  0.00000000000E+00 0.  1.
          5    1    5    5  502    0  0.26005487756E+02 -0.23975237588E+02  0.81796720185E+02  0.89240634488E+02  0.47000000000E+01 0. -1.
         13    1    4    4    0    0  0.78708856595E+01  0.16122847834E+03 -0.19901252229E+03  0.25624706261E+03  0.00000000000E+00 0. -1.
        -14    1    4    4    0    0 -0.30085024987E+02  0.13704950928E+03 -0.85022574693E+02  0.16406253360E+03  0.00000000000E+00 0.  1.
         -5    1    3    3    0  504  0.86655477377E+02  0.14105941847E+03 -0.18022203319E+03  0.24476315603E+03  0.47000000000E+01 0.  1.
<mgrwt>
<rscale>  2 0.47632656E+03</rscale>
<asrwt>0</asrwt>
<pdfrwt beam="1">  1       21 0.10804188E+00 0.47636153E+03</pdfrwt>
<pdfrwt beam="2">  1       21 0.10137264E+00 0.47636153E+03</pdfrwt>
<totfact> 0.44717735E+02</totfact>
</mgrwt>
</event>
<event>
12    1  0.1410528E-001  0.1815054E+03  0.7546771E-02  0.1166935E+00
         21   -1    0    0  502  503  0.00000000000E+00  0.00000000000E+00  0.10694553269E+04  0.10694553269E+04  0.00000000000E+00 0. -1.
         21   -1    0    0  503  504 -0.00000000000E+00 -0.00000000000E+00 -0.30403330938E+02  0.30403330938E+02  0.00000000000E+00 0. -1.
         -6    2    1    2    0  504 -0.44454348081E+02 -0.25959697872E+02  0.53110917877E+03  0.56126745496E+03  0.17405200732E+03 0.  0.
        -24    2    3    3    0    0 -0.58437621554E+02  0.54539297345E+01  0.51417937073E+03  0.52265325632E+03  0.73084198674E+02 0.  0.
          6    2    1    2  502    0  0.44454348081E+02  0.25959697872E+02  0.50794281723E+03  0.53859120292E+03  0.17153566189E+03 0.  0.
         24    2    5    5    0    0  0.32037001536E+02 -0.30564702223E+02  0.44881836754E+03  0.45572390627E+03  0.65465878261E+02 0.  0.
          4    1    6    6  501    0  0.46609215892E+02 -0.52154244042E+01  0.21316235593E+03  0.21826087520E+03  0.00000000000E+00 0. -1.
         -3    1    6    6    0  501 -0.14572214356E+02 -0.25349277819E+02  0.23565601162E+03  0.23746303108E+03  0.00000000000E+00 0.  1.
          5    1    5    5  502    0  0.12417346545E+02  0.56524400095E+02  0.59124449691E+02  0.82867296642E+02  0.47000000000E+01 0. -1.
         13    1    4    4    0    0 -0.35896320427E+02  0.59535172376E+01  0.79970374892E+02  0.87859268424E+02  0.00000000000E+00 0. -1.
        -14    1    4    4    0    0 -0.22541301127E+02 -0.49958750311E+00  0.43420899584E+03  0.43479398790E+03  0.00000000000E+00 0.  1.
         -5    1    3    3    0  504  0.13983273473E+02 -0.31413627607E+02  0.16929808034E+02  0.38614198639E+02  0.47000000000E+01 0.  1.
<mgrwt>
<rscale>  2 0.18089944E+03</rscale>
<asrwt>0</asrwt>
<pdfrwt beam="1">  1       21 0.16453156E+00 0.18150536E+03</pdfrwt>
<pdfrwt beam="2">  1       21 0.46774364E-02 0.18150536E+03</pdfrwt>
<totfact> 0.70696730E+04</totfact>
</mgrwt>
</event>
<event>
12    1  0.1410528E-001  0.1803617E+03  0.7546771E-02  0.1167750E+00
         21   -1    0    0  502  503  0.00000000000E+00  0.00000000000E+00  0.30873860786E+03  0.30873860786E+03  0.00000000000E+00 0. -1.
         21   -1    0    0  503  504 -0.00000000000E+00 -0.00000000000E+00 -0.15529258428E+03  0.15529258428E+03  0.00000000000E+00 0.  1.
         -6    2    1    2    0  504 -0.40872112144E+02  0.33205390993E+02 -0.55945974923E+02  0.18767025322E+03  0.17122220736E+03 0.  0.
        -24    2    3    3    0    0  0.49397561376E+01  0.41753446690E+02 -0.91216809229E+02  0.12903648919E+03  0.81007146329E+02 0.  0.
          6    2    1    2  502    0  0.40872112144E+02 -0.33205390993E+02  0.20939199850E+03  0.27636093892E+03  0.17250284630E+03 0.  0.
         24    2    5    5    0    0  0.54563242980E+02  0.21296830459E+02  0.19229076987E+03  0.21743317613E+03  0.82889947719E+02 0.  0.
          2    1    6    6  501    0  0.55204068812E+02  0.86824870730E+01  0.19636484181E+03  0.20416176403E+03  0.00000000000E+00 0. -1.
         -1    1    6    6    0  501 -0.64082583213E+00  0.12614343386E+02 -0.40740719405E+01  0.13271412094E+02  0.00000000000E+00 0.  1.
          5    1    5    5  502    0 -0.13691130836E+02 -0.54502221451E+02  0.17101228632E+02  0.58927762790E+02  0.47000000000E+01 0. -1.
         11    1    4    4    0    0  0.30826902422E+01  0.52789572393E+02 -0.19357947198E+02  0.56311384748E+02  0.00000000000E+00 0. -1.
        -12    1    4    4    0    0  0.18570658955E+01 -0.11036125703E+02 -0.71858862030E+02  0.72725104445E+02  0.00000000000E+00 0.  1.
         -5    1    3    3    0  504 -0.45811868281E+02 -0.85480556977E+01  0.35270834306E+02  0.58633764030E+02  0.47000000000E+01 0.  1.
<mgrwt>
<rscale>  2 0.18005485E+03</rscale>
<asrwt>0</asrwt>
<pdfrwt beam="1">  1       21 0.47498247E-01 0.18036175E+03</pdfrwt>
<pdfrwt beam="2">  1       21 0.23891167E-01 0.18036175E+03</pdfrwt>
<totfact> 0.70371156E+04</totfact>
</mgrwt>
</event>
<event>
12    1  0.1410528E-001  0.2365504E+03  0.7546771E-02  0.1122284E+00
         21   -1    0    0  502  503  0.00000000000E+00  0.00000000000E+00  0.45508572587E+03  0.45508572587E+03  0.00000000000E+00 0. -1.
         21   -1    0    0  503  504 -0.00000000000E+00 -0.00000000000E+00 -0.13670560153E+03  0.13670560153E+03  0.00000000000E+00 0. -1.
         -6    2    1    2    0  504  0.14333939677E+03 -0.73013969704E+02  0.25509822669E+03  0.34789538394E+03  0.17343261075E+03 0.  0.
        -24    2    3    3    0    0  0.35795341559E+02 -0.36988832281E+02  0.39540808244E+02  0.10427554694E+03  0.81611481922E+02 0.  0.
          6    2    1    2  502    0 -0.14333939677E+03  0.73013969704E+02  0.63281897657E+02  0.24389594347E+03  0.17205641584E+03 0.  0.
         24    2    5    5    0    0 -0.59857211495E+02 -0.11022439874E+02  0.73702439307E+02  0.12489144321E+03  0.80383101947E+02 0.  0.
          4    1    6    6  501    0 -0.31632360077E+02 -0.18949333719E+02 -0.83081851619E+01  0.37798272356E+02  0.00000000000E+00 0. -1.
         -3    1    6    6    0  501 -0.28224851418E+02  0.79268938451E+01  0.82010624469E+02  0.87093170854E+02  0.00000000000E+00 0.  1.
          5    1    5    5  502    0 -0.83482185272E+02  0.84036409578E+02 -0.10420541651E+02  0.11900450026E+03  0.47000000000E+01 0. -1.
         11    1    4    4    0    0 -0.18626817132E+02 -0.22697416724E+02  0.37954018058E+02  0.47985815917E+02  0.00000000000E+00 0. -1.
        -12    1    4    4    0    0  0.54422158691E+02 -0.14291415557E+02  0.15867901856E+01  0.56289731020E+02  0.00000000000E+00 0.  1.
         -5    1    3    3    0  504  0.10754405521E+03 -0.36025137423E+02  0.21555741844E+03  0.24361983700E+03  0.47000000000E+01 0.  1.
<mgrwt>
<rscale>  2 0.23629822E+03</rscale>
<asrwt>0</asrwt>
<pdfrwt beam="1">  1       21 0.70013188E-01 0.23655040E+03</pdfrwt>
<pdfrwt beam="2">  1       21 0.21031631E-01 0.23655040E+03</pdfrwt>
<totfact> 0.38075799E+04</totfact>
</mgrwt>
</event>
<event>
12    1  0.1410528E-001  0.2589823E+03  0.7546771E-02  0.1107802E+00
         21   -1    0    0  502  503  0.00000000000E+00  0.00000000000E+00  0.71550862010E+02  0.71550862010E+02  0.00000000000E+00 0. -1.
         21   -1    0    0  503  504 -0.00000000000E+00 -0.00000000000E+00 -0.96252308758E+03  0.96252308758E+03  0.00000000000E+00 0. -1.
         -6    2    1    2    0  504 -0.92757558600E+02 -0.16877611311E+03 -0.53055337575E+03  0.59025690327E+03  0.17270491103E+03 0.  0.
        -24    2    3    3    0    0 -0.61040140945E+02 -0.18575555680E+03 -0.37232393970E+03  0.42792101529E+03  0.79121764170E+02 0.  0.
          6    2    1    2  502    0  0.92757558600E+02  0.16877611311E+03 -0.36041884982E+03  0.44381704632E+03  0.17315450404E+03 0.  0.
         24    2    5    5    0    0  0.49006763977E+00  0.85497956491E+02 -0.10640683491E+03  0.16098717702E+03  0.85348203944E+02 0.  0.
          2    1    6    6  501    0  0.27827539352E+02  0.42958844547E+02 -0.10040422921E+02  0.52159796430E+02  0.00000000000E+00 0. -1.
         -1    1    6    6    0  501 -0.27337471712E+02  0.42539111944E+02 -0.96366411993E+02  0.10882738059E+03  0.00000000000E+00 0.  1.
          5    1    5    5  502    0  0.92267490960E+02  0.83278156621E+02 -0.25401201490E+03  0.28282986931E+03  0.47000000000E+01 0. -1.
         11    1    4    4    0    0 -0.56379386804E+02 -0.65195808637E+02 -0.11498626731E+03  0.14370445501E+03  0.00000000000E+00 0. -1.
        -12    1    4    4    0    0 -0.46607541409E+01 -0.12055974816E+03 -0.25733767238E+03  0.28421656027E+03  0.00000000000E+00 0.  1.
         -5    1    3    3    0  504 -0.31717417655E+02  0.16979443689E+02 -0.15822943606E+03  0.16233588798E+03  0.47000000000E+01 0.  1.
<mgrwt>
<rscale>  2 0.25890716E+03</rscale>
<asrwt>0</asrwt>
<pdfrwt beam="1">  1       21 0.11007825E-01 0.25898228E+03</pdfrwt>
<pdfrwt beam="2">  1       21 0.14808047E+00 0.25898228E+03</pdfrwt>
<totfact> 0.20343244E+04</totfact>
</mgrwt>
</event>
<event>
12    1  0.1410528E-001  0.2557609E+03  0.7546771E-02  0.1109826E+00
         21   -1    0    0  502  503  0.00000000000E+00  0.00000000000E+00  0.13950354673E+03  0.13950354673E+03  0.00000000000E+00 0.  1.
         21   -1    0    0  503  504 -0.00000000000E+00 -0.00000000000E+00 -0.10688264669E+04  0.10688264669E+04  0.00000000000E+00 0. -1.
         -6    2    1    2    0  504  0.68206365136E+02  0.17320517923E+03 -0.91807098009E+03  0.95303093679E+03  0.17538956537E+03 0.  0.
        -24    2    3    3    0    0  0.78393065686E+02  0.87714276064E+02 -0.75502623014E+03  0.76859085471E+03  0.82631875020E+02 0.  0.
          6    2    1    2  502    0 -0.68206365136E+02 -0.17320517923E+03 -0.11251940039E+02  0.25529907679E+03  0.17435271750E+03 0.  0.
         24    2    5    5    0    0 -0.10931714326E+03 -0.15069446068E+03  0.11108830926E+02  0.20315578762E+03  0.80559354704E+02 0.  0.
          2    1    6    6  501    0 -0.84568774322E+02 -0.12357427239E+03 -0.24821691031E+02  0.15178469861E+03  0.00000000000E+00 0. -1.
         -1    1    6    6    0  501 -0.24748368933E+02 -0.27120188285E+02  0.35930521957E+02  0.51371089006E+02  0.00000000000E+00 0.  1.
          5    1    5    5  502    0  0.41110778119E+02 -0.22510718550E+02 -0.22360770965E+02  0.52143289169E+02  0.47000000000E+01 0. -1.
         13    1    4    4    0    0  0.72188756606E+02  0.94801798850E+02 -0.52420126287E+03  0.53757377321E+03  0.00000000000E+00 0. -1.
        -14    1    4    4    0    0  0.62043090797E+01 -0.70875227863E+01 -0.23082496726E+03  0.23101708150E+03  0.00000000000E+00 0.  1.
         -5    1    3    3    0  504 -0.10186700550E+02  0.85490903166E+02 -0.16304474996E+03  0.18444008209E+03  0.47000000000E+01 0.  1.
<mgrwt>
<rscale>  2 0.25558325E+03</rscale>
<asrwt>0</asrwt>
<pdfrwt beam="1">  1       21 0.21462084E-01 0.25576091E+03</pdfrwt>
<pdfrwt beam="2">  1       21 0.16443484E+00 0.25576091E+03</pdfrwt>
<totfact> 0.45008707E+03</totfact>
</mgrwt>
</event>
<event>
12    1  0.1410528E-001  0.1765353E+03  0.7546771E-02  0.1171206E+00
         21   -1    0    0  502  503  0.00000000000E+00  0.00000000000E+00  0.45403472231E+02  0.45403472231E+02  0.00000000000E+00 0. -1.
         21   -1    0    0  503  504 -0.00000000000E+00 -0.00000000000E+00 -0.69354514420E+03  0.69354514420E+03  0.00000000000E+00 0. -1.
         -6    2    1    2    0  504 -0.32353664980E+02  0.36019136036E+01 -0.36189872707E+03  0.40266040543E+03  0.17350786734E+03 0.  0.
        -24    2    3    3    0    0 -0.62691817380E+02  0.24336900911E+02 -0.12724750890E+03  0.16510277584E+03  0.80897771021E+02 0.  0.
          6    2    1    2  502    0  0.32353664980E+02 -0.36019136036E+01 -0.28624294490E+03  0.33628821100E+03  0.17347911670E+03 0.  0.
         24    2    5    5    0    0  0.31521510768E+02  0.37800425275E+02 -0.27830042270E+03  0.29386157073E+03  0.80504780532E+02 0.  0.
          4    1    6    6  501    0  0.18371525378E+02  0.57237434832E+02 -0.12418171369E+03  0.13796642673E+03  0.00000000000E+00 0. -1.
         -3    1    6    6    0  501  0.13149985390E+02 -0.19437009558E+02 -0.15411870901E+03  0.15589514400E+03  0.00000000000E+00 0.  1.
          5    1    5    5  502    0  0.83215421219E+00 -0.41402338878E+02 -0.79425222022E+01  0.42426640265E+02  0.47000000000E+01 0. -1.
         11    1    4    4    0    0 -0.71827511816E+02  0.56346396693E+00 -0.11773328905E+03  0.13791532292E+03  0.00000000000E+00 0. -1.
        -12    1    4    4    0    0  0.91356944360E+01  0.23773436944E+02 -0.95142198502E+01  0.27187452921E+02  0.00000000000E+00 0.  1.
         -5    1    3    3    0  504  0.30338152400E+02 -0.20734987307E+02 -0.23465121817E+03  0.23755762960E+03  0.47000000000E+01 0.  1.
<mgrwt>
<rscale>  2 0.17652824E+03</rscale>
<asrwt>0</asrwt>
<pdfrwt beam="1">  1       21 0.69851498E-02 0.17653530E+03</pdfrwt>
<pdfrwt beam="2">  1       21 0.10669925E+00 0.17653530E+03</pdfrwt>
<totfact> 0.10743356E+05</totfact>
</mgrwt>
</event>
<event>
12    1  0.1410528E-001  0.1974318E+03  0.7546771E-02  0.1151975E+00
         21   -1    0    0  502  503  0.00000000000E+00  0.00000000000E+00  0.14406501784E+03  0.14406501784E+03  0.00000000000E+00 0.  1.
         21   -1    0    0  503  504 -0.00000000000E+00 -0.00000000000E+00 -0.61309479831E+03  0.61309479831E+03  0.00000000000E+00 0.  1.
         -6    2    1    2    0  504  0.63158423554E+02 -0.70862596483E+02 -0.51768059359E+03  0.55405101083E+03  0.17311508190E+03 0.  0.
        -24    2    3    3    0    0  0.63223433647E+02 -0.95562763449E+02 -0.50801000020E+03  0.52711195274E+03  0.81507092324E+02 0.  0.
          6    2    1    2  502    0 -0.63158423554E+02  0.70862596483E+02  0.48650813112E+02  0.20310880532E+03  0.17284614874E+03 0.  0.
         24    2    5    5    0    0 -0.33516225129E+02  0.10908692411E+03  0.75609177049E+01  0.13946739855E+03  0.79816623731E+02 0.  0.
          4    1    6    6  501    0  0.12689994844E+02  0.86468841225E+02 -0.48854334116E+00  0.87396425250E+02  0.00000000000E+00 0. -1.
         -3    1    6    6    0  501 -0.46206219974E+02  0.22618082888E+02  0.80494610460E+01  0.52070973305E+02  0.00000000000E+00 0.  1.
          5    1    5    5  502    0 -0.29642198425E+02 -0.38224327630E+02  0.41089895407E+02  0.63641406763E+02  0.47000000000E+01 0. -1.
         11    1    4    4    0    0  0.34211144804E+02  0.34668128748E+01 -0.84883781214E+02  0.91584264661E+02  0.00000000000E+00 0. -1.
        -12    1    4    4    0    0  0.29012288843E+02 -0.99029576324E+02 -0.42312621898E+03  0.43552768808E+03  0.00000000000E+00 0.  1.
         -5    1    3    3    0  504 -0.65010093309E-01  0.24700166966E+02 -0.96705933896E+01  0.26939058094E+02  0.47000000000E+01 0.  1.
<mgrwt>
<rscale>  2 0.19737286E+03</rscale>
<asrwt>0</asrwt>
<pdfrwt beam="1">  1       21 0.22163849E-01 0.19743183E+03</pdfrwt>
<pdfrwt beam="2">  1       21 0.94322277E-01 0.19743183E+03</pdfrwt>
<totfact> 0.17876821E+04</totfact>
</mgrwt>
</event>
<event>
12    1  0.1410528E-001  0.1939266E+03  0.7546771E-02  0.1155384E+00
         21   -1    0    0  502  503  0.00000000000E+00  0.00000000000E+00  0.13307080156E+03  0.13307080156E+03  0.00000000000E+00 0. -1.
         21   -1    0    0  503  504 -0.00000000000E+00 -0.00000000000E+00 -0.38751372426E+03  0.38751372426E+03  0.00000000000E+00 0. -1.
         -6    2    1    2    0  504 -0.20976555661E+02 -0.84018066779E+02 -0.26396044036E+03  0.32642451390E+03  0.17140244387E+03 0.  0.
        -24    2    3    3    0    0 -0.56444658905E+02 -0.13383583430E+02 -0.20434694708E+03  0.22731308586E+03  0.80922459182E+02 0.  0.
          6    2    1    2  502    0  0.20976555661E+02  0.84018066779E+02  0.95175176636E+01  0.19416001192E+03  0.17351794044E+03 0.  0.
         24    2    5    5    0    0 -0.37291390164E+02  0.23705197399E+02 -0.36218795892E+02  0.98521650890E+02  0.80262882793E+02 0.  0.
          2    1    6    6  501    0  0.12100435300E+01 -0.14863454794E+02 -0.41182396789E+02  0.43799272814E+02  0.00000000000E+00 0. -1.
         -1    1    6    6    0  501 -0.38501433694E+02  0.38568652193E+02  0.49636008972E+01  0.54722378076E+02  0.00000000000E+00 0.  1.
          5    1    5    5  502    0  0.58267945825E+02  0.60312869380E+02  0.45736313555E+02  0.95638361033E+02  0.47000000000E+01 0. -1.
         11    1    4    4    0    0  0.88336550423E+00 -0.22452583556E+02 -0.13511354239E+03  0.13696922348E+03  0.00000000000E+00 0. -1.
        -12    1    4    4    0    0 -0.57328024409E+02  0.90690001256E+01 -0.69233404688E+02  0.90343862385E+02  0.00000000000E+00 0.  1.
         -5    1    3    3    0  504  0.35468103244E+02 -0.70634483349E+02 -0.59613493278E+02  0.99111428032E+02  0.47000000000E+01 0.  1.
<mgrwt>
<rscale>  2 0.19345223E+03</rscale>
<asrwt>0</asrwt>
<pdfrwt beam="1">  1       21 0.20472431E-01 0.19392660E+03</pdfrwt>
<pdfrwt beam="2">  1       21 0.59617496E-01 0.19392660E+03</pdfrwt>
<totfact> 0.58017804E+04</totfact>
</mgrwt>
</event>
<event>
12    1  0.1410528E-001  0.2282136E+03  0.7546771E-02  0.1128351E+00
         21   -1    0    0  502  503  0.00000000000E+00  0.00000000000E+00  0.19192632583E+03  0.19192632583E+03  0.00000000000E+00 0.  1.
         21   -1    0    0  503  504 -0.00000000000E+00 -0.00000000000E+00 -0.32061442348E+03  0.32061442348E+03  0.00000000000E+00 0. -1.
         -6    2    1    2    0  504 -0.14437895641E+03 -0.12162488243E+02 -0.16747002938E+03  0.28105538323E+03  0.17306850820E+03 0.  0.
        -24    2    3    3    0    0 -0.13143125453E+03  0.49477709524E+02 -0.10995643203E+03  0.19563254762E+03  0.80370755472E+02 0.  0.
          6    2    1    2  502    0  0.14437895641E+03  0.12162488243E+02  0.38781931733E+02  0.23148536607E+03  0.17631853929E+03 0.  0.
         24    2    5    5    0    0  0.86494449499E+02 -0.45688871430E+02  0.69059596264E+02  0.14409988142E+03  0.80167232855E+02 0.  0.
          2    1    6    6  501    0  0.63929252114E+02 -0.68029375214E+02  0.41942388386E+02  0.10234309508E+03  0.00000000000E+00 0. -1.
         -1    1    6    6    0  501  0.22565197385E+02  0.22340503784E+02  0.27117207879E+02  0.41756786341E+02  0.00000000000E+00 0.  1.
          5    1    5    5  502    0  0.57884506913E+02  0.57851359673E+02 -0.30277664532E+02  0.87385484642E+02  0.47000000000E+01 0. -1.
         13    1    4    4    0    0  0.98819077490E+01  0.46859562367E+01 -0.18374025496E+02  0.21382588700E+02  0.00000000000E+00 0. -1.
        -14    1    4    4    0    0 -0.14131316228E+03  0.44791753287E+02 -0.91582406538E+02  0.17424995892E+03  0.00000000000E+00 0.  1.
         -5    1    3    3    0  504 -0.12947701883E+02 -0.61640197767E+02 -0.57513597349E+02  0.85422835617E+02  0.47000000000E+01 0.  1.
<mgrwt>
<rscale>  2 0.22758560E+03</rscale>
<asrwt>0</asrwt>
<pdfrwt beam="1">  1       21 0.29527127E-01 0.22821358E+03</pdfrwt>
<pdfrwt beam="2">  1       21 0.49325296E-01 0.22821358E+03</pdfrwt>
<totfact> 0.42345511E+04</totfact>
</mgrwt>
</event>
<event>
12    1  0.1410528E-001  0.2964541E+03  0.7546771E-02  0.1087043E+00
         21   -1    0    0  502  503  0.00000000000E+00  0.00000000000E+00  0.12260573145E+03  0.12260573145E+03  0.00000000000E+00 0.  1.
         21   -1    0    0  503  504 -0.00000000000E+00 -0.00000000000E+00 -0.80969973951E+03  0.80969973951E+03  0.00000000000E+00 0. -1.
         -6    2    1    2    0  504 -0.22155572192E+03 -0.94511485094E+02 -0.50162694720E+03  0.58261552171E+03  0.17260328285E+03 0.  0.
        -24    2    3    3    0    0 -0.15550160344E+03  0.20435620879E+01 -0.33511187821E+03  0.37905869449E+03  0.84856338231E+02 0.  0.
          6    2    1    2  502    0  0.22155572192E+03  0.94511485094E+02 -0.18546706086E+03  0.34968994925E+03  0.17281687189E+03 0.  0.
         24    2    5    5    0    0  0.20455187334E+03  0.11398465203E+03 -0.11163302287E+03  0.27131973638E+03  0.79488978935E+02 0.  0.
          2    1    6    6  501    0  0.10436959112E+03  0.16174512998E+02 -0.32551488264E+02  0.11051798862E+03  0.00000000000E+00 0. -1.
         -1    1    6    6    0  501  0.10018228222E+03  0.97810139031E+02 -0.79081534601E+02  0.16080174776E+03  0.00000000000E+00 0.  1.
          5    1    5    5  502    0  0.17003848581E+02 -0.19473166936E+02 -0.73834037999E+02  0.78370212864E+02  0.47000000000E+01 0. -1.
         11    1    4    4    0    0 -0.86427661165E+02  0.40026522827E+02 -0.21787708396E+03  0.23778622092E+03  0.00000000000E+00 0. -1.
        -12    1    4    4    0    0 -0.69073942275E+02 -0.37982960740E+02 -0.11723479425E+03  0.14127247358E+03  0.00000000000E+00 0.  1.
         -5    1    3    3    0  504 -0.66054118478E+02 -0.96555047182E+02 -0.16651506899E+03  0.20355682722E+03  0.47000000000E+01 0.  1.
<mgrwt>
<rscale>  2 0.29642297E+03</rscale>
<asrwt>0</asrwt>
<pdfrwt beam="1">  1       21 0.18862420E-01 0.29645409E+03</pdfrwt>
<pdfrwt beam="2">  1       21 0.12456919E+00 0.29645409E+03</pdfrwt>
<totfact> 0.11660395E+04</totfact>
</mgrwt>
</event>
<event>
12    1  0.1410528E-001  0.1920614E+03  0.7546771E-02  0.1156989E+00
         21   -1    0    0  502  503  0.00000000000E+00  0.00000000000E+00  0.30088196595E+02  0.30088196595E+02  0.00000000000E+00 0.  1.
         21   -1    0    0  503  504 -0.00000000000E+00 -0.00000000000E+00 -0.16558362495E+04  0.16558362495E+04  0.00000000000E+00 0.  1.
         -6    2    1    2    0  504  0.66652064973E+02  0.42763238528E+02 -0.12502751647E+04  0.12649409423E+04  0.17497544872E+03 0.  0.
        -24    2    3    3    0    0  0.53488452491E+02  0.99090682818E+02 -0.92772514433E+03  0.93721137798E+03  0.70790152035E+02 0.  0.
          6    2    1    2  502    0 -0.66652064973E+02 -0.42763238528E+02 -0.37547288823E+03  0.42098350384E+03  0.17313586681E+03 0.  0.
         24    2    5    5    0    0 -0.99915210831E+02 -0.72774224098E+01 -0.18816457214E+03  0.22740619295E+03  0.79193813827E+02 0.  0.
          4    1    6    6  501    0 -0.53287145612E+02 -0.36524178630E+02 -0.14031919368E+03  0.15447657306E+03  0.00000000000E+00 0. -1.
         -3    1    6    6    0  501 -0.46628065219E+02  0.29246756221E+02 -0.47845378468E+02  0.72929619883E+02  0.00000000000E+00 0.  1.
          5    1    5    5  502    0  0.33263145858E+02 -0.35485816118E+02 -0.18730831608E+03  0.19357731089E+03  0.47000000000E+01 0. -1.
         11    1    4    4    0    0 -0.52885830262E+01  0.37295642636E+02 -0.14346647767E+03  0.14832924285E+03  0.00000000000E+00 0. -1.
        -12    1    4    4    0    0  0.58777035517E+02  0.61795040182E+02 -0.78425866666E+03  0.78888213513E+03  0.00000000000E+00 0.  1.
         -5    1    3    3    0  504  0.13163612482E+02 -0.56327444290E+02 -0.32255002039E+03  0.32772956431E+03  0.47000000000E+01 0.  1.
<mgrwt>
<rscale>  2 0.19164147E+03</rscale>
<asrwt>0</asrwt>
<pdfrwt beam="1">  1       21 0.46289519E-02 0.19206145E+03</pdfrwt>
<pdfrwt beam="2">  1       21 0.25474412E+00 0.19206145E+03</pdfrwt>
<totfact> 0.19123525E+04</totfact>
</mgrwt>
</event>
<event>
12    1  0.1410528E-001  0.1939931E+03  0.7546771E-02  0.1154960E+00
         21   -1    0    0  502  503  0.00000000000E+00  0.00000000000E+00  0.55169768768E+03  0.55169768768E+03  0.00000000000E+00 0.  1.
         21   -1    0    0  503  504 -0.00000000000E+00 -0.00000000000E+00 -0.86303938159E+02  0.86303938159E+02  0.00000000000E+00 0.  1.
         -6    2    1    2    0  504 -0.52262912811E+02 -0.69591896795E+02  0.86427234827E+02  0.21237462317E+03  0.17337493905E+03 0.  0.
        -24    2    3    3    0    0  0.36269503349E+02 -0.50685287880E+02  0.41086622075E+02  0.11101728630E+03  0.82172088105E+02 0.  0.
          6    2    1    2  502    0  0.52262912811E+02  0.69591896795E+02  0.37896651470E+03  0.42562700268E+03  0.17311349454E+03 0.  0.
         24    2    5    5    0    0  0.92754995307E+02  0.74569358149E+02  0.33878650487E+03  0.36817348184E+03  0.81310137878E+02 0.  0.
          2    1    6    6  501    0  0.19792806102E+02  0.41145703293E+02  0.46898453540E+02  0.65453716604E+02  0.00000000000E+00 0. -1.
         -1    1    6    6    0  501  0.72962189205E+02  0.33423654856E+02  0.29188805133E+03  0.30271976524E+03  0.00000000000E+00 0.  1.
          5    1    5    5  502    0 -0.40492082496E+02 -0.49774613531E+01  0.40180009830E+02  0.57453520835E+02  0.47000000000E+01 0. -1.
         11    1    4    4    0    0  0.21307651152E+02  0.17072801716E+02 -0.49437995009E+01  0.27747751432E+02  0.00000000000E+00 0. -1.
        -12    1    4    4    0    0  0.14961852197E+02 -0.67758089596E+02  0.46030421576E+02  0.83269534869E+02  0.00000000000E+00 0.  1.
         -5    1    3    3    0  504 -0.88532416160E+02 -0.18906608916E+02  0.45340612752E+02  0.10135733687E+03  0.47000000000E+01 0.  1.
<mgrwt>
<rscale>  2 0.19393464E+03</rscale>
<asrwt>0</asrwt>
<pdfrwt beam="1">  1       21 0.84876565E-01 0.19399308E+03</pdfrwt>
<pdfrwt beam="2">  1       21 0.13277529E-01 0.19399308E+03</pdfrwt>
<totfact> 0.58793894E+04</totfact>
</mgrwt>
</event>
<event>
12    1  0.1410528E-001  0.2220712E+03  0.7546771E-02  0.1133239E+00
         21   -1    0    0  502  503  0.00000000000E+00  0.00000000000E+00  0.11863579114E+03  0.11863579114E+03  0.00000000000E+00 0.  1.
         21   -1    0    0  503  504 -0.00000000000E+00 -0.00000000000E+00 -0.60878299128E+03  0.60878299128E+03  0.00000000000E+00 0. -1.
         -6    2    1    2    0  504  0.13126889928E+03 -0.43319231906E+01 -0.45278867609E+03  0.50222718259E+03  0.17310190137E+03 0.  0.
        -24    2    3    3    0    0  0.13489649977E+03 -0.53528516186E+02 -0.32521340173E+03  0.36536592118E+03  0.81646383851E+02 0.  0.
          6    2    1    2  502    0 -0.13126889928E+03  0.43319231906E+01 -0.37358524048E+02  0.22519159983E+03  0.17906788612E+03 0.  0.
         24    2    5    5    0    0 -0.22005940019E+02 -0.51346243462E+02 -0.96897408714E+01  0.99389755366E+02  0.81631698988E+02 0.  0.
          2    1    6    6  501    0 -0.17580579439E+02 -0.73174267430E+02 -0.39923801679E+00  0.75257621397E+02  0.00000000000E+00 0. -1.
         -1    1    6    6    0  501 -0.44253605793E+01  0.21828023968E+02 -0.92905028546E+01  0.24132133969E+02  0.00000000000E+00 0.  1.
          5    1    5    5  502    0 -0.10926295926E+03  0.55678166652E+02 -0.27668783177E+02  0.12580184447E+03  0.47000000000E+01 0. -1.
         11    1    4    4    0    0  0.13350885455E+03 -0.28477460069E+02 -0.23545121846E+03  0.27216328968E+03  0.00000000000E+00 0. -1.
        -12    1    4    4    0    0  0.13876452155E+01 -0.25051056118E+02 -0.89762183269E+02  0.93202631492E+02  0.00000000000E+00 0.  1.
         -5    1    3    3    0  504 -0.36276004874E+01  0.49196592996E+02 -0.12757527436E+03  0.13686126141E+03  0.47000000000E+01 0.  1.
<mgrwt>
<rscale>  2 0.22086587E+03</rscale>
<asrwt>0</asrwt>
<pdfrwt beam="1">  1       21 0.18251660E-01 0.22207115E+03</pdfrwt>
<pdfrwt beam="2">  1       21 0.93658922E-01 0.22207115E+03</pdfrwt>
<totfact> 0.25771753E+04</totfact>
</mgrwt>
</event>
<event>
12    1  0.1410528E-001  0.1929024E+03  0.7546771E-02  0.1155887E+00
         21   -1    0    0  502  503  0.00000000000E+00  0.00000000000E+00  0.69042955387E+03  0.69042955387E+03  0.00000000000E+00 0. -1.
         21   -1    0    0  503  504 -0.00000000000E+00 -0.00000000000E+00 -0.55033173242E+02  0.55033173242E+02  0.00000000000E+00 0. -1.
         -6    2    1    2    0  504 -0.10126164016E+02 -0.84718046789E+02  0.37186838355E+03  0.41892411498E+03  0.17300760902E+03 0.  0.
        -24    2    3    3    0    0 -0.73584419495E+02 -0.43884979263E+02  0.24618147063E+03  0.27224903301E+03  0.78572649790E+02 0.  0.
          6    2    1    2  502    0  0.10126164016E+02  0.84718046789E+02  0.26352799708E+03  0.32653861213E+03  0.17291840075E+03 0.  0.
         24    2    5    5    0    0 -0.35685484934E+02  0.61054437026E+01  0.19033544887E+03  0.20967164650E+03  0.80149148285E+02 0.  0.
          4    1    6    6  501    0 -0.40037428270E+02  0.33722983214E+02  0.16033119291E+03  0.16866038859E+03  0.00000000000E+00 0. -1.
         -3    1    6    6    0  501  0.43519433353E+01 -0.27617539511E+02  0.30004255956E+02  0.41011257905E+02  0.00000000000E+00 0.  1.
          5    1    5    5  502    0  0.45811648950E+02  0.78612603086E+02  0.73192548214E+02  0.11686696564E+03  0.47000000000E+01 0. -1.
         13    1    4    4    0    0 -0.30815161800E+01 -0.23224600236E+02  0.11042668617E+02  0.25900160777E+02  0.00000000000E+00 0. -1.
        -14    1    4    4    0    0 -0.70502903315E+02 -0.20660379027E+02  0.23513880201E+03  0.24634887223E+03  0.00000000000E+00 0.  1.
         -5    1    3    3    0  504  0.63458255479E+02 -0.40833067525E+02  0.12568691292E+03  0.14667508197E+03  0.47000000000E+01 0.  1.
<mgrwt>
<rscale>  2 0.19288235E+03</rscale>
<asrwt>0</asrwt>
<pdfrwt beam="1">  1       21 0.10621993E+00 0.19290236E+03</pdfrwt>
<pdfrwt beam="2">  1       21 0.84666425E-02 0.19290236E+03</pdfrwt>
<totfact> 0.77243335E+04</totfact>
</mgrwt>
</event>
<event>
12    1  0.1410528E-001  0.1912644E+03  0.7546771E-02  0.1157361E+00
         21   -1    0    0  502  503  0.00000000000E+00  0.00000000000E+00  0.24085924869E+03  0.24085924869E+03  0.00000000000E+00 0.  1.
         21   -1    0    0  503  504 -0.00000000000E+00 -0.00000000000E+00 -0.15209687978E+03  0.15209687978E+03  0.00000000000E+00 0.  1.
         -6    2    1    2    0  504  0.79242251572E+02  0.26431449024E+01  0.53692395048E+02  0.19865783101E+03  0.17405671457E+03 0.  0.
        -24    2    3    3    0    0 -0.23597421990E+02 -0.87954012114E+01  0.42544330867E+02  0.94479099347E+02  0.80511382534E+02 0.  0.
          6    2    1    2  502    0 -0.79242251572E+02 -0.26431449024E+01  0.35069973862E+02  0.19429829747E+03  0.17388388276E+03 0.  0.
         24    2    5    5    0    0 -0.50868126186E+02  0.61901741150E+02 -0.39703529356E+01  0.11356806507E+03  0.80389986202E+02 0.  0.
          2    1    6    6  501    0 -0.17080004252E+02  0.98868086313E+01 -0.38001076525E+02  0.42820057768E+02  0.00000000000E+00 0. -1.
         -1    1    6    6    0  501 -0.33788121934E+02  0.52014932519E+02  0.34030723590E+02  0.70748007299E+02  0.00000000000E+00 0.  1.
          5    1    5    5  502    0 -0.28374125386E+02 -0.64544886052E+02  0.39040326797E+02  0.80730232400E+02  0.47000000000E+01 0. -1.
         11    1    4    4    0    0  0.23419155309E+01  0.29114930148E+02  0.38556476240E+02  0.48371123472E+02  0.00000000000E+00 0. -1.
        -12    1    4    4    0    0 -0.25939337521E+02 -0.37910331360E+02  0.39878546275E+01  0.46107975876E+02  0.00000000000E+00 0.  1.
         -5    1    3    3    0  504  0.10283967356E+03  0.11438546114E+02  0.11148064181E+02  0.10417873166E+03  0.47000000000E+01 0.  1.
<mgrwt>
<rscale>  2 0.19122504E+03</rscale>
<asrwt>0</asrwt>
<pdfrwt beam="1">  1       21 0.37055269E-01 0.19126437E+03</pdfrwt>
<pdfrwt beam="2">  1       21 0.23399520E-01 0.19126437E+03</pdfrwt>
<totfact> 0.12072499E+05</totfact>
</mgrwt>
</event>
<event>
12    1  0.1410528E-001  0.2091724E+03  0.7546771E-02  0.1142260E+00
         21   -1    0    0  502  503  0.00000000000E+00  0.00000000000E+00  0.11752338548E+03  0.11752338548E+03  0.00000000000E+00 0.  1.
         21   -1    0    0  503  504 -0.00000000000E+00 -0.00000000000E+00 -0.77839824452E+03  0.77839824452E+03  0.00000000000E+00 0. -1.
         -6    2    1    2    0  504 -0.23949538832E+02  0.11519635536E+03 -0.65420432610E+03  0.68683067256E+03  0.17294303047E+03 0.  0.
        -24    2    3    3    0    0 -0.45953471940E+02  0.67878272266E+02 -0.60706412050E+03  0.61635044098E+03  0.68131037492E+02 0.  0.
          6    2    1    2  502    0  0.23949538832E+02 -0.11519635536E+03 -0.66705329434E+01  0.20909095744E+03  0.17271581218E+03 0.  0.
         24    2    5    5    0    0 -0.38828815079E+02 -0.10352983831E+03  0.21560972420E+02  0.13911712494E+03  0.81624718191E+02 0.  0.
          2    1    6    6  501    0 -0.20182602949E+02 -0.62611205316E+02 -0.28617096648E+02  0.71738683522E+02  0.00000000000E+00 0. -1.
         -1    1    6    6    0  501 -0.18646212129E+02 -0.40918632992E+02  0.50178069067E+02  0.67378441419E+02  0.00000000000E+00 0.  1.
          5    1    5    5  502    0  0.62778353911E+02 -0.11666517051E+02 -0.28231505363E+02  0.69973832501E+02  0.47000000000E+01 0. -1.
         11    1    4    4    0    0 -0.46300822139E+02  0.17040851889E+02 -0.40478016468E+03  0.40777584343E+03  0.00000000000E+00 0. -1.
        -12    1    4    4    0    0  0.34735019892E+00  0.50837420377E+02 -0.20228395582E+03  0.20857459755E+03  0.00000000000E+00 0.  1.
         -5    1    3    3    0  504  0.22003933108E+02  0.47318083093E+02 -0.47140205595E+02  0.70480231578E+02  0.47000000000E+01 0.  1.
<mgrwt>
<rscale>  2 0.20912538E+03</rscale>
<asrwt>0</asrwt>
<pdfrwt beam="1">  1       21 0.18080521E-01 0.20917235E+03</pdfrwt>
<pdfrwt beam="2">  1       21 0.11975358E+00 0.20917235E+03</pdfrwt>
<totfact> 0.14617767E+04</totfact>
</mgrwt>
</event>
<event>
12    1  0.1410528E-001  0.2178818E+03  0.7546771E-02  0.1136375E+00
         21   -1    0    0  502  503  0.00000000000E+00  0.00000000000E+00  0.35925503675E+02  0.35925503675E+02  0.00000000000E+00 0. -1.
         21   -1    0    0  503  504 -0.00000000000E+00 -0.00000000000E+00 -0.14673621074E+04  0.14673621074E+04  0.00000000000E+00 0. -1.
         -6    2    1    2    0  504  0.82490762585E+02 -0.98010470025E+02 -0.96796528543E+03  0.99115661192E+03  0.17036389704E+03 0.  0.
        -24    2    3    3    0    0  0.10262203848E+03 -0.87270189006E+02 -0.94686012706E+03  0.95972192383E+03  0.79841732147E+02 0.  0.
          6    2    1    2  502    0 -0.82490762585E+02  0.98010470025E+02 -0.46347131830E+03  0.51213099916E+03  0.17624335240E+03 0.  0.
         24    2    5    5    0    0 -0.23966867648E+01  0.25774964503E+02 -0.33186560144E+03  0.34191001352E+03  0.78087047752E+02 0.  0.
          2    1    6    6  501    0 -0.25052840705E+02  0.44810474473E+02 -0.23867938478E+03  0.24413822349E+03  0.00000000000E+00 0. -1.
         -1    1    6    6    0  501  0.22656153940E+02 -0.19035509970E+02 -0.93186216661E+02  0.97771790036E+02  0.00000000000E+00 0.  1.
          5    1    5    5  502    0 -0.80094075820E+02  0.72235505522E+02 -0.13160571686E+03  0.17022098563E+03  0.47000000000E+01 0. -1.
         11    1    4    4    0    0  0.83384499718E+02 -0.77956641576E+02 -0.52249457621E+03  0.53481846913E+03  0.00000000000E+00 0. -1.
        -12    1    4    4    0    0  0.19237538765E+02 -0.93135474305E+01 -0.42436555085E+03  0.42490345470E+03  0.00000000000E+00 0.  1.
         -5    1    3    3    0  504 -0.20131275898E+02 -0.10740281019E+02 -0.21105158370E+02  0.31434688093E+02  0.47000000000E+01 0.  1.
<mgrwt>
<rscale>  2 0.21669015E+03</rscale>
<asrwt>0</asrwt>
<pdfrwt beam="1">  1       21 0.55270001E-02 0.21788184E+03</pdfrwt>
<pdfrwt beam="2">  1       21 0.22574804E+00 0.21788184E+03</pdfrwt>
<totfact> 0.20638775E+04</totfact>
</mgrwt>
</event>
<event>
12    1  0.1410528E-001  0.1752851E+03  0.7546771E-02  0.1172751E+00
         21   -1    0    0  502  503  0.00000000000E+00  0.00000000000E+00  0.68675109939E+02  0.68675109939E+02  0.00000000000E+00 0.  1.
         21   -1    0    0  503  504 -0.00000000000E+00 -0.00000000000E+00 -0.49845136934E+03  0.49845136934E+03  0.00000000000E+00 0.  1.
         -6    2    1    2    0  504  0.18664633512E+02 -0.39149588469E+01 -0.30768812648E+03  0.35351376094E+03  0.17302109857E+03 0.  0.
        -24    2    3    3    0    0  0.69740545263E+01 -0.52119943487E+02 -0.57635343391E+02  0.98545381504E+02  0.60201606809E+02 0.  0.
          6    2    1    2  502    0 -0.18664633512E+02  0.39149588469E+01 -0.12208813292E+03  0.21361271834E+03  0.17424461481E+03 0.  0.
         24    2    5    5    0    0 -0.11141396701E+02  0.10736636591E+02  0.87478030451E+01  0.82299099399E+02  0.80356777051E+02 0.  0.
          4    1    6    6  501    0 -0.18146150779E+02 -0.29689581743E+02  0.19496783489E+02  0.39885819768E+02  0.00000000000E+00 0. -1.
         -3    1    6    6    0  501  0.70047540775E+01  0.40426218334E+02 -0.10748980444E+02  0.42413279631E+02  0.00000000000E+00 0.  1.
          5    1    5    5  502    0 -0.75232368109E+01 -0.68216777439E+01 -0.13083593596E+03  0.13131361894E+03  0.47000000000E+01 0. -1.
         13    1    4    4    0    0 -0.12961712131E+02  0.60531816434E+01 -0.61127283307E-01  0.14305618684E+02  0.00000000000E+00 0. -1.
        -14    1    4    4    0    0  0.19935766658E+02 -0.58173125130E+02 -0.57574216108E+02  0.84239762820E+02  0.00000000000E+00 0.  1.
         -5    1    3    3    0  504  0.11690578986E+02  0.48204984640E+02 -0.25005278309E+03  0.25496837944E+03  0.47000000000E+01 0.  1.
<mgrwt>
<rscale>  2 0.17498030E+03</rscale>
<asrwt>0</asrwt>
<pdfrwt beam="1">  1       21 0.10565401E-01 0.17528514E+03</pdfrwt>
<pdfrwt beam="2">  1       21 0.76684826E-01 0.17528514E+03</pdfrwt>
<totfact> 0.11211100E+05</totfact>
</mgrwt>
</event>
<event>
12    1  0.1410528E-001  0.1979512E+03  0.7546771E-02  0.1151694E+00
         21   -1    0    0  502  503  0.00000000000E+00  0.00000000000E+00  0.21391975830E+04  0.21391975830E+04  0.00000000000E+00 0. -1.
         21   -1    0    0  503  504 -0.00000000000E+00 -0.00000000000E+00 -0.24217187950E+02  0.24217187950E+02  0.00000000000E+00 0. -1.
         -6    2    1    2    0  504 -0.72663782451E+02 -0.62856988433E+02  0.52143574621E+03  0.55774536991E+03  0.17307118176E+03 0.  0.
        -24    2    3    3    0    0  0.22094323315E+02 -0.58656217320E+02  0.23254240696E+03  0.25364309016E+03  0.79562146768E+02 0.  0.
          6    2    1    2  502    0  0.72663782451E+02  0.62856988433E+02  0.15935446489E+04  0.16056694011E+04  0.17192629617E+03 0.  0.
         24    2    5    5    0    0  0.11254914241E+02  0.53449982916E+02  0.47764913281E+03  0.48803599355E+03  0.83945596402E+02 0.  0.
          4    1    6    6  501    0 -0.53709447398E+01 -0.16459147097E+02  0.29847720311E+02  0.34505607925E+02  0.00000000000E+00 0. -1.
         -3    1    6    6    0  501  0.16625858981E+02  0.69909130013E+02  0.44780141250E+03  0.45353038562E+03  0.00000000000E+00 0.  1.
          5    1    5    5  502    0  0.61408868210E+02  0.94070055172E+01  0.11158955161E+04  0.11176334075E+04  0.47000000000E+01 0. -1.
         11    1    4    4    0    0  0.24697804559E+02  0.12787579946E+02  0.44581386434E+02  0.52545254469E+02  0.00000000000E+00 0. -1.
        -12    1    4    4    0    0 -0.26034812438E+01 -0.71443797266E+02  0.18796102053E+03  0.20109783569E+03  0.00000000000E+00 0.  1.
         -5    1    3    3    0  504 -0.94758105765E+02 -0.42007711134E+01  0.28889333925E+03  0.30410227975E+03  0.47000000000E+01 0.  1.
<mgrwt>
<rscale>  2 0.19770063E+03</rscale>
<asrwt>0</asrwt>
<pdfrwt beam="1">  1       21 0.32910717E+00 0.19795116E+03</pdfrwt>
<pdfrwt beam="2">  1       21 0.37257229E-02 0.19795116E+03</pdfrwt>
<totfact> 0.10166626E+04</totfact>
</mgrwt>
</event>
<event>
12    1  0.1410528E-001  0.2378026E+03  0.7546771E-02  0.1121957E+00
         21   -1    0    0  502  503  0.00000000000E+00  0.00000000000E+00  0.11850250808E+04  0.11850250808E+04  0.00000000000E+00 0. -1.
         21   -1    0    0  503  504 -0.00000000000E+00 -0.00000000000E+00 -0.46910197864E+02  0.46910197864E+02  0.00000000000E+00 0. -1.
         -6    2    1    2    0  504 -0.30069513356E+02 -0.15362925901E+03  0.56801519727E+03  0.61422681202E+03  0.17357185087E+03 0.  0.
        -24    2    3    3    0    0 -0.56617562666E+02 -0.31704614958E+02  0.18848794243E+03  0.21468526860E+03  0.79695226341E+02 0.  0.
          6    2    1    2  502    0  0.30069513356E+02  0.15362925901E+03  0.57009968567E+03  0.61770846665E+03  0.17900830515E+03 0.  0.
         24    2    5    5    0    0  0.47455261180E+01  0.42243856551E+02  0.98710199611E+02  0.13265367616E+03  0.77757513187E+02 0.  0.
          2    1    6    6  501    0  0.10826308910E+02  0.56834321468E+02  0.36364540599E+02  0.68335414496E+02  0.00000000000E+00 0. -1.
         -1    1    6    6    0  501 -0.60807827923E+01 -0.14590464917E+02  0.62345659012E+02  0.64318261664E+02  0.00000000000E+00 0.  1.
          5    1    5    5  502    0  0.25323987238E+02  0.11138540246E+03  0.47138948606E+03  0.48505479049E+03  0.47000000000E+01 0. -1.
         13    1    4    4    0    0 -0.65267949003E+02  0.16954675474E+01  0.14614097518E+03  0.16006237660E+03  0.00000000000E+00 0. -1.
        -14    1    4    4    0    0  0.86503863371E+01 -0.33400082506E+02  0.42346967254E+02  0.54622892003E+02  0.00000000000E+00 0.  1.
         -5    1    3    3    0  504  0.26548049310E+02 -0.12192464405E+03  0.37952725484E+03  0.39954154342E+03  0.47000000000E+01 0.  1.
<mgrwt>
<rscale>  2 0.23677983E+03</rscale>
<asrwt>0</asrwt>
<pdfrwt beam="1">  1       21 0.18231153E+00 0.23780265E+03</pdfrwt>
<pdfrwt beam="2">  1       21 0.72169544E-02 0.23780265E+03</pdfrwt>
<totfact> 0.24450444E+04</totfact>
</mgrwt>
</event>
<event>
12    1  0.1410528E-001  0.3553801E+03  0.7546771E-02  0.1060492E+00
         21   -1    0    0  502  503  0.00000000000E+00  0.00000000000E+00  0.99335213310E+02  0.99335213310E+02  0.00000000000E+00 0. -1.
         21   -1    0    0  503  504 -0.00000000000E+00 -0.00000000000E+00 -0.13723585944E+04  0.13723585944E+04  0.00000000000E+00 0. -1.
         -6    2    1    2    0  504 -0.30662182953E+03  0.47549124695E+02 -0.83779664351E+03  0.90980649688E+03  0.17194993542E+03 0.  0.
        -24    2    3    3    0    0 -0.26670175901E+03 -0.37447218687E+01 -0.57502818769E+03  0.63907780964E+03  0.81358336565E+02 0.  0.
          6    2    1    2  502    0  0.30662182953E+03 -0.47549124695E+02 -0.43522673756E+03  0.56188731081E+03  0.17325464311E+03 0.  0.
         24    2    5    5    0    0  0.99935320022E+02 -0.32736997590E+00 -0.24623712644E+03  0.27783032631E+03  0.81054256044E+02 0.  0.
          2    1    6    6  501    0 -0.62589342186E+00  0.22422012200E+02 -0.71579364478E+02  0.75011624384E+02  0.00000000000E+00 0. -1.
         -1    1    6    6    0  501  0.10056121344E+03 -0.22749382175E+02 -0.17465776196E+03  0.20281870193E+03  0.00000000000E+00 0.  1.
          5    1    5    5  502    0  0.20668650950E+03 -0.47221754719E+02 -0.18898961112E+03  0.28405698450E+03  0.47000000000E+01 0. -1.
         11    1    4    4    0    0 -0.18982305510E+03  0.33888760677E+02 -0.38132825470E+03  0.42730841108E+03  0.00000000000E+00 0. -1.
        -12    1    4    4    0    0 -0.76878703903E+02 -0.37633482546E+02 -0.19369993300E+03  0.21176939856E+03  0.00000000000E+00 0.  1.
         -5    1    3    3    0  504 -0.39920070519E+02  0.51293846563E+02 -0.26276845582E+03  0.27072868725E+03  0.47000000000E+01 0.  1.
<mgrwt>
<rscale>  2 0.35522146E+03</rscale>
<asrwt>0</asrwt>
<pdfrwt beam="1">  1       21 0.15282342E-01 0.35538013E+03</pdfrwt>
<pdfrwt beam="2">  1       21 0.21113208E+00 0.35538013E+03</pdfrwt>
<totfact> 0.38543691E+03</totfact>
</mgrwt>
</event>
<event>
12    1  0.1410528E-001  0.1754489E+03  0.7546771E-02  0.1172749E+00
         21   -1    0    0  502  503  0.00000000000E+00  0.00000000000E+00  0.68589380070E+02  0.68589380070E+02  0.00000000000E+00 0.  1.
         21   -1    0    0  503  504 -0.00000000000E+00 -0.00000000000E+00 -0.44515373707E+03  0.44515373707E+03  0.00000000000E+00 0.  1.
         -6    2    1    2    0  504  0.17622523444E+02  0.17497255229E+02 -0.17650559738E+03  0.24887053436E+03  0.17368249679E+03 0.  0.
        -24    2    3    3    0    0  0.68096918574E+02  0.14133545290E+02 -0.16579712466E+03  0.19695001340E+03  0.80396976385E+02 0.  0.
          6    2    1    2  502    0 -0.17622523444E+02 -0.17497255229E+02 -0.20005875962E+03  0.26487258278E+03  0.17180590949E+03 0.  0.
         24    2    5    5    0    0  0.33383365479E+02 -0.53598039831E+02 -0.55891111829E+02  0.10767440206E+03  0.66953427939E+02 0.  0.
          2    1    6    6  501    0  0.23460763207E+02  0.66383948840E+01  0.75525942101E+00  0.24393567055E+02  0.00000000000E+00 0. -1.
         -1    1    6    6    0  501  0.99226022714E+01 -0.60236434715E+02 -0.56646371250E+02  0.83280835003E+02  0.00000000000E+00 0.  1.
          5    1    5    5  502    0 -0.51005888922E+02  0.36100784602E+02 -0.14416764779E+03  0.15719818072E+03  0.47000000000E+01 0. -1.
         13    1    4    4    0    0  0.73618233315E+02  0.34915165346E+02 -0.10803533757E+03  0.13531573158E+03  0.00000000000E+00 0. -1.
        -14    1    4    4    0    0 -0.55213147412E+01 -0.20781620056E+02 -0.57761787089E+02  0.61634281827E+02  0.00000000000E+00 0.  1.
         -5    1    3    3    0  504 -0.50474395130E+02  0.33637099382E+01 -0.10708472723E+02  0.51920520956E+02  0.47000000000E+01 0.  1.
<mgrwt>
<rscale>  2 0.17498267E+03</rscale>
<asrwt>0</asrwt>
<pdfrwt beam="1">  1       21 0.10552212E-01 0.17544890E+03</pdfrwt>
<pdfrwt beam="2">  1       21 0.68485191E-01 0.17544890E+03</pdfrwt>
<totfact> 0.14430182E+05</totfact>
</mgrwt>
</event>
<event>
12    1  0.1410528E-001  0.2271091E+03  0.7546771E-02  0.1128696E+00
         21   -1    0    0  502  503  0.00000000000E+00  0.00000000000E+00  0.48174107134E+03  0.48174107134E+03  0.00000000000E+00 0. -1.
         21   -1    0    0  503  504 -0.00000000000E+00 -0.00000000000E+00 -0.40606319236E+03  0.40606319236E+03  0.00000000000E+00 0.  1.
         -6    2    1    2    0  504  0.15671006764E+02  0.14599506134E+03 -0.34307980992E+03  0.41142568344E+03  0.17322586016E+03 0.  0.
        -24    2    3    3    0    0 -0.10847724614E+02  0.97962397566E+01 -0.16532249058E+03  0.18587498693E+03  0.83691967547E+02 0.  0.
          6    2    1    2  502    0 -0.15671006764E+02 -0.14599506134E+03  0.41875768891E+03  0.47637858026E+03  0.17325822152E+03 0.  0.
         24    2    5    5    0    0  0.52906121793E+01 -0.17112898380E+03  0.31454988795E+03  0.36705127669E+03  0.80448045555E+02 0.  0.
          4    1    6    6  501    0  0.19961953674E+02 -0.17187979454E+03  0.30029899452E+03  0.34658423143E+03  0.00000000000E+00 0. -1.
         -3    1    6    6    0  501 -0.14671341494E+02  0.75081073980E+00  0.14250893434E+02  0.20467045260E+02  0.00000000000E+00 0.  1.
          5    1    5    5  502    0 -0.20961618943E+02  0.25133922460E+02  0.10420780095E+03  0.10932730357E+03  0.47000000000E+01 0. -1.
         11    1    4    4    0    0 -0.11669481147E+02  0.46071466863E+02 -0.10854271300E+03  0.11849167648E+03  0.00000000000E+00 0. -1.
        -12    1    4    4    0    0  0.82175653327E+00 -0.36275227106E+02 -0.56779777582E+02  0.67383310453E+02  0.00000000000E+00 0.  1.
         -5    1    3    3    0  504  0.26518731378E+02  0.13619882159E+03 -0.17775731934E+03  0.22555069650E+03  0.47000000000E+01 0.  1.
<mgrwt>
<rscale>  2 0.22710294E+03</rscale>
<asrwt>0</asrwt>
<pdfrwt beam="1">  1       21 0.74114011E-01 0.22710911E+03</pdfrwt>
<pdfrwt beam="2">  1       21 0.62471261E-01 0.22710911E+03</pdfrwt>
<totfact> 0.37758281E+03</totfact>
</mgrwt>
</event>
<event>
12    1  0.1410528E-001  0.2558774E+03  0.7546771E-02  0.1110268E+00
         21   -1    0    0  502  503  0.00000000000E+00  0.00000000000E+00  0.17562121223E+03  0.17562121223E+03  0.00000000000E+00 0.  1.
         21   -1    0    0  503  504 -0.00000000000E+00 -0.00000000000E+00 -0.47360912370E+03  0.47360912370E+03  0.00000000000E+00 0.  1.
         -6    2    1    2    0  504  0.14456782414E+03  0.11948399496E+03 -0.30210894018E+03  0.39331971908E+03  0.16809018072E+03 0.  0.
        -24    2    3    3    0    0  0.11484977557E+03  0.37726548964E+02 -0.12252283514E+03  0.19371836260E+03  0.88888668750E+02 0.  0.
          6    2    1    2  502    0 -0.14456782414E+03 -0.11948399496E+03  0.41210287084E+01  0.25591061685E+03  0.17406027724E+03 0.  0.
         24    2    5    5    0    0 -0.16476383270E+03 -0.13534886234E+03  0.62837560681E+01  0.22971252210E+03  0.85216912157E+02 0.  0.
          4    1    6    6  501    0 -0.47119590086E+02 -0.64939098607E+02 -0.33509777931E+02  0.86949683811E+02  0.00000000000E+00 0. -1.
         -3    1    6    6    0  501 -0.11764424261E+03 -0.70409763738E+02  0.39793533999E+02  0.14276283829E+03  0.00000000000E+00 0.  1.
          5    1    5    5  502    0  0.20196008559E+02  0.15864867383E+02 -0.21627273597E+01  0.26198094748E+02  0.47000000000E+01 0. -1.
         13    1    4    4    0    0  0.45248058112E+02  0.51287013238E+01  0.39659332089E+01  0.45710162616E+02  0.00000000000E+00 0. -1.
        -14    1    4    4    0    0  0.69601717459E+02  0.32597847641E+02 -0.12648876835E+03  0.14800819998E+03  0.00000000000E+00 0.  1.
         -5    1    3    3    0  504  0.29718048568E+02  0.81757445997E+02 -0.17958610504E+03  0.19960135648E+03  0.47000000000E+01 0.  1.
<mgrwt>
<rscale>  2 0.25486567E+03</rscale>
<asrwt>0</asrwt>
<pdfrwt beam="1">  1       21 0.27018648E-01 0.25587743E+03</pdfrwt>
<pdfrwt beam="2">  1       21 0.72862941E-01 0.25587743E+03</pdfrwt>
<totfact> 0.21394229E+04</totfact>
</mgrwt>
</event>
<event>
12    1  0.1410528E-001  0.1801000E+03  0.7546771E-02  0.1167802E+00
         21   -1    0    0  502  503  0.00000000000E+00  0.00000000000E+00  0.61882936312E+02  0.61882936312E+02  0.00000000000E+00 0.  1.
         21   -1    0    0  503  504 -0.00000000000E+00 -0.00000000000E+00 -0.52323207643E+03  0.52323207643E+03  0.00000000000E+00 0.  1.
         -6    2    1    2    0  504  0.54748570585E+02  0.34164994360E+01 -0.23707735299E+03  0.29772754067E+03  0.17154281892E+03 0.  0.
        -24    2    3    3    0    0  0.15768028314E+02  0.43046773033E+02 -0.54656784192E+02  0.10696749458E+03  0.79705868378E+02 0.  0.
          6    2    1    2  502    0 -0.54748570585E+02 -0.34164994360E+01 -0.22427178712E+03  0.28738747207E+03  0.17112757274E+03 0.  0.
         24    2    5    5    0    0 -0.89788205013E+02 -0.24432549846E+02 -0.10752984565E+03  0.16361259072E+03  0.80916876382E+02 0.  0.
          4    1    6    6  501    0  0.13031192139E+01 -0.15564960860E+02  0.69075903678E+01  0.17078668887E+02  0.00000000000E+00 0. -1.
         -3    1    6    6    0  501 -0.91091324227E+02 -0.88675889863E+01 -0.11443743602E+03  0.14653392183E+03  0.00000000000E+00 0.  1.
          5    1    5    5  502    0  0.35039634427E+02  0.21016050410E+02 -0.11674194147E+03  0.12377488135E+03  0.47000000000E+01 0. -1.
         13    1    4    4    0    0  0.13211241849E+02 -0.20151614803E+02 -0.11543870283E+01  0.24123787012E+02  0.00000000000E+00 0. -1.
        -14    1    4    4    0    0  0.25567864648E+01  0.63198387836E+02 -0.53502397164E+02  0.82843707572E+02  0.00000000000E+00 0.  1.
         -5    1    3    3    0  504  0.38980542271E+02 -0.39630273597E+02 -0.18242056880E+03  0.19076004609E+03  0.47000000000E+01 0.  1.
<mgrwt>
<rscale>  2 0.18000107E+03</rscale>
<asrwt>0</asrwt>
<pdfrwt beam="1">  1       21 0.95204517E-02 0.18010002E+03</pdfrwt>
<pdfrwt beam="2">  1       21 0.80497243E-01 0.18010002E+03</pdfrwt>
<totfact> 0.12057397E+05</totfact>
</mgrwt>
</event>
<event>
12    1  0.1410528E-001  0.1916259E+03  0.7546771E-02  0.1157477E+00
         21   -1    0    0  502  503  0.00000000000E+00  0.00000000000E+00  0.11816631186E+04  0.11816631186E+04  0.00000000000E+00 0.  1.
         21   -1    0    0  503  504 -0.00000000000E+00 -0.00000000000E+00 -0.32469960073E+02  0.32469960073E+02  0.00000000000E+00 0.  1.
         -6    2    1    2    0  504 -0.71601187504E+02  0.32688154389E+02  0.43119629199E+03  0.47100457869E+03  0.17239438921E+03 0.  0.
        -24    2    3    3    0    0 -0.98295927093E+02 -0.14523053981E+02  0.35586601506E+03  0.37806240344E+03  0.80109623905E+02 0.  0.
          6    2    1    2  502    0  0.71601187504E+02 -0.32688154389E+02  0.71799686659E+03  0.74312850003E+03  0.17471468640E+03 0.  0.
         24    2    5    5    0    0 -0.21824475500E+02 -0.37562721827E+02  0.25878441037E+03  0.27445986885E+03  0.80446148157E+02 0.  0.
          2    1    6    6  501    0 -0.32067807572E+02 -0.50189127762E+02  0.11266791038E+03  0.12744155860E+03  0.00000000000E+00 0. -1.
         -1    1    6    6    0  501  0.10243332072E+02  0.12626405935E+02  0.14611649999E+03  0.14701831025E+03  0.00000000000E+00 0.  1.
          5    1    5    5  502    0  0.93425663004E+02  0.48745674373E+01  0.45921245621E+03  0.46866863118E+03  0.47000000000E+01 0. -1.
         11    1    4    4    0    0  0.86201604668E+01  0.93535476948E+01  0.13288121087E+02  0.18394841205E+02  0.00000000000E+00 0. -1.
        -12    1    4    4    0    0 -0.10691608756E+03 -0.23876601676E+02  0.34257789397E+03  0.35966756223E+03  0.00000000000E+00 0.  1.
         -5    1    3    3    0  504  0.26694739589E+02  0.47211208370E+02  0.75330276933E+02  0.92942175250E+02  0.47000000000E+01 0.  1.
<mgrwt>
<rscale>  2 0.19109537E+03</rscale>
<asrwt>0</asrwt>
<pdfrwt beam="1">  1       21 0.18179429E+00 0.19162585E+03</pdfrwt>
<pdfrwt beam="2">  1       21 0.49953794E-02 0.19162585E+03</pdfrwt>
<totfact> 0.47698513E+04</totfact>
</mgrwt>
</event>
<event>
12    1  0.1410528E-001  0.2818127E+03  0.7546771E-02  0.1094745E+00
         21   -1    0    0  502  503  0.00000000000E+00  0.00000000000E+00  0.35607885553E+03  0.35607885553E+03  0.00000000000E+00 0. -1.
         21   -1    0    0  503  504 -0.00000000000E+00 -0.00000000000E+00 -0.28019800181E+03  0.28019800181E+03  0.00000000000E+00 0.  1.
         -6    2    1    2    0  504 -0.21403498924E+03 -0.59163212098E+02 -0.10607569456E+03  0.30082704330E+03  0.17301327902E+03 0.  0.
        -24    2    3    3    0    0 -0.26153226607E+02 -0.13398641249E+02 -0.51478031010E+02  0.99837124298E+02  0.80336472801E+02 0.  0.
          6    2    1    2  502    0  0.21403498924E+03  0.59163212098E+02  0.18195654829E+03  0.33544981404E+03  0.17351406281E+03 0.  0.
         24    2    5    5    0    0  0.91560025521E+02 -0.35663798510E+02  0.83365412699E+02  0.15178005416E+03  0.80201296805E+02 0.  0.
          2    1    6    6  501    0  0.94326194262E+02 -0.14958775900E+02  0.39801153436E+02  0.10346655361E+03  0.00000000000E+00 0. -1.
         -1    1    6    6    0  501 -0.27661687409E+01 -0.20705022610E+02  0.43564259262E+02  0.48313500555E+02  0.00000000000E+00 0.  1.
          5    1    5    5  502    0  0.12247496372E+03  0.94827010608E+02  0.98591135587E+02  0.18366975988E+03  0.47000000000E+01 0. -1.
         11    1    4    4    0    0 -0.50302697779E+01 -0.46228856901E+02 -0.27646866714E+02  0.54099538478E+02  0.00000000000E+00 0. -1.
        -12    1    4    4    0    0 -0.21122956829E+02  0.32830215652E+02 -0.23831164297E+02  0.45737585820E+02  0.00000000000E+00 0.  1.
         -5    1    3    3    0  504 -0.18788176263E+03 -0.45764570849E+02 -0.54597663554E+02  0.20098991900E+03  0.47000000000E+01 0.  1.
<mgrwt>
<rscale>  2 0.28173564E+03</rscale>
<asrwt>0</asrwt>
<pdfrwt beam="1">  1       21 0.54781362E-01 0.28181269E+03</pdfrwt>
<pdfrwt beam="2">  1       21 0.43107385E-01 0.28181269E+03</pdfrwt>
<totfact> 0.15515407E+04</totfact>
</mgrwt>
</event>
<event>
12    1  0.1410528E-001  0.2090157E+03  0.7546771E-02  0.1142664E+00
         21   -1    0    0  502  503  0.00000000000E+00  0.00000000000E+00  0.19159569336E+03  0.19159569336E+03  0.00000000000E+00 0.  1.
         21   -1    0    0  503  504 -0.00000000000E+00 -0.00000000000E+00 -0.22747711012E+03  0.22747711012E+03  0.00000000000E+00 0.  1.
         -6    2    1    2    0  504 -0.19652216555E+02  0.11410654591E+03 -0.33086053040E+02  0.21161816242E+03  0.17401450033E+03 0.  0.
        -24    2    3    3    0    0  0.28583268166E+02  0.10773950631E+03  0.21155625287E+02  0.13860137773E+03  0.79611412418E+02 0.  0.
          6    2    1    2  502    0  0.19652216555E+02 -0.11410654591E+03 -0.27953637195E+01  0.20745464106E+03  0.17211362702E+03 0.  0.
         24    2    5    5    0    0 -0.30109196147E+02 -0.65568962879E+02  0.50846346253E+02  0.11952502029E+03  0.80591730110E+02 0.  0.
          4    1    6    6  501    0 -0.51678238175E+02 -0.40754400452E+02  0.55787437101E+02  0.86277457052E+02  0.00000000000E+00 0. -1.
         -3    1    6    6    0  501  0.21569042028E+02 -0.24814562427E+02 -0.49410908477E+01  0.33247563237E+02  0.00000000000E+00 0.  1.
          5    1    5    5  502    0  0.49761412702E+02 -0.48537583031E+02 -0.53641709973E+02  0.87929620773E+02  0.47000000000E+01 0. -1.
         13    1    4    4    0    0  0.44158141600E+02  0.26981654260E+02 -0.57473959500E+01  0.52067107624E+02  0.00000000000E+00 0. -1.
        -14    1    4    4    0    0 -0.15574873434E+02  0.80757852053E+02  0.26903021237E+02  0.86534270103E+02  0.00000000000E+00 0.  1.
         -5    1    3    3    0  504 -0.48235484721E+02  0.63670395968E+01 -0.54241678327E+02  0.73016784695E+02  0.47000000000E+01 0.  1.
<mgrwt>
<rscale>  2 0.20861960E+03</rscale>
<asrwt>0</asrwt>
<pdfrwt beam="1">  1       21 0.29476261E-01 0.20901569E+03</pdfrwt>
<pdfrwt beam="2">  1       21 0.34996478E-01 0.20901569E+03</pdfrwt>
<totfact> 0.86209469E+04</totfact>
</mgrwt>
</event>
<event>
12    1  0.1410528E-001  0.2223876E+03  0.7546771E-02  0.1132184E+00
         21   -1    0    0  502  503  0.00000000000E+00  0.00000000000E+00  0.84163027563E+03  0.84163027563E+03  0.00000000000E+00 0. -1.
         21   -1    0    0  503  504 -0.00000000000E+00 -0.00000000000E+00 -0.22553640466E+03  0.22553640466E+03  0.00000000000E+00 0. -1.
         -6    2    1    2    0  504  0.14028023492E+03 -0.19283098296E+01 -0.15085785216E+03  0.26872724411E+03  0.17255137635E+03 0.  0.
        -24    2    3    3    0    0  0.15695813865E+03  0.36112647677E+02 -0.11362706886E+03  0.21274967587E+03  0.80070801140E+02 0.  0.
          6    2    1    2  502    0 -0.14028023492E+03  0.19283098296E+01  0.76695172313E+03  0.79843943618E+03  0.17207069751E+03 0.  0.
         24    2    5    5    0    0 -0.10790204961E+03  0.38917618180E+02  0.70715996332E+03  0.72089138425E+03  0.80322729373E+02 0.  0.
          2    1    6    6  501    0 -0.31038469401E+02  0.66371796341E+01  0.43723618543E+03  0.43838672492E+03  0.00000000000E+00 0. -1.
         -1    1    6    6    0  501 -0.76863580208E+02  0.32280438546E+02  0.26992377789E+03  0.28250465933E+03  0.00000000000E+00 0.  1.
          5    1    5    5  502    0 -0.32378185307E+02 -0.36989308350E+02  0.59791759814E+02  0.77548051927E+02  0.47000000000E+01 0. -1.
         13    1    4    4    0    0  0.27638227258E+02 -0.68570012353E+01 -0.59796735612E+02  0.66230956974E+02  0.00000000000E+00 0. -1.
        -14    1    4    4    0    0  0.12931991139E+03  0.42969648912E+02 -0.53830333252E+02  0.14651871890E+03  0.00000000000E+00 0.  1.
         -5    1    3    3    0  504 -0.16677903731E+02 -0.38040957507E+02 -0.37230783300E+02  0.55977568240E+02  0.47000000000E+01 0.  1.
<mgrwt>
<rscale>  2 0.22229434E+03</rscale>
<asrwt>0</asrwt>
<pdfrwt beam="1">  1       21 0.12948158E+00 0.22238759E+03</pdfrwt>
<pdfrwt beam="2">  1       21 0.34697909E-01 0.22238759E+03</pdfrwt>
<totfact> 0.34105990E+03</totfact>
</mgrwt>
</event>
<event>
12    1  0.1410528E-001  0.1792842E+03  0.7546771E-02  0.1168877E+00
         21   -1    0    0  502  503  0.00000000000E+00  0.00000000000E+00  0.14308783340E+03  0.14308783340E+03  0.00000000000E+00 0. -1.
         21   -1    0    0  503  504 -0.00000000000E+00 -0.00000000000E+00 -0.11511829945E+04  0.11511829945E+04  0.00000000000E+00 0. -1.
         -6    2    1    2    0  504  0.37320239153E+02  0.14569598610E+02 -0.10848029096E+04  0.10992659125E+04  0.17315634592E+03 0.  0.
        -24    2    3    3    0    0  0.38986764686E+02  0.15471202057E+01 -0.10811678455E+04  0.10848552934E+04  0.80403582789E+02 0.  0.
          6    2    1    2  502    0 -0.37320239153E+02 -0.14569598610E+02  0.76707748498E+02  0.19500491545E+03  0.17475057916E+03 0.  0.
         24    2    5    5    0    0 -0.18351179590E+02 -0.43895376335E+02 -0.19298031100E+02  0.92735535011E+02  0.77226262331E+02 0.  0.
          4    1    6    6  501    0  0.30737080160E+01 -0.14891284999E+02  0.28832157477E+02  0.32595879412E+02  0.00000000000E+00 0. -1.
         -3    1    6    6    0  501 -0.21424887606E+02 -0.29004091335E+02 -0.48130188577E+02  0.60139655599E+02  0.00000000000E+00 0.  1.
          5    1    5    5  502    0 -0.18969059563E+02  0.29325777725E+02  0.96005779598E+02  0.10226938044E+03  0.47000000000E+01 0. -1.
         11    1    4    4    0    0 -0.95095662041E+01 -0.29666001568E+02 -0.43825930486E+03  0.43936513493E+03  0.00000000000E+00 0. -1.
        -12    1    4    4    0    0  0.48496330890E+02  0.31213121774E+02 -0.64290854061E+03  0.64549015846E+03  0.00000000000E+00 0.  1.
         -5    1    3    3    0  504 -0.16665255329E+01  0.13022478404E+02 -0.36350641735E+01  0.14410619094E+02  0.47000000000E+01 0.  1.
<mgrwt>
<rscale>  2 0.17889458E+03</rscale>
<asrwt>0</asrwt>
<pdfrwt beam="1">  1       21 0.22013513E-01 0.17928424E+03</pdfrwt>
<pdfrwt beam="2">  1       21 0.17710508E+00 0.17928424E+03</pdfrwt>
<totfact> 0.37186936E+03</totfact>
</mgrwt>
</event>
<event>
12    1  0.1410528E-001  0.1754583E+03  0.7546771E-02  0.1172626E+00
         21   -1    0    0  502  503  0.00000000000E+00  0.00000000000E+00  0.39314285239E+02  0.39314285239E+02  0.00000000000E+00 0. -1.
         21   -1    0    0  503  504 -0.00000000000E+00 -0.00000000000E+00 -0.98556242072E+03  0.98556242072E+03  0.00000000000E+00 0. -1.
         -6    2    1    2    0  504  0.16727704889E+02  0.14967665981E+02 -0.70746608391E+03  0.72856186402E+03  0.17259861727E+03 0.  0.
        -24    2    3    3    0    0  0.10123529570E+01 -0.40102446222E+02 -0.22261975322E+03  0.24032243103E+03  0.81154699679E+02 0.  0.
          6    2    1    2  502    0 -0.16727704889E+02 -0.14967665981E+02 -0.23878205157E+03  0.29631484194E+03  0.17401658043E+03 0.  0.
         24    2    5    5    0    0  0.50207805920E+02 -0.41209269627E+02 -0.14718194958E+03  0.17977449247E+03  0.80232874702E+02 0.  0.
          4    1    6    6  501    0  0.71456706351E+02 -0.28064862683E+02 -0.96890110360E+02  0.12361792299E+03  0.00000000000E+00 0. -1.
         -3    1    6    6    0  501 -0.21248900430E+02 -0.13144406944E+02 -0.50291839216E+02  0.56156569475E+02  0.00000000000E+00 0.  1.
          5    1    5    5  502    0 -0.66935510810E+02  0.26241603647E+02 -0.91600101993E+02  0.11654034947E+03  0.47000000000E+01 0. -1.
         13    1    4    4    0    0  0.69925303270E+01 -0.64158286510E+02 -0.14200413738E+03  0.15598190998E+03  0.00000000000E+00 0. -1.
        -14    1    4    4    0    0 -0.59801773700E+01  0.24055840287E+02 -0.80615615837E+02  0.84340521045E+02  0.00000000000E+00 0.  1.
         -5    1    3    3    0  504  0.15715351932E+02  0.55070112203E+02 -0.48484633069E+03  0.48823943299E+03  0.47000000000E+01 0.  1.
<mgrwt>
<rscale>  2 0.17510569E+03</rscale>
<asrwt>0</asrwt>
<pdfrwt beam="1">  1       21 0.60483514E-02 0.17545831E+03</pdfrwt>
<pdfrwt beam="2">  1       21 0.15162499E+00 0.17545831E+03</pdfrwt>
<totfact> 0.57045073E+04</totfact>
</mgrwt>
</event>
<event>
12    1  0.1410528E-001  0.2086572E+03  0.7546771E-02  0.1142803E+00
         21   -1    0    0  502  503  0.00000000000E+00  0.00000000000E+00  0.13575199475E+04  0.13575199475E+04  0.00000000000E+00 0.  1.
         21   -1    0    0  503  504 -0.00000000000E+00 -0.00000000000E+00 -0.75865572331E+02  0.75865572331E+02  0.00000000000E+00 0.  1.
         -6    2    1    2    0  504 -0.95927288688E+02 -0.67594809483E+02  0.96044286633E+02  0.22970048292E+03  0.17253029843E+03 0.  0.
        -24    2    3    3    0    0 -0.59277656708E+02  0.30354737866E+02  0.39016827081E+02  0.11048835899E+03  0.79057662377E+02 0.  0.
          6    2    1    2  502    0  0.95927288688E+02  0.67594809483E+02  0.11856100885E+04  0.12036850369E+04  0.17150884249E+03 0.  0.
         24    2    5    5    0    0  0.81817718403E+02  0.27956578960E+02  0.11103663492E+04  0.11173486042E+04  0.89881948484E+02 0.  0.
          2    1    6    6  501    0  0.29287445959E+02 -0.17433118894E+02  0.12572828004E+03  0.13026614497E+03  0.00000000000E+00 0. -1.
         -1    1    6    6    0  501  0.52530272443E+02  0.45389697854E+02  0.98463806912E+03  0.98708245925E+03  0.00000000000E+00 0.  1.
          5    1    5    5  502    0  0.14109570286E+02  0.39638230523E+02  0.75243739348E+02  0.86336432656E+02  0.47000000000E+01 0. -1.
         11    1    4    4    0    0 -0.32483440341E+02  0.29927664348E+02  0.61356287380E+02  0.75600482741E+02  0.00000000000E+00 0. -1.
        -12    1    4    4    0    0 -0.26794216367E+02  0.42707351774E+00 -0.22339460299E+02  0.34887876246E+02  0.00000000000E+00 0.  1.
         -5    1    3    3    0  504 -0.36649631981E+02 -0.97949547349E+02  0.57027459552E+02  0.11921212394E+03  0.47000000000E+01 0.  1.
<mgrwt>
<rscale>  2 0.20844588E+03</rscale>
<asrwt>0</asrwt>
<pdfrwt beam="1">  1       21 0.20884920E+00 0.20865715E+03</pdfrwt>
<pdfrwt beam="2">  1       21 0.11671628E-01 0.20865715E+03</pdfrwt>
<totfact> 0.71735100E+03</totfact>
</mgrwt>
</event>
<event>
12    1  0.1410528E-001  0.2638294E+03  0.7546771E-02  0.1105087E+00
         21   -1    0    0  502  503  0.00000000000E+00  0.00000000000E+00  0.13414570309E+03  0.13414570309E+03  0.00000000000E+00 0.  1.
         21   -1    0    0  503  504 -0.00000000000E+00 -0.00000000000E+00 -0.54565692505E+03  0.54565692505E+03  0.00000000000E+00 0.  1.
         -6    2    1    2    0  504  0.17420063407E+03  0.90577340388E+02 -0.28566668829E+03  0.38885909952E+03  0.17622663529E+03 0.  0.
        -24    2    3    3    0    0  0.12683104219E+03  0.13131931159E+03 -0.19746844439E+03  0.28067034466E+03  0.80319244154E+02 0.  0.
          6    2    1    2  502    0 -0.17420063407E+03 -0.90577340388E+02 -0.12584453367E+03  0.29094352862E+03  0.17395739332E+03 0.  0.
         24    2    5    5    0    0 -0.20109645393E+03 -0.90663479751E+02 -0.10694576009E+03  0.25773741188E+03  0.79570896309E+02 0.  0.
          2    1    6    6  501    0 -0.13289316301E+03 -0.77450789370E+02 -0.10852708890E+03  0.18824809846E+03  0.00000000000E+00 0. -1.
         -1    1    6    6    0  501 -0.68203290918E+02 -0.13212690381E+02  0.15813288068E+01  0.69489313422E+02  0.00000000000E+00 0.  1.
          5    1    5    5  502    0  0.26895819861E+02  0.86139362786E-01 -0.18898773579E+02  0.33206116737E+02  0.47000000000E+01 0. -1.
         11    1    4    4    0    0  0.30659837107E+02  0.72402279322E+02 -0.43637124561E+02  0.89923936204E+02  0.00000000000E+00 0. -1.
        -12    1    4    4    0    0  0.96171205087E+02  0.58917032272E+02 -0.15383131983E+03  0.19074640846E+03  0.00000000000E+00 0.  1.
         -5    1    3    3    0  504  0.47369591871E+02 -0.40741971205E+02 -0.88198243899E+02  0.10818875486E+03  0.47000000000E+01 0.  1.
<mgrwt>
<rscale>  2 0.26345099E+03</rscale>
<asrwt>0</asrwt>
<pdfrwt beam="1">  1       21 0.20637801E-01 0.26382938E+03</pdfrwt>
<pdfrwt beam="2">  1       21 0.83947219E-01 0.26382938E+03</pdfrwt>
<totfact> 0.25875228E+04</totfact>
</mgrwt>
</event>
<event>
12    1  0.1410528E-001  0.2948976E+03  0.7546771E-02  0.1087900E+00
         21   -1    0    0  502  503  0.00000000000E+00  0.00000000000E+00  0.24732905374E+03  0.24732905374E+03  0.00000000000E+00 0.  1.
         21   -1    0    0  503  504 -0.00000000000E+00 -0.00000000000E+00 -0.40179763446E+03  0.40179763446E+03  0.00000000000E+00 0. -1.
         -6    2    1    2    0  504  0.23719361231E+03 -0.26511304885E+02 -0.19285974891E+03  0.35236266732E+03  0.17320770066E+03 0.  0.
        -24    2    3    3    0    0  0.19701607685E+03  0.29266169419E+02 -0.98370120583E+02  0.23541934406E+03  0.77934226901E+02 0.  0.
          6    2    1    2  502    0 -0.23719361231E+03  0.26511304885E+02  0.38391168188E+02  0.29676402088E+03  0.17213757082E+03 0.  0.
         24    2    5    5    0    0 -0.82103295089E+02  0.69142091313E+02  0.15448998784E+02  0.13422533754E+03  0.79096079658E+02 0.  0.
          2    1    6    6  501    0 -0.69321287086E+02  0.82519828941E+02 -0.33816443145E+01  0.10782577860E+03  0.00000000000E+00 0. -1.
         -1    1    6    6    0  501 -0.12782008003E+02 -0.13377737628E+02  0.18830643099E+02  0.26399558939E+02  0.00000000000E+00 0.  1.
          5    1    5    5  502    0 -0.15509031722E+03 -0.42630786427E+02  0.22942169403E+02  0.16253868334E+03  0.47000000000E+01 0. -1.
         13    1    4    4    0    0  0.49948793883E+01  0.14589825822E+02 -0.24922060549E+02  0.29307352996E+02  0.00000000000E+00 0. -1.
        -14    1    4    4    0    0  0.19202119747E+03  0.14676343597E+02 -0.73448060034E+02  0.20611199106E+03  0.00000000000E+00 0.  1.
         -5    1    3    3    0  504  0.40177535454E+02 -0.55777474304E+02 -0.94489628326E+02  0.11694332326E+03  0.47000000000E+01 0.  1.
<mgrwt>
<rscale>  2 0.29474061E+03</rscale>
<asrwt>0</asrwt>
<pdfrwt beam="1">  1       21 0.38050624E-01 0.29489755E+03</pdfrwt>
<pdfrwt beam="2">  1       21 0.61815020E-01 0.29489755E+03</pdfrwt>
<totfact> 0.15340657E+04</totfact>
</mgrwt>
</event>
<event>
12    1  0.1410528E-001  0.2420836E+03  0.7546771E-02  0.1119334E+00
         21   -1    0    0  502  503  0.00000000000E+00  0.00000000000E+00  0.80300349010E+03  0.80300349010E+03  0.00000000000E+00 0. -1.
         21   -1    0    0  503  504 -0.00000000000E+00 -0.00000000000E+00 -0.37123030526E+03  0.37123030526E+03  0.00000000000E+00 0. -1.
         -6    2    1    2    0  504 -0.38436018979E+02  0.16219483878E+03 -0.31229599152E+03  0.39177396182E+03  0.16784980654E+03 0.  0.
        -24    2    3    3    0    0  0.37598977520E+02  0.87461087203E+02 -0.12764545428E+03  0.17850332337E+03  0.80665665388E+02 0.  0.
          6    2    1    2  502    0  0.38436018979E+02 -0.16219483878E+03  0.74406917636E+03  0.78245983354E+03  0.17555614095E+03 0.  0.
         24    2    5    5    0    0  0.18602532201E+02 -0.89198772878E+02  0.20710290576E+03  0.24017147981E+03  0.80549679411E+02 0.  0.
          2    1    6    6  501    0  0.16388869938E+02 -0.10427734191E+03  0.17061358384E+03  0.20062740113E+03  0.00000000000E+00 0. -1.
         -1    1    6    6    0  501  0.22136622635E+01  0.15078569030E+02  0.36489321912E+02  0.39544078675E+02  0.00000000000E+00 0.  1.
          5    1    5    5  502    0  0.19833486778E+02 -0.72996065902E+02  0.53696627060E+03  0.54228835374E+03  0.47000000000E+01 0. -1.
         13    1    4    4    0    0  0.22424459972E+02  0.10136364285E+03 -0.10104209696E+03  0.14486873319E+03  0.00000000000E+00 0. -1.
        -14    1    4    4    0    0  0.15174517548E+02 -0.13902555650E+02 -0.26603357313E+02  0.33634590182E+02  0.00000000000E+00 0.  1.
         -5    1    3    3    0  504 -0.76034996499E+02  0.74733751577E+02 -0.18465053725E+03  0.21327063844E+03  0.47000000000E+01 0.  1.
<mgrwt>
<rscale>  2 0.24068931E+03</rscale>
<asrwt>0</asrwt>
<pdfrwt beam="1">  1       21 0.12353900E+00 0.24208356E+03</pdfrwt>
<pdfrwt beam="2">  1       21 0.57112355E-01 0.24208356E+03</pdfrwt>
<totfact> 0.13535684E+03</totfact>
</mgrwt>
</event>
<event>
12    1  0.1410528E-001  0.1760416E+03  0.7546771E-02  0.1172204E+00
         21   -1    0    0  502  503  0.00000000000E+00  0.00000000000E+00  0.29642212313E+02  0.29642212313E+02  0.00000000000E+00 0. -1.
         21   -1    0    0  503  504 -0.00000000000E+00 -0.00000000000E+00 -0.13779509953E+04  0.13779509953E+04  0.00000000000E+00 0. -1.
         -6    2    1    2    0  504 -0.11337918789E+02  0.27136425038E+02 -0.10290707566E+04  0.10440197699E+04  0.17356763506E+03 0.  0.
        -24    2    3    3    0    0  0.36737500252E+02 -0.31125683402E+02 -0.68206030343E+03  0.68885211401E+03  0.83621321304E+02 0.  0.
          6    2    1    2  502    0  0.11337918789E+02 -0.27136425038E+02 -0.31923802635E+03  0.36357343765E+03  0.17148700572E+03 0.  0.
         24    2    5    5    0    0  0.50394810475E+01  0.22579648396E+02 -0.69082248650E+02  0.10840415777E+03  0.80273703373E+02 0.  0.
          4    1    6    6  501    0  0.76536336745E+01 -0.20010030700E+01  0.17049519976E+02  0.18795431709E+02  0.00000000000E+00 0. -1.
         -3    1    6    6    0  501 -0.26141526270E+01  0.24580651466E+02 -0.86131768626E+02  0.89608726065E+02  0.00000000000E+00 0.  1.
          5    1    5    5  502    0  0.62984377411E+01 -0.49716073435E+02 -0.25015577771E+03  0.25516927988E+03  0.47000000000E+01 0. -1.
         13    1    4    4    0    0 -0.15508647254E+02  0.18144356278E+02 -0.21166969870E+03  0.21301126062E+03  0.00000000000E+00 0. -1.
        -14    1    4    4    0    0  0.52246147505E+02 -0.49270039680E+02 -0.47039060473E+03  0.47584085339E+03  0.00000000000E+00 0.  1.
         -5    1    3    3    0  504 -0.48075419040E+02  0.58262108440E+02 -0.34701045318E+03  0.35516765592E+03  0.47000000000E+01 0.  1.
<mgrwt>
<rscale>  2 0.17552662E+03</rscale>
<asrwt>0</asrwt>
<pdfrwt beam="1">  1       21 0.45603413E-02 0.17604164E+03</pdfrwt>
<pdfrwt beam="2">  1       21 0.21199242E+00 0.17604164E+03</pdfrwt>
<totfact> 0.35874882E+04</totfact>
</mgrwt>
</event>
<event>
12    1  0.1410528E-001  0.1895190E+03  0.7546771E-02  0.1159857E+00
         21   -1    0    0  502  503  0.00000000000E+00  0.00000000000E+00  0.77763312535E+03  0.77763312535E+03  0.00000000000E+00 0. -1.
         21   -1    0    0  503  504 -0.00000000000E+00 -0.00000000000E+00 -0.14350144658E+03  0.14350144658E+03  0.00000000000E+00 0. -1.
         -6    2    1    2    0  504  0.49416596518E+02 -0.43748477499E+02 -0.65295308518E+02  0.19648598891E+03  0.17316852263E+03 0.  0.
        -24    2    3    3    0    0  0.89618493541E+02 -0.13162670844E+02 -0.77082401075E+02  0.14440230967E+03  0.81887729196E+02 0.  0.
          6    2    1    2  502    0 -0.49416596518E+02  0.43748477499E+02  0.69942698728E+03  0.72464858302E+03  0.17765564735E+03 0.  0.
         24    2    5    5    0    0 -0.60863767556E+02 -0.10201769051E+02  0.61661698922E+03  0.62504309819E+03  0.81571373118E+02 0.  0.
          4    1    6    6  501    0 -0.25224804815E+02 -0.38937331508E+02  0.44545296510E+03  0.44786242383E+03  0.00000000000E+00 0. -1.
         -3    1    6    6    0  501 -0.35638962741E+02  0.28735562457E+02  0.17116402412E+03  0.17718067437E+03  0.00000000000E+00 0.  1.
          5    1    5    5  502    0  0.11447171038E+02  0.53950246551E+02  0.82809998064E+02  0.99605484824E+02  0.47000000000E+01 0. -1.
         13    1    4    4    0    0  0.61474583433E+02  0.97420748389E+01 -0.86825816488E+02  0.10683049583E+03  0.00000000000E+00 0. -1.
        -14    1    4    4    0    0  0.28143910108E+02 -0.22904745683E+02  0.97434154130E+01  0.37571813835E+02  0.00000000000E+00 0.  1.
         -5    1    3    3    0  504 -0.40201897023E+02 -0.30585806656E+02  0.11787092557E+02  0.52083679248E+02  0.47000000000E+01 0.  1.
<mgrwt>
<rscale>  2 0.18846027E+03</rscale>
<asrwt>0</asrwt>
<pdfrwt beam="1">  1       21 0.11963586E+00 0.18951902E+03</pdfrwt>
<pdfrwt beam="2">  1       21 0.22077146E-01 0.18951902E+03</pdfrwt>
<totfact> 0.10226657E+04</totfact>
</mgrwt>
</event>
<event>
12    1  0.1410528E-001  0.3215433E+03  0.7546771E-02  0.1074981E+00
         21   -1    0    0  502  503  0.00000000000E+00  0.00000000000E+00  0.40090531519E+03  0.40090531519E+03  0.00000000000E+00 0. -1.
         21   -1    0    0  503  504 -0.00000000000E+00 -0.00000000000E+00 -0.26784683048E+03  0.26784683048E+03  0.00000000000E+00 0.  1.
         -6    2    1    2    0  504 -0.39867416026E+02  0.26831622627E+03  0.13184830819E+03  0.34720655195E+03  0.17200408486E+03 0.  0.
        -24    2    3    3    0    0  0.11836767646E+02  0.15047791987E+03  0.12432426678E+02  0.17158926402E+03  0.80651080946E+02 0.  0.
          6    2    1    2  502    0  0.39867416026E+02 -0.26831622627E+03  0.12101765263E+01  0.32154559372E+03  0.17264731731E+03 0.  0.
         24    2    5    5    0    0 -0.10230628216E+02 -0.24695375953E+03  0.25610560364E+02  0.26168210106E+03  0.82041429251E+02 0.  0.
          2    1    6    6  501    0 -0.30262592891E+01 -0.16440232996E+03  0.55571376697E+02  0.17356688120E+03  0.00000000000E+00 0. -1.
         -1    1    6    6    0  501 -0.72043689267E+01 -0.82551429571E+02 -0.29960816333E+02  0.88115219862E+02  0.00000000000E+00 0.  1.
          5    1    5    5  502    0  0.50098044242E+02 -0.21362466739E+02 -0.24400383837E+02  0.59863492660E+02  0.47000000000E+01 0. -1.
         13    1    4    4    0    0  0.26835472648E+02  0.43939024494E+02  0.34213699122E+02  0.61817130905E+02  0.00000000000E+00 0. -1.
        -14    1    4    4    0    0 -0.14998705002E+02  0.10653889537E+03 -0.21781272444E+02  0.10977213311E+03  0.00000000000E+00 0.  1.
         -5    1    3    3    0  504 -0.51704183673E+02  0.11783830640E+03  0.11941588151E+03  0.17561728793E+03  0.47000000000E+01 0.  1.
<mgrwt>
<rscale>  2 0.32145705E+03</rscale>
<asrwt>0</asrwt>
<pdfrwt beam="1">  1       21 0.61677741E-01 0.32154332E+03</pdfrwt>
<pdfrwt beam="2">  1       21 0.41207205E-01 0.32154332E+03</pdfrwt>
<totfact> 0.12958681E+04</totfact>
</mgrwt>
</event>
<event>
12    1  0.1410528E-001  0.1838821E+03  0.7546771E-02  0.1164931E+00
         21   -1    0    0  502  503  0.00000000000E+00  0.00000000000E+00  0.55667637894E+03  0.55667637894E+03  0.00000000000E+00 0. -1.
         21   -1    0    0  503  504 -0.00000000000E+00 -0.00000000000E+00 -0.67729887755E+02  0.67729887755E+02  0.00000000000E+00 0. -1.
         -6    2    1    2    0  504 -0.47779991037E+02  0.11214230705E+02  0.13830143394E+03  0.23008675282E+03  0.17721157039E+03 0.  0.
        -24    2    3    3    0    0 -0.93630807012E+02  0.11510003214E+02  0.67153703451E+02  0.14531367714E+03  0.87790869003E+02 0.  0.
          6    2    1    2  502    0  0.47779991037E+02 -0.11214230705E+02  0.35064505724E+03  0.39431951387E+03  0.17357199181E+03 0.  0.
         24    2    5    5    0    0  0.66994307077E+02  0.48161350817E+02  0.19760476135E+03  0.22897722712E+03  0.81087458578E+02 0.  0.
          4    1    6    6  501    0  0.19146775854E+02  0.16590524224E+02  0.15625497472E+03  0.15829548838E+03  0.00000000000E+00 0. -1.
         -3    1    6    6    0  501  0.47847531223E+02  0.31570826593E+02  0.41349786630E+02  0.70681738733E+02  0.00000000000E+00 0.  1.
          5    1    5    5  502    0 -0.19214316039E+02 -0.59375581522E+02  0.15304029589E+03  0.16534228675E+03  0.47000000000E+01 0. -1.
         13    1    4    4    0    0 -0.34704299916E+02  0.26949277708E+02  0.71846742072E+02  0.84217613051E+02  0.00000000000E+00 0. -1.
        -14    1    4    4    0    0 -0.58926507096E+02 -0.15439274494E+02 -0.46930386202E+01  0.61096064087E+02  0.00000000000E+00 0.  1.
         -5    1    3    3    0  504  0.45850815974E+02 -0.29577250895E+00  0.71147730493E+02  0.84773075685E+02  0.47000000000E+01 0.  1.
<mgrwt>
<rscale>  2 0.18299953E+03</rscale>
<asrwt>0</asrwt>
<pdfrwt beam="1">  1       21 0.85642517E-01 0.18388210E+03</pdfrwt>
<pdfrwt beam="2">  1       21 0.10419983E-01 0.18388210E+03</pdfrwt>
<totfact> 0.89182922E+04</totfact>
</mgrwt>
</event>
<event>
12    1  0.1410528E-001  0.1806306E+03  0.7546771E-02  0.1167250E+00
         21   -1    0    0  502  503  0.00000000000E+00  0.00000000000E+00  0.22213623602E+03  0.22213623602E+03  0.00000000000E+00 0. -1.
         21   -1    0    0  503  504 -0.00000000000E+00 -0.00000000000E+00 -0.25284463527E+03  0.25284463527E+03  0.00000000000E+00 0.  1.
         -6    2    1    2    0  504  0.23019238679E+02  0.45080275415E+02 -0.16922946811E+03  0.24735070771E+03  0.17315208098E+03 0.  0.
        -24    2    3    3    0    0  0.50943746042E+02  0.80563452583E+02 -0.15647577023E+03  0.20019584812E+03  0.80672026028E+02 0.  0.
          6    2    1    2  502    0 -0.23019238679E+02 -0.45080275415E+02  0.13852106887E+03  0.22763016358E+03  0.17339344932E+03 0.  0.
         24    2    5    5    0    0 -0.34018105368E+01  0.86146842403E+01  0.64384235543E+01  0.83630485199E+02  0.82866275754E+02 0.  0.
          2    1    6    6  501    0  0.32749024657E+02  0.78473314866E+00 -0.19802638665E+02  0.38278700607E+02  0.00000000000E+00 0. -1.
         -1    1    6    6    0  501 -0.36150835193E+02  0.78299510917E+01  0.26241062220E+02  0.45351784592E+02  0.00000000000E+00 0.  1.
          5    1    5    5  502    0 -0.19617428142E+02 -0.53694959655E+02  0.13208264531E+03  0.14399967838E+03  0.47000000000E+01 0. -1.
         13    1    4    4    0    0  0.22680800969E+02  0.90040386055E+02 -0.10084491771E+03  0.13708168106E+03  0.00000000000E+00 0. -1.
        -14    1    4    4    0    0  0.28262945074E+02 -0.94769334714E+01 -0.55630852521E+02  0.63114167066E+02  0.00000000000E+00 0.  1.
         -5    1    3    3    0  504 -0.27924507363E+02 -0.35483177169E+02 -0.12753697882E+02  0.47154859592E+02  0.47000000000E+01 0.  1.
<mgrwt>
<rscale>  2 0.18057263E+03</rscale>
<asrwt>0</asrwt>
<pdfrwt beam="1">  1       21 0.34174805E-01 0.18063058E+03</pdfrwt>
<pdfrwt beam="2">  1       21 0.38899175E-01 0.18063058E+03</pdfrwt>
<totfact> 0.52865559E+04</totfact>
</mgrwt>
</event>
<event>
12    1  0.1410528E-001  0.2822892E+03  0.7546771E-02  0.1094550E+00
         21   -1    0    0  502  503  0.00000000000E+00  0.00000000000E+00  0.29581613524E+03  0.29581613524E+03  0.00000000000E+00 0. -1.
         21   -1    0    0  503  504 -0.00000000000E+00 -0.00000000000E+00 -0.49547727335E+03  0.49547727335E+03  0.00000000000E+00 0.  1.
         -6    2    1    2    0  504  0.20378682447E+03 -0.92749033692E+02 -0.36760784098E+03  0.46348969820E+03  0.17191777835E+03 0.  0.
        -24    2    3    3    0    0  0.19603679387E+03 -0.53773173894E+02 -0.21863757081E+03  0.30923856526E+03  0.80648149957E+02 0.  0.
          6    2    1    2  502    0 -0.20378682447E+03  0.92749033692E+02  0.16794670287E+03  0.32780371038E+03  0.17063916448E+03 0.  0.
         24    2    5    5    0    0 -0.15431064187E+03  0.91051806283E+02  0.18469105956E+03  0.27533241626E+03  0.97953796962E+02 0.  0.
          2    1    6    6  501    0 -0.12036461233E+03  0.15725264654E+02  0.10404390320E+03  0.15987513141E+03  0.00000000000E+00 0. -1.
         -1    1    6    6    0  501 -0.33946029535E+02  0.75326541630E+02  0.80647156356E+02  0.11545728484E+03  0.00000000000E+00 0.  1.
          5    1    5    5  502    0 -0.49476182602E+02  0.16972274086E+01 -0.16744356692E+02  0.52471294121E+02  0.47000000000E+01 0. -1.
         13    1    4    4    0    0  0.12323507273E+03 -0.10857757423E+01 -0.91261216688E+02  0.15335146472E+03  0.00000000000E+00 0. -1.
        -14    1    4    4    0    0  0.72801721137E+02 -0.52687398152E+02 -0.12737635412E+03  0.15588710054E+03  0.00000000000E+00 0.  1.
         -5    1    3    3    0  504  0.77500306004E+01 -0.38975859798E+02 -0.14897027017E+03  0.15425113294E+03  0.47000000000E+01 0.  1.
<mgrwt>
<rscale>  2 0.28209475E+03</rscale>
<asrwt>0</asrwt>
<pdfrwt beam="1">  1       21 0.45510176E-01 0.28228917E+03</pdfrwt>
<pdfrwt beam="2">  1       21 0.76227271E-01 0.28228917E+03</pdfrwt>
<totfact> 0.67111904E+03</totfact>
</mgrwt>
</event>
<event>
12    1  0.1410528E-001  0.3660998E+03  0.7546771E-02  0.1056385E+00
         21   -1    0    0  502  503  0.00000000000E+00  0.00000000000E+00  0.21136725032E+03  0.21136725032E+03  0.00000000000E+00 0. -1.
         21   -1    0    0  503  504 -0.00000000000E+00 -0.00000000000E+00 -0.63369641810E+03  0.63369641810E+03  0.00000000000E+00 0. -1.
         -6    2    1    2    0  504 -0.48958948928E+02  0.31865828772E+03 -0.23963093570E+03  0.43590877152E+03  0.16927311875E+03 0.  0.
        -24    2    3    3    0    0 -0.53062730903E+02  0.17579562746E+03 -0.21673722938E+03  0.29108890923E+03  0.63545026825E+02 0.  0.
          6    2    1    2  502    0  0.48958948928E+02 -0.31865828772E+03 -0.18269823208E+03  0.40915489690E+03  0.17346181898E+03 0.  0.
         24    2    5    5    0    0  0.56883631601E+02 -0.10379168100E+03 -0.70018039100E+02  0.16635997280E+03  0.93619731694E+02 0.  0.
          2    1    6    6  501    0  0.50900193589E+02 -0.38304877722E+02 -0.77335880943E+02  0.10019447014E+03  0.00000000000E+00 0. -1.
         -1    1    6    6    0  501  0.59834380124E+01 -0.65486803273E+02  0.73178418432E+01  0.66165502663E+02  0.00000000000E+00 0.  1.
          5    1    5    5  502    0 -0.79246826728E+01 -0.21486660673E+03 -0.11268019298E+03  0.24279492411E+03  0.47000000000E+01 0. -1.
         13    1    4    4    0    0 -0.27718120947E+02  0.97296335496E+02 -0.70897359410E+02  0.12353666136E+03  0.00000000000E+00 0. -1.
        -14    1    4    4    0    0 -0.25344609956E+02  0.78499291960E+02 -0.14583986997E+03  0.16755224787E+03  0.00000000000E+00 0.  1.
         -5    1    3    3    0  504  0.41037819750E+01  0.14286266026E+03 -0.22893706315E+02  0.14481986229E+03  0.47000000000E+01 0.  1.
<mgrwt>
<rscale>  2 0.36560735E+03</rscale>
<asrwt>0</asrwt>
<pdfrwt beam="1">  1       21 0.32518040E-01 0.36609983E+03</pdfrwt>
<pdfrwt beam="2">  1       21 0.97491753E-01 0.36609983E+03</pdfrwt>
<totfact> 0.72245256E+03</totfact>
</mgrwt>
</event>
<event>
12    1  0.1410528E-001  0.2332658E+03  0.7546771E-02  0.1124678E+00
         21   -1    0    0  502  503  0.00000000000E+00  0.00000000000E+00  0.50164096062E+03  0.50164096062E+03  0.00000000000E+00 0. -1.
         21   -1    0    0  503  504 -0.00000000000E+00 -0.00000000000E+00 -0.33621159770E+03  0.33621159770E+03  0.00000000000E+00 0. -1.
         -6    2    1    2    0  504  0.13206458447E+03  0.81351159838E+02 -0.26281646364E+03  0.35019754371E+03  0.17177531947E+03 0.  0.
        -24    2    3    3    0    0  0.78238616521E+02  0.95800094943E+02 -0.25334040830E+03  0.29347107567E+03  0.81516688281E+02 0.  0.
          6    2    1    2  502    0 -0.13206458447E+03 -0.81351159838E+02  0.42824582655E+03  0.48765501462E+03  0.17422359096E+03 0.  0.
         24    2    5    5    0    0 -0.28387350502E+02  0.18494563801E+02  0.23373192016E+03  0.24563045563E+03  0.67496812328E+02 0.  0.
          2    1    6    6  501    0 -0.21454502337E+02  0.88910000494E+01  0.23257269259E+03  0.23372933682E+03  0.00000000000E+00 0. -1.
         -1    1    6    6    0  501 -0.69328481649E+01  0.96035637520E+01  0.11592275692E+01  0.11901118812E+02  0.00000000000E+00 0.  1.
          5    1    5    5  502    0 -0.10367723397E+03 -0.99845723640E+02  0.19451390640E+03  0.24202455899E+03  0.47000000000E+01 0. -1.
         13    1    4    4    0    0  0.94987842274E+02  0.88413548578E+02 -0.22472520330E+03  0.25950156599E+03  0.00000000000E+00 0. -1.
        -14    1    4    4    0    0 -0.16749225753E+02  0.73865463652E+01 -0.28615205007E+02  0.33969509683E+02  0.00000000000E+00 0.  1.
         -5    1    3    3    0  504  0.53825967948E+02 -0.14448935105E+02 -0.94760553331E+01  0.56726468036E+02  0.47000000000E+01 0.  1.
<mgrwt>
<rscale>  2 0.23280873E+03</rscale>
<asrwt>0</asrwt>
<pdfrwt beam="1">  1       21 0.77175533E-01 0.23326578E+03</pdfrwt>
<pdfrwt beam="2">  1       21 0.51724861E-01 0.23326578E+03</pdfrwt>
<totfact> 0.51391495E+03</totfact>
</mgrwt>
</event>
<event>
12    1  0.1410528E-001  0.1845802E+03  0.7546771E-02  0.1164934E+00
         21   -1    0    0  502  503  0.00000000000E+00  0.00000000000E+00  0.13056449577E+04  0.13056449577E+04  0.00000000000E+00 0.  1.
         21   -1    0    0  503  504 -0.00000000000E+00 -0.00000000000E+00 -0.25632877297E+02  0.25632877297E+02  0.00000000000E+00 0.  1.
         -6    2    1    2    0  504 -0.42467620186E+02  0.15391073692E+02  0.71385881657E+03  0.73579537621E+03  0.17251099024E+03 0.  0.
        -24    2    3    3    0    0 -0.22630029281E+02 -0.56570660675E+02  0.49266167457E+03  0.50229529730E+03  0.76633427586E+02 0.  0.
          6    2    1    2  502    0  0.42467620186E+02 -0.15391073692E+02  0.56615326381E+03  0.59548245876E+03  0.17896775310E+03 0.  0.
         24    2    5    5    0    0  0.42794090556E+02  0.12372172860E+02  0.13278851493E+03  0.16120374640E+03  0.79808854808E+02 0.  0.
          4    1    6    6  501    0 -0.13070760946E+02  0.26062980761E+02  0.22540788134E+02  0.36853912785E+02  0.00000000000E+00 0. -1.
         -3    1    6    6    0  501  0.55864851502E+02 -0.13690807901E+02  0.11024772680E+03  0.12434983361E+03  0.00000000000E+00 0.  1.
          5    1    5    5  502    0 -0.32647037034E+00 -0.27763246553E+02  0.43336474888E+03  0.43427871236E+03  0.47000000000E+01 0. -1.
         11    1    4    4    0    0 -0.28753424755E+02 -0.27038311241E+02  0.43874012676E+03  0.44051189376E+03  0.00000000000E+00 0. -1.
        -12    1    4    4    0    0  0.61233954746E+01 -0.29532349434E+02  0.53921547812E+02  0.61783403546E+02  0.00000000000E+00 0.  1.
         -5    1    3    3    0  504 -0.19837590905E+02  0.71961734367E+02  0.22119714199E+03  0.23350007891E+03  0.47000000000E+01 0.  1.
<mgrwt>
<rscale>  2 0.18299655E+03</rscale>
<asrwt>0</asrwt>
<pdfrwt beam="1">  1       21 0.20086840E+00 0.18458017E+03</pdfrwt>
<pdfrwt beam="2">  1       21 0.39435206E-02 0.18458017E+03</pdfrwt>
<totfact> 0.53475444E+04</totfact>
</mgrwt>
</event>
<event>
12    1  0.1410528E-001  0.2044858E+03  0.7546771E-02  0.1146409E+00
         21   -1    0    0  502  503  0.00000000000E+00  0.00000000000E+00  0.15699785319E+03  0.15699785319E+03  0.00000000000E+00 0.  1.
         21   -1    0    0  503  504 -0.00000000000E+00 -0.00000000000E+00 -0.30492284951E+03  0.30492284951E+03  0.00000000000E+00 0.  1.
         -6    2    1    2    0  504 -0.75225504850E+02 -0.75898848502E+02 -0.15907020124E+03  0.25907097349E+03  0.17434141390E+03 0.  0.
        -24    2    3    3    0    0 -0.10980828347E+03 -0.80562451945E+02 -0.91526084607E+02  0.18290001140E+03  0.80791226158E+02 0.  0.
          6    2    1    2  502    0  0.75225504850E+02  0.75898848502E+02  0.11145204914E+02  0.20284972920E+03  0.17205895868E+03 0.  0.
         24    2    5    5    0    0 -0.17627359986E+02  0.66613217104E+02  0.23232116910E+02  0.10863688029E+03  0.80710569258E+02 0.  0.
          4    1    6    6  501    0 -0.28497125124E+02  0.51167487552E+02 -0.19652671015E+02  0.61777223964E+02  0.00000000000E+00 0. -1.
         -3    1    6    6    0  501  0.10869765138E+02  0.15445729553E+02  0.42884787925E+02  0.46859656326E+02  0.00000000000E+00 0.  1.
          5    1    5    5  502    0  0.92852864835E+02  0.92856313977E+01 -0.12086911996E+02  0.94212848912E+02  0.47000000000E+01 0. -1.
         11    1    4    4    0    0 -0.31546754435E+02  0.10116091834E+02 -0.16872267212E+01  0.33171972558E+02  0.00000000000E+00 0. -1.
        -12    1    4    4    0    0 -0.78261529039E+02 -0.90678543779E+02 -0.89838857886E+02  0.14972803884E+03  0.00000000000E+00 0.  1.
         -5    1    3    3    0  504  0.34582778625E+02  0.46636034425E+01 -0.67544116632E+02  0.76170962093E+02  0.47000000000E+01 0.  1.
<mgrwt>
<rscale>  2 0.20399844E+03</rscale>
<asrwt>0</asrwt>
<pdfrwt beam="1">  1       21 0.24153516E-01 0.20448580E+03</pdfrwt>
<pdfrwt beam="2">  1       21 0.46911207E-01 0.20448580E+03</pdfrwt>
<totfact> 0.69980948E+04</totfact>
</mgrwt>
</event>
<event>
12    1  0.1410528E-001  0.2859288E+03  0.7546771E-02  0.1092632E+00
         21   -1    0    0  502  503  0.00000000000E+00  0.00000000000E+00  0.34492569769E+03  0.34492569769E+03  0.00000000000E+00 0.  1.
         21   -1    0    0  503  504 -0.00000000000E+00 -0.00000000000E+00 -0.39128666968E+03  0.39128666968E+03  0.00000000000E+00 0.  1.
         -6    2    1    2    0  504 -0.14066125100E+03 -0.17811245682E+03 -0.25492642699E+03  0.38229879237E+03  0.17220699365E+03 0.  0.
        -24    2    3    3    0    0 -0.88238324006E+02 -0.88566092855E+02 -0.52345404412E+02  0.15464142859E+03  0.74457876995E+02 0.  0.
          6    2    1    2  502    0  0.14066125100E+03  0.17811245682E+03  0.20856545500E+03  0.35391357499E+03  0.17391272160E+03 0.  0.
         24    2    5    5    0    0  0.12310265519E+03  0.51182977464E+02  0.90088067066E+02  0.17933299626E+03  0.79186506570E+02 0.  0.
          4    1    6    6  501    0  0.17737267654E+02 -0.19643119836E+02  0.62583284423E+01  0.27196130159E+02  0.00000000000E+00 0. -1.
         -3    1    6    6    0  501  0.10536538754E+03  0.70826097299E+02  0.83829738624E+02  0.15213686610E+03  0.00000000000E+00 0.  1.
          5    1    5    5  502    0  0.17558595811E+02  0.12692947936E+03  0.11847738794E+03  0.17458057873E+03  0.47000000000E+01 0. -1.
         13    1    4    4    0    0  0.29198115648E+01  0.16318938862E+01 -0.22797297067E+02  0.23041378665E+02  0.00000000000E+00 0. -1.
        -14    1    4    4    0    0 -0.91158135570E+02 -0.90197986741E+02 -0.29548107345E+02  0.13160004993E+03  0.00000000000E+00 0.  1.
         -5    1    3    3    0  504 -0.52422926999E+02 -0.89546363965E+02 -0.20258102258E+03  0.22765736378E+03  0.47000000000E+01 0.  1.
<mgrwt>
<rscale>  2 0.28566986E+03</rscale>
<asrwt>0</asrwt>
<pdfrwt beam="1">  1       21 0.53065492E-01 0.28592878E+03</pdfrwt>
<pdfrwt beam="2">  1       21 0.60197949E-01 0.28592878E+03</pdfrwt>
<totfact> 0.81849142E+03</totfact>
</mgrwt>
</event>
<event>
12    1  0.1410528E-001  0.1861575E+03  0.7546771E-02  0.1162503E+00
         21   -1    0    0  502  503  0.00000000000E+00  0.00000000000E+00  0.19060328978E+03  0.19060328978E+03  0.00000000000E+00 0. -1.
         21   -1    0    0  503  504 -0.00000000000E+00 -0.00000000000E+00 -0.18537054659E+03  0.18537054659E+03  0.00000000000E+00 0. -1.
         -6    2    1    2    0  504 -0.33590185207E+02  0.53812740820E+02 -0.30563076787E+02  0.18640606693E+03  0.17259492608E+03 0.  0.
        -24    2    3    3    0    0 -0.67337674071E+02 -0.16478506440E+02 -0.17500814608E+02  0.10720717086E+03  0.79882385093E+02 0.  0.
          6    2    1    2  502    0  0.33590185207E+02 -0.53812740820E+02  0.35795819979E+02  0.18956776944E+03  0.17501567606E+03 0.  0.
         24    2    5    5    0    0  0.87688024177E+02 -0.35770046216E+02  0.22701397562E+01  0.12324902214E+03  0.78844670923E+02 0.  0.
          2    1    6    6  501    0  0.34367497281E+02  0.24377817373E+02  0.70784575377E+01  0.42725957102E+02  0.00000000000E+00 0. -1.
         -1    1    6    6    0  501  0.53320526896E+02 -0.60147863588E+02 -0.48083177815E+01  0.80523065035E+02  0.00000000000E+00 0.  1.
          5    1    5    5  502    0 -0.54097838970E+02 -0.18042694604E+02  0.33525680223E+02  0.66318747305E+02  0.47000000000E+01 0. -1.
         13    1    4    4    0    0  0.59567860646E+01 -0.22577902811E+02 -0.23860196948E+02  0.33384936633E+02  0.00000000000E+00 0. -1.
        -14    1    4    4    0    0 -0.73294460136E+02  0.60993963711E+01  0.63593823401E+01  0.73822234228E+02  0.00000000000E+00 0.  1.
         -5    1    3    3    0  504  0.33747488864E+02  0.70291247260E+02 -0.13062262180E+02  0.79198896073E+02  0.47000000000E+01 0.  1.
<mgrwt>
<rscale>  2 0.18558633E+03</rscale>
<asrwt>0</asrwt>
<pdfrwt beam="1">  1       21 0.29323583E-01 0.18615746E+03</pdfrwt>
<pdfrwt beam="2">  1       21 0.28518545E-01 0.18615746E+03</pdfrwt>
<totfact> 0.13127380E+05</totfact>
</mgrwt>
</event>
<event>
12    1  0.1410528E-001  0.2108037E+03  0.7546771E-02  0.1141027E+00
         21   -1    0    0  502  503  0.00000000000E+00  0.00000000000E+00  0.11275219538E+03  0.11275219538E+03  0.00000000000E+00 0. -1.
         21   -1    0    0  503  504 -0.00000000000E+00 -0.00000000000E+00 -0.10807797808E+04  0.10807797808E+04  0.00000000000E+00 0. -1.
         -6    2    1    2    0  504  0.86984921545E+02  0.82900637962E+02 -0.96020381675E+03  0.98307150753E+03  0.17320313756E+03 0.  0.
        -24    2    3    3    0    0  0.59269613835E+02  0.67159362226E+02 -0.31861071420E+03  0.34066997788E+03  0.80746390461E+02 0.  0.
          6    2    1    2  502    0 -0.86984921545E+02 -0.82900637962E+02 -0.78237686997E+01  0.21046046868E+03  0.17260795223E+03 0.  0.
         24    2    5    5    0    0 -0.10430171521E+03 -0.28476012460E+02 -0.46689516165E+02  0.14121779738E+03  0.77928327936E+02 0.  0.
          2    1    6    6  501    0 -0.35724003290E+02 -0.13558796350E+01  0.20707561930E+02  0.41313992082E+02  0.00000000000E+00 0. -1.
         -1    1    6    6    0  501 -0.68577711919E+02 -0.27120132825E+02 -0.67397078095E+02  0.99903805295E+02  0.00000000000E+00 0.  1.
          5    1    5    5  502    0  0.17316793665E+02 -0.54424625502E+02  0.38865747465E+02  0.69242671308E+02  0.47000000000E+01 0. -1.
         11    1    4    4    0    0  0.25663429950E+02  0.39008900719E+02 -0.27463360686E+03  0.27857480860E+03  0.00000000000E+00 0. -1.
        -12    1    4    4    0    0  0.33606183885E+02  0.28150461508E+02 -0.43977107340E+02  0.62095169284E+02  0.00000000000E+00 0.  1.
         -5    1    3    3    0  504  0.27715307710E+02  0.15741275736E+02 -0.64159310255E+03  0.64240152964E+03  0.47000000000E+01 0.  1.
<mgrwt>
<rscale>  2 0.21068145E+03</rscale>
<asrwt>0</asrwt>
<pdfrwt beam="1">  1       21 0.17346492E-01 0.21080375E+03</pdfrwt>
<pdfrwt beam="2">  1       21 0.16627381E+00 0.21080375E+03</pdfrwt>
<totfact> 0.67158541E+03</totfact>
</mgrwt>
</event>
<event>
12    1  0.1410528E-001  0.2192842E+03  0.7546771E-02  0.1134472E+00
         21   -1    0    0  502  503  0.00000000000E+00  0.00000000000E+00  0.16430693977E+03  0.16430693977E+03  0.00000000000E+00 0.  1.
         21   -1    0    0  503  504 -0.00000000000E+00 -0.00000000000E+00 -0.55304677334E+03  0.55304677334E+03  0.00000000000E+00 0.  1.
         -6    2    1    2    0  504 -0.54225962518E+02 -0.12302661309E+03 -0.44059658990E+03  0.49202133510E+03  0.17286884225E+03 0.  0.
        -24    2    3    3    0    0  0.17689809367E+02 -0.34891765269E+02 -0.28872320120E+03  0.30221288997E+03  0.80256958050E+02 0.  0.
          6    2    1    2  502    0  0.54225962518E+02  0.12302661309E+03  0.51856756334E+02  0.22533237801E+03  0.17323266108E+03 0.  0.
         24    2    5    5    0    0  0.56734543303E+02  0.13780364843E+03 -0.39973925059E+01  0.16731143616E+03  0.75950533900E+02 0.  0.
          4    1    6    6  501    0  0.97154561441E+01  0.11404015172E+03 -0.57702929124E+01  0.11459861505E+03  0.00000000000E+00 0. -1.
         -3    1    6    6    0  501  0.47019087159E+02  0.23763496707E+02  0.17729004065E+01  0.52712821105E+02  0.00000000000E+00 0.  1.
          5    1    5    5  502    0 -0.25085807847E+01 -0.14777035335E+02  0.55854148840E+02  0.58020941853E+02  0.47000000000E+01 0. -1.
         13    1    4    4    0    0  0.39489546780E+02 -0.99461678039E+01 -0.69908698393E+02  0.80904738241E+02  0.00000000000E+00 0. -1.
        -14    1    4    4    0    0 -0.21799737413E+02 -0.24945597466E+02 -0.21881450280E+03  0.22130815173E+03  0.00000000000E+00 0.  1.
         -5    1    3    3    0  504 -0.71915771885E+02 -0.88134847822E+02 -0.15187338871E+03  0.18980844513E+03  0.47000000000E+01 0.  1.
<mgrwt>
<rscale>  2 0.21921233E+03</rscale>
<asrwt>0</asrwt>
<pdfrwt beam="1">  1       21 0.25277991E-01 0.21928419E+03</pdfrwt>
<pdfrwt beam="2">  1       21 0.85084118E-01 0.21928419E+03</pdfrwt>
<totfact> 0.17444576E+04</totfact>
</mgrwt>
</event>
<event>
12    1  0.1410528E-001  0.1980260E+03  0.7546771E-02  0.1152179E+00
         21   -1    0    0  502  503  0.00000000000E+00  0.00000000000E+00  0.21279466215E+03  0.21279466215E+03  0.00000000000E+00 0.  1.
         21   -1    0    0  503  504 -0.00000000000E+00 -0.00000000000E+00 -0.19695680551E+03  0.19695680551E+03  0.00000000000E+00 0. -1.
         -6    2    1    2    0  504 -0.46218561584E+02 -0.76574795728E+02 -0.50320126683E+02  0.20431940872E+03  0.17667611852E+03 0.  0.
        -24    2    3    3    0    0 -0.94380154429E+02 -0.71057083728E+02 -0.12344987384E+01  0.13517121249E+03  0.65673510656E+02 0.  0.
          6    2    1    2  502    0  0.46218561584E+02  0.76574795728E+02  0.66157983329E+02  0.20543205894E+03  0.17270088971E+03 0.  0.
         24    2    5    5    0    0  0.20575484275E+02 -0.32314710185E+01  0.82876239428E+02  0.11982716590E+03  0.84001700383E+02 0.  0.
          4    1    6    6  501    0  0.41631135259E+02 -0.21620970943E+02  0.19961595742E+02  0.50981203517E+02  0.00000000000E+00 0. -1.
         -3    1    6    6    0  501 -0.21055650985E+02  0.18389499925E+02  0.62914643687E+02  0.68845962380E+02  0.00000000000E+00 0.  1.
          5    1    5    5  502    0  0.25643077310E+02  0.79806266747E+02 -0.16718256100E+02  0.85604893043E+02  0.47000000000E+01 0. -1.
         11    1    4    4    0    0 -0.43617372903E+02 -0.61529234093E+02 -0.23398669361E+02  0.78967205819E+02  0.00000000000E+00 0. -1.
        -12    1    4    4    0    0 -0.50762781525E+02 -0.95278496354E+01  0.22164170622E+02  0.56204006674E+02  0.00000000000E+00 0.  1.
         -5    1    3    3    0  504  0.48161592845E+02 -0.55177119999E+01 -0.49085627945E+02  0.69148196230E+02  0.47000000000E+01 0.  1.
<mgrwt>
<rscale>  2 0.19713544E+03</rscale>
<asrwt>0</asrwt>
<pdfrwt beam="1">  1       21 0.32737640E-01 0.19802602E+03</pdfrwt>
<pdfrwt beam="2">  1       21 0.30301047E-01 0.19802602E+03</pdfrwt>
<totfact> 0.93649392E+04</totfact>
</mgrwt>
</event>
<event>
12    1  0.1410528E-001  0.1763797E+03  0.7546771E-02  0.1171481E+00
         21   -1    0    0  502  503  0.00000000000E+00  0.00000000000E+00  0.21161417152E+04  0.21161417152E+04  0.00000000000E+00 0. -1.
         21   -1    0    0  503  504 -0.00000000000E+00 -0.00000000000E+00 -0.48891583298E+02  0.48891583298E+02  0.00000000000E+00 0. -1.
         -6    2    1    2    0  504 -0.17158495138E+02  0.31421247670E+02  0.12825952527E+03  0.21808325518E+03  0.17270811100E+03 0.  0.
        -24    2    3    3    0    0  0.51373290267E+02  0.10857508264E+02  0.10707295196E+03  0.14331405110E+03  0.79480813812E+02 0.  0.
          6    2    1    2  502    0  0.17158495138E+02 -0.31421247670E+02  0.19389906067E+04  0.19469500433E+04  0.17218649721E+03 0.  0.
         24    2    5    5    0    0  0.37909391165E+01 -0.81607964574E+02  0.10082142933E+04  0.10147140037E+04  0.80462519164E+02 0.  0.
          4    1    6    6  501    0 -0.35760606392E+02 -0.35550820609E+02  0.58475027992E+03  0.58692041341E+03  0.00000000000E+00 0. -1.
         -3    1    6    6    0  501  0.39551545508E+02 -0.46057143965E+02  0.42346401335E+03  0.42779359025E+03  0.00000000000E+00 0.  1.
          5    1    5    5  502    0  0.13367556021E+02  0.50186716904E+02  0.93077631340E+03  0.93223603968E+03  0.47000000000E+01 0. -1.
         11    1    4    4    0    0 -0.70054935283E+01 -0.20155280523E+02  0.55532909467E+02  0.59491312865E+02  0.00000000000E+00 0. -1.
        -12    1    4    4    0    0  0.58378783795E+02  0.31012788787E+02  0.51540042489E+02  0.83822738237E+02  0.00000000000E+00 0.  1.
         -5    1    3    3    0  504 -0.68531785405E+02  0.20563739405E+02  0.21186573314E+02  0.74769204074E+02  0.47000000000E+01 0.  1.
<mgrwt>
<rscale>  2 0.17625189E+03</rscale>
<asrwt>0</asrwt>
<pdfrwt beam="1">  1       21 0.32556019E+00 0.17637971E+03</pdfrwt>
<pdfrwt beam="2">  1       21 0.75217837E-02 0.17637971E+03</pdfrwt>
<totfact> 0.33166592E+03</totfact>
</mgrwt>
</event>
<event>
12    1  0.1410528E-001  0.1882631E+03  0.7546771E-02  0.1160149E+00
         21   -1    0    0  502  503  0.00000000000E+00  0.00000000000E+00  0.58284028782E+03  0.58284028782E+03  0.00000000000E+00 0.  1.
         21   -1    0    0  503  504 -0.00000000000E+00 -0.00000000000E+00 -0.84679716605E+02  0.84679716605E+02  0.00000000000E+00 0.  1.
         -6    2    1    2    0  504  0.13498318903E+02  0.71025678189E+02  0.71527670672E+02  0.20139312581E+03  0.17382788003E+03 0.  0.
        -24    2    3    3    0    0 -0.45900567427E+02  0.87238374786E+02  0.53539634859E+02  0.13707564249E+03  0.78777173956E+02 0.  0.
          6    2    1    2  502    0 -0.13498318903E+02 -0.71025678189E+02  0.42663290054E+03  0.46612687862E+03  0.17329680774E+03 0.  0.
         24    2    5    5    0    0 -0.22654795469E+02 -0.46829936639E+02  0.42910499879E+03  0.43971710312E+03  0.80707794336E+02 0.  0.
          2    1    6    6  501    0  0.96379974710E+01 -0.30929980123E+02  0.54611987465E+02  0.63498219192E+02  0.00000000000E+00 0. -1.
         -1    1    6    6    0  501 -0.32292792940E+02 -0.15899956516E+02  0.37449301133E+03  0.37621888393E+03  0.00000000000E+00 0.  1.
          5    1    5    5  502    0  0.91564765659E+01 -0.24195741549E+02 -0.24720982472E+01  0.26409775500E+02  0.47000000000E+01 0. -1.
         13    1    4    4    0    0 -0.48495353825E+01 -0.95576614685E+01 -0.96374890981E+01  0.14413468781E+02  0.00000000000E+00 0. -1.
        -14    1    4    4    0    0 -0.41051032045E+02  0.96796036255E+02  0.63177123957E+02  0.12266217371E+03  0.00000000000E+00 0.  1.
         -5    1    3    3    0  504  0.59398886330E+02 -0.16212696598E+02  0.17988035813E+02  0.64317483320E+02  0.47000000000E+01 0.  1.
<mgrwt>
<rscale>  2 0.18814039E+03</rscale>
<asrwt>0</asrwt>
<pdfrwt beam="1">  1       21 0.89667734E-01 0.18826307E+03</pdfrwt>
<pdfrwt beam="2">  1       21 0.13027649E-01 0.18826307E+03</pdfrwt>
<totfact> 0.53768658E+04</totfact>
</mgrwt>
</event>
<event>
12    1  0.1410528E-001  0.2171485E+03  0.7546771E-02  0.1136076E+00
         21   -1    0    0  502  503  0.00000000000E+00  0.00000000000E+00  0.91682662421E+03  0.91682662421E+03  0.00000000000E+00 0. -1.
         21   -1    0    0  503  504 -0.00000000000E+00 -0.00000000000E+00 -0.54513487434E+02  0.54513487434E+02  0.00000000000E+00 0. -1.
         -6    2    1    2    0  504 -0.37724926867E+02  0.12514252807E+03  0.54753889556E+03  0.58893156268E+03  0.17308298856E+03 0.  0.
        -24    2    3    3    0    0  0.21869979373E+02  0.92293125970E+02  0.20650857060E+03  0.24114655925E+03  0.80681820803E+02 0.  0.
          6    2    1    2  502    0  0.37724926867E+02 -0.12514252807E+03  0.31477424121E+03  0.38240854896E+03  0.17340603492E+03 0.  0.
         24    2    5    5    0    0  0.17686959801E+02 -0.77102645608E+02  0.31021081746E+03  0.32994651252E+03  0.79851758593E+02 0.  0.
          2    1    6    6  501    0  0.23546555557E+02 -0.67404969372E+02  0.31050894801E+03  0.31861211052E+03  0.00000000000E+00 0. -1.
         -1    1    6    6    0  501 -0.58595957556E+01 -0.96976762367E+01 -0.29813055805E+00  0.11334401997E+02  0.00000000000E+00 0.  1.
          5    1    5    5  502    0  0.20037967066E+02 -0.48039882463E+02  0.45634237573E+01  0.52462036442E+02  0.47000000000E+01 0. -1.
         13    1    4    4    0    0 -0.15698418055E+02  0.65253558609E+02  0.69879206899E+02  0.96889477228E+02  0.00000000000E+00 0. -1.
        -14    1    4    4    0    0  0.37568397428E+02  0.27039567361E+02  0.13662936370E+03  0.14425708203E+03  0.00000000000E+00 0.  1.
         -5    1    3    3    0  504 -0.59594906240E+02  0.32849402102E+02  0.34103032496E+03  0.34778500343E+03  0.47000000000E+01 0.  1.
<mgrwt>
<rscale>  2 0.21708401E+03</rscale>
<asrwt>0</asrwt>
<pdfrwt beam="1">  1       21 0.14105024E+00 0.21714851E+03</pdfrwt>
<pdfrwt beam="2">  1       21 0.83866910E-02 0.21714851E+03</pdfrwt>
<totfact> 0.38250625E+04</totfact>
</mgrwt>
</event>
<event>
12    1  0.1410528E-001  0.1831767E+03  0.7546771E-02  0.1165369E+00
         21   -1    0    0  502  503  0.00000000000E+00  0.00000000000E+00  0.41434099717E+03  0.41434099717E+03  0.00000000000E+00 0. -1.
         21   -1    0    0  503  504 -0.00000000000E+00 -0.00000000000E+00 -0.84159414204E+02  0.84159414204E+02  0.00000000000E+00 0. -1.
         -6    2    1    2    0  504  0.54272891993E+02  0.18349793578E+01  0.10985757523E+03  0.21359399677E+03  0.17494226095E+03 0.  0.
        -24    2    3    3    0    0  0.34738528714E+02 -0.63350664043E+02  0.95104638871E+02  0.14380503930E+03  0.80093226806E+02 0.  0.
          6    2    1    2  502    0 -0.54272891993E+02 -0.18349793578E+01  0.22032400774E+03  0.28490641460E+03  0.17227908387E+03 0.  0.
         24    2    5    5    0    0  0.29440759911E+02 -0.84597556273E+00  0.16317732227E+03  0.18343332801E+03  0.78444077536E+02 0.  0.
          4    1    6    6  501    0  0.20911538375E+02  0.41492694650E+01  0.17005850454E+03  0.17138962583E+03  0.00000000000E+00 0. -1.
         -3    1    6    6    0  501  0.85292215356E+01 -0.49952450278E+01 -0.68811822650E+01  0.12043702182E+02  0.00000000000E+00 0.  1.
          5    1    5    5  502    0 -0.83713651903E+02 -0.98900379507E+00  0.57146685465E+02  0.10147308660E+03  0.47000000000E+01 0. -1.
         13    1    4    4    0    0  0.39947750804E+02 -0.12456542270E+02  0.77275358475E+01  0.42552356573E+02  0.00000000000E+00 0. -1.
        -14    1    4    4    0    0 -0.52092220903E+01 -0.50894121773E+02  0.87377103023E+02  0.10125268272E+03  0.00000000000E+00 0.  1.
         -5    1    3    3    0  504  0.19534363279E+02  0.65185643401E+02  0.14752936355E+02  0.69788957475E+02  0.47000000000E+01 0.  1.
<mgrwt>
<rscale>  2 0.18253795E+03</rscale>
<asrwt>0</asrwt>
<pdfrwt beam="1">  1       21 0.63744768E-01 0.18317671E+03</pdfrwt>
<pdfrwt beam="2">  1       21 0.12947602E-01 0.18317671E+03</pdfrwt>
<totfact> 0.11682516E+05</totfact>
</mgrwt>
</event>
<event>
12    1  0.1410528E-001  0.1903479E+03  0.7546771E-02  0.1160150E+00
         21   -1    0    0  502  503  0.00000000000E+00  0.00000000000E+00  0.10111625709E+03  0.10111625709E+03  0.00000000000E+00 0.  1.
         21   -1    0    0  503  504 -0.00000000000E+00 -0.00000000000E+00 -0.37646982059E+03  0.37646982059E+03  0.00000000000E+00 0.  1.
         -6    2    1    2    0  504  0.65286199015E+02 -0.42486646344E+02 -0.68536404839E+02  0.20231054259E+03  0.17368049388E+03 0.  0.
        -24    2    3    3    0    0  0.88877650748E+02 -0.48656667674E+02 -0.99348165131E+02  0.16273680975E+03  0.79664943497E+02 0.  0.
          6    2    1    2  502    0 -0.65286199015E+02  0.42486646344E+02 -0.20681715866E+03  0.27527553509E+03  0.16412154096E+03 0.  0.
         24    2    5    5    0    0 -0.85304929936E+02 -0.95575698498E+01 -0.17662973650E+03  0.21169314379E+03  0.79042046409E+02 0.  0.
          4    1    6    6  501    0 -0.75838557633E+02  0.10453357374E+02 -0.17310419547E+03  0.18927710372E+03  0.00000000000E+00 0. -1.
         -3    1    6    6    0  501 -0.94663723029E+01 -0.20010927224E+02 -0.35255410292E+01  0.22416040071E+02  0.00000000000E+00 0.  1.
          5    1    5    5  502    0  0.20018730921E+02  0.52044216194E+02 -0.30187422164E+02  0.63582391303E+02  0.47000000000E+01 0. -1.
         13    1    4    4    0    0  0.50131921737E+02 -0.65712094057E+02 -0.45856495515E+02  0.94520405540E+02  0.00000000000E+00 0. -1.
        -14    1    4    4    0    0  0.38745729011E+02  0.17055426383E+02 -0.53491669616E+02  0.68216404215E+02  0.00000000000E+00 0.  1.
         -5    1    3    3    0  504 -0.23591451733E+02  0.61700213298E+01  0.30811760292E+02  0.39573732834E+02  0.47000000000E+01 0.  1.
<mgrwt>
<rscale>  2 0.18813980E+03</rscale>
<asrwt>0</asrwt>
<pdfrwt beam="1">  1       21 0.15556347E-01 0.19034788E+03</pdfrwt>
<pdfrwt beam="2">  1       21 0.57918434E-01 0.19034788E+03</pdfrwt>
<totfact> 0.10267876E+05</totfact>
</mgrwt>
</event>
<event>
12    1  0.1410528E-001  0.2547545E+03  0.7546771E-02  0.1110403E+00
         21   -1    0    0  502  503  0.00000000000E+00  0.00000000000E+00  0.50523351451E+03  0.50523351451E+03  0.00000000000E+00 0.  1.
         21   -1    0    0  503  504 -0.00000000000E+00 -0.00000000000E+00 -0.14809463085E+03  0.14809463085E+03  0.00000000000E+00 0. -1.
         -6    2    1    2    0  504 -0.14338157438E+02  0.18633882560E+03  0.29831901693E+03  0.39229338345E+03  0.17312458564E+03 0.  0.
        -24    2    3    3    0    0  0.14052114914E+02  0.20476531926E+02  0.12485557120E+03  0.15057461084E+03  0.80417967379E+02 0.  0.
          6    2    1    2  502    0  0.14338157438E+02 -0.18633882560E+03  0.58819866728E+02  0.26103476191E+03  0.17248660678E+03 0.  0.
         24    2    5    5    0    0  0.39903989262E+02 -0.46973542197E+02  0.63153507859E+02  0.11919977180E+03  0.80133501215E+02 0.  0.
          4    1    6    6  501    0  0.11337660834E+02  0.36436609400E+01  0.59807714556E+02  0.60981813179E+02  0.00000000000E+00 0. -1.
         -3    1    6    6    0  501  0.28566328427E+02 -0.50617203137E+02  0.33457933032E+01  0.58217958621E+02  0.00000000000E+00 0.  1.
          5    1    5    5  502    0 -0.25565831823E+02 -0.13936528340E+03 -0.43336411304E+01  0.14183499011E+03  0.47000000000E+01 0. -1.
         11    1    4    4    0    0 -0.24064172090E+02  0.29419084028E+02  0.31578759957E+02  0.49414420606E+02  0.00000000000E+00 0. -1.
        -12    1    4    4    0    0  0.38116287004E+02 -0.89425521017E+01  0.93276811239E+02  0.10116019023E+03  0.00000000000E+00 0.  1.
         -5    1    3    3    0  504 -0.28390272352E+02  0.16586229367E+03  0.17346344574E+03  0.24171877261E+03  0.47000000000E+01 0.  1.
<mgrwt>
<rscale>  2 0.25464616E+03</rscale>
<asrwt>0</asrwt>
<pdfrwt beam="1">  1       21 0.77728232E-01 0.25475451E+03</pdfrwt>
<pdfrwt beam="2">  1       21 0.22783790E-01 0.25475451E+03</pdfrwt>
<totfact> 0.25675766E+04</totfact>
</mgrwt>
</event>
<event>
12    1  0.1410528E-001  0.1871193E+03  0.7546771E-02  0.1161440E+00
         21   -1    0    0  502  503  0.00000000000E+00  0.00000000000E+00  0.79264943031E+02  0.79264943031E+02  0.00000000000E+00 0.  1.
         21   -1    0    0  503  504 -0.00000000000E+00 -0.00000000000E+00 -0.45216973171E+03  0.45216973171E+03  0.00000000000E+00 0.  1.
         -6    2    1    2    0  504 -0.67731814436E+02 -0.10416154886E+02 -0.23405315593E+03  0.29965734442E+03  0.17411935359E+03 0.  0.
        -24    2    3    3    0    0 -0.33396124012E+02 -0.59972576668E+02 -0.20825531142E+03  0.23391240273E+03  0.81441551827E+02 0.  0.
          6    2    1    2  502    0  0.67731814436E+02  0.10416154886E+02 -0.13885163275E+03  0.23177733032E+03  0.17246698224E+03 0.  0.
         24    2    5    5    0    0  0.78336351380E+02 -0.34701361306E+02 -0.42066231181E+02  0.12436434029E+03  0.79725484669E+02 0.  0.
          2    1    6    6  501    0  0.33732860480E+02 -0.41059971891E+02 -0.56004461157E+02  0.77203153027E+02  0.00000000000E+00 0. -1.
         -1    1    6    6    0  501  0.44603490900E+02  0.63586105851E+01  0.13938229976E+02  0.47161187262E+02  0.00000000000E+00 0.  1.
          5    1    5    5  502    0 -0.10604536944E+02  0.45117516192E+02 -0.96785401566E+02  0.10741299003E+03  0.47000000000E+01 0. -1.
         11    1    4    4    0    0 -0.36966844376E+02 -0.34769553012E+01 -0.14196708627E+03  0.14674225835E+03  0.00000000000E+00 0. -1.
        -12    1    4    4    0    0  0.35707203640E+01 -0.56495621367E+02 -0.66288225151E+02  0.87170144380E+02  0.00000000000E+00 0.  1.
         -5    1    3    3    0  504 -0.34335690424E+02  0.49556421782E+02 -0.25797844509E+02  0.65744941691E+02  0.47000000000E+01 0.  1.
<mgrwt>
<rscale>  2 0.18673400E+03</rscale>
<asrwt>0</asrwt>
<pdfrwt beam="1">  1       21 0.12194606E-01 0.18711933E+03</pdfrwt>
<pdfrwt beam="2">  1       21 0.69564576E-01 0.18711933E+03</pdfrwt>
<totfact> 0.10733273E+05</totfact>
</mgrwt>
</event>
<event>
12    1  0.1410528E-001  0.2339923E+03  0.7546771E-02  0.1124055E+00
         21   -1    0    0  502  503  0.00000000000E+00  0.00000000000E+00  0.11076151101E+03  0.11076151101E+03  0.00000000000E+00 0. -1.
         21   -1    0    0  503  504 -0.00000000000E+00 -0.00000000000E+00 -0.60376412772E+03  0.60376412772E+03  0.00000000000E+00 0.  1.
         -6    2    1    2    0  504 -0.79535770835E+02  0.13468013130E+03 -0.40072373315E+03  0.46403869802E+03  0.17403369312E+03 0.  0.
        -24    2    3    3    0    0 -0.46780502448E+02  0.93037520318E+02 -0.11849576462E+03  0.17684236992E+03  0.79922349614E+02 0.  0.
          6    2    1    2  502    0  0.79535770835E+02 -0.13468013130E+03 -0.92278883567E+02  0.25048694071E+03  0.17252141463E+03 0.  0.
         24    2    5    5    0    0  0.44299117806E+02 -0.66936924973E+02 -0.12386707929E+03  0.16771817952E+03  0.79645280134E+02 0.  0.
          2    1    6    6  501    0  0.35008371111E+02 -0.67737487431E+02 -0.45489187246E+02  0.88787495784E+02  0.00000000000E+00 0. -1.
         -1    1    6    6    0  501  0.92907466948E+01  0.80056245806E+00 -0.78377892040E+02  0.78930683736E+02  0.00000000000E+00 0.  1.
          5    1    5    5  502    0  0.35236653029E+02 -0.67743206328E+02  0.31588195718E+02  0.82768761190E+02  0.47000000000E+01 0. -1.
         11    1    4    4    0    0  0.32388485662E+01 -0.13330891842E+02 -0.11733743873E+02  0.18052245362E+02  0.00000000000E+00 0. -1.
        -12    1    4    4    0    0 -0.50019351014E+02  0.10636841216E+03 -0.10676202075E+03  0.15879012455E+03  0.00000000000E+00 0.  1.
         -5    1    3    3    0  504 -0.32755268387E+02  0.41642610983E+02 -0.28222796852E+03  0.28719632810E+03  0.47000000000E+01 0.  1.
<mgrwt>
<rscale>  2 0.23371116E+03</rscale>
<asrwt>0</asrwt>
<pdfrwt beam="1">  1       21 0.17040232E-01 0.23399231E+03</pdfrwt>
<pdfrwt beam="2">  1       21 0.92886790E-01 0.23399231E+03</pdfrwt>
<totfact> 0.29660597E+04</totfact>
</mgrwt>
</event>
<event>
12    1  0.1410528E-001  0.2385733E+03  0.7546771E-02  0.1120804E+00
         21   -1    0    0  502  503  0.00000000000E+00  0.00000000000E+00  0.11094806824E+04  0.11094806824E+04  0.00000000000E+00 0.  1.
         21   -1    0    0  503  504 -0.00000000000E+00 -0.00000000000E+00 -0.20079101112E+03  0.20079101112E+03  0.00000000000E+00 0.  1.
         -6    2    1    2    0  504 -0.30959144399E+02 -0.16119120399E+03 -0.11099292333E+03  0.26312854076E+03  0.17313615183E+03 0.  0.
        -24    2    3    3    0    0 -0.32466537875E+02 -0.14719806797E+03 -0.14630163075E+03  0.22482873775E+03  0.80140170100E+02 0.  0.
          6    2    1    2  502    0  0.30959144399E+02  0.16119120399E+03  0.10196825946E+04  0.10471431527E+04  0.17267054108E+03 0.  0.
         24    2    5    5    0    0  0.82423937914E+02  0.11809789822E+03  0.58078710760E+03  0.60311950870E+03  0.75489458251E+02 0.  0.
          2    1    6    6  501    0  0.51552311812E+02  0.15913755813E+02  0.15369523067E+03  0.16288987817E+03  0.00000000000E+00 0. -1.
         -1    1    6    6    0  501  0.30871626102E+02  0.10218414240E+03  0.42709187693E+03  0.44022963053E+03  0.00000000000E+00 0.  1.
          5    1    5    5  502    0 -0.51464793516E+02  0.43093305771E+02  0.43889548697E+03  0.44402364402E+03  0.47000000000E+01 0. -1.
         13    1    4    4    0    0 -0.22678050678E+00  0.95499680762E+01 -0.15208839602E+02  0.17960014523E+02  0.00000000000E+00 0. -1.
        -14    1    4    4    0    0 -0.32239757368E+02 -0.15674803604E+03 -0.13109279115E+03  0.20686872323E+03  0.00000000000E+00 0.  1.
         -5    1    3    3    0  504  0.15073934760E+01 -0.13993136018E+02  0.35308707423E+02  0.38299803010E+02  0.47000000000E+01 0.  1.
<mgrwt>
<rscale>  2 0.23848879E+03</rscale>
<asrwt>0</asrwt>
<pdfrwt beam="1">  1       21 0.17068933E+00 0.23857326E+03</pdfrwt>
<pdfrwt beam="2">  1       21 0.30890925E-01 0.23857326E+03</pdfrwt>
<totfact> 0.20373230E+03</totfact>
</mgrwt>
</event>
<event>
12    1  0.1410528E-001  0.2769867E+03  0.7546771E-02  0.1097367E+00
         21   -1    0    0  502  503  0.00000000000E+00  0.00000000000E+00  0.60635988899E+03  0.60635988899E+03  0.00000000000E+00 0. -1.
         21   -1    0    0  503  504 -0.00000000000E+00 -0.00000000000E+00 -0.14693392818E+03  0.14693392818E+03  0.00000000000E+00 0.  1.
         -6    2    1    2    0  504 -0.10822089344E+03 -0.18759921599E+03  0.37025446663E+03  0.46230727162E+03  0.17243670060E+03 0.  0.
        -24    2    3    3    0    0 -0.91290801288E+02 -0.14399072391E+03  0.16109850003E+03  0.24793228015E+03  0.80314070111E+02 0.  0.
          6    2    1    2  502    0  0.10822089344E+03  0.18759921599E+03  0.89171494187E+02  0.29098654555E+03  0.17267422129E+03 0.  0.
         24    2    5    5    0    0  0.52015831530E+02  0.18750583702E+02  0.20885045022E+02  0.10031929941E+03  0.81058902102E+02 0.  0.
          4    1    6    6  501    0  0.53474003457E+02 -0.17991551584E+02 -0.29539720212E+01  0.56496822254E+02  0.00000000000E+00 0. -1.
         -3    1    6    6    0  501 -0.14581719262E+01  0.36742135286E+02  0.23839017043E+02  0.43822477158E+02  0.00000000000E+00 0.  1.
          5    1    5    5  502    0  0.56205061912E+02  0.16884863229E+03  0.68286449165E+02  0.19066724614E+03  0.47000000000E+01 0. -1.
         13    1    4    4    0    0 -0.76495691986E+02 -0.14956773555E+03  0.16013911311E+03  0.23209186534E+03  0.00000000000E+00 0. -1.
        -14    1    4    4    0    0 -0.14795109302E+02  0.55770116391E+01  0.95938691639E+00  0.15840414810E+02  0.00000000000E+00 0.  1.
         -5    1    3    3    0  504 -0.16930092155E+02 -0.43608492087E+02  0.20915596660E+03  0.21437499147E+03  0.47000000000E+01 0.  1.
<mgrwt>
<rscale>  2 0.27694966E+03</rscale>
<asrwt>0</asrwt>
<pdfrwt beam="1">  1       21 0.93286135E-01 0.27698667E+03</pdfrwt>
<pdfrwt beam="2">  1       21 0.22605220E-01 0.27698667E+03</pdfrwt>
<totfact> 0.16928699E+04</totfact>
</mgrwt>
</event>
<event>
12    1  0.1410528E-001  0.2422810E+03  0.7546771E-02  0.1118317E+00
         21   -1    0    0  502  503  0.00000000000E+00  0.00000000000E+00  0.19168505005E+03  0.19168505005E+03  0.00000000000E+00 0.  1.
         21   -1    0    0  503  504 -0.00000000000E+00 -0.00000000000E+00 -0.62284283545E+03  0.62284283545E+03  0.00000000000E+00 0. -1.
         -6    2    1    2    0  504 -0.42504027964E+02 -0.16393060336E+03 -0.50602209780E+03  0.56094404104E+03  0.17297404025E+03 0.  0.
        -24    2    3    3    0    0 -0.26225993712E+01 -0.15933166863E+03 -0.30973215755E+03  0.36053568495E+03  0.93051125973E+02 0.  0.
          6    2    1    2  502    0  0.42504027964E+02  0.16393060336E+03  0.74864312402E+02  0.25358384446E+03  0.17326357316E+03 0.  0.
         24    2    5    5    0    0  0.78605430901E+02  0.14913094976E+03  0.22613057400E+02  0.18820323043E+03  0.80562098018E+02 0.  0.
          4    1    6    6  501    0  0.74648475215E+02  0.13593401158E+03 -0.73168039413E+01  0.15525458440E+03  0.00000000000E+00 0. -1.
         -3    1    6    6    0  501  0.39569556860E+01  0.13196938177E+02  0.29929861341E+02  0.32948646034E+02  0.00000000000E+00 0.  1.
          5    1    5    5  502    0 -0.36101402936E+02  0.14799653604E+02  0.52251255002E+02  0.65380614023E+02  0.47000000000E+01 0. -1.
         11    1    4    4    0    0 -0.18176998731E+02 -0.16273299106E+03 -0.30026719660E+03  0.34201289305E+03  0.00000000000E+00 0. -1.
        -12    1    4    4    0    0  0.15554399360E+02  0.34013224280E+01 -0.94649609462E+01  0.18522791891E+02  0.00000000000E+00 0.  1.
         -5    1    3    3    0  504 -0.39881428593E+02 -0.45989347363E+01 -0.19628994026E+03  0.20040835610E+03  0.47000000000E+01 0.  1.
<mgrwt>
<rscale>  2 0.24222928E+03</rscale>
<asrwt>0</asrwt>
<pdfrwt beam="1">  1       21 0.29490008E-01 0.24228104E+03</pdfrwt>
<pdfrwt beam="2">  1       21 0.95821975E-01 0.24228104E+03</pdfrwt>
<totfact> 0.96848441E+03</totfact>
</mgrwt>
</event>
<event>
12    1  0.1410528E-001  0.1906412E+03  0.7546771E-02  0.1157920E+00
         21   -1    0    0  502  503  0.00000000000E+00  0.00000000000E+00  0.29227851472E+03  0.29227851472E+03  0.00000000000E+00 0.  1.
         21   -1    0    0  503  504 -0.00000000000E+00 -0.00000000000E+00 -0.12427532849E+03  0.12427532849E+03  0.00000000000E+00 0.  1.
         -6    2    1    2    0  504 -0.36731329847E+02 -0.67019337478E+02  0.80630309231E+02  0.20684431541E+03  0.17447791225E+03 0.  0.
        -24    2    3    3    0    0 -0.80027231115E+02 -0.62172676063E+02  0.18340299403E+02  0.13068553051E+03  0.80452109570E+02 0.  0.
          6    2    1    2  502    0  0.36731329847E+02  0.67019337478E+02  0.87372877004E+02  0.20970952779E+03  0.17465189441E+03 0.  0.
         24    2    5    5    0    0 -0.34459927005E+02  0.43074166088E+02  0.41935970294E+01  0.97538012237E+02  0.80331856830E+02 0.  0.
          2    1    6    6  501    0 -0.16670748898E+02  0.64789091832E+02  0.12932438119E+02  0.68138008812E+02  0.00000000000E+00 0. -1.
         -1    1    6    6    0  501 -0.17789178107E+02 -0.21714925744E+02 -0.87388410899E+01  0.29400003425E+02  0.00000000000E+00 0.  1.
          5    1    5    5  502    0  0.71191256852E+02  0.23945171390E+02  0.83179279974E+02  0.11217151556E+03  0.47000000000E+01 0. -1.
         13    1    4    4    0    0 -0.64030128308E+02 -0.48151060619E+02  0.48595040864E+02  0.93700906967E+02  0.00000000000E+00 0. -1.
        -14    1    4    4    0    0 -0.15997102807E+02 -0.14021615444E+02 -0.30254741461E+02  0.36984623545E+02  0.00000000000E+00 0.  1.
         -5    1    3    3    0  504  0.43295901268E+02 -0.48466614155E+01  0.62290009827E+02  0.76158784902E+02  0.47000000000E+01 0.  1.
<mgrwt>
<rscale>  2 0.19060134E+03</rscale>
<asrwt>0</asrwt>
<pdfrwt beam="1">  1       21 0.44965925E-01 0.19064120E+03</pdfrwt>
<pdfrwt beam="2">  1       21 0.19119281E-01 0.19064120E+03</pdfrwt>
<totfact> 0.11923530E+05</totfact>
</mgrwt>
</event>
<event>
12    1  0.1410528E-001  0.1769101E+03  0.7546771E-02  0.1171257E+00
         21   -1    0    0  502  503  0.00000000000E+00  0.00000000000E+00  0.44385625960E+02  0.44385625960E+02  0.00000000000E+00 0.  1.
         21   -1    0    0  503  504 -0.00000000000E+00 -0.00000000000E+00 -0.73925211703E+03  0.73925211703E+03  0.00000000000E+00 0.  1.
         -6    2    1    2    0  504 -0.32328260411E+02 -0.13313619039E+02 -0.43809149689E+03  0.47181953969E+03  0.17165998226E+03 0.  0.
        -24    2    3    3    0    0 -0.51066102791E+02  0.59690982659E+02 -0.25718432498E+03  0.27578313120E+03  0.61170239262E+02 0.  0.
          6    2    1    2  502    0  0.32328260411E+02  0.13313619039E+02 -0.25677499418E+03  0.31181820330E+03  0.17342094856E+03 0.  0.
         24    2    5    5    0    0 -0.27511478621E+02 -0.14476609130E+02 -0.61457790171E+02  0.10560474271E+03  0.80055281158E+02 0.  0.
          2    1    6    6  501    0  0.13806028297E+02 -0.97211880897E+01  0.12326689685E+02  0.20905865057E+02  0.00000000000E+00 0. -1.
         -1    1    6    6    0  501 -0.41317506918E+02 -0.47554210402E+01 -0.73784479856E+02  0.84698877648E+02  0.00000000000E+00 0.  1.
          5    1    5    5  502    0  0.59839739032E+02  0.27790228169E+02 -0.19531720401E+03  0.20621346059E+03  0.47000000000E+01 0. -1.
         11    1    4    4    0    0  0.52248267296E+01  0.35548822885E+02 -0.67679442451E+02  0.76625873915E+02  0.00000000000E+00 0. -1.
        -12    1    4    4    0    0 -0.56290929521E+02  0.24142159775E+02 -0.18950488253E+03  0.19915725728E+03  0.00000000000E+00 0.  1.
         -5    1    3    3    0  504  0.18737842380E+02 -0.73004601699E+02 -0.18090717191E+03  0.19603640849E+03  0.47000000000E+01 0.  1.
<mgrwt>
<rscale>  2 0.17647707E+03</rscale>
<asrwt>0</asrwt>
<pdfrwt beam="1">  1       21 0.68285584E-02 0.17691013E+03</pdfrwt>
<pdfrwt beam="2">  1       21 0.11373109E+00 0.17691013E+03</pdfrwt>
<totfact> 0.95746001E+04</totfact>
</mgrwt>
</event>
<event>
12    1  0.1410528E-001  0.2408559E+03  0.7546771E-02  0.1119280E+00
         21   -1    0    0  502  503  0.00000000000E+00  0.00000000000E+00  0.33256782108E+03  0.33256782108E+03  0.00000000000E+00 0.  1.
         21   -1    0    0  503  504 -0.00000000000E+00 -0.00000000000E+00 -0.17687215559E+03  0.17687215559E+03  0.00000000000E+00 0. -1.
         -6    2    1    2    0  504  0.16254361430E+03 -0.39814843936E+02  0.46549247244E+02  0.24531288766E+03  0.17322220436E+03 0.  0.
        -24    2    3    3    0    0  0.17466404173E+03 -0.76278240727E+02  0.50125935128E+02  0.20643658688E+03  0.61461838142E+02 0.  0.
          6    2    1    2  502    0 -0.16254361430E+03  0.39814843936E+02  0.10914641825E+03  0.26412708901E+03  0.17275569508E+03 0.  0.
         24    2    5    5    0    0 -0.10609031066E+03  0.71411128779E+02  0.12688451329E+03  0.19688104285E+03  0.79421420222E+02 0.  0.
          4    1    6    6  501    0 -0.20516195355E+02  0.55794262174E+02  0.29702267997E+02  0.66454034396E+02  0.00000000000E+00 0. -1.
         -3    1    6    6    0  501 -0.85574115307E+02  0.15616866605E+02  0.97182245298E+02  0.13042700845E+03  0.00000000000E+00 0.  1.
          5    1    5    5  502    0 -0.56453303640E+02 -0.31596284843E+02 -0.17738095047E+02  0.67246046156E+02  0.47000000000E+01 0. -1.
         13    1    4    4    0    0  0.45414777612E+02 -0.32959217743E+02 -0.10768327738E+02  0.57138156621E+02  0.00000000000E+00 0. -1.
        -14    1    4    4    0    0  0.12924926411E+03 -0.43319022984E+02  0.60894262866E+02  0.14929843025E+03  0.00000000000E+00 0.  1.
         -5    1    3    3    0  504 -0.12120427424E+02  0.36463396791E+02 -0.35766878834E+01  0.38876300785E+02  0.47000000000E+01 0.  1.
<mgrwt>
<rscale>  2 0.24077207E+03</rscale>
<asrwt>0</asrwt>
<pdfrwt beam="1">  1       21 0.51164280E-01 0.24085593E+03</pdfrwt>
<pdfrwt beam="2">  1       21 0.27211101E-01 0.24085593E+03</pdfrwt>
<totfact> 0.45721535E+04</totfact>
</mgrwt>
</event>
<event>
12    1  0.1410528E-001  0.2007961E+03  0.7546771E-02  0.1149415E+00
         21   -1    0    0  502  503  0.00000000000E+00  0.00000000000E+00  0.28076628018E+03  0.28076628018E+03  0.00000000000E+00 0.  1.
         21   -1    0    0  503  504 -0.00000000000E+00 -0.00000000000E+00 -0.17124748825E+03  0.17124748825E+03  0.00000000000E+00 0. -1.
         -6    2    1    2    0  504  0.43774362350E+02 -0.91204820272E+02  0.14728139000E+03  0.24769762022E+03  0.17154529776E+03 0.  0.
        -24    2    3    3    0    0  0.26764737178E+02 -0.22735788339E+02  0.42216784957E+01  0.88118465137E+02  0.80707955625E+02 0.  0.
          6    2    1    2  502    0 -0.43774362350E+02  0.91204820272E+02 -0.37762598061E+02  0.20431614821E+03  0.17344901431E+03 0.  0.
         24    2    5    5    0    0  0.80503092642E+01  0.96097830106E+01  0.28902686526E+02  0.86800630668E+02  0.80881572606E+02 0.  0.
          4    1    6    6  501    0 -0.56416518047E+01  0.41097214331E+02  0.31906635964E+02  0.52333953409E+02  0.00000000000E+00 0. -1.
         -3    1    6    6    0  501  0.13691961069E+02 -0.31487431321E+02 -0.30039494379E+01  0.34466677260E+02  0.00000000000E+00 0.  1.
          5    1    5    5  502    0 -0.51824671614E+02  0.81595037262E+02 -0.66665284587E+02  0.11751551754E+03  0.47000000000E+01 0. -1.
         11    1    4    4    0    0 -0.57290376889E+01 -0.47004329414E+02  0.44578362135E+01  0.47561551281E+02  0.00000000000E+00 0. -1.
        -12    1    4    4    0    0  0.32493774867E+02  0.24268541075E+02 -0.23615771781E+00  0.40556913856E+02  0.00000000000E+00 0.  1.
         -5    1    3    3    0  504  0.17009625172E+02 -0.68469031933E+02  0.14305971150E+03  0.15957915508E+03  0.47000000000E+01 0.  1.
<mgrwt>
<rscale>  2 0.20038430E+03</rscale>
<asrwt>0</asrwt>
<pdfrwt beam="1">  1       21 0.43194812E-01 0.20079610E+03</pdfrwt>
<pdfrwt beam="2">  1       21 0.26345767E-01 0.20079610E+03</pdfrwt>
<totfact> 0.70342070E+04</totfact>
</mgrwt>
</event>
<event>
12    1  0.1410528E-001  0.1819587E+03  0.7546771E-02  0.1166293E+00
         21   -1    0    0  502  503  0.00000000000E+00  0.00000000000E+00  0.79532327109E+02  0.79532327109E+02  0.00000000000E+00 0. -1.
         21   -1    0    0  503  504 -0.00000000000E+00 -0.00000000000E+00 -0.49326700431E+03  0.49326700431E+03  0.00000000000E+00 0. -1.
         -6    2    1    2    0  504 -0.48220140040E+02 -0.21703709669E+02 -0.32332146671E+03  0.37100640519E+03  0.17410556836E+03 0.  0.
        -24    2    3    3    0    0  0.35477721914E+02 -0.53871500059E+00 -0.21662764391E+03  0.23367850955E+03  0.80119602821E+02 0.  0.
          6    2    1    2  502    0  0.48220140040E+02  0.21703709669E+02 -0.90413210487E+02  0.20179292623E+03  0.17248073378E+03 0.  0.
         24    2    5    5    0    0  0.40285426368E+02 -0.40961999558E+02 -0.99946536146E+02  0.13773884680E+03  0.75378238529E+02 0.  0.
          4    1    6    6  501    0  0.29469958209E+02 -0.54242991707E+02 -0.35834796290E+02  0.71378660756E+02  0.00000000000E+00 0. -1.
         -3    1    6    6    0  501  0.10815468159E+02  0.13280992149E+02 -0.64111739856E+02  0.66360186041E+02  0.00000000000E+00 0.  1.
          5    1    5    5  502    0  0.79347136717E+01  0.62665709226E+02  0.95333256591E+01  0.64054079433E+02  0.47000000000E+01 0. -1.
         11    1    4    4    0    0  0.39191563162E+02 -0.28394977742E+02 -0.74786252440E+02  0.89079946891E+02  0.00000000000E+00 0. -1.
        -12    1    4    4    0    0 -0.37138412481E+01  0.27856262741E+02 -0.14184139147E+03  0.14459856266E+03  0.00000000000E+00 0.  1.
         -5    1    3    3    0  504 -0.83697861954E+02 -0.21164994668E+02 -0.10669382281E+03  0.13732789564E+03  0.47000000000E+01 0.  1.
<mgrwt>
<rscale>  2 0.18156896E+03</rscale>
<asrwt>0</asrwt>
<pdfrwt beam="1">  1       21 0.12235742E-01 0.18195874E+03</pdfrwt>
<pdfrwt beam="2">  1       21 0.75887233E-01 0.18195874E+03</pdfrwt>
<totfact> 0.88150870E+04</totfact>
</mgrwt>
</event>
<event>
12    1  0.1410528E-001  0.1725938E+03  0.7546771E-02  0.1175226E+00
         21   -1    0    0  502  503  0.00000000000E+00  0.00000000000E+00  0.53756644871E+03  0.53756644871E+03  0.00000000000E+00 0.  1.
         21   -1    0    0  503  504 -0.00000000000E+00 -0.00000000000E+00 -0.73248926560E+02  0.73248926560E+02  0.00000000000E+00 0.  1.
         -6    2    1    2    0  504 -0.80689225751E+01  0.98344977456E+00  0.38304626372E+03  0.42004422020E+03  0.17218197375E+03 0.  0.
        -24    2    3    3    0    0  0.43949003617E+01 -0.51564235715E+02  0.33204506936E+03  0.34561426683E+03  0.80728605799E+02 0.  0.
          6    2    1    2  502    0  0.80689225751E+01 -0.98344977456E+00  0.81271258433E+02  0.19077115508E+03  0.17240226645E+03 0.  0.
         24    2    5    5    0    0 -0.20120615557E+02 -0.29503488128E+02  0.11114650630E+03  0.14054503555E+03  0.78256412988E+02 0.  0.
          2    1    6    6  501    0  0.22895768137E+02  0.83057886260E+01  0.14911691697E+02  0.28558026412E+02  0.00000000000E+00 0. -1.
         -1    1    6    6    0  501 -0.43016383694E+02 -0.37809276754E+02  0.96234814598E+02  0.11198700914E+03  0.00000000000E+00 0.  1.
          5    1    5    5  502    0  0.28189538132E+02  0.28520038354E+02 -0.29875247863E+02  0.50226119526E+02  0.47000000000E+01 0. -1.
         13    1    4    4    0    0  0.11270566489E+02 -0.74557768004E+01  0.26329964974E+03  0.26364620200E+03  0.00000000000E+00 0. -1.
        -14    1    4    4    0    0 -0.68756661275E+01 -0.44108458915E+02  0.68745419620E+02  0.81968064826E+02  0.00000000000E+00 0.  1.
         -5    1    3    3    0  504 -0.12463822937E+02  0.52547685490E+02  0.51001194364E+02  0.74429953373E+02  0.47000000000E+01 0.  1.
<mgrwt>
<rscale>  2 0.17253875E+03</rscale>
<asrwt>0</asrwt>
<pdfrwt beam="1">  1       21 0.82702528E-01 0.17259379E+03</pdfrwt>
<pdfrwt beam="2">  1       21 0.11269066E-01 0.17259379E+03</pdfrwt>
<totfact> 0.84453582E+04</totfact>
</mgrwt>
</event>
<event>
12    1  0.1410528E-001  0.3409767E+03  0.7546771E-02  0.1066451E+00
         21   -1    0    0  502  503  0.00000000000E+00  0.00000000000E+00  0.11291764700E+03  0.11291764700E+03  0.00000000000E+00 0. -1.
         21   -1    0    0  503  504 -0.00000000000E+00 -0.00000000000E+00 -0.10333832352E+04  0.10333832352E+04  0.00000000000E+00 0. -1.
         -6    2    1    2    0  504 -0.29221612436E+03 -0.22140323903E+02 -0.41801835142E+03  0.53944829921E+03  0.17431198500E+03 0.  0.
        -24    2    3    3    0    0 -0.26581062278E+03 -0.22330910767E+02 -0.26669854698E+03  0.38576986853E+03  0.80847509256E+02 0.  0.
          6    2    1    2  502    0  0.29221612436E+03  0.22140323903E+02 -0.50244723680E+03  0.60685258302E+03  0.17302131219E+03 0.  0.
         24    2    5    5    0    0  0.89231933649E+02 -0.35413879061E+02 -0.23725718681E+03  0.26793825672E+03  0.79268252846E+02 0.  0.
          4    1    6    6  501    0  0.35211467383E+02 -0.39144540658E+02 -0.18624766230E+03  0.19354672359E+03  0.00000000000E+00 0. -1.
         -3    1    6    6    0  501  0.54020466267E+02  0.37306615961E+01 -0.51009524509E+02  0.74391533136E+02  0.00000000000E+00 0.  1.
          5    1    5    5  502    0  0.20298419071E+03  0.57554202964E+02 -0.26519005000E+03  0.33891432630E+03  0.47000000000E+01 0. -1.
         13    1    4    4    0    0 -0.14859232174E+03  0.46838464550E+01 -0.19681296802E+03  0.24665149681E+03  0.00000000000E+00 0. -1.
        -14    1    4    4    0    0 -0.11721830103E+03 -0.27014757222E+02 -0.69885578963E+02  0.13911837173E+03  0.00000000000E+00 0.  1.
         -5    1    3    3    0  504 -0.26405501582E+02  0.19058686398E+00 -0.15131980444E+03  0.15367843067E+03  0.47000000000E+01 0.  1.
<mgrwt>
<rscale>  2 0.34081210E+03</rscale>
<asrwt>0</asrwt>
<pdfrwt beam="1">  1       21 0.17371944E-01 0.34097672E+03</pdfrwt>
<pdfrwt beam="2">  1       21 0.15898205E+00 0.34097672E+03</pdfrwt>
<totfact> 0.70081144E+03</totfact>
</mgrwt>
</event>
<event>
12    1  0.1410528E-001  0.1787308E+03  0.7546771E-02  0.1169074E+00
         21   -1    0    0  502  503  0.00000000000E+00  0.00000000000E+00  0.69338935677E+02  0.69338935677E+02  0.00000000000E+00 0. -1.
         21   -1    0    0  503  504 -0.00000000000E+00 -0.00000000000E+00 -0.11992425086E+04  0.11992425086E+04  0.00000000000E+00 0. -1.
         -6    2    1    2    0  504 -0.41860182879E+02 -0.10535200900E+01 -0.10627532678E+04  0.10776525000E+04  0.17360016639E+03 0.  0.
        -24    2    3    3    0    0 -0.80750698056E+02  0.67443960175E+01 -0.96885126116E+03  0.97560860497E+03  0.81075407684E+02 0.  0.
          6    2    1    2  502    0  0.41860182879E+02  0.10535200900E+01 -0.67150305122E+02  0.19092894425E+03  0.17375647746E+03 0.  0.
         24    2    5    5    0    0  0.95115141466E+02  0.33488020386E+00 -0.44081460753E+02  0.13269777873E+03  0.81354305463E+02 0.  0.
          2    1    6    6  501    0  0.10018817999E+03  0.71930156197E+01 -0.13984050091E+02  0.10141481420E+03  0.00000000000E+00 0. -1.
         -1    1    6    6    0  501 -0.50730385201E+01 -0.68581354158E+01 -0.30097410662E+02  0.31282964530E+02  0.00000000000E+00 0.  1.
          5    1    5    5  502    0 -0.53254958587E+02  0.71863988610E+00 -0.23068844369E+02  0.58231165521E+02  0.47000000000E+01 0. -1.
         13    1    4    4    0    0 -0.14691076317E+02  0.31485179810E+02 -0.16223008680E+03  0.16590884646E+03  0.00000000000E+00 0. -1.
        -14    1    4    4    0    0 -0.66059621740E+02 -0.24740783793E+02 -0.80662117436E+03  0.80969975851E+03  0.00000000000E+00 0.  1.
         -5    1    3    3    0  504  0.38890515177E+02 -0.77979161075E+01 -0.93902006662E+02  0.10204389507E+03  0.47000000000E+01 0.  1.
<mgrwt>
<rscale>  2 0.17869280E+03</rscale>
<asrwt>0</asrwt>
<pdfrwt beam="1">  1       21 0.10667529E-01 0.17873080E+03</pdfrwt>
<pdfrwt beam="2">  1       21 0.18449884E+00 0.17873080E+03</pdfrwt>
<totfact> 0.12417121E+04</totfact>
</mgrwt>
</event>
<event>
12    1  0.1410528E-001  0.1957580E+03  0.7546771E-02  0.1153862E+00
         21   -1    0    0  502  503  0.00000000000E+00  0.00000000000E+00  0.63498290544E+03  0.63498290544E+03  0.00000000000E+00 0. -1.
         21   -1    0    0  503  504 -0.00000000000E+00 -0.00000000000E+00 -0.21521956022E+03  0.21521956022E+03  0.00000000000E+00 0.  1.
         -6    2    1    2    0  504 -0.92916803765E+02 -0.13468676348E+02 -0.15187212486E+03  0.24597710166E+03  0.16918822231E+03 0.  0.
        -24    2    3    3    0    0 -0.14806174173E+02  0.85885364402E+00 -0.14495063213E+03  0.16612382601E+03  0.79790221150E+02 0.  0.
          6    2    1    2  502    0  0.92916803765E+02  0.13468676348E+02  0.57163547007E+03  0.60422536400E+03  0.17177381113E+03 0.  0.
         24    2    5    5    0    0  0.81404114335E+02  0.48679990480E+02  0.54318131235E+03  0.55727743804E+03  0.80720713270E+02 0.  0.
          2    1    6    6  501    0  0.76297356501E+02  0.48402448425E+02  0.54454026604E+03  0.55198567460E+03  0.00000000000E+00 0. -1.
         -1    1    6    6    0  501  0.51067578339E+01  0.27754205478E+00 -0.13589536866E+01  0.52917634385E+01  0.00000000000E+00 0.  1.
          5    1    5    5  502    0  0.11512689430E+02 -0.35211314131E+02  0.28454157719E+02  0.46947925964E+02  0.47000000000E+01 0. -1.
         13    1    4    4    0    0 -0.30620445936E+01 -0.22058308416E+02 -0.37366729507E+01  0.22581138413E+02  0.00000000000E+00 0. -1.
        -14    1    4    4    0    0 -0.11744129579E+02  0.22917162060E+02 -0.14121395918E+03  0.14354268760E+03  0.00000000000E+00 0.  1.
         -5    1    3    3    0  504 -0.78110629592E+02 -0.14327529992E+02 -0.69214927292E+01  0.79853275653E+02  0.47000000000E+01 0.  1.
<mgrwt>
<rscale>  2 0.19518928E+03</rscale>
<asrwt>0</asrwt>
<pdfrwt beam="1">  1       21 0.97689677E-01 0.19575796E+03</pdfrwt>
<pdfrwt beam="2">  1       21 0.33110702E-01 0.19575796E+03</pdfrwt>
<totfact> 0.76020140E+03</totfact>
</mgrwt>
</event>
<event>
12    1  0.1410528E-001  0.2163708E+03  0.7546771E-02  0.1136850E+00
         21   -1    0    0  502  503  0.00000000000E+00  0.00000000000E+00  0.15377554002E+03  0.15377554002E+03  0.00000000000E+00 0. -1.
         21   -1    0    0  503  504 -0.00000000000E+00 -0.00000000000E+00 -0.30306217673E+03  0.30306217673E+03  0.00000000000E+00 0. -1.
         -6    2    1    2    0  504 -0.88521603974E+02  0.91805076385E+02 -0.82274376425E+02  0.23148520492E+03  0.17479153487E+03 0.  0.
        -24    2    3    3    0    0  0.20051721045E+01  0.84865175282E+01  0.62412215721E-01  0.83368642036E+02  0.82911307340E+02 0.  0.
          6    2    1    2  502    0  0.88521603974E+02 -0.91805076385E+02 -0.67012260291E+02  0.22535251183E+03  0.17328838720E+03 0.  0.
         24    2    5    5    0    0  0.83346104215E+02  0.34505006241E+01 -0.11480163394E+02  0.11487032080E+03  0.78133970886E+02 0.  0.
          2    1    6    6  501    0  0.59653866795E+02 -0.20069334942E+02  0.22874126269E+02  0.66967064152E+02  0.00000000000E+00 0. -1.
         -1    1    6    6    0  501  0.23692237419E+02  0.23519835566E+02 -0.34354289663E+02  0.47903256646E+02  0.00000000000E+00 0.  1.
          5    1    5    5  502    0  0.51754997593E+01 -0.95255577009E+02 -0.55532096897E+02  0.11048219103E+03  0.47000000000E+01 0. -1.
         11    1    4    4    0    0 -0.12220250822E+02  0.11554838534E+02  0.38637886486E+02  0.42139471945E+02  0.00000000000E+00 0. -1.
        -12    1    4    4    0    0  0.14225422926E+02 -0.30683210055E+01 -0.38575474271E+02  0.41229170091E+02  0.00000000000E+00 0.  1.
         -5    1    3    3    0  504 -0.90526776078E+02  0.83318558857E+02 -0.82336788640E+02  0.14811656288E+03  0.47000000000E+01 0.  1.
<mgrwt>
<rscale>  2 0.21606705E+03</rscale>
<asrwt>0</asrwt>
<pdfrwt beam="1">  1       21 0.23657776E-01 0.21637081E+03</pdfrwt>
<pdfrwt beam="2">  1       21 0.46624950E-01 0.21637081E+03</pdfrwt>
<totfact> 0.73354524E+04</totfact>
</mgrwt>
</event>
<event>
12    1  0.1410528E-001  0.1776028E+03  0.7546771E-02  0.1171005E+00
         21   -1    0    0  502  503  0.00000000000E+00  0.00000000000E+00  0.22151423956E+03  0.22151423956E+03  0.00000000000E+00 0.  1.
         21   -1    0    0  503  504 -0.00000000000E+00 -0.00000000000E+00 -0.24156730112E+03  0.24156730112E+03  0.00000000000E+00 0.  1.
         -6    2    1    2    0  504  0.84748206784E+01 -0.34737514900E+02 -0.16048615705E+03  0.23937119458E+03  0.17396621702E+03 0.  0.
        -24    2    3    3    0    0 -0.63273886341E+02 -0.20475352792E+02 -0.32707031801E+02  0.92059005415E+02  0.54610308406E+02 0.  0.
          6    2    1    2  502    0 -0.84748206784E+01  0.34737514900E+02  0.14043309549E+03  0.22371034610E+03  0.17042988915E+03 0.  0.
         24    2    5    5    0    0 -0.34292550595E+02 -0.38783628865E+01  0.15816432197E+02  0.90634638454E+02  0.82301017219E+02 0.  0.
          4    1    6    6  501    0 -0.94260584043E+01  0.38748510682E+02  0.79140202556E+01  0.40656234131E+02  0.00000000000E+00 0. -1.
         -3    1    6    6    0  501 -0.24866492191E+02 -0.42626873569E+02  0.79024119414E+01  0.49978404323E+02  0.00000000000E+00 0.  1.
          5    1    5    5  502    0  0.25817729917E+02  0.38615877787E+02  0.12461666329E+03  0.13307570764E+03  0.47000000000E+01 0. -1.
         11    1    4    4    0    0 -0.62022404031E+01 -0.26574943692E+02 -0.30669132145E+01  0.27460906302E+02  0.00000000000E+00 0. -1.
        -12    1    4    4    0    0 -0.57071645938E+02  0.60995909008E+01 -0.29640118587E+02  0.64598099113E+02  0.00000000000E+00 0.  1.
         -5    1    3    3    0  504  0.71748707019E+02 -0.14262162108E+02 -0.12777912525E+03  0.14731218916E+03  0.47000000000E+01 0.  1.
<mgrwt>
<rscale>  2 0.17673080E+03</rscale>
<asrwt>0</asrwt>
<pdfrwt beam="1">  1       21 0.34079114E-01 0.17760282E+03</pdfrwt>
<pdfrwt beam="2">  1       21 0.37164200E-01 0.17760282E+03</pdfrwt>
<totfact> 0.58326033E+04</totfact>
</mgrwt>
</event>
<event>
12    1  0.1410528E-001  0.2091190E+03  0.7546771E-02  0.1142267E+00
         21   -1    0    0  502  503  0.00000000000E+00  0.00000000000E+00  0.66609001278E+02  0.66609001278E+02  0.00000000000E+00 0. -1.
         21   -1    0    0  503  504 -0.00000000000E+00 -0.00000000000E+00 -0.80204879983E+03  0.80204879983E+03  0.00000000000E+00 0.  1.
         -6    2    1    2    0  504  0.77690768334E+02  0.88084828639E+02 -0.55273258533E+03  0.59096612400E+03  0.17301114506E+03 0.  0.
        -24    2    3    3    0    0  0.35497144101E+01  0.60628217167E+02 -0.15185071829E+03  0.18233533379E+03  0.80617318944E+02 0.  0.
          6    2    1    2  502    0 -0.77690768334E+02 -0.88084828639E+02 -0.18270721323E+03  0.27769167711E+03  0.17302008337E+03 0.  0.
         24    2    5    5    0    0 -0.86961627718E+02 -0.10613376927E+03 -0.91524834539E+02  0.18416077700E+03  0.81924933774E+02 0.  0.
          2    1    6    6  501    0 -0.23578250577E+02 -0.18873781677E+02  0.13985387087E+02  0.33282797164E+02  0.00000000000E+00 0. -1.
         -1    1    6    6    0  501 -0.63383377141E+02 -0.87259987591E+02 -0.10551022163E+03  0.15087797984E+03  0.00000000000E+00 0.  1.
          5    1    5    5  502    0  0.92708593834E+01  0.18048940630E+02 -0.91182378688E+02  0.93530900106E+02  0.47000000000E+01 0. -1.
         13    1    4    4    0    0  0.47799595488E+01  0.60208266147E+02 -0.44608643936E+02  0.75085380998E+02  0.00000000000E+00 0. -1.
        -14    1    4    4    0    0 -0.12302451387E+01  0.41995101938E+00 -0.10724207436E+03  0.10724995280E+03  0.00000000000E+00 0.  1.
         -5    1    3    3    0  504  0.74141053924E+02  0.27456611472E+02 -0.40088186703E+03  0.40863079021E+03  0.47000000000E+01 0.  1.
<mgrwt>
<rscale>  2 0.20911712E+03</rscale>
<asrwt>0</asrwt>
<pdfrwt beam="1">  1       21 0.10247539E-01 0.20911897E+03</pdfrwt>
<pdfrwt beam="2">  1       21 0.12339211E+00 0.20911897E+03</pdfrwt>
<totfact> 0.37936918E+04</totfact>
</mgrwt>
</event>
<event>
12    1  0.1410528E-001  0.2344802E+03  0.7546771E-02  0.1124079E+00
         21   -1    0    0  502  503  0.00000000000E+00  0.00000000000E+00  0.14912615850E+03  0.14912615850E+03  0.00000000000E+00 0.  1.
         21   -1    0    0  503  504 -0.00000000000E+00 -0.00000000000E+00 -0.40601391786E+03  0.40601391786E+03  0.00000000000E+00 0. -1.
         -6    2    1    2    0  504 -0.11180799845E+03  0.10577798779E+03 -0.21887027448E+03  0.32075716065E+03  0.17689247537E+03 0.  0.
        -24    2    3    3    0    0 -0.13861494910E+03  0.10584109947E+03 -0.13908317078E+03  0.23645598330E+03  0.78427426274E+02 0.  0.
          6    2    1    2  502    0  0.11180799845E+03 -0.10577798779E+03 -0.38017484876E+02  0.23438291571E+03  0.17262679631E+03 0.  0.
         24    2    5    5    0    0  0.60733957678E+02 -0.11232700651E+03  0.25143555069E+02  0.15275660712E+03  0.79977575931E+02 0.  0.
          2    1    6    6  501    0  0.65699126868E+02 -0.63730816676E+02 -0.10718561392E+02  0.92156821905E+02  0.00000000000E+00 0. -1.
         -1    1    6    6    0  501 -0.49651691900E+01 -0.48596189833E+02  0.35862116461E+02  0.60599785217E+02  0.00000000000E+00 0.  1.
          5    1    5    5  502    0  0.51074040768E+02  0.65490187221E+01 -0.63161039945E+02  0.81626308587E+02  0.47000000000E+01 0. -1.
         13    1    4    4    0    0 -0.58874242130E+02  0.50100652034E+02 -0.11086251245E+03  0.13515453521E+03  0.00000000000E+00 0. -1.
        -14    1    4    4    0    0 -0.79740706973E+02  0.55740447439E+02 -0.28220658333E+02  0.10130144809E+03  0.00000000000E+00 0.  1.
         -5    1    3    3    0  504  0.26806950657E+02 -0.63111686076E-01 -0.79787103696E+02  0.84301177351E+02  0.47000000000E+01 0.  1.
<mgrwt>
<rscale>  2 0.23367579E+03</rscale>
<asrwt>0</asrwt>
<pdfrwt beam="1">  1       21 0.22942486E-01 0.23448019E+03</pdfrwt>
<pdfrwt beam="2">  1       21 0.62463678E-01 0.23448019E+03</pdfrwt>
<totfact> 0.41521356E+04</totfact>
</mgrwt>
</event>
<event>
12    1  0.1410528E-001  0.2503119E+03  0.7546771E-02  0.1113793E+00
         21   -1    0    0  502  503  0.00000000000E+00  0.00000000000E+00  0.17604281878E+03  0.17604281878E+03  0.00000000000E+00 0. -1.
         21   -1    0    0  503  504 -0.00000000000E+00 -0.00000000000E+00 -0.40901879544E+03  0.40901879544E+03  0.00000000000E+00 0. -1.
         -6    2    1    2    0  504  0.46024219863E+02  0.17547079410E+03 -0.22863980265E+03  0.33901653810E+03  0.17247557901E+03 0.  0.
        -24    2    3    3    0    0 -0.11739845236E+01  0.69250077809E+02 -0.44814357699E+02  0.12147482882E+03  0.89167571821E+02 0.  0.
          6    2    1    2  502    0 -0.46024219863E+02 -0.17547079410E+03 -0.43361740077E+01  0.24604507612E+03  0.16616602746E+03 0.  0.
         24    2    5    5    0    0 -0.71451947103E+02 -0.69245446547E+02 -0.33755383942E+02  0.13282858576E+03  0.81263119789E+02 0.  0.
          4    1    6    6  501    0 -0.52356929242E+02 -0.72214889580E+02  0.51939532416E+01  0.89348841441E+02  0.00000000000E+00 0. -1.
         -3    1    6    6    0  501 -0.19095017861E+02  0.29694430323E+01 -0.38949337184E+02  0.43479744320E+02  0.00000000000E+00 0.  1.
          5    1    5    5  502    0  0.25427727239E+02 -0.10622534756E+03  0.29419209935E+02  0.11321649036E+03  0.47000000000E+01 0. -1.
         13    1    4    4    0    0 -0.11531897989E+02  0.75468499832E+02 -0.63447653680E+02  0.99267738443E+02  0.00000000000E+00 0. -1.
        -14    1    4    4    0    0  0.10357913466E+02 -0.62184220231E+01  0.18633295981E+02  0.22207090375E+02  0.00000000000E+00 0.  1.
         -5    1    3    3    0  504  0.47198204387E+02  0.10622071630E+03 -0.18382544495E+03  0.21754170928E+03  0.47000000000E+01 0.  1.
<mgrwt>
<rscale>  2 0.24922864E+03</rscale>
<asrwt>0</asrwt>
<pdfrwt beam="1">  1       21 0.27083511E-01 0.25031191E+03</pdfrwt>
<pdfrwt beam="2">  1       21 0.62925968E-01 0.25031191E+03</pdfrwt>
<totfact> 0.29509486E+04</totfact>
</mgrwt>
</event>
<event>
12    1  0.1410528E-001  0.2170878E+03  0.7546771E-02  0.1136146E+00
         21   -1    0    0  502  503  0.00000000000E+00  0.00000000000E+00  0.17662124535E+03  0.17662124535E+03  0.00000000000E+00 0. -1.
         21   -1    0    0  503  504 -0.00000000000E+00 -0.00000000000E+00 -0.27497873246E+03  0.27497873246E+03  0.00000000000E+00 0.  1.
         -6    2    1    2    0  504  0.10561839458E+03  0.76609650218E+02 -0.89125840351E+02  0.23431595008E+03  0.17302099660E+03 0.  0.
        -24    2    3    3    0    0 -0.11835360037E+02  0.51144081333E+02 -0.33647364693E+02  0.10186282277E+03  0.80548722586E+02 0.  0.
          6    2    1    2  502    0 -0.10561839458E+03 -0.76609650218E+02 -0.92316467570E+01  0.21728402772E+03  0.17350170495E+03 0.  0.
         24    2    5    5    0    0 -0.85052629757E+02  0.18689422572E+02 -0.19954781379E+01  0.11941004705E+03  0.81679453094E+02 0.  0.
          4    1    6    6  501    0 -0.54610762994E+02  0.44016022205E+02  0.21503153750E+02  0.73363010208E+02  0.00000000000E+00 0. -1.
         -3    1    6    6    0  501 -0.30441866762E+02 -0.25326599632E+02 -0.23498631888E+02  0.46047036837E+02  0.00000000000E+00 0.  1.
          5    1    5    5  502    0 -0.20565764825E+02 -0.95299072790E+02 -0.72361686191E+01  0.97873980678E+02  0.47000000000E+01 0. -1.
         11    1    4    4    0    0  0.22443949365E+02  0.12422471189E+02  0.15951440786E+02  0.30207567209E+02  0.00000000000E+00 0. -1.
        -12    1    4    4    0    0 -0.34279309402E+02  0.38721610144E+02 -0.49598805479E+02  0.71655255566E+02  0.00000000000E+00 0.  1.
         -5    1    3    3    0  504  0.11745375462E+03  0.25465568885E+02 -0.55478475657E+02  0.13245312731E+03  0.47000000000E+01 0.  1.
<mgrwt>
<rscale>  2 0.21699176E+03</rscale>
<asrwt>0</asrwt>
<pdfrwt beam="1">  1       21 0.27172499E-01 0.21708783E+03</pdfrwt>
<pdfrwt beam="2">  1       21 0.42304420E-01 0.21708783E+03</pdfrwt>
<totfact> 0.68672116E+04</totfact>
</mgrwt>
</event>
<event>
12    1  0.1410528E-001  0.2072918E+03  0.7546771E-02  0.1144238E+00
         21   -1    0    0  502  503  0.00000000000E+00  0.00000000000E+00  0.16443122531E+03  0.16443122531E+03  0.00000000000E+00 0. -1.
         21   -1    0    0  503  504 -0.00000000000E+00 -0.00000000000E+00 -0.40297552261E+03  0.40297552261E+03  0.00000000000E+00 0.  1.
         -6    2    1    2    0  504  0.86419038006E+02  0.66393929989E+02 -0.28980608656E+03  0.35631092548E+03  0.17633350145E+03 0.  0.
        -24    2    3    3    0    0  0.11504168882E+03  0.93604939801E+02 -0.24380403705E+03  0.29549995809E+03  0.76702945383E+02 0.  0.
          6    2    1    2  502    0 -0.86419038006E+02 -0.66393929989E+02  0.51261789272E+02  0.21109582245E+03  0.17337032948E+03 0.  0.
         24    2    5    5    0    0 -0.12081107656E+03 -0.32650489893E+02  0.62088167148E+02  0.16149005138E+03  0.81010650437E+02 0.  0.
          4    1    6    6  501    0 -0.11366057994E+03 -0.57988344468E+01  0.27428990128E+02  0.11706708937E+03  0.00000000000E+00 0. -1.
         -3    1    6    6    0  501 -0.71504966198E+01 -0.26851655447E+02  0.34659177020E+02  0.44422962011E+02  0.00000000000E+00 0.  1.
          5    1    5    5  502    0  0.34392038554E+02 -0.33743440096E+02 -0.10826377876E+02  0.49605771068E+02  0.47000000000E+01 0. -1.
         13    1    4    4    0    0  0.80401711055E+02  0.27347281846E+02 -0.85921024443E+02  0.12080865617E+03  0.00000000000E+00 0. -1.
        -14    1    4    4    0    0  0.34639977762E+02  0.66257657955E+02 -0.15788301260E+03  0.17469130192E+03  0.00000000000E+00 0.  1.
         -5    1    3    3    0  504 -0.28622650811E+02 -0.27211009811E+02 -0.46002049519E+02  0.60810967385E+02  0.47000000000E+01 0.  1.
<mgrwt>
<rscale>  2 0.20666029E+03</rscale>
<asrwt>0</asrwt>
<pdfrwt beam="1">  1       21 0.25297112E-01 0.20729184E+03</pdfrwt>
<pdfrwt beam="2">  1       21 0.61996234E-01 0.20729184E+03</pdfrwt>
<totfact> 0.35484941E+04</totfact>
</mgrwt>
</event>
<event>
12    1  0.1410528E-001  0.1960276E+03  0.7546771E-02  0.1154101E+00
         21   -1    0    0  502  503  0.00000000000E+00  0.00000000000E+00  0.13245059909E+03  0.13245059909E+03  0.00000000000E+00 0. -1.
         21   -1    0    0  503  504 -0.00000000000E+00 -0.00000000000E+00 -0.29840027289E+03  0.29840027289E+03  0.00000000000E+00 0. -1.
         -6    2    1    2    0  504 -0.53897237337E+02  0.63520899323E+02 -0.34159212888E+02  0.19464008470E+03  0.17256330404E+03 0.  0.
        -24    2    3    3    0    0  0.47305013559E+00  0.89383805151E+02  0.97232191779E+01  0.11998905723E+03  0.79455298528E+02 0.  0.
          6    2    1    2  502    0  0.53897237337E+02 -0.63520899323E+02 -0.13179046090E+03  0.23621078729E+03  0.17744574833E+03 0.  0.
         24    2    5    5    0    0 -0.71165037091E+01  0.14114576292E+02 -0.19220077878E+02  0.86397153710E+02  0.82735668769E+02 0.  0.
          4    1    6    6  501    0  0.21362521645E+02  0.25885870481E+02  0.17992937619E+02  0.38081247692E+02  0.00000000000E+00 0. -1.
         -3    1    6    6    0  501 -0.28479025355E+02 -0.11771294189E+02 -0.37213015497E+02  0.48315906018E+02  0.00000000000E+00 0.  1.
          5    1    5    5  502    0  0.61013741046E+02 -0.77635475615E+02 -0.11257038303E+03  0.14981363358E+03  0.47000000000E+01 0. -1.
         13    1    4    4    0    0 -0.38838431195E+02  0.54680901601E+02  0.31888257221E+01  0.67146059803E+02  0.00000000000E+00 0. -1.
        -14    1    4    4    0    0  0.39311481331E+02  0.34702903550E+02  0.65343934558E+01  0.52842997427E+02  0.00000000000E+00 0.  1.
         -5    1    3    3    0  504 -0.54370287472E+02 -0.25862905828E+02 -0.43882432066E+02  0.74651027465E+02  0.47000000000E+01 0.  1.
<mgrwt>
<rscale>  2 0.19491606E+03</rscale>
<asrwt>0</asrwt>
<pdfrwt beam="1">  1       21 0.20377015E-01 0.19602758E+03</pdfrwt>
<pdfrwt beam="2">  1       21 0.45907734E-01 0.19602758E+03</pdfrwt>
<totfact> 0.10124503E+05</totfact>
</mgrwt>
</event>
<event>
12    1  0.1410528E-001  0.2089684E+03  0.7546771E-02  0.1143826E+00
         21   -1    0    0  502  503  0.00000000000E+00  0.00000000000E+00  0.17191215125E+04  0.17191215125E+04  0.00000000000E+00 0.  1.
         21   -1    0    0  503  504 -0.00000000000E+00 -0.00000000000E+00 -0.24777661322E+02  0.24777661322E+02  0.00000000000E+00 0.  1.
         -6    2    1    2    0  504 -0.94003527054E+02  0.69296405099E+02  0.94600114288E+03  0.96880645393E+03  0.17328914558E+03 0.  0.
        -24    2    3    3    0    0 -0.41809885066E+02 -0.25746434359E+02  0.53117045066E+03  0.54001290126E+03  0.84029402616E+02 0.  0.
          6    2    1    2  502    0  0.94003527054E+02 -0.69296405099E+02  0.74834270833E+03  0.77509271993E+03  0.16466104737E+03 0.  0.
         24    2    5    5    0    0  0.62932849990E+02 -0.10434272272E+02  0.64805646694E+03  0.65463709380E+03  0.67105309717E+02 0.  0.
          2    1    6    6  501    0  0.15976445846E+02 -0.21463831567E+02  0.44988625140E+03  0.45068124222E+03  0.00000000000E+00 0. -1.
         -1    1    6    6    0  501  0.46956404144E+02  0.11029559295E+02  0.19817021554E+03  0.20395585158E+03  0.00000000000E+00 0.  1.
          5    1    5    5  502    0  0.31070677064E+02 -0.58862132827E+02  0.10028624139E+03  0.12045562613E+03  0.47000000000E+01 0. -1.
         11    1    4    4    0    0 -0.33900910888E+01  0.11122438605E+02  0.37180724445E+03  0.37198901648E+03  0.00000000000E+00 0. -1.
        -12    1    4    4    0    0 -0.38419793978E+02 -0.36868872964E+02  0.15936320621E+03  0.16802388478E+03  0.00000000000E+00 0.  1.
         -5    1    3    3    0  504 -0.52193641987E+02  0.95042839458E+02  0.41483069222E+03  0.42879355267E+03  0.47000000000E+01 0.  1.
<mgrwt>
<rscale>  2 0.20717099E+03</rscale>
<asrwt>0</asrwt>
<pdfrwt beam="1">  1       21 0.26448014E+00 0.20896838E+03</pdfrwt>
<pdfrwt beam="2">  1       21 0.38119492E-02 0.20896838E+03</pdfrwt>
<totfact> 0.22916549E+04</totfact>
</mgrwt>
</event>
<event>
12    1  0.1410528E-001  0.1853086E+03  0.7546771E-02  0.1162968E+00
         21   -1    0    0  502  503  0.00000000000E+00  0.00000000000E+00  0.21167533516E+03  0.21167533516E+03  0.00000000000E+00 0. -1.
         21   -1    0    0  503  504 -0.00000000000E+00 -0.00000000000E+00 -0.19143589702E+03  0.19143589702E+03  0.00000000000E+00 0. -1.
         -6    2    1    2    0  504  0.42253000853E+02 -0.54313430991E+02 -0.69624356952E+02  0.19795661724E+03  0.17205814820E+03 0.  0.
        -24    2    3    3    0    0 -0.29165944265E+02  0.58723934794E+01 -0.10243953300E+02  0.87181522900E+02  0.81305239966E+02 0.  0.
          6    2    1    2  502    0 -0.42253000853E+02  0.54313430991E+02  0.89863795098E+02  0.20515461494E+03  0.17110712870E+03 0.  0.
         24    2    5    5    0    0  0.42531696378E+02  0.24274402456E+02  0.49389499929E+02  0.10640722667E+03  0.80529394464E+02 0.  0.
          4    1    6    6  501    0  0.10702063279E+02 -0.14327165871E+02  0.53302486037E+02  0.56222387516E+02  0.00000000000E+00 0. -1.
         -3    1    6    6    0  501  0.31829633099E+02  0.38601568327E+02 -0.39129861075E+01  0.50184839153E+02  0.00000000000E+00 0.  1.
          5    1    5    5  502    0 -0.84784697232E+02  0.30039028535E+02  0.40474295169E+02  0.98747388266E+02  0.47000000000E+01 0. -1.
         11    1    4    4    0    0 -0.47773797522E+02  0.22504882159E+02 -0.24742489484E+02  0.58318060980E+02  0.00000000000E+00 0. -1.
        -12    1    4    4    0    0  0.18607853257E+02 -0.16632488680E+02  0.14498536184E+02  0.28863461919E+02  0.00000000000E+00 0.  1.
         -5    1    3    3    0  504  0.71418945118E+02 -0.60185824471E+02 -0.59380403652E+02  0.11077509434E+03  0.47000000000E+01 0.  1.
<mgrwt>
<rscale>  2 0.18508752E+03</rscale>
<asrwt>0</asrwt>
<pdfrwt beam="1">  1       21 0.32565436E-01 0.18530858E+03</pdfrwt>
<pdfrwt beam="2">  1       21 0.29451676E-01 0.18530858E+03</pdfrwt>
<totfact> 0.10050965E+05</totfact>
</mgrwt>
</event>
<event>
12    1  0.1410528E-001  0.2341886E+03  0.7546771E-02  0.1123778E+00
         21   -1    0    0  502  503  0.00000000000E+00  0.00000000000E+00  0.87323458060E+02  0.87323458060E+02  0.00000000000E+00 0. -1.
         21   -1    0    0  503  504 -0.00000000000E+00 -0.00000000000E+00 -0.77299384443E+03  0.77299384443E+03  0.00000000000E+00 0.  1.
         -6    2    1    2    0  504 -0.13529090223E+03  0.80930419527E+02 -0.52944085786E+03  0.57880005295E+03  0.17276723732E+03 0.  0.
        -24    2    3    3    0    0 -0.56657761526E+02  0.66330362222E+02 -0.45225035796E+03  0.46754900457E+03  0.80385735735E+02 0.  0.
          6    2    1    2  502    0  0.13529090223E+03 -0.80930419527E+02 -0.15622952852E+03  0.28151724955E+03  0.17317891091E+03 0.  0.
         24    2    5    5    0    0  0.93166539032E+01 -0.63099132355E+02 -0.40446220312E+02  0.10942619661E+03  0.79182669967E+02 0.  0.
          4    1    6    6  501    0 -0.19307253966E+02  0.78273949954E+01 -0.22892095331E+02  0.30952967496E+02  0.00000000000E+00 0. -1.
         -3    1    6    6    0  501  0.28623907869E+02 -0.70926527351E+02 -0.17554124980E+02  0.78473229114E+02  0.00000000000E+00 0.  1.
          5    1    5    5  502    0  0.12597424832E+03 -0.17831287171E+02 -0.11578330821E+03  0.17209105294E+03  0.47000000000E+01 0. -1.
         13    1    4    4    0    0 -0.66684610132E+02  0.27006357568E+02 -0.21149297102E+03  0.22339529397E+03  0.00000000000E+00 0. -1.
        -14    1    4    4    0    0  0.10026848606E+02  0.39324004654E+02 -0.24075738694E+03  0.24415371060E+03  0.00000000000E+00 0.  1.
         -5    1    3    3    0  504 -0.78633140699E+02  0.14600057305E+02 -0.77190499896E+02  0.11125104837E+03  0.47000000000E+01 0.  1.
<mgrwt>
<rscale>  2 0.23411249E+03</rscale>
<asrwt>0</asrwt>
<pdfrwt beam="1">  1       21 0.13434378E-01 0.23418859E+03</pdfrwt>
<pdfrwt beam="2">  1       21 0.11892213E+00 0.23418859E+03</pdfrwt>
<totfact> 0.25261573E+04</totfact>
</mgrwt>
</event>
<event>
12    1  0.1410528E-001  0.2902652E+03  0.7546771E-02  0.1090286E+00
         21   -1    0    0  502  503  0.00000000000E+00  0.00000000000E+00  0.93395135218E+02  0.93395135218E+02  0.00000000000E+00 0. -1.
         21   -1    0    0  503  504 -0.00000000000E+00 -0.00000000000E+00 -0.90327756762E+03  0.90327756762E+03  0.00000000000E+00 0.  1.
         -6    2    1    2    0  504  0.62365214837E+01 -0.23240927889E+03 -0.43299524852E+03  0.52096501163E+03  0.17281982232E+03 0.  0.
        -24    2    3    3    0    0  0.67786576686E+02 -0.13007087615E+03 -0.21420477079E+03  0.27166013579E+03  0.80013078615E+02 0.  0.
          6    2    1    2  502    0 -0.62365214837E+01  0.23240927889E+03 -0.37688718388E+03  0.47570769121E+03  0.17378403547E+03 0.  0.
         24    2    5    5    0    0 -0.38927384980E+02  0.20527862254E+03 -0.22195404966E+03  0.31498702934E+03  0.79363557887E+02 0.  0.
          2    1    6    6  501    0 -0.45033927649E+02  0.85021948931E+02 -0.60787370081E+02  0.11380637417E+03  0.00000000000E+00 0. -1.
         -1    1    6    6    0  501  0.61065426689E+01  0.12025667361E+03 -0.16116667958E+03  0.20118065517E+03  0.00000000000E+00 0.  1.
          5    1    5    5  502    0  0.32690863497E+02  0.27130656352E+02 -0.15493313423E+03  0.16072066187E+03  0.47000000000E+01 0. -1.
         13    1    4    4    0    0  0.76815291857E+02 -0.10477488084E+03 -0.20605501306E+03  0.24359193978E+03  0.00000000000E+00 0. -1.
        -14    1    4    4    0    0 -0.90287151717E+01 -0.25295995308E+02 -0.81497577248E+01  0.28068196010E+02  0.00000000000E+00 0.  1.
         -5    1    3    3    0  504 -0.61550055202E+02 -0.10233840274E+03 -0.21879047773E+03  0.24930487584E+03  0.47000000000E+01 0.  1.
<mgrwt>
<rscale>  2 0.29012098E+03</rscale>
<asrwt>0</asrwt>
<pdfrwt beam="1">  1       21 0.14368482E-01 0.29026515E+03</pdfrwt>
<pdfrwt beam="2">  1       21 0.13896578E+00 0.29026515E+03</pdfrwt>
<totfact> 0.14618776E+04</totfact>
</mgrwt>
</event>
<event>
12    1  0.1410528E-001  0.2366156E+03  0.7546771E-02  0.1122161E+00
         21   -1    0    0  502  503  0.00000000000E+00  0.00000000000E+00  0.41731355150E+03  0.41731355150E+03  0.00000000000E+00 0.  1.
         21   -1    0    0  503  504 -0.00000000000E+00 -0.00000000000E+00 -0.38342794432E+03  0.38342794432E+03  0.00000000000E+00 0.  1.
         -6    2    1    2    0  504 -0.13962486569E+03  0.79720147145E+02 -0.30608024819E+03  0.38653897224E+03  0.17284922259E+03 0.  0.
        -24    2    3    3    0    0 -0.69984215193E+02  0.70417942902E+02 -0.28576903760E+03  0.31325195783E+03  0.81279574148E+02 0.  0.
          6    2    1    2  502    0  0.13962486569E+03 -0.79720147145E+02  0.33996585537E+03  0.41420252357E+03  0.17359879820E+03 0.  0.
         24    2    5    5    0    0  0.90302553278E+02 -0.18059149914E+02  0.87743517777E+02  0.14986757193E+03  0.79250742455E+02 0.  0.
          4    1    6    6  501    0  0.60797565544E+02 -0.44959709829E+02  0.33980077798E+02  0.82899729621E+02  0.00000000000E+00 0. -1.
         -3    1    6    6    0  501  0.29504987734E+02  0.26900559916E+02  0.53763439979E+02  0.66967842308E+02  0.00000000000E+00 0.  1.
          5    1    5    5  502    0  0.49322312415E+02 -0.61660997231E+02  0.25222233759E+03  0.26433495164E+03  0.47000000000E+01 0. -1.
         13    1    4    4    0    0 -0.62734393084E+02  0.53160455441E+02 -0.11452543246E+03  0.14098834270E+03  0.00000000000E+00 0. -1.
        -14    1    4    4    0    0 -0.72498221088E+01  0.17257487460E+02 -0.17124360515E+03  0.17226361513E+03  0.00000000000E+00 0.  1.
         -5    1    3    3    0  504 -0.69640650501E+02  0.93022042433E+01 -0.20311210586E+02  0.73287014412E+02  0.47000000000E+01 0.  1.
<mgrwt>
<rscale>  2 0.23647814E+03</rscale>
<asrwt>0</asrwt>
<pdfrwt beam="1">  1       21 0.64202085E-01 0.23661561E+03</pdfrwt>
<pdfrwt beam="2">  1       21 0.58988915E-01 0.23661561E+03</pdfrwt>
<totfact> 0.58325992E+03</totfact>
</mgrwt>
</event>
<event>
12    1  0.1410528E-001  0.1941896E+03  0.7546771E-02  0.1155501E+00
         21   -1    0    0  502  503  0.00000000000E+00  0.00000000000E+00  0.28129386806E+03  0.28129386806E+03  0.00000000000E+00 0. -1.
         21   -1    0    0  503  504 -0.00000000000E+00 -0.00000000000E+00 -0.26437361209E+03  0.26437361209E+03  0.00000000000E+00 0. -1.
         -6    2    1    2    0  504  0.70512300895E+01 -0.81209252782E+02 -0.18478971444E+03  0.26806123202E+03  0.17625244101E+03 0.  0.
        -24    2    3    3    0    0  0.63257722416E+02 -0.73674064277E+02 -0.89790989983E+02  0.15732372033E+03  0.85199318682E+02 0.  0.
          6    2    1    2  502    0 -0.70512300895E+01  0.81209252782E+02  0.20170997042E+03  0.27760624814E+03  0.17243449265E+03 0.  0.
         24    2    5    5    0    0 -0.52733453366E+02  0.50231732537E+02  0.19449524198E+03  0.22174378677E+03  0.77703692060E+02 0.  0.
          2    1    6    6  501    0 -0.14609574434E+02  0.23674237034E+02  0.16359749628E+03  0.16594592479E+03  0.00000000000E+00 0. -1.
         -1    1    6    6    0  501 -0.38123878932E+02  0.26557495503E+02  0.30897745697E+02  0.55797861979E+02  0.00000000000E+00 0.  1.
          5    1    5    5  502    0  0.45682223276E+02  0.30977520245E+02  0.72147284391E+01  0.55862461371E+02  0.47000000000E+01 0. -1.
         11    1    4    4    0    0  0.10127024514E+02 -0.72493445328E+02 -0.35500835379E+02  0.81352108476E+02  0.00000000000E+00 0. -1.
        -12    1    4    4    0    0  0.53130697902E+02 -0.11806189498E+01 -0.54290154604E+02  0.75971611854E+02  0.00000000000E+00 0.  1.
         -5    1    3    3    0  504 -0.56206492327E+02 -0.75351885046E+01 -0.94998724459E+02  0.11073751169E+03  0.47000000000E+01 0.  1.
<mgrwt>
<rscale>  2 0.19331909E+03</rscale>
<asrwt>0</asrwt>
<pdfrwt beam="1">  1       21 0.43275980E-01 0.19418956E+03</pdfrwt>
<pdfrwt beam="2">  1       21 0.40672863E-01 0.19418956E+03</pdfrwt>
<totfact> 0.29871192E+04</totfact>
</mgrwt>
</event>
<event>
12    1  0.1410528E-001  0.2843666E+03  0.7546771E-02  0.1093710E+00
         21   -1    0    0  502  503  0.00000000000E+00  0.00000000000E+00  0.33778629521E+03  0.33778629521E+03  0.00000000000E+00 0.  1.
         21   -1    0    0  503  504 -0.00000000000E+00 -0.00000000000E+00 -0.27314275493E+03  0.27314275493E+03  0.00000000000E+00 0.  1.
         -6    2    1    2    0  504  0.12684910388E+03  0.18371834170E+03  0.14328340145E+03  0.31588903779E+03  0.17150109863E+03 0.  0.
        -24    2    3    3    0    0  0.12343271582E+03  0.61563311665E+02  0.66316000678E+02  0.17139130821E+03  0.77145913103E+02 0.  0.
          6    2    1    2  502    0 -0.12684910388E+03 -0.18371834170E+03 -0.78639861166E+02  0.29504001236E+03  0.17612852380E+03 0.  0.
         24    2    5    5    0    0 -0.95700894896E+02 -0.20353324758E+03 -0.41838566364E+02  0.24270200784E+03  0.81051556540E+02 0.  0.
          2    1    6    6  501    0  0.10874086360E+02 -0.31280634701E+02  0.80731470173E+01  0.34086647888E+02  0.00000000000E+00 0. -1.
         -1    1    6    6    0  501 -0.10657498126E+03 -0.17225261288E+03 -0.49911713381E+02  0.20861535995E+03  0.00000000000E+00 0.  1.
          5    1    5    5  502    0 -0.31148208987E+02  0.19814905883E+02 -0.36801294802E+02  0.52338004522E+02  0.47000000000E+01 0. -1.
         13    1    4    4    0    0  0.49240364198E+02  0.30228070091E+02  0.70004327428E+02  0.90768692546E+02  0.00000000000E+00 0. -1.
        -14    1    4    4    0    0  0.74192351617E+02  0.31335241574E+02 -0.36883267496E+01  0.80622615668E+02  0.00000000000E+00 0.  1.
         -5    1    3    3    0  504  0.34163880681E+01  0.12215503003E+03  0.76967400770E+02  0.14449772957E+03  0.47000000000E+01 0.  1.
<mgrwt>
<rscale>  2 0.28365329E+03</rscale>
<asrwt>0</asrwt>
<pdfrwt beam="1">  1       21 0.51967123E-01 0.28436663E+03</pdfrwt>
<pdfrwt beam="2">  1       21 0.42021962E-01 0.28436663E+03</pdfrwt>
<totfact> 0.18270650E+04</totfact>
</mgrwt>
</event>
<event>
12    1  0.1410528E-001  0.2033334E+03  0.7546771E-02  0.1146988E+00
         21   -1    0    0  502  503  0.00000000000E+00  0.00000000000E+00  0.17328019447E+04  0.17328019447E+04  0.00000000000E+00 0.  1.
         21   -1    0    0  503  504 -0.00000000000E+00 -0.00000000000E+00 -0.45781042453E+02  0.45781042453E+02  0.00000000000E+00 0.  1.
         -6    2    1    2    0  504 -0.10656118847E+03  0.15325953007E+02  0.22773403000E+03  0.30519823470E+03  0.17231657586E+03 0.  0.
        -24    2    3    3    0    0 -0.10049744757E+03 -0.43456343985E+02  0.11498266041E+03  0.17781264392E+03  0.80050817237E+02 0.  0.
          6    2    1    2  502    0  0.10656118847E+03 -0.15325953007E+02  0.14592868723E+04  0.14733847525E+04  0.17249429425E+03 0.  0.
         24    2    5    5    0    0  0.43049249792E+02 -0.40885928376E+02  0.41456969618E+03  0.42641620152E+03  0.80236194320E+02 0.  0.
          2    1    6    6  501    0  0.31314529654E+02 -0.65296198116E+02  0.28611769204E+03  0.29513984305E+03  0.00000000000E+00 0. -1.
         -1    1    6    6    0  501  0.11734720138E+02  0.24410269740E+02  0.12845200414E+03  0.13127635847E+03  0.00000000000E+00 0.  1.
          5    1    5    5  502    0  0.63511938677E+02  0.25559975369E+02  0.10447171761E+04  0.10469685510E+04  0.47000000000E+01 0. -1.
         11    1    4    4    0    0 -0.19668758216E+02 -0.10331865881E+02  0.81150760145E+02  0.84137110567E+02  0.00000000000E+00 0. -1.
        -12    1    4    4    0    0 -0.80828689357E+02 -0.33124478104E+02  0.33831900265E+02  0.93675533350E+02  0.00000000000E+00 0.  1.
         -5    1    3    3    0  504 -0.60637408962E+01  0.58782296992E+02  0.11275136959E+03  0.12738559078E+03  0.47000000000E+01 0.  1.
<mgrwt>
<rscale>  2 0.20329566E+03</rscale>
<asrwt>0</asrwt>
<pdfrwt beam="1">  1       21 0.26658486E+00 0.20333336E+03</pdfrwt>
<pdfrwt beam="2">  1       21 0.70432386E-02 0.20333336E+03</pdfrwt>
<totfact> 0.78780768E+03</totfact>
</mgrwt>
</event>
<event>
12    1  0.1410528E-001  0.2429526E+03  0.7546771E-02  0.1118406E+00
         21   -1    0    0  502  503  0.00000000000E+00  0.00000000000E+00  0.13798248946E+04  0.13798248946E+04  0.00000000000E+00 0. -1.
         21   -1    0    0  503  504 -0.00000000000E+00 -0.00000000000E+00 -0.96028119158E+02  0.96028119158E+02  0.00000000000E+00 0.  1.
         -6    2    1    2    0  504 -0.13486957898E+03  0.98162817106E+02  0.91307493222E+02  0.25954385040E+03  0.17663581168E+03 0.  0.
        -24    2    3    3    0    0 -0.13301855148E+03  0.16766104336E+02  0.82484639782E+02  0.17751468550E+03  0.82053095467E+02 0.  0.
          6    2    1    2  502    0  0.13486957898E+03 -0.98162817106E+02  0.11924892822E+04  0.12163091634E+04  0.17190564461E+03 0.  0.
         24    2    5    5    0    0  0.90938475276E+02 -0.12726211064E+03  0.71798391203E+03  0.73886372448E+03  0.77157334934E+02 0.  0.
          4    1    6    6  501    0  0.45247100060E+02 -0.11556340872E+03  0.57712569413E+03  0.59031878534E+03  0.00000000000E+00 0. -1.
         -3    1    6    6    0  501  0.45691375216E+02 -0.11698701923E+02  0.14085821789E+03  0.14854493914E+03  0.00000000000E+00 0.  1.
          5    1    5    5  502    0  0.43931103705E+02  0.29099293534E+02  0.47450537019E+03  0.47744543887E+03  0.47000000000E+01 0. -1.
         11    1    4    4    0    0 -0.10218985109E+03  0.33137511481E+02  0.91886377995E+02  0.14136465893E+03  0.00000000000E+00 0. -1.
        -12    1    4    4    0    0 -0.30828700387E+02 -0.16371407145E+02 -0.94017382135E+01  0.36150026569E+02  0.00000000000E+00 0.  1.
         -5    1    3    3    0  504 -0.18510275040E+01  0.81396712770E+02  0.88228534397E+01  0.82029164908E+02  0.47000000000E+01 0.  1.
<mgrwt>
<rscale>  2 0.24209378E+03</rscale>
<asrwt>0</asrwt>
<pdfrwt beam="1">  1       21 0.21228074E+00 0.24295257E+03</pdfrwt>
<pdfrwt beam="2">  1       21 0.14773558E-01 0.24295257E+03</pdfrwt>
<totfact> 0.43327140E+03</totfact>
</mgrwt>
</event>
<event>
12    1  0.1410528E-001  0.2292224E+03  0.7546771E-02  0.1128393E+00
         21   -1    0    0  502  503  0.00000000000E+00  0.00000000000E+00  0.91205789891E+02  0.91205789891E+02  0.00000000000E+00 0.  1.
         21   -1    0    0  503  504 -0.00000000000E+00 -0.00000000000E+00 -0.80492318279E+03  0.80492318279E+03  0.00000000000E+00 0.  1.
         -6    2    1    2    0  504  0.14589529604E+03 -0.39062449480E+02 -0.60064232115E+03  0.64053378142E+03  0.16340445161E+03 0.  0.
        -24    2    3    3    0    0  0.11359247270E+03 -0.43902652092E+02 -0.25762712240E+03  0.29593486016E+03  0.79843688194E+02 0.  0.
          6    2    1    2  502    0 -0.14589529604E+03  0.39062449480E+02 -0.11307507175E+03  0.25559519127E+03  0.17242858690E+03 0.  0.
         24    2    5    5    0    0 -0.12106429699E+03 -0.36342262206E+02 -0.70004075078E+02  0.16515377480E+03  0.79986716246E+02 0.  0.
          4    1    6    6  501    0  0.11657093202E+01 -0.89383999942E+01 -0.33481545664E+02  0.34673733182E+02  0.00000000000E+00 0. -1.
         -3    1    6    6    0  501 -0.12223000631E+03 -0.27403862212E+02 -0.36522529414E+02  0.13048004162E+03  0.00000000000E+00 0.  1.
          5    1    5    5  502    0 -0.24830999057E+02  0.75404711685E+02 -0.43070996667E+02  0.90441416467E+02  0.47000000000E+01 0. -1.
         13    1    4    4    0    0  0.19407972197E+02  0.17594610509E+02 -0.92485944999E+02  0.96124345127E+02  0.00000000000E+00 0. -1.
        -14    1    4    4    0    0  0.94184500508E+02 -0.61497262601E+02 -0.16514117741E+03  0.19981051503E+03  0.00000000000E+00 0.  1.
         -5    1    3    3    0  504  0.32302823338E+02  0.48402026123E+01 -0.34301519875E+03  0.34459892125E+03  0.47000000000E+01 0.  1.
<mgrwt>
<rscale>  2 0.22752652E+03</rscale>
<asrwt>0</asrwt>
<pdfrwt beam="1">  1       21 0.14031660E-01 0.22922245E+03</pdfrwt>
<pdfrwt beam="2">  1       21 0.12383433E+00 0.22922245E+03</pdfrwt>
<totfact> 0.21151554E+04</totfact>
</mgrwt>
</event>
<event>
12    1  0.1410528E-001  0.2280423E+03  0.7546771E-02  0.1128241E+00
         21   -1    0    0  502  503  0.00000000000E+00  0.00000000000E+00  0.33402665438E+03  0.33402665438E+03  0.00000000000E+00 0.  1.
         21   -1    0    0  503  504 -0.00000000000E+00 -0.00000000000E+00 -0.17640926848E+03  0.17640926848E+03  0.00000000000E+00 0.  1.
         -6    2    1    2    0  504 -0.33915059609E+02  0.14478751209E+03 -0.10572743594E+02  0.22707891461E+03  0.17128746489E+03 0.  0.
        -24    2    3    3    0    0 -0.13026876871E+02  0.39171417554E+02  0.50877050776E+02  0.10302552759E+03  0.79509028196E+02 0.  0.
          6    2    1    2  502    0  0.33915059609E+02 -0.14478751209E+03  0.16819012950E+03  0.28335700825E+03  0.17288614617E+03 0.  0.
         24    2    5    5    0    0  0.33089696961E+01 -0.84446058347E+02  0.17923790267E+03  0.21464043767E+03  0.82475485326E+02 0.  0.
          2    1    6    6  501    0  0.15022101808E+02  0.73579899673E+01  0.67553126004E+02  0.69593307091E+02  0.00000000000E+00 0. -1.
         -1    1    6    6    0  501 -0.11713132111E+02 -0.91804048314E+02  0.11168477667E+03  0.14504713058E+03  0.00000000000E+00 0.  1.
          5    1    5    5  502    0  0.30606089913E+02 -0.60341453745E+02 -0.11047773173E+02  0.68716570577E+02  0.47000000000E+01 0. -1.
         11    1    4    4    0    0  0.18410123981E+02  0.38708701759E+02  0.56671115060E+02  0.71055693220E+02  0.00000000000E+00 0. -1.
        -12    1    4    4    0    0 -0.31437000852E+02  0.46271579442E+00 -0.57940642836E+01  0.31969834366E+02  0.00000000000E+00 0.  1.
         -5    1    3    3    0  504 -0.20888182738E+02  0.10561609454E+03 -0.61449794370E+02  0.12405338702E+03  0.47000000000E+01 0.  1.
<mgrwt>
<rscale>  2 0.22773926E+03</rscale>
<asrwt>0</asrwt>
<pdfrwt beam="1">  1       21 0.51388716E-01 0.22804226E+03</pdfrwt>
<pdfrwt beam="2">  1       21 0.27139888E-01 0.22804226E+03</pdfrwt>
<totfact> 0.45784215E+04</totfact>
</mgrwt>
</event>
<event>
12    1  0.1410528E-001  0.2352100E+03  0.7546771E-02  0.1123301E+00
         21   -1    0    0  502  503  0.00000000000E+00  0.00000000000E+00  0.55778273356E+03  0.55778273356E+03  0.00000000000E+00 0. -1.
         21   -1    0    0  503  504 -0.00000000000E+00 -0.00000000000E+00 -0.11122358219E+03  0.11122358219E+03  0.00000000000E+00 0. -1.
         -6    2    1    2    0  504 -0.10646151579E+03 -0.11872010691E+03  0.33704785512E+03  0.41100489209E+03  0.17290241917E+03 0.  0.
        -24    2    3    3    0    0 -0.81523211358E+02 -0.11724330398E+03  0.34740100794E+03  0.38355716454E+03  0.77695635854E+02 0.  0.
          6    2    1    2  502    0  0.10646151579E+03  0.11872010691E+03  0.10951129625E+03  0.25800142366E+03  0.17071465219E+03 0.  0.
         24    2    5    5    0    0  0.81608552867E+02  0.14830947620E+03  0.11344944599E+03  0.21887598994E+03  0.79876564430E+02 0.  0.
          2    1    6    6  501    0 -0.72782417405E+01  0.61505340293E+02  0.27272858911E+02  0.67673395959E+02  0.00000000000E+00 0. -1.
         -1    1    6    6    0  501  0.88886794607E+02  0.86804135903E+02  0.86176587075E+02  0.15120259398E+03  0.00000000000E+00 0.  1.
          5    1    5    5  502    0  0.24852962922E+02 -0.29589369284E+02 -0.39381497321E+01  0.39125433722E+02  0.47000000000E+01 0. -1.
         11    1    4    4    0    0 -0.64872273258E+02 -0.26160689678E+02  0.14596920201E+03  0.16186352726E+03  0.00000000000E+00 0. -1.
        -12    1    4    4    0    0 -0.16650938100E+02 -0.91082614303E+02  0.20143180593E+03  0.22169363727E+03  0.00000000000E+00 0.  1.
         -5    1    3    3    0  504 -0.24938304430E+02 -0.14768029302E+01 -0.10353152819E+02  0.27447727557E+02  0.47000000000E+01 0.  1.
<mgrwt>
<rscale>  2 0.23480814E+03</rscale>
<asrwt>0</asrwt>
<pdfrwt beam="1">  1       21 0.85812726E-01 0.23521004E+03</pdfrwt>
<pdfrwt beam="2">  1       21 0.17111321E-01 0.23521004E+03</pdfrwt>
<totfact> 0.35361474E+04</totfact>
</mgrwt>
</event>
<event>
12    1  0.1410528E-001  0.1770633E+03  0.7546771E-02  0.1170728E+00
         21   -1    0    0  502  503  0.00000000000E+00  0.00000000000E+00  0.19954028522E+02  0.19954028522E+02  0.00000000000E+00 0.  1.
         21   -1    0    0  503  504 -0.00000000000E+00 -0.00000000000E+00 -0.15978751992E+04  0.15978751992E+04  0.00000000000E+00 0.  1.
         -6    2    1    2    0  504 -0.42141918800E+02 -0.78393614628E+01 -0.89666645648E+03  0.91394044741E+03  0.17157800072E+03 0.  0.
        -24    2    3    3    0    0  0.71692757249E+01  0.15767998869E+02 -0.78811091159E+03  0.79230452470E+03  0.79546354998E+02 0.  0.
          6    2    1    2  502    0  0.42141918800E+02  0.78393614628E+01 -0.68125471420E+03  0.70388878031E+03  0.17179648576E+03 0.  0.
         24    2    5    5    0    0  0.61770083133E+02 -0.51176139659E+02 -0.48658029928E+03  0.49946688317E+03  0.79197470232E+02 0.  0.
          2    1    6    6  501    0  0.34581997301E+02 -0.44046771480E+02 -0.12710752459E+03  0.13889692374E+03  0.00000000000E+00 0. -1.
         -1    1    6    6    0  501  0.27188085832E+02 -0.71293681789E+01 -0.35947277469E+03  0.36056995943E+03  0.00000000000E+00 0.  1.
          5    1    5    5  502    0 -0.19628164333E+02  0.59015501122E+02 -0.19467441492E+03  0.20442189714E+03  0.47000000000E+01 0. -1.
         11    1    4    4    0    0 -0.22138355606E+02  0.24603069252E+02 -0.65000041264E+03  0.65084249572E+03  0.00000000000E+00 0. -1.
        -12    1    4    4    0    0  0.29307631331E+02 -0.88350703829E+01 -0.13811049894E+03  0.14146202897E+03  0.00000000000E+00 0.  1.
         -5    1    3    3    0  504 -0.49311194525E+02 -0.23607360332E+02 -0.10855554489E+03  0.12163592271E+03  0.47000000000E+01 0.  1.
<mgrwt>
<rscale>  2 0.17701033E+03</rscale>
<asrwt>0</asrwt>
<pdfrwt beam="1">  1       21 0.30698506E-02 0.17706335E+03</pdfrwt>
<pdfrwt beam="2">  1       21 0.24582695E+00 0.17706335E+03</pdfrwt>
<totfact> 0.43394629E+04</totfact>
</mgrwt>
</event>
<event>
12    1  0.1410528E-001  0.2805205E+03  0.7546771E-02  0.1095605E+00
         21   -1    0    0  502  503  0.00000000000E+00  0.00000000000E+00  0.24847556645E+03  0.24847556645E+03  0.00000000000E+00 0.  1.
         21   -1    0    0  503  504 -0.00000000000E+00 -0.00000000000E+00 -0.46054530270E+03  0.46054530270E+03  0.00000000000E+00 0. -1.
         -6    2    1    2    0  504 -0.15746549658E+03  0.14672903505E+03 -0.30510683969E+03  0.41347449798E+03  0.17761245595E+03 0.  0.
        -24    2    3    3    0    0 -0.17084854555E+03  0.12542690473E+03 -0.19116717912E+03  0.29669597680E+03  0.81009124977E+02 0.  0.
          6    2    1    2  502    0  0.15746549658E+03 -0.14672903505E+03  0.93037103440E+02  0.29554637117E+03  0.17990820592E+03 0.  0.
         24    2    5    5    0    0  0.11007238596E+02 -0.29169969053E+02  0.13495561789E+01  0.86503668233E+02  0.80678478666E+02 0.  0.
          2    1    6    6  501    0 -0.20333568834E+02 -0.61922819071E+01  0.31024646861E+02  0.37607540329E+02  0.00000000000E+00 0. -1.
         -1    1    6    6    0  501  0.31340807430E+02 -0.22977687146E+02 -0.29675090683E+02  0.48896127904E+02  0.00000000000E+00 0.  1.
          5    1    5    5  502    0  0.14645825799E+03 -0.11755906599E+03  0.91687547261E+02  0.20904270294E+03  0.47000000000E+01 0. -1.
         13    1    4    4    0    0 -0.14494130451E+03  0.10217281413E+03 -0.19266208494E+03  0.26185099708E+03  0.00000000000E+00 0. -1.
        -14    1    4    4    0    0 -0.25907241046E+02  0.23254090603E+02  0.14949058182E+01  0.34844979722E+02  0.00000000000E+00 0.  1.
         -5    1    3    3    0  504  0.13383048969E+02  0.21302130313E+02 -0.11393966057E+03  0.11677852117E+03  0.47000000000E+01 0.  1.
<mgrwt>
<rscale>  2 0.28015309E+03</rscale>
<asrwt>0</asrwt>
<pdfrwt beam="1">  1       21 0.38227010E-01 0.28052051E+03</pdfrwt>
<pdfrwt beam="2">  1       21 0.70853123E-01 0.28052051E+03</pdfrwt>
<totfact> 0.11319816E+04</totfact>
</mgrwt>
</event>
<event>
12    1  0.1410528E-001  0.1953787E+03  0.7546771E-02  0.1153728E+00
         21   -1    0    0  502  503  0.00000000000E+00  0.00000000000E+00  0.48655593855E+02  0.48655593855E+02  0.00000000000E+00 0. -1.
         21   -1    0    0  503  504 -0.00000000000E+00 -0.00000000000E+00 -0.15087670106E+04  0.15087670106E+04  0.00000000000E+00 0. -1.
         -6    2    1    2    0  504 -0.80233356010E+02 -0.42937665168E+02 -0.12699141639E+04  0.12848559457E+04  0.17289240295E+03 0.  0.
        -24    2    3    3    0    0 -0.12260735951E+01  0.24137065380E+02 -0.40446514394E+03  0.41321079639E+03  0.81037080451E+02 0.  0.
          6    2    1    2  502    0  0.80233356010E+02  0.42937665168E+02 -0.19019725283E+03  0.27256665875E+03  0.17273260830E+03 0.  0.
         24    2    5    5    0    0  0.14015414509E+02  0.25849821727E+02 -0.18581268696E+03  0.20387805279E+03  0.78582826685E+02 0.  0.
          4    1    6    6  501    0 -0.10944147014E+02 -0.15297098339E+02 -0.94157737485E+01  0.21034076323E+02  0.00000000000E+00 0. -1.
         -3    1    6    6    0  501  0.24959561523E+02  0.41146920067E+02 -0.17639691321E+03  0.18284397647E+03  0.00000000000E+00 0.  1.
          5    1    5    5  502    0  0.66217941502E+02  0.17087843441E+02 -0.43845658746E+01  0.68688605955E+02  0.47000000000E+01 0. -1.
         13    1    4    4    0    0 -0.38686079360E+02  0.20821119996E+02 -0.16221427402E+03  0.16805833056E+03  0.00000000000E+00 0. -1.
        -14    1    4    4    0    0  0.37460005765E+02  0.33159453840E+01 -0.24225086992E+03  0.24515246583E+03  0.00000000000E+00 0.  1.
         -5    1    3    3    0  504 -0.79007282415E+02 -0.67074730548E+02 -0.86544901994E+03  0.87164514929E+03  0.47000000000E+01 0.  1.
<mgrwt>
<rscale>  2 0.19534329E+03</rscale>
<asrwt>0</asrwt>
<pdfrwt beam="1">  1       21 0.74854757E-02 0.19537865E+03</pdfrwt>
<pdfrwt beam="2">  1       21 0.23211801E+00 0.19537865E+03</pdfrwt>
<totfact> 0.11410513E+04</totfact>
</mgrwt>
</event>
<event>
12    1  0.1410528E-001  0.2052443E+03  0.7546771E-02  0.1146619E+00
         21   -1    0    0  502  503  0.00000000000E+00  0.00000000000E+00  0.45875713700E+03  0.45875713700E+03  0.00000000000E+00 0. -1.
         21   -1    0    0  503  504 -0.00000000000E+00 -0.00000000000E+00 -0.97087918826E+02  0.97087918826E+02  0.00000000000E+00 0. -1.
         -6    2    1    2    0  504  0.97665492628E+02 -0.50365608359E+02  0.99111454956E+02  0.22258568130E+03  0.16627104997E+03 0.  0.
        -24    2    3    3    0    0  0.61236344062E+02 -0.77844197019E+02  0.16608249297E+02  0.12818745756E+03  0.79665434715E+02 0.  0.
          6    2    1    2  502    0 -0.97665492628E+02  0.50365608359E+02  0.26255776321E+03  0.33325937452E+03  0.17334932572E+03 0.  0.
         24    2    5    5    0    0 -0.80114407335E+02 -0.19576177369E+02  0.22171817365E+03  0.25025421769E+03  0.81649739500E+02 0.  0.
          4    1    6    6  501    0 -0.59495686279E+02  0.16275256931E+02  0.18477791555E+03  0.19480117748E+03  0.00000000000E+00 0. -1.
         -3    1    6    6    0  501 -0.20618721056E+02 -0.35851434300E+02  0.36940258104E+02  0.55453040206E+02  0.00000000000E+00 0.  1.
          5    1    5    5  502    0 -0.17551085293E+02  0.69941785728E+02  0.40839589562E+02  0.83005156836E+02  0.47000000000E+01 0. -1.
         11    1    4    4    0    0  0.31457880253E+02 -0.65997242193E+02  0.44595503955E+02  0.85638736446E+02  0.00000000000E+00 0. -1.
        -12    1    4    4    0    0  0.29778463809E+02 -0.11846954826E+02 -0.27987254658E+02  0.42548721118E+02  0.00000000000E+00 0.  1.
         -5    1    3    3    0  504  0.36429148566E+02  0.27478588660E+02  0.82503205659E+02  0.94398223734E+02  0.47000000000E+01 0.  1.
<mgrwt>
<rscale>  2 0.20374235E+03</rscale>
<asrwt>0</asrwt>
<pdfrwt beam="1">  1       21 0.70578020E-01 0.20524432E+03</pdfrwt>
<pdfrwt beam="2">  1       21 0.14936603E-01 0.20524432E+03</pdfrwt>
<totfact> 0.71523883E+04</totfact>
</mgrwt>
</event>
<event>
12    1  0.1410528E-001  0.2442635E+03  0.7546771E-02  0.1118379E+00
         21   -1    0    0  502  503  0.00000000000E+00  0.00000000000E+00  0.57685487331E+03  0.57685487331E+03  0.00000000000E+00 0. -1.
         21   -1    0    0  503  504 -0.00000000000E+00 -0.00000000000E+00 -0.14697450961E+03  0.14697450961E+03  0.00000000000E+00 0. -1.
         -6    2    1    2    0  504  0.15715989268E+03  0.32792496867E+02  0.42229333419E+03  0.48784866295E+03  0.18409258030E+03 0.  0.
        -24    2    3    3    0    0  0.95872814002E+02 -0.54085264448E+02  0.20555063281E+03  0.24638781721E+03  0.79618349178E+02 0.  0.
          6    2    1    2  502    0 -0.15715989268E+03 -0.32792496867E+02  0.75870295013E+01  0.23598071997E+03  0.17278529295E+03 0.  0.
         24    2    5    5    0    0 -0.64585557507E+02  0.16040499370E+01  0.64747107077E+02  0.12177697908E+03  0.80396377676E+02 0.  0.
          2    1    6    6  501    0 -0.16321141648E+02  0.35005753030E+02  0.66512014827E+01  0.39192102407E+02  0.00000000000E+00 0. -1.
         -1    1    6    6    0  501 -0.48264415859E+02 -0.33401703093E+02  0.58095905595E+02  0.82584876670E+02  0.00000000000E+00 0.  1.
          5    1    5    5  502    0 -0.92574335172E+02 -0.34396546804E+02 -0.57160077576E+02  0.11420374089E+03  0.47000000000E+01 0. -1.
         13    1    4    4    0    0  0.39238655577E+02  0.14661736549E+01  0.13373063173E+03  0.13937612284E+03  0.00000000000E+00 0. -1.
        -14    1    4    4    0    0  0.56634158425E+02 -0.55551438103E+02  0.71820001086E+02  0.10701169437E+03  0.00000000000E+00 0.  1.
         -5    1    3    3    0  504  0.61287078678E+02  0.86877761315E+02  0.21674270138E+03  0.24146084574E+03  0.47000000000E+01 0.  1.
<mgrwt>
<rscale>  2 0.24213464E+03</rscale>
<asrwt>0</asrwt>
<pdfrwt beam="1">  1       21 0.88746902E-01 0.24426350E+03</pdfrwt>
<pdfrwt beam="2">  1       21 0.22611463E-01 0.24426350E+03</pdfrwt>
<totfact> 0.19316680E+04</totfact>
</mgrwt>
</event>
<event>
12    1  0.1410528E-001  0.2096914E+03  0.7546771E-02  0.1144398E+00
         21   -1    0    0  502  503  0.00000000000E+00  0.00000000000E+00  0.82583417240E+03  0.82583417240E+03  0.00000000000E+00 0. -1.
         21   -1    0    0  503  504 -0.00000000000E+00 -0.00000000000E+00 -0.52951449679E+02  0.52951449679E+02  0.00000000000E+00 0. -1.
         -6    2    1    2    0  504 -0.38938898140E+02 -0.80064198360E+02  0.27296085980E+03  0.33666722828E+03  0.17581432810E+03 0.  0.
        -24    2    3    3    0    0 -0.23536388668E+02 -0.12352241880E+03  0.18770149192E+03  0.23962546390E+03  0.79854638835E+02 0.  0.
          6    2    1    2  502    0  0.38938898140E+02  0.80064198360E+02  0.49992186292E+03  0.54211839380E+03  0.18985249597E+03 0.  0.
         24    2    5    5    0    0  0.26285798328E+02  0.91767008660E+02  0.50787655657E+03  0.52256273337E+03  0.77595660511E+02 0.  0.
          2    1    6    6  501    0  0.26607615910E+02  0.93407426716E+02  0.31396752213E+03  0.32864649327E+03  0.00000000000E+00 0. -1.
         -1    1    6    6    0  501 -0.32181758233E+00 -0.16404180560E+01  0.19390903444E+03  0.19391624010E+03  0.00000000000E+00 0.  1.
          5    1    5    5  502    0  0.12653099812E+02 -0.11702810299E+02 -0.79546936456E+01  0.19555660427E+02  0.47000000000E+01 0. -1.
         11    1    4    4    0    0 -0.36111883403E+02 -0.11768651190E+03  0.12511518496E+03  0.17552205763E+03  0.00000000000E+00 0. -1.
        -12    1    4    4    0    0  0.12575494735E+02 -0.58359068986E+01  0.62586306956E+02  0.64103406271E+02  0.00000000000E+00 0.  1.
         -5    1    3    3    0  504 -0.15402509472E+02  0.43458220439E+02  0.85259367878E+02  0.97041764373E+02  0.47000000000E+01 0.  1.
<mgrwt>
<rscale>  2 0.20646262E+03</rscale>
<asrwt>0</asrwt>
<pdfrwt beam="1">  1       21 0.12705140E+00 0.20969140E+03</pdfrwt>
<pdfrwt beam="2">  1       21 0.81463774E-02 0.20969140E+03</pdfrwt>
<totfact> 0.52770011E+04</totfact>
</mgrwt>
</event>
<event>
12    1  0.1410528E-001  0.2386747E+03  0.7546771E-02  0.1121021E+00
         21   -1    0    0  502  503  0.00000000000E+00  0.00000000000E+00  0.63556178518E+02  0.63556178518E+02  0.00000000000E+00 0. -1.
         21   -1    0    0  503  504 -0.00000000000E+00 -0.00000000000E+00 -0.14137919116E+04  0.14137919116E+04  0.00000000000E+00 0.  1.
         -6    2    1    2    0  504  0.14726010054E+03 -0.73535562764E+02 -0.11270968927E+04  0.11520907098E+04  0.17283686489E+03 0.  0.
        -24    2    3    3    0    0  0.12830462300E+03 -0.11901505855E+03 -0.92913973384E+03  0.94803968331E+03  0.69655837444E+02 0.  0.
          6    2    1    2  502    0 -0.14726010054E+03  0.73535562764E+02 -0.22313884040E+03  0.32525738034E+03  0.17002471928E+03 0.  0.
         24    2    5    5    0    0 -0.11044042433E+03  0.11675747764E+03 -0.16786183761E+03  0.24587564743E+03  0.80298453073E+02 0.  0.
          4    1    6    6  501    0 -0.66445134334E+02  0.14651079783E+02 -0.55516509332E+02  0.87816244647E+02  0.00000000000E+00 0. -1.
         -3    1    6    6    0  501 -0.43995290000E+02  0.10210639785E+03 -0.11234532827E+03  0.15805940279E+03  0.00000000000E+00 0.  1.
          5    1    5    5  502    0 -0.36819676206E+02 -0.43221914871E+02 -0.55277002792E+02  0.79381732903E+02  0.47000000000E+01 0. -1.
         13    1    4    4    0    0  0.76135906022E+02 -0.45127118800E+02 -0.31211824867E+03  0.32442400372E+03  0.00000000000E+00 0. -1.
        -14    1    4    4    0    0  0.52168716974E+02 -0.73887939749E+02 -0.61702148517E+03  0.62361567959E+03  0.00000000000E+00 0.  1.
         -5    1    3    3    0  504  0.18955477544E+02  0.45479495784E+02 -0.19795715886E+03  0.20405102649E+03  0.47000000000E+01 0.  1.
<mgrwt>
<rscale>  2 0.23816593E+03</rscale>
<asrwt>0</asrwt>
<pdfrwt beam="1">  1       21 0.97778734E-02 0.23867467E+03</pdfrwt>
<pdfrwt beam="2">  1       21 0.21750645E+00 0.23867467E+03</pdfrwt>
<totfact> 0.84699157E+03</totfact>
</mgrwt>
</event>
<event>
12    1  0.1410528E-001  0.1908724E+03  0.7546771E-02  0.1157826E+00
         21   -1    0    0  502  503  0.00000000000E+00  0.00000000000E+00  0.61417846305E+02  0.61417846305E+02  0.00000000000E+00 0. -1.
         21   -1    0    0  503  504 -0.00000000000E+00 -0.00000000000E+00 -0.59186616213E+03  0.59186616213E+03  0.00000000000E+00 0. -1.
         -6    2    1    2    0  504  0.45840733759E-01 -0.77794670165E+02 -0.27635012898E+03  0.33548195545E+03  0.17357055003E+03 0.  0.
        -24    2    3    3    0    0  0.55860359276E+02 -0.53032548290E+01 -0.14402396811E+03  0.17453920591E+03  0.81071121617E+02 0.  0.
          6    2    1    2  502    0 -0.45840733759E-01  0.77794670165E+02 -0.25409818685E+03  0.31780205299E+03  0.17429929293E+03 0.  0.
         24    2    5    5    0    0 -0.43952852095E+02  0.20044758208E+02 -0.21628262566E+03  0.23585704310E+03  0.80726235376E+02 0.  0.
          2    1    6    6  501    0  0.19434962995E+02  0.10662290856E+02 -0.10614562344E+03  0.10843567498E+03  0.00000000000E+00 0. -1.
         -1    1    6    6    0  501 -0.63387815089E+02  0.93824673520E+01 -0.11013700223E+03  0.12742136812E+03  0.00000000000E+00 0.  1.
          5    1    5    5  502    0  0.43907011361E+02  0.57749911957E+02 -0.37815561185E+02  0.81945009887E+02  0.47000000000E+01 0. -1.
         11    1    4    4    0    0 -0.13740666698E+02  0.19323653837E+02 -0.46762226992E+02  0.52430100059E+02  0.00000000000E+00 0. -1.
        -12    1    4    4    0    0  0.69601025974E+02 -0.24626908666E+02 -0.97261741114E+02  0.12210910585E+03  0.00000000000E+00 0.  1.
         -5    1    3    3    0  504 -0.55814518543E+02 -0.72491415336E+02 -0.13232616087E+03  0.16094274954E+03  0.47000000000E+01 0.  1.
<mgrwt>
<rscale>  2 0.19070583E+03</rscale>
<asrwt>0</asrwt>
<pdfrwt beam="1">  1       21 0.94488994E-02 0.19087236E+03</pdfrwt>
<pdfrwt beam="2">  1       21 0.91056333E-01 0.19087236E+03</pdfrwt>
<totfact> 0.91768158E+04</totfact>
</mgrwt>
</event>
<event>
12    1  0.1410528E-001  0.1870266E+03  0.7546771E-02  0.1161474E+00
         21   -1    0    0  502  503  0.00000000000E+00  0.00000000000E+00  0.19792871690E+03  0.19792871690E+03  0.00000000000E+00 0. -1.
         21   -1    0    0  503  504 -0.00000000000E+00 -0.00000000000E+00 -0.23989211755E+03  0.23989211755E+03  0.00000000000E+00 0. -1.
         -6    2    1    2    0  504 -0.33535407409E+02 -0.57333481197E+02 -0.13446197240E+03  0.23034532861E+03  0.17483476992E+03 0.  0.
        -24    2    3    3    0    0 -0.23999184389E+02  0.33055193976E+02 -0.37984244195E+02  0.97713906279E+02  0.80228411259E+02 0.  0.
          6    2    1    2  502    0  0.33535407409E+02  0.57333481197E+02  0.92498571745E+02  0.20747550584E+03  0.17343110486E+03 0.  0.
         24    2    5    5    0    0  0.42314574428E+02  0.22356478772E+02  0.12635497000E+03  0.15778838301E+03  0.81493926268E+02 0.  0.
          2    1    6    6  501    0  0.47546784086E+02  0.32968013892E+01  0.12930089032E+03  0.13780524596E+03  0.00000000000E+00 0. -1.
         -1    1    6    6    0  501 -0.52322096575E+01  0.19059677382E+02 -0.29459203258E+01  0.19983137051E+02  0.00000000000E+00 0.  1.
          5    1    5    5  502    0 -0.87791670198E+01  0.34977002426E+02 -0.33856398253E+02  0.49687122828E+02  0.47000000000E+01 0. -1.
         13    1    4    4    0    0  0.12959578019E+02 -0.29841482796E+01 -0.43791937789E+02  0.45766686778E+02  0.00000000000E+00 0. -1.
        -14    1    4    4    0    0 -0.36958762408E+02  0.36039342256E+02  0.58076935934E+01  0.51947219501E+02  0.00000000000E+00 0.  1.
         -5    1    3    3    0  504 -0.95362230194E+01 -0.90388675174E+02 -0.96477728204E+02  0.13263142233E+03  0.47000000000E+01 0.  1.
<mgrwt>
<rscale>  2 0.18669786E+03</rscale>
<asrwt>0</asrwt>
<pdfrwt beam="1">  1       21 0.30450572E-01 0.18702660E+03</pdfrwt>
<pdfrwt beam="2">  1       21 0.36906479E-01 0.18702660E+03</pdfrwt>
<totfact> 0.73461391E+04</totfact>
</mgrwt>
</event>
<event>
12    1  0.1410528E-001  0.2024185E+03  0.7546771E-02  0.1147889E+00
         21   -1    0    0  502  503  0.00000000000E+00  0.00000000000E+00  0.41809772831E+02  0.41809772831E+02  0.00000000000E+00 0.  1.
         21   -1    0    0  503  504 -0.00000000000E+00 -0.00000000000E+00 -0.17944592529E+04  0.17944592529E+04  0.00000000000E+00 0.  1.
         -6    2    1    2    0  504  0.77286000867E+02 -0.71331494057E+02 -0.14954260919E+04  0.15089509593E+04  0.17196654690E+03 0.  0.
        -24    2    3    3    0    0  0.87055109599E+02 -0.97886463230E+02 -0.14210655298E+04  0.14292503629E+04  0.78543032862E+02 0.  0.
          6    2    1    2  502    0 -0.77286000867E+02  0.71331494057E+02 -0.25722338820E+03  0.32731806647E+03  0.17295067859E+03 0.  0.
         24    2    5    5    0    0  0.74375882913E+01 -0.64312060271E+01 -0.67872826084E+02  0.10573095164E+03  0.80471333299E+02 0.  0.
          4    1    6    6  501    0  0.32009125405E+02  0.20552922116E+02 -0.55321427158E+02  0.67137672134E+02  0.00000000000E+00 0. -1.
         -3    1    6    6    0  501 -0.24571537114E+02 -0.26984128143E+02 -0.12551398926E+02  0.38593279503E+02  0.00000000000E+00 0.  1.
          5    1    5    5  502    0 -0.84723589158E+02  0.77762700084E+02 -0.18935056212E+03  0.22158711483E+03  0.47000000000E+01 0. -1.
         11    1    4    4    0    0 -0.93562523126E+01 -0.16593217291E+02 -0.78638541510E+02  0.80912882338E+02  0.00000000000E+00 0. -1.
        -12    1    4    4    0    0  0.96411361912E+02 -0.81293245939E+02 -0.13424269883E+04  0.13483374806E+04  0.00000000000E+00 0.  1.
         -5    1    3    3    0  504 -0.97691087324E+01  0.26554969173E+02 -0.74360562053E+02  0.79700596372E+02  0.47000000000E+01 0.  1.
<mgrwt>
<rscale>  2 0.20220811E+03</rscale>
<asrwt>0</asrwt>
<pdfrwt beam="1">  1       21 0.64322736E-02 0.20241849E+03</pdfrwt>
<pdfrwt beam="2">  1       21 0.27607062E+00 0.20241849E+03</pdfrwt>
<totfact> 0.81232812E+03</totfact>
</mgrwt>
</event>
<event>
12    1  0.1410528E-001  0.1981725E+03  0.7546771E-02  0.1151444E+00
         21   -1    0    0  502  503  0.00000000000E+00  0.00000000000E+00  0.24370055455E+03  0.24370055455E+03  0.00000000000E+00 0. -1.
         21   -1    0    0  503  504 -0.00000000000E+00 -0.00000000000E+00 -0.16255157032E+03  0.16255157032E+03  0.00000000000E+00 0. -1.
         -6    2    1    2    0  504 -0.63816025242E+01 -0.94542076263E+02  0.63096339858E+02  0.20797475274E+03  0.17405005210E+03 0.  0.
        -24    2    3    3    0    0 -0.62405174574E+02 -0.45927428394E+02  0.18499981685E+01  0.11166676250E+03  0.80388487124E+02 0.  0.
          6    2    1    2  502    0  0.63816025242E+01  0.94542076263E+02  0.18052644373E+02  0.19827737213E+03  0.17323131731E+03 0.  0.
         24    2    5    5    0    0 -0.37050807776E+02  0.16723622823E+02 -0.32104762368E+02  0.95905787155E+02  0.80714077619E+02 0.  0.
          4    1    6    6  501    0 -0.17949559627E+02  0.49027291914E+02 -0.24238166782E+02  0.57561712728E+02  0.00000000000E+00 0. -1.
         -3    1    6    6    0  501 -0.19101248149E+02 -0.32303669091E+02 -0.78665955859E+01  0.38344074427E+02  0.00000000000E+00 0.  1.
          5    1    5    5  502    0  0.43432410301E+02  0.77818453440E+02  0.50157406741E+02  0.10237158498E+03  0.47000000000E+01 0. -1.
         11    1    4    4    0    0 -0.32084882582E+02 -0.23026673070E+02 -0.39259778519E+02  0.55686601371E+02  0.00000000000E+00 0. -1.
        -12    1    4    4    0    0 -0.30320291993E+02 -0.22900755324E+02  0.41109776688E+02  0.55980161131E+02  0.00000000000E+00 0.  1.
         -5    1    3    3    0  504  0.56023572050E+02 -0.48614647869E+02  0.61246341690E+02  0.96307990235E+02  0.47000000000E+01 0.  1.
<mgrwt>
<rscale>  2 0.19799261E+03</rscale>
<asrwt>0</asrwt>
<pdfrwt beam="1">  1       21 0.37492393E-01 0.19817253E+03</pdfrwt>
<pdfrwt beam="2">  1       21 0.25007934E-01 0.19817253E+03</pdfrwt>
<totfact> 0.10363249E+05</totfact>
</mgrwt>
</event>
<event>
12    1  0.1410528E-001  0.2107291E+03  0.7546771E-02  0.1141041E+00
         21   -1    0    0  502  503  0.00000000000E+00  0.00000000000E+00  0.84580382804E+02  0.84580382804E+02  0.00000000000E+00 0. -1.
         21   -1    0    0  503  504 -0.00000000000E+00 -0.00000000000E+00 -0.68087037215E+03  0.68087037215E+03  0.00000000000E+00 0. -1.
         -6    2    1    2    0  504 -0.27944668306E+02  0.11725786807E+03 -0.11480201158E+03  0.23997132846E+03  0.17284798093E+03 0.  0.
        -24    2    3    3    0    0 -0.65414767048E+02  0.10951399692E+03 -0.40896414565E+02  0.15661604603E+03  0.81139767557E+02 0.  0.
          6    2    1    2  502    0  0.27944668306E+02 -0.11725786807E+03 -0.48148797777E+03  0.52547942649E+03  0.17253301950E+03 0.  0.
         24    2    5    5    0    0  0.31947349877E+02 -0.36854032684E+02 -0.39808364815E+03  0.40946576176E+03  0.82539482921E+02 0.  0.
          2    1    6    6  501    0  0.38349429395E+02 -0.58916167395E+02 -0.33583335027E+03  0.34311198270E+03  0.00000000000E+00 0. -1.
         -1    1    6    6    0  501 -0.64020795185E+01  0.22062134711E+02 -0.62250297874E+02  0.66353779060E+02  0.00000000000E+00 0.  1.
          5    1    5    5  502    0 -0.40026815708E+01 -0.80403835389E+02 -0.83404329618E+02  0.11601366473E+03  0.47000000000E+01 0. -1.
         13    1    4    4    0    0 -0.61411544896E+02  0.10426588057E+03 -0.60959763221E+02  0.13549481330E+03  0.00000000000E+00 0. -1.
        -14    1    4    4    0    0 -0.40032221529E+01  0.52481163486E+01  0.20063348656E+02  0.21121232731E+02  0.00000000000E+00 0.  1.
         -5    1    3    3    0  504  0.37470098742E+02  0.77438711511E+01 -0.73905597012E+02  0.83355282435E+02  0.47000000000E+01 0.  1.
<mgrwt>
<rscale>  2 0.21066446E+03</rscale>
<asrwt>0</asrwt>
<pdfrwt beam="1">  1       21 0.13012366E-01 0.21072906E+03</pdfrwt>
<pdfrwt beam="2">  1       21 0.10474929E+00 0.21072906E+03</pdfrwt>
<totfact> 0.36921234E+04</totfact>
</mgrwt>
</event>
<event>
12    1  0.1410528E-001  0.2055001E+03  0.7546771E-02  0.1145448E+00
         21   -1    0    0  502  503  0.00000000000E+00  0.00000000000E+00  0.13830687297E+03  0.13830687297E+03  0.00000000000E+00 0. -1.
         21   -1    0    0  503  504 -0.00000000000E+00 -0.00000000000E+00 -0.32926948807E+03  0.32926948807E+03  0.00000000000E+00 0.  1.
         -6    2    1    2    0  504 -0.89550588824E+02  0.64226114941E+02 -0.16074268803E+03  0.25986617616E+03  0.17189507252E+03 0.  0.
        -24    2    3    3    0    0  0.43546756745E+01  0.70211173700E+02 -0.83927544971E+02  0.13830682509E+03  0.84477055753E+02 0.  0.
          6    2    1    2  502    0  0.89550588824E+02 -0.64226114941E+02 -0.30219927063E+02  0.20771018488E+03  0.17345309196E+03 0.  0.
         24    2    5    5    0    0  0.55205157884E+02 -0.39701057890E+02 -0.86282336352E+02  0.13738116679E+03  0.82493393480E+02 0.  0.
          2    1    6    6  501    0  0.16368891398E+02  0.13894495632E+02 -0.64060973003E+02  0.67563347139E+02  0.00000000000E+00 0. -1.
         -1    1    6    6    0  501  0.38836266485E+02 -0.53595553523E+02 -0.22221363349E+02  0.69817819652E+02  0.00000000000E+00 0.  1.
          5    1    5    5  502    0  0.34345430940E+02 -0.24525057050E+02  0.56062409290E+02  0.70329018088E+02  0.47000000000E+01 0. -1.
         11    1    4    4    0    0 -0.22296994967E+02  0.67482920443E+02 -0.28176521584E+02  0.76452710250E+02  0.00000000000E+00 0. -1.
        -12    1    4    4    0    0  0.26651670641E+02  0.27282532578E+01 -0.55751023387E+02  0.61854114839E+02  0.00000000000E+00 0.  1.
         -5    1    3    3    0  504 -0.93905264498E+02 -0.59850587598E+01 -0.76815143061E+02  0.12155935107E+03  0.47000000000E+01 0.  1.
<mgrwt>
<rscale>  2 0.20517094E+03</rscale>
<asrwt>0</asrwt>
<pdfrwt beam="1">  1       21 0.21277980E-01 0.20550007E+03</pdfrwt>
<pdfrwt beam="2">  1       21 0.50656844E-01 0.20550007E+03</pdfrwt>
<totfact> 0.75787910E+04</totfact>
</mgrwt>
</event>
<event>
12    1  0.1410528E-001  0.2770696E+03  0.7546771E-02  0.1097486E+00
         21   -1    0    0  502  503  0.00000000000E+00  0.00000000000E+00  0.27793429919E+03  0.27793429919E+03  0.00000000000E+00 0. -1.
         21   -1    0    0  503  504 -0.00000000000E+00 -0.00000000000E+00 -0.28034188072E+03  0.28034188072E+03  0.00000000000E+00 0.  1.
         -6    2    1    2    0  504 -0.54926425525E+02  0.20726009040E+03  0.37777265277E+02  0.27830759910E+03  0.17336187775E+03 0.  0.
        -24    2    3    3    0    0 -0.42999040949E+02  0.39827863688E+02 -0.21584296650E+02  0.10020173711E+03  0.78353876797E+02 0.  0.
          6    2    1    2  502    0  0.54926425525E+02 -0.20726009040E+03 -0.40184846813E+02  0.27996858080E+03  0.17548198492E+03 0.  0.
         24    2    5    5    0    0  0.91296334475E+02 -0.10975203124E+03 -0.61029941156E+02  0.17372734664E+03  0.77948753711E+02 0.  0.
          4    1    6    6  501    0  0.34348806751E+02 -0.56191764997E+02  0.11770457527E+02  0.66902157283E+02  0.00000000000E+00 0. -1.
         -3    1    6    6    0  501  0.56947527724E+02 -0.53560266241E+02 -0.72800398683E+02  0.10682518936E+03  0.00000000000E+00 0.  1.
          5    1    5    5  502    0 -0.36369908950E+02 -0.97508059158E+02  0.20845094343E+02  0.10624123416E+03  0.47000000000E+01 0. -1.
         11    1    4    4    0    0  0.63009549967E+01 -0.32977854645E+01  0.20935511754E+02  0.22110474333E+02  0.00000000000E+00 0. -1.
        -12    1    4    4    0    0 -0.49299995945E+02  0.43125649153E+02 -0.42519808404E+02  0.78091262775E+02  0.00000000000E+00 0.  1.
         -5    1    3    3    0  504 -0.11927384576E+02  0.16743222671E+03  0.59361561927E+02  0.17810586200E+03  0.47000000000E+01 0.  1.
<mgrwt>
<rscale>  2 0.27673456E+03</rscale>
<asrwt>0</asrwt>
<pdfrwt beam="1">  1       21 0.42759123E-01 0.27706964E+03</pdfrwt>
<pdfrwt beam="2">  1       21 0.43129520E-01 0.27706964E+03</pdfrwt>
<totfact> 0.26096836E+04</totfact>
</mgrwt>
</event>
<event>
12    1  0.1410528E-001  0.1996143E+03  0.7546771E-02  0.1151900E+00
         21   -1    0    0  502  503  0.00000000000E+00  0.00000000000E+00  0.10897797849E+04  0.10897797849E+04  0.00000000000E+00 0.  1.
         21   -1    0    0  503  504 -0.00000000000E+00 -0.00000000000E+00 -0.57464763359E+02  0.57464763359E+02  0.00000000000E+00 0.  1.
         -6    2    1    2    0  504 -0.93190676820E+02  0.97444004081E+01  0.15094160634E+03  0.24354937236E+03  0.16659373538E+03 0.  0.
        -24    2    3    3    0    0 -0.90086009662E+02 -0.49670396743E+02  0.10100800236E+03  0.16573413038E+03  0.81746853038E+02 0.  0.
          6    2    1    2  502    0  0.93190676820E+02 -0.97444004081E+01  0.88137341521E+03  0.90369517590E+03  0.17625668307E+03 0.  0.
         24    2    5    5    0    0  0.54558747149E+02  0.51368885168E+02  0.33155544884E+03  0.34912403907E+03  0.79643956134E+02 0.  0.
          2    1    6    6  501    0  0.20465592909E+02 -0.53463532916E+01  0.15521082391E+02  0.26236005512E+02  0.00000000000E+00 0. -1.
         -1    1    6    6    0  501  0.34093154240E+02  0.56715238459E+02  0.31603436645E+03  0.32288803356E+03  0.00000000000E+00 0.  1.
          5    1    5    5  502    0  0.38631929671E+02 -0.61113285576E+02  0.54981796637E+03  0.55457113683E+03  0.47000000000E+01 0. -1.
         13    1    4    4    0    0  0.23056445742E+01  0.15360538247E+02  0.22925976270E+01  0.15700896026E+02  0.00000000000E+00 0. -1.
        -14    1    4    4    0    0 -0.92391654237E+02 -0.65030934990E+02  0.98715404734E+02  0.15003323435E+03  0.00000000000E+00 0.  1.
         -5    1    3    3    0  504 -0.31046671580E+01  0.59414797151E+02  0.49933603976E+02  0.77815241982E+02  0.47000000000E+01 0.  1.
<mgrwt>
<rscale>  2 0.19746008E+03</rscale>
<asrwt>0</asrwt>
<pdfrwt beam="1">  1       21 0.16765841E+00 0.19961431E+03</pdfrwt>
<pdfrwt beam="2">  1       21 0.88407336E-02 0.19961431E+03</pdfrwt>
<totfact> 0.22233761E+04</totfact>
</mgrwt>
</event>
<event>
12    1  0.1410528E-001  0.2427531E+03  0.7546771E-02  0.1118817E+00
         21   -1    0    0  502  503  0.00000000000E+00  0.00000000000E+00  0.45327752022E+03  0.45327752022E+03  0.00000000000E+00 0.  1.
         21   -1    0    0  503  504 -0.00000000000E+00 -0.00000000000E+00 -0.54935177851E+03  0.54935177851E+03  0.00000000000E+00 0. -1.
         -6    2    1    2    0  504  0.10941867207E+03  0.12041555402E+03 -0.48732359985E+03  0.54218914598E+03  0.17324095245E+03 0.  0.
        -24    2    3    3    0    0 -0.13312035667E+02  0.58655640039E+02 -0.20387460473E+03  0.22716131161E+03  0.80123109249E+02 0.  0.
          6    2    1    2  502    0 -0.10941867207E+03 -0.12041555402E+03  0.39124934156E+03  0.46044015275E+03  0.18015752981E+03 0.  0.
         24    2    5    5    0    0 -0.19893232423E+02 -0.84739565264E+02  0.32000395603E+03  0.34050026999E+03  0.77209891661E+02 0.  0.
          2    1    6    6  501    0  0.27625186841E+02 -0.28214634101E+02  0.77158325698E+02  0.86675392990E+02  0.00000000000E+00 0. -1.
         -1    1    6    6    0  501 -0.47518419264E+02 -0.56524931163E+02  0.24284563033E+03  0.25382487699E+03  0.00000000000E+00 0.  1.
          5    1    5    5  502    0 -0.89525439648E+02 -0.35675988752E+02  0.71245385533E+02  0.11993988276E+03  0.47000000000E+01 0. -1.
         13    1    4    4    0    0  0.71702707120E+01  0.73154949595E+02 -0.13278750482E+03  0.15177477020E+03  0.00000000000E+00 0. -1.
        -14    1    4    4    0    0 -0.20482306379E+02 -0.14499309556E+02 -0.71087099910E+02  0.75386541410E+02  0.00000000000E+00 0.  1.
         -5    1    3    3    0  504  0.12273070774E+03  0.61759913977E+02 -0.28344899512E+03  0.31502783438E+03  0.47000000000E+01 0.  1.
<mgrwt>
<rscale>  2 0.24147105E+03</rscale>
<asrwt>0</asrwt>
<pdfrwt beam="1">  1       21 0.69735003E-01 0.24275314E+03</pdfrwt>
<pdfrwt beam="2">  1       21 0.84515658E-01 0.24275314E+03</pdfrwt>
<totfact> 0.21776082E+03</totfact>
</mgrwt>
</event>
<event>
12    1  0.1410528E-001  0.2078126E+03  0.7546771E-02  0.1143426E+00
         21   -1    0    0  502  503  0.00000000000E+00  0.00000000000E+00  0.93360788503E+02  0.93360788503E+02  0.00000000000E+00 0. -1.
         21   -1    0    0  503  504 -0.00000000000E+00 -0.00000000000E+00 -0.10051944801E+04  0.10051944801E+04  0.00000000000E+00 0.  1.
         -6    2    1    2    0  504  0.72113781752E+02  0.89266974140E+02 -0.85967045009E+03  0.88429593155E+03  0.17256019710E+03 0.  0.
        -24    2    3    3    0    0  0.36347562114E+02  0.69567175289E+02 -0.30136006349E+03  0.32447463656E+03  0.91132676675E+02 0.  0.
          6    2    1    2  502    0 -0.72113781752E+02 -0.89266974140E+02 -0.52163241477E+02  0.21425933702E+03  0.17325434929E+03 0.  0.
         24    2    5    5    0    0 -0.31474697786E+02 -0.67335607064E+02 -0.99837120076E+02  0.14772056104E+03  0.79556099891E+02 0.  0.
          4    1    6    6  501    0  0.11373187023E+02 -0.63742657426E+02 -0.70178963016E+02  0.95485928852E+02  0.00000000000E+00 0. -1.
         -3    1    6    6    0  501 -0.42847884809E+02 -0.35929496382E+01 -0.29658157060E+02  0.52234632189E+02  0.00000000000E+00 0.  1.
          5    1    5    5  502    0 -0.40639083966E+02 -0.21931367076E+02  0.47673878600E+02  0.66538775974E+02  0.47000000000E+01 0. -1.
         13    1    4    4    0    0  0.43819250500E+02 -0.60058326728E+01 -0.11748834222E+03  0.12553767282E+03  0.00000000000E+00 0. -1.
        -14    1    4    4    0    0 -0.74716883858E+01  0.75573007962E+02 -0.18387172127E+03  0.19893696374E+03  0.00000000000E+00 0.  1.
         -5    1    3    3    0  504  0.35766219638E+02  0.19699798851E+02 -0.55831038660E+03  0.55982129499E+03  0.47000000000E+01 0.  1.
<mgrwt>
<rscale>  2 0.20766782E+03</rscale>
<asrwt>0</asrwt>
<pdfrwt beam="1">  1       21 0.14363198E-01 0.20781256E+03</pdfrwt>
<pdfrwt beam="2">  1       21 0.15464530E+00 0.20781256E+03</pdfrwt>
<totfact> 0.11574457E+04</totfact>
</mgrwt>
</event>
<event>
12    1  0.1410528E-001  0.2496309E+03  0.7546771E-02  0.1114677E+00
         21   -1    0    0  502  503  0.00000000000E+00  0.00000000000E+00  0.75325271352E+03  0.75325271352E+03  0.00000000000E+00 0. -1.
         21   -1    0    0  503  504 -0.00000000000E+00 -0.00000000000E+00 -0.11731998714E+03  0.11731998714E+03  0.00000000000E+00 0. -1.
         -6    2    1    2    0  504  0.95462584090E+02 -0.15208970949E+03  0.76926921349E+02  0.26121514106E+03  0.17341053600E+03 0.  0.
        -24    2    3    3    0    0  0.78501421445E+02 -0.12634009444E+03 -0.92871918397E+01  0.16953260713E+03  0.80813119714E+02 0.  0.
          6    2    1    2  502    0 -0.95462584090E+02  0.15208970949E+03  0.55900580503E+03  0.60935755960E+03  0.16304833851E+03 0.  0.
         24    2    5    5    0    0 -0.83681300392E+02  0.34635489583E+02  0.22951680957E+03  0.25932987419E+03  0.79823809745E+02 0.  0.
          2    1    6    6  501    0 -0.65675317915E+02  0.60922163233E+01  0.21050245905E+03  0.22059385247E+03  0.00000000000E+00 0. -1.
         -1    1    6    6    0  501 -0.18005982477E+02  0.28543273260E+02  0.19014350520E+02  0.38736021724E+02  0.00000000000E+00 0.  1.
          5    1    5    5  502    0 -0.11781283698E+02  0.11745421991E+03  0.32948899546E+03  0.35002768540E+03  0.47000000000E+01 0. -1.
         13    1    4    4    0    0  0.64382101828E+02 -0.12951822888E+03  0.10499252282E+02  0.14501814006E+03  0.00000000000E+00 0. -1.
        -14    1    4    4    0    0  0.14119319617E+02  0.31781344416E+01 -0.19786444122E+02  0.24514467075E+02  0.00000000000E+00 0.  1.
         -5    1    3    3    0  504  0.16961162645E+02 -0.25749615057E+02  0.86214113189E+02  0.91682533924E+02  0.47000000000E+01 0.  1.
<mgrwt>
<rscale>  2 0.24784083E+03</rscale>
<asrwt>0</asrwt>
<pdfrwt beam="1">  1       21 0.11588503E+00 0.24963092E+03</pdfrwt>
<pdfrwt beam="2">  1       21 0.18049229E-01 0.24963092E+03</pdfrwt>
<totfact> 0.15530617E+04</totfact>
</mgrwt>
</event>
<event>
12    1  0.1410528E-001  0.1764595E+03  0.7546771E-02  0.1171882E+00
         21   -1    0    0  502  503  0.00000000000E+00  0.00000000000E+00  0.35902538716E+02  0.35902538716E+02  0.00000000000E+00 0.  1.
         21   -1    0    0  503  504 -0.00000000000E+00 -0.00000000000E+00 -0.99698522027E+03  0.99698522027E+03  0.00000000000E+00 0.  1.
         -6    2    1    2    0  504 -0.87433405697E+01  0.24237043495E+02 -0.67230251030E+03  0.69446206306E+03  0.17211336784E+03 0.  0.
        -24    2    3    3    0    0  0.42908802235E+02 -0.40235158889E+02 -0.35915533086E+03  0.37056724259E+03  0.69767444217E+02 0.  0.
          6    2    1    2  502    0  0.87433405697E+01 -0.24237043495E+02 -0.28878017126E+03  0.33842569593E+03  0.17456827912E+03 0.  0.
         24    2    5    5    0    0 -0.17956629226E+02  0.31505345184E+02 -0.71789735948E+02  0.11275549121E+03  0.79025358605E+02 0.  0.
          2    1    6    6  501    0 -0.25738095105E+02  0.45515150055E+02 -0.15958090517E+02  0.54669361411E+02  0.00000000000E+00 0. -1.
         -1    1    6    6    0  501  0.77814658789E+01 -0.14009804870E+02 -0.55831645431E+02  0.58086129801E+02  0.00000000000E+00 0.  1.
          5    1    5    5  502    0  0.26699969796E+02 -0.55742388679E+02 -0.21699043531E+03  0.22567020472E+03  0.47000000000E+01 0. -1.
         11    1    4    4    0    0  0.49752322748E+02 -0.46248246111E+02 -0.35322473039E+03  0.35969696141E+03  0.00000000000E+00 0. -1.
        -12    1    4    4    0    0 -0.68435205125E+01  0.60130872220E+01 -0.59306004691E+01  0.10870281177E+02  0.00000000000E+00 0.  1.
         -5    1    3    3    0  504 -0.51652142805E+02  0.64472202384E+02 -0.31314717944E+03  0.32389482047E+03  0.47000000000E+01 0.  1.
<mgrwt>
<rscale>  2 0.17584931E+03</rscale>
<asrwt>0</asrwt>
<pdfrwt beam="1">  1       21 0.55234674E-02 0.17645953E+03</pdfrwt>
<pdfrwt beam="2">  1       21 0.15338235E+00 0.17645953E+03</pdfrwt>
<totfact> 0.64564333E+04</totfact>
</mgrwt>
</event>
<event>
12    1  0.1410528E-001  0.2074371E+03  0.7546771E-02  0.1143665E+00
         21   -1    0    0  502  503  0.00000000000E+00  0.00000000000E+00  0.12215923489E+04  0.12215923489E+04  0.00000000000E+00 0. -1.
         21   -1    0    0  503  504 -0.00000000000E+00 -0.00000000000E+00 -0.28305095997E+03  0.28305095997E+03  0.00000000000E+00 0. -1.
         -6    2    1    2    0  504 -0.11191372150E+03  0.20782520308E+02 -0.23471103508E+03  0.31324022228E+03  0.17341733666E+03 0.  0.
        -24    2    3    3    0    0 -0.12066077725E+03  0.38161001448E+02 -0.10876379926E+03  0.18571250450E+03  0.81512484315E+02 0.  0.
          6    2    1    2  502    0  0.11191372150E+03 -0.20782520308E+02  0.11732524240E+04  0.11914030866E+04  0.17309959581E+03 0.  0.
         24    2    5    5    0    0 -0.87942981007E+01 -0.21571599700E+02  0.36734308587E+03  0.37649020784E+03  0.79128125662E+02 0.  0.
          4    1    6    6  501    0 -0.24743864632E+02  0.12330202686E+02  0.28115481225E+03  0.28251074526E+03  0.00000000000E+00 0. -1.
         -3    1    6    6    0  501  0.15949566532E+02 -0.33901802386E+02  0.86188273618E+02  0.93979462580E+02  0.00000000000E+00 0.  1.
          5    1    5    5  502    0  0.12070801960E+03  0.78907939187E+00  0.80590933812E+03  0.81491287873E+03  0.47000000000E+01 0. -1.
         11    1    4    4    0    0 -0.31410215279E+02  0.40173786681E+02 -0.74086428249E+02  0.89940722762E+02  0.00000000000E+00 0. -1.
        -12    1    4    4    0    0 -0.89250561975E+02 -0.20127852326E+01 -0.34677371014E+02  0.95771781740E+02  0.00000000000E+00 0.  1.
         -5    1    3    3    0  504  0.87470557574E+01 -0.17378481140E+02 -0.12594723582E+03  0.12752771778E+03  0.47000000000E+01 0.  1.
<mgrwt>
<rscale>  2 0.20737072E+03</rscale>
<asrwt>0</asrwt>
<pdfrwt beam="1">  1       21 0.18793728E+00 0.20743714E+03</pdfrwt>
<pdfrwt beam="2">  1       21 0.43546302E-01 0.20743714E+03</pdfrwt>
<totfact> 0.80247589E+02</totfact>
</mgrwt>
</event>
<event>
12    1  0.1410528E-001  0.3979655E+03  0.7546771E-02  0.1044515E+00
         21   -1    0    0  502  503  0.00000000000E+00  0.00000000000E+00  0.23000498889E+03  0.23000498889E+03  0.00000000000E+00 0.  1.
         21   -1    0    0  503  504 -0.00000000000E+00 -0.00000000000E+00 -0.93328847776E+03  0.93328847776E+03  0.00000000000E+00 0. -1.
         -6    2    1    2    0  504  0.20797488263E+03 -0.29173896613E+03 -0.64993625644E+03  0.76209818150E+03  0.17323776914E+03 0.  0.
        -24    2    3    3    0    0  0.13709034371E+03 -0.26357102314E+03 -0.58810950067E+03  0.66379920593E+03  0.80580111892E+02 0.  0.
          6    2    1    2  502    0 -0.20797488263E+03  0.29173896613E+03 -0.53347232433E+02  0.40119528515E+03  0.17247189177E+03 0.  0.
         24    2    5    5    0    0 -0.53357730608E+02  0.15711038943E+03  0.15894269132E+02  0.18475177542E+03  0.79686064314E+02 0.  0.
          2    1    6    6  501    0 -0.12266080904E+01  0.93256835721E+02 -0.19098923903E+02  0.95200372217E+02  0.00000000000E+00 0. -1.
         -1    1    6    6    0  501 -0.52131122517E+02  0.63853553712E+02  0.34993193035E+02  0.89551403201E+02  0.00000000000E+00 0.  1.
          5    1    5    5  502    0 -0.15461715203E+03  0.13462857670E+03 -0.69241501564E+02  0.21644350973E+03  0.47000000000E+01 0. -1.
         11    1    4    4    0    0  0.88486814884E+02 -0.87686372556E+02 -0.26199057027E+03  0.29009976775E+03  0.00000000000E+00 0. -1.
        -12    1    4    4    0    0  0.48603528825E+02 -0.17588465058E+03 -0.32611893041E+03  0.37369943818E+03  0.00000000000E+00 0.  1.
         -5    1    3    3    0  504  0.70884538925E+02 -0.28167942991E+02 -0.61826755766E+02  0.98298975577E+02  0.47000000000E+01 0.  1.
<mgrwt>
<rscale>  2 0.39788223E+03</rscale>
<asrwt>0</asrwt>
<pdfrwt beam="1">  1       21 0.35385383E-01 0.39796545E+03</pdfrwt>
<pdfrwt beam="2">  1       21 0.14358284E+00 0.39796545E+03</pdfrwt>
<totfact> 0.22647416E+03</totfact>
</mgrwt>
</event>
<event>
12    1  0.1410528E-001  0.2243553E+03  0.7546771E-02  0.1131231E+00
         21   -1    0    0  502  503  0.00000000000E+00  0.00000000000E+00  0.18066544307E+04  0.18066544307E+04  0.00000000000E+00 0.  1.
         21   -1    0    0  503  504 -0.00000000000E+00 -0.00000000000E+00 -0.50757691073E+02  0.50757691073E+02  0.00000000000E+00 0.  1.
         -6    2    1    2    0  504  0.10450747098E+03  0.99165642225E+02  0.25235068714E+03  0.33766283343E+03  0.17198745213E+03 0.  0.
        -24    2    3    3    0    0  0.11062633809E+03  0.83571025970E+02  0.26941633665E+03  0.31329155968E+03  0.79650083814E+02 0.  0.
          6    2    1    2  502    0 -0.10450747098E+03 -0.99165642225E+02  0.15035460525E+04  0.15197492884E+04  0.16802241337E+03 0.  0.
         24    2    5    5    0    0  0.11577497829E+02 -0.25439520843E+02  0.52725511778E+03  0.53380946252E+03  0.78570830312E+02 0.  0.
          4    1    6    6  501    0  0.34277454594E+02  0.12994269745E+02  0.29827942065E+03  0.30052355602E+03  0.00000000000E+00 0. -1.
         -3    1    6    6    0  501 -0.22699956766E+02 -0.38433790589E+02  0.22897569713E+03  0.23328590650E+03  0.00000000000E+00 0.  1.
          5    1    5    5  502    0 -0.11608496881E+03 -0.73726121382E+02  0.97629093471E+03  0.98593982583E+03  0.47000000000E+01 0. -1.
         13    1    4    4    0    0  0.60341520552E+02  0.17304614935E+02  0.18244748757E+03  0.19294464108E+03  0.00000000000E+00 0. -1.
        -14    1    4    4    0    0  0.50284817533E+02  0.66266411035E+02  0.86968849081E+02  0.12034691860E+03  0.00000000000E+00 0.  1.
         -5    1    3    3    0  504 -0.61188671045E+01  0.15594616255E+02 -0.17065649512E+02  0.24371273747E+02  0.47000000000E+01 0.  1.
<mgrwt>
<rscale>  2 0.22359527E+03</rscale>
<asrwt>0</asrwt>
<pdfrwt beam="1">  1       21 0.27794679E+00 0.22435534E+03</pdfrwt>
<pdfrwt beam="2">  1       21 0.78088769E-02 0.22435534E+03</pdfrwt>
<totfact> 0.55400383E+03</totfact>
</mgrwt>
</event>
<event>
12    1  0.1410528E-001  0.2193417E+03  0.7546771E-02  0.1134538E+00
         21   -1    0    0  502  503  0.00000000000E+00  0.00000000000E+00  0.26666733992E+03  0.26666733992E+03  0.00000000000E+00 0.  1.
         21   -1    0    0  503  504 -0.00000000000E+00 -0.00000000000E+00 -0.19208549255E+03  0.19208549255E+03  0.00000000000E+00 0. -1.
         -6    2    1    2    0  504 -0.12881688785E+03 -0.31672198306E+02  0.95465633967E+02  0.23841923811E+03  0.17358896016E+03 0.  0.
        -24    2    3    3    0    0 -0.40388244667E+01  0.12441311599E+02  0.40688571956E+02  0.95107747359E+02  0.84963670957E+02 0.  0.
          6    2    1    2  502    0  0.12881688785E+03  0.31672198306E+02 -0.20883786600E+02  0.22033359436E+03  0.17468211563E+03 0.  0.
         24    2    5    5    0    0  0.11672873239E+03  0.46959367650E+02  0.40464318299E+02  0.15579290159E+03  0.82482046251E+02 0.  0.
          4    1    6    6  501    0  0.88002471022E+02  0.70299076307E+02  0.37281483954E+02  0.11864360110E+03  0.00000000000E+00 0. -1.
         -3    1    6    6    0  501  0.28726261373E+02 -0.23339708656E+02  0.31828343455E+01  0.37149300493E+02  0.00000000000E+00 0.  1.
          5    1    5    5  502    0  0.12088155458E+02 -0.15287169344E+02 -0.61348104899E+02  0.64540692773E+02  0.47000000000E+01 0. -1.
         11    1    4    4    0    0 -0.17925126599E+02 -0.22152867674E+01 -0.22453472457E+02  0.28816246883E+02  0.00000000000E+00 0. -1.
        -12    1    4    4    0    0  0.13886302132E+02  0.14656598366E+02  0.63142044414E+02  0.66291500476E+02  0.00000000000E+00 0.  1.
         -5    1    3    3    0  504 -0.12477806339E+03 -0.44113509905E+02  0.54777062011E+02  0.14331149075E+03  0.47000000000E+01 0.  1.
<mgrwt>
<rscale>  2 0.21912393E+03</rscale>
<asrwt>0</asrwt>
<pdfrwt beam="1">  1       21 0.41025745E-01 0.21934165E+03</pdfrwt>
<pdfrwt beam="2">  1       21 0.29551614E-01 0.21934165E+03</pdfrwt>
<totfact> 0.62048727E+04</totfact>
</mgrwt>
</event>
<event>
12    1  0.1410528E-001  0.1829755E+03  0.7546771E-02  0.1165672E+00
         21   -1    0    0  502  503  0.00000000000E+00  0.00000000000E+00  0.73000629151E+03  0.73000629151E+03  0.00000000000E+00 0. -1.
         21   -1    0    0  503  504 -0.00000000000E+00 -0.00000000000E+00 -0.64084221782E+02  0.64084221782E+02  0.00000000000E+00 0. -1.
         -6    2    1    2    0  504 -0.60784549276E+02 -0.22216368439E+02  0.11499445803E+03  0.21357242491E+03  0.16793191134E+03 0.  0.
        -24    2    3    3    0    0 -0.27223947939E+02  0.46666249179E+02  0.91078441329E+02  0.13316598968E+03  0.80740424681E+02 0.  0.
          6    2    1    2  502    0  0.60784549276E+02  0.22216368439E+02  0.55092761170E+03  0.58051808838E+03  0.17114814971E+03 0.  0.
         24    2    5    5    0    0 -0.47629312028E+01  0.29853978932E+02  0.45948365148E+03  0.46765138314E+03  0.81600518420E+02 0.  0.
          4    1    6    6  501    0 -0.10683223785E+02  0.40250673830E+02  0.10487066761E+03  0.11283662942E+03  0.00000000000E+00 0. -1.
         -3    1    6    6    0  501  0.59202925824E+01 -0.10396694898E+02  0.35461298387E+03  0.35481475373E+03  0.00000000000E+00 0.  1.
          5    1    5    5  502    0  0.65547480479E+02 -0.76376104925E+01  0.91443960216E+02  0.11286670524E+03  0.47000000000E+01 0. -1.
         11    1    4    4    0    0 -0.44914007534E+02 -0.23840648637E+01  0.40564288696E+02  0.60567428172E+02  0.00000000000E+00 0. -1.
        -12    1    4    4    0    0  0.17690059594E+02  0.49050314043E+02  0.50514152633E+02  0.72598561504E+02  0.00000000000E+00 0.  1.
         -5    1    3    3    0  504 -0.33560601337E+02 -0.68882617618E+02  0.23916016699E+02  0.80406435232E+02  0.47000000000E+01 0.  1.
<mgrwt>
<rscale>  2 0.18221960E+03</rscale>
<asrwt>0</asrwt>
<pdfrwt beam="1">  1       21 0.11230865E+00 0.18297546E+03</pdfrwt>
<pdfrwt beam="2">  1       21 0.98591116E-02 0.18297546E+03</pdfrwt>
<totfact> 0.51925176E+04</totfact>
</mgrwt>
</event>
<event>
12    1  0.1410528E-001  0.1980512E+03  0.7546771E-02  0.1151396E+00
         21   -1    0    0  502  503  0.00000000000E+00  0.00000000000E+00  0.19633851469E+03  0.19633851469E+03  0.00000000000E+00 0. -1.
         21   -1    0    0  503  504 -0.00000000000E+00 -0.00000000000E+00 -0.20917847318E+03  0.20917847318E+03  0.00000000000E+00 0. -1.
         -6    2    1    2    0  504 -0.92330499405E+02 -0.25488648022E+02 -0.49429926590E+02  0.20411415800E+03  0.17333401154E+03 0.  0.
        -24    2    3    3    0    0 -0.11721112864E+03 -0.22469795719E+02 -0.79707896338E+02  0.16452874866E+03  0.80455080636E+02 0.  0.
          6    2    1    2  502    0  0.92330499405E+02  0.25488648022E+02  0.36589968103E+02  0.20140282987E+03  0.17334844048E+03 0.  0.
         24    2    5    5    0    0  0.64745770583E+02  0.81005451133E+02  0.37608266413E+02  0.13922438004E+03  0.84942029491E+02 0.  0.
          2    1    6    6  501    0  0.69797260291E+02  0.20096586281E+02  0.15795049282E+02  0.74330437279E+02  0.00000000000E+00 0. -1.
         -1    1    6    6    0  501 -0.50514897078E+01  0.60908864852E+02  0.21813217131E+02  0.64893942764E+02  0.00000000000E+00 0.  1.
          5    1    5    5  502    0  0.27584728823E+02 -0.55516803110E+02 -0.10182983103E+01  0.62178449830E+02  0.47000000000E+01 0. -1.
         11    1    4    4    0    0 -0.57370230857E+02  0.21707122644E+02 -0.63724695660E+02  0.88449869412E+02  0.00000000000E+00 0. -1.
        -12    1    4    4    0    0 -0.59840897786E+02 -0.44176918364E+02 -0.15983200678E+02  0.76078879249E+02  0.00000000000E+00 0.  1.
         -5    1    3    3    0  504  0.24880629237E+02 -0.30188523031E+01  0.30277969748E+02  0.39585409339E+02  0.47000000000E+01 0.  1.
<mgrwt>
<rscale>  2 0.19804803E+03</rscale>
<asrwt>0</asrwt>
<pdfrwt beam="1">  1       21 0.30205925E-01 0.19805119E+03</pdfrwt>
<pdfrwt beam="2">  1       21 0.32181304E-01 0.19805119E+03</pdfrwt>
<totfact> 0.97457899E+04</totfact>
</mgrwt>
</event>
<event>
12    1  0.1410528E-001  0.1792080E+03  0.7546771E-02  0.1168945E+00
         21   -1    0    0  502  503  0.00000000000E+00  0.00000000000E+00  0.12276690250E+04  0.12276690250E+04  0.00000000000E+00 0.  1.
         21   -1    0    0  503  504 -0.00000000000E+00 -0.00000000000E+00 -0.30961436476E+02  0.30961436476E+02  0.00000000000E+00 0.  1.
         -6    2    1    2    0  504 -0.31259564326E+02  0.32671226750E+02  0.84971471270E+03  0.86809293063E+03  0.17183036344E+03 0.  0.
        -24    2    3    3    0    0  0.39908310725E+02 -0.94590392165E+01  0.36020689747E+03  0.37162559341E+03  0.81697160317E+02 0.  0.
          6    2    1    2  502    0  0.31259564326E+02 -0.32671226750E+02  0.34699287579E+03  0.39053753082E+03  0.17340973937E+03 0.  0.
         24    2    5    5    0    0  0.53456887990E+02 -0.69562624689E+02  0.31577141919E+03  0.33714684089E+03  0.79118932704E+02 0.  0.
          4    1    6    6  501    0  0.28906720480E+02 -0.67986003288E+02  0.12814850156E+03  0.14791799615E+03  0.00000000000E+00 0. -1.
         -3    1    6    6    0  501  0.24550167510E+02 -0.15766214006E+01  0.18762291763E+03  0.18922884474E+03  0.00000000000E+00 0.  1.
          5    1    5    5  502    0 -0.22197323664E+02  0.36891397938E+02  0.31221456600E+02  0.53390689937E+02  0.47000000000E+01 0. -1.
         11    1    4    4    0    0  0.43549265608E+02  0.16661966975E+02  0.10291118324E+03  0.11298173000E+03  0.00000000000E+00 0. -1.
        -12    1    4    4    0    0 -0.36409548830E+01 -0.26121006191E+02  0.25729571423E+03  0.25864386341E+03  0.00000000000E+00 0.  1.
         -5    1    3    3    0  504 -0.71167875051E+02  0.42130265967E+02  0.48950781523E+03  0.49646733722E+03  0.47000000000E+01 0.  1.
<mgrwt>
<rscale>  2 0.17882482E+03</rscale>
<asrwt>0</asrwt>
<pdfrwt beam="1">  1       21 0.18887212E+00 0.17920800E+03</pdfrwt>
<pdfrwt beam="2">  1       21 0.47632989E-02 0.17920800E+03</pdfrwt>
<totfact> 0.46735688E+04</totfact>
</mgrwt>
</event>
<event>
12    1  0.1410528E-001  0.1753357E+03  0.7546771E-02  0.1172917E+00
         21   -1    0    0  502  503  0.00000000000E+00  0.00000000000E+00  0.16527824738E+03  0.16527824738E+03  0.00000000000E+00 0. -1.
         21   -1    0    0  503  504 -0.00000000000E+00 -0.00000000000E+00 -0.20142465962E+03  0.20142465962E+03  0.00000000000E+00 0. -1.
         -6    2    1    2    0  504  0.11375513326E+02  0.17595602624E+02 -0.72190222713E+02  0.18770074752E+03  0.17199167081E+03 0.  0.
        -24    2    3    3    0    0  0.18611514534E+02  0.36535541378E+02 -0.11095845594E+03  0.14369907822E+03  0.81586836441E+02 0.  0.
          6    2    1    2  502    0 -0.11375513326E+02 -0.17595602624E+02  0.36043810477E+02  0.17900215948E+03  0.17407931896E+03 0.  0.
         24    2    5    5    0    0  0.60498005913E+02 -0.22327724422E+01  0.22540884213E+02  0.10412734171E+03  0.81666503770E+02 0.  0.
          2    1    6    6  501    0  0.27605933078E+01  0.19929093914E+02 -0.20543675670E+02  0.28754691264E+02  0.00000000000E+00 0. -1.
         -1    1    6    6    0  501  0.57737412605E+02 -0.22161866356E+02  0.43084559883E+02  0.75372650445E+02  0.00000000000E+00 0.  1.
          5    1    5    5  502    0 -0.71873519240E+02 -0.15362830181E+02  0.13502926263E+02  0.74874817774E+02  0.47000000000E+01 0. -1.
         13    1    4    4    0    0  0.49401964010E+02  0.33146322618E+02 -0.81897296901E+02  0.10122450292E+03  0.00000000000E+00 0. -1.
        -14    1    4    4    0    0 -0.30790449475E+02  0.33892187599E+01 -0.29061159039E+02  0.42474575306E+02  0.00000000000E+00 0.  1.
         -5    1    3    3    0  504 -0.72360012077E+01 -0.18939938754E+02  0.38768233227E+02  0.44001669299E+02  0.47000000000E+01 0.  1.
<mgrwt>
<rscale>  2 0.17481529E+03</rscale>
<asrwt>0</asrwt>
<pdfrwt beam="1">  1       21 0.25427423E-01 0.17533573E+03</pdfrwt>
<pdfrwt beam="2">  1       21 0.30988409E-01 0.17533573E+03</pdfrwt>
<totfact> 0.14750763E+05</totfact>
</mgrwt>
</event>
<event>
12    1  0.1410528E-001  0.2375946E+03  0.7546771E-02  0.1121440E+00
         21   -1    0    0  502  503  0.00000000000E+00  0.00000000000E+00  0.16776491697E+03  0.16776491697E+03  0.00000000000E+00 0. -1.
         21   -1    0    0  503  504 -0.00000000000E+00 -0.00000000000E+00 -0.55893494236E+03  0.55893494236E+03  0.00000000000E+00 0.  1.
         -6    2    1    2    0  504 -0.12975836275E+03  0.98930284041E+02  0.33734254867E+02  0.23997752391E+03  0.17270430864E+03 0.  0.
        -24    2    3    3    0    0 -0.47620626133E+02  0.11655894084E+03  0.41890185729E+02  0.15544358678E+03  0.80958077350E+02 0.  0.
          6    2    1    2  502    0  0.12975836275E+03 -0.98930284041E+02 -0.42490428025E+03  0.48672233542E+03  0.17242549294E+03 0.  0.
         24    2    5    5    0    0  0.15883663979E+03 -0.61273216971E+02 -0.36038368373E+03  0.40641917065E+03  0.79477402564E+02 0.  0.
          2    1    6    6  501    0  0.10137675532E+03 -0.31461559429E+02 -0.29871337622E+03  0.31701223537E+03  0.00000000000E+00 0. -1.
         -1    1    6    6    0  501  0.57459884468E+02 -0.29811657542E+02 -0.61670307508E+02  0.89406935282E+02  0.00000000000E+00 0.  1.
          5    1    5    5  502    0 -0.29078277040E+02 -0.37657067070E+02 -0.64520596525E+02  0.80303164768E+02  0.47000000000E+01 0. -1.
         11    1    4    4    0    0 -0.14867013480E+02  0.47411262661E+02  0.58904115006E+02  0.77061992458E+02  0.00000000000E+00 0. -1.
        -12    1    4    4    0    0 -0.32753612652E+02  0.69147678179E+02 -0.17013929277E+02  0.78381594324E+02  0.00000000000E+00 0.  1.
         -5    1    3    3    0  504 -0.82137736619E+02 -0.17628656799E+02 -0.81559308627E+01  0.84533937124E+02  0.47000000000E+01 0.  1.
<mgrwt>
<rscale>  2 0.23754397E+03</rscale>
<asrwt>0</asrwt>
<pdfrwt beam="1">  1       21 0.25809988E-01 0.23759464E+03</pdfrwt>
<pdfrwt beam="2">  1       21 0.85989990E-01 0.23759464E+03</pdfrwt>
<totfact> 0.16190577E+04</totfact>
</mgrwt>
</event>
<event>
12    1  0.1410528E-001  0.2196621E+03  0.7546771E-02  0.1134317E+00
         21   -1    0    0  502  503  0.00000000000E+00  0.00000000000E+00  0.35615655366E+03  0.35615655366E+03  0.00000000000E+00 0.  1.
         21   -1    0    0  503  504 -0.00000000000E+00 -0.00000000000E+00 -0.20879303193E+03  0.20879303193E+03  0.00000000000E+00 0. -1.
         -6    2    1    2    0  504  0.12324905321E+03 -0.53286981464E+02  0.24185366458E+03  0.32671794132E+03  0.17384356934E+03 0.  0.
        -24    2    3    3    0    0  0.35087623690E+01  0.39494836596E+01  0.58140183370E+02  0.10003207196E+03  0.81229456872E+02 0.  0.
          6    2    1    2  502    0 -0.12324905321E+03  0.53286981464E+02 -0.94490142851E+02  0.23823164428E+03  0.17261546202E+03 0.  0.
         24    2    5    5    0    0 -0.10711705420E+03  0.30895634691E+02  0.24655697997E+01  0.13731527287E+03  0.80129904432E+02 0.  0.
          2    1    6    6  501    0 -0.10594539048E+03  0.28095553839E+02 -0.22728398143E+02  0.11193911734E+03  0.00000000000E+00 0. -1.
         -1    1    6    6    0  501 -0.11716637261E+01  0.28000808523E+01  0.25193967943E+02  0.25376155528E+02  0.00000000000E+00 0.  1.
          5    1    5    5  502    0 -0.16131999009E+02  0.22391346773E+02 -0.96955712650E+02  0.10091637141E+03  0.47000000000E+01 0. -1.
         13    1    4    4    0    0 -0.55537340204E+01 -0.75121849673E+01  0.76217532524E+02  0.76787949241E+02  0.00000000000E+00 0. -1.
        -14    1    4    4    0    0  0.90624963895E+01  0.11461668627E+02 -0.18077349154E+02  0.23244122719E+02  0.00000000000E+00 0.  1.
         -5    1    3    3    0  504  0.11974029084E+03 -0.57236465124E+02  0.18371348121E+03  0.22668586936E+03  0.47000000000E+01 0.  1.
<mgrwt>
<rscale>  2 0.21941899E+03</rscale>
<asrwt>0</asrwt>
<pdfrwt beam="1">  1       21 0.54793316E-01 0.21966205E+03</pdfrwt>
<pdfrwt beam="2">  1       21 0.32122005E-01 0.21966205E+03</pdfrwt>
<totfact> 0.28886247E+04</totfact>
</mgrwt>
</event>
<event>
12    1  0.1410528E-001  0.1971346E+03  0.7546771E-02  0.1152181E+00
         21   -1    0    0  502  503  0.00000000000E+00  0.00000000000E+00  0.20372005024E+03  0.20372005024E+03  0.00000000000E+00 0.  1.
         21   -1    0    0  503  504 -0.00000000000E+00 -0.00000000000E+00 -0.22278948000E+03  0.22278948000E+03  0.00000000000E+00 0. -1.
         -6    2    1    2    0  504  0.72288022939E+02 -0.62286162478E+02 -0.90399444882E+02  0.21686697278E+03  0.17249376786E+03 0.  0.
        -24    2    3    3    0    0 -0.62852974703E+01  0.18690076146E+02 -0.42917230490E+02  0.94361590916E+02  0.81690863974E+02 0.  0.
          6    2    1    2  502    0 -0.72288022939E+02  0.62286162478E+02  0.71330015124E+02  0.20964255746E+03  0.17250190302E+03 0.  0.
         24    2    5    5    0    0 -0.10051228498E+03  0.57991789111E+02  0.97292974228E+01  0.14158530926E+03  0.80535542054E+02 0.  0.
          2    1    6    6  501    0 -0.76677328371E+02  0.73563366081E+02 -0.10326797048E+02  0.10675965648E+03  0.00000000000E+00 0. -1.
         -1    1    6    6    0  501 -0.23834956614E+02 -0.15571576971E+02  0.20056094471E+02  0.34825652780E+02  0.00000000000E+00 0.  1.
          5    1    5    5  502    0  0.28224262046E+02  0.42943733671E+01  0.61600717702E+02  0.68057248196E+02  0.47000000000E+01 0. -1.
         13    1    4    4    0    0 -0.10504129451E+02  0.12538367654E+02 -0.67094619244E+02  0.69059650524E+02  0.00000000000E+00 0. -1.
        -14    1    4    4    0    0  0.42188319810E+01  0.61517084922E+01  0.24177388754E+02  0.25301940393E+02  0.00000000000E+00 0.  1.
         -5    1    3    3    0  504  0.78573320409E+02 -0.80976238624E+02 -0.47482214393E+02  0.12250538186E+03  0.47000000000E+01 0.  1.
<mgrwt>
<rscale>  2 0.19713277E+03</rscale>
<asrwt>0</asrwt>
<pdfrwt beam="1">  1       21 0.31341546E-01 0.19713455E+03</pdfrwt>
<pdfrwt beam="2">  1       21 0.34275305E-01 0.19713455E+03</pdfrwt>
<totfact> 0.80095381E+04</totfact>
</mgrwt>
</event>
<event>
12    1  0.1410528E-001  0.1770051E+03  0.7546771E-02  0.1171982E+00
         21   -1    0    0  502  503  0.00000000000E+00  0.00000000000E+00  0.24983203371E+04  0.24983203371E+04  0.00000000000E+00 0.  1.
         21   -1    0    0  503  504 -0.00000000000E+00 -0.00000000000E+00 -0.13850262176E+02  0.13850262176E+02  0.00000000000E+00 0.  1.
         -6    2    1    2    0  504  0.28454664735E+02 -0.98842012013E+01  0.16925369490E+04  0.17017673597E+04  0.17442321373E+03 0.  0.
        -24    2    3    3    0    0 -0.30714220901E+01 -0.47229348871E+02  0.52680269356E+03  0.53499960283E+03  0.80395597254E+02 0.  0.
          6    2    1    2  502    0 -0.28454664735E+02  0.98842012013E+01  0.79193312590E+03  0.81040323954E+03  0.16937523246E+03 0.  0.
         24    2    5    5    0    0 -0.30427107287E+02  0.68288315413E+02  0.36785565785E+03  0.38229259963E+03  0.72392982012E+02 0.  0.
          4    1    6    6  501    0 -0.22554996216E+02  0.52223712230E+02  0.35670448388E+03  0.36121203302E+03  0.00000000000E+00 0. -1.
         -3    1    6    6    0  501 -0.78721110708E+01  0.16064603183E+02  0.11151173964E+02  0.21080566618E+02  0.00000000000E+00 0.  1.
          5    1    5    5  502    0  0.19724425518E+01 -0.58404114212E+02  0.42407746805E+03  0.42811063990E+03  0.47000000000E+01 0. -1.
         13    1    4    4    0    0 -0.56210586311E+01 -0.71236877790E+01  0.28547534943E+01  0.95127727409E+01  0.00000000000E+00 0. -1.
        -14    1    4    4    0    0  0.25496365410E+01 -0.40105661092E+02  0.52394794006E+03  0.52548683009E+03  0.00000000000E+00 0.  1.
         -5    1    3    3    0  504  0.31526086825E+02  0.37345147670E+02  0.11657342554E+04  0.11667677569E+04  0.47000000000E+01 0.  1.
<mgrwt>
<rscale>  2 0.17574879E+03</rscale>
<asrwt>0</asrwt>
<pdfrwt beam="1">  1       21 0.38435662E+00 0.17700515E+03</pdfrwt>
<pdfrwt beam="2">  1       21 0.21308116E-02 0.17700515E+03</pdfrwt>
<totfact> 0.12323714E+04</totfact>
</mgrwt>
</event>
<event>
12    1  0.1410528E-001  0.2353273E+03  0.7546771E-02  0.1123001E+00
         21   -1    0    0  502  503  0.00000000000E+00  0.00000000000E+00  0.49828440573E+03  0.49828440573E+03  0.00000000000E+00 0.  1.
         21   -1    0    0  503  504 -0.00000000000E+00 -0.00000000000E+00 -0.19535918164E+03  0.19535918164E+03  0.00000000000E+00 0.  1.
         -6    2    1    2    0  504  0.52007846905E+02  0.15045123215E+03 -0.76403308061E+02  0.24741950924E+03  0.17331635432E+03 0.  0.
        -24    2    3    3    0    0 -0.39717603557E+01  0.64132076678E+01 -0.31143815358E+02  0.86325807918E+02  0.80157992519E+02 0.  0.
          6    2    1    2  502    0 -0.52007846905E+02 -0.15045123215E+03  0.37932853215E+03  0.44622407813E+03  0.17287395176E+03 0.  0.
         24    2    5    5    0    0 -0.27515936255E+02 -0.17528821127E+03  0.34870414346E+03  0.39956925628E+03  0.81104421185E+02 0.  0.
          2    1    6    6  501    0 -0.54231255194E+02 -0.85404103018E+02  0.18889954319E+03  0.21428468744E+03  0.00000000000E+00 0. -1.
         -1    1    6    6    0  501  0.26715318939E+02 -0.89884108253E+02  0.15980460027E+03  0.18528456884E+03  0.00000000000E+00 0.  1.
          5    1    5    5  502    0 -0.24491910649E+02  0.24836979118E+02  0.30624388693E+02  0.46654821850E+02  0.47000000000E+01 0. -1.
         13    1    4    4    0    0 -0.20873034957E+02  0.17849449618E+02  0.18187371369E+02  0.32940353934E+02  0.00000000000E+00 0. -1.
        -14    1    4    4    0    0  0.16901274601E+02 -0.11436241951E+02 -0.49331186727E+02  0.53385453983E+02  0.00000000000E+00 0.  1.
         -5    1    3    3    0  504  0.55979607261E+02  0.14403802449E+03 -0.45259492703E+02  0.16109370132E+03  0.47000000000E+01 0.  1.
<mgrwt>
<rscale>  2 0.23524587E+03</rscale>
<asrwt>0</asrwt>
<pdfrwt beam="1">  1       21 0.76659139E-01 0.23532732E+03</pdfrwt>
<pdfrwt beam="2">  1       21 0.30055259E-01 0.23532732E+03</pdfrwt>
<totfact> 0.15670687E+04</totfact>
</mgrwt>
</event>
<event>
12    1  0.1410528E-001  0.2016333E+03  0.7546771E-02  0.1148529E+00
         21   -1    0    0  502  503  0.00000000000E+00  0.00000000000E+00  0.11897012340E+03  0.11897012340E+03  0.00000000000E+00 0. -1.
         21   -1    0    0  503  504 -0.00000000000E+00 -0.00000000000E+00 -0.35803887122E+03  0.35803887122E+03  0.00000000000E+00 0.  1.
         -6    2    1    2    0  504 -0.31488516444E+02 -0.99715517297E+02 -0.17263648669E+03  0.26544180219E+03  0.17239861588E+03 0.  0.
        -24    2    3    3    0    0 -0.46966143682E+02 -0.82445343942E+02 -0.37741912549E+02  0.12848760559E+03  0.77984353804E+02 0.  0.
          6    2    1    2  502    0  0.31488516444E+02  0.99715517297E+02 -0.66432261129E+02  0.21156719242E+03  0.17150137181E+03 0.  0.
         24    2    5    5    0    0 -0.22364001069E+01 -0.94998581415E+01 -0.79222280260E+01  0.83072514702E+02  0.82115968069E+02 0.  0.
          2    1    6    6  501    0 -0.18527220497E+02  0.83488106366E+01  0.31113669186E+02  0.37162090208E+02  0.00000000000E+00 0. -1.
         -1    1    6    6    0  501  0.16290820390E+02 -0.17848668778E+02 -0.39035897212E+02  0.45910424495E+02  0.00000000000E+00 0.  1.
          5    1    5    5  502    0  0.33724916551E+02  0.10921537544E+03 -0.58510033103E+02  0.12849467772E+03  0.47000000000E+01 0. -1.
         11    1    4    4    0    0  0.26075389566E+01 -0.70668309414E+02 -0.13223867217E+02  0.71942198180E+02  0.00000000000E+00 0. -1.
        -12    1    4    4    0    0 -0.49573682639E+02 -0.11777034528E+02 -0.24518045331E+02  0.56545407413E+02  0.00000000000E+00 0.  1.
         -5    1    3    3    0  504  0.15477627238E+02 -0.17270173354E+02 -0.13489457414E+03  0.13695419660E+03  0.47000000000E+01 0.  1.
<mgrwt>
<rscale>  2 0.20144139E+03</rscale>
<asrwt>0</asrwt>
<pdfrwt beam="1">  1       21 0.18303096E-01 0.20163332E+03</pdfrwt>
<pdfrwt beam="2">  1       21 0.55082903E-01 0.20163332E+03</pdfrwt>
<totfact> 0.84314375E+04</totfact>
</mgrwt>
</event>
<event>
12    1  0.1410528E-001  0.2043633E+03  0.7546771E-02  0.1149744E+00
         21   -1    0    0  502  503  0.00000000000E+00  0.00000000000E+00  0.86578659272E+02  0.86578659272E+02  0.00000000000E+00 0. -1.
         21   -1    0    0  503  504 -0.00000000000E+00 -0.00000000000E+00 -0.61908013215E+03  0.61908013215E+03  0.00000000000E+00 0. -1.
         -6    2    1    2    0  504 -0.53575518697E+02 -0.48305930283E+02 -0.44591752753E+03  0.48371025614E+03  0.17300107348E+03 0.  0.
        -24    2    3    3    0    0 -0.12605854999E+02  0.28787717868E+02 -0.31632244945E+03  0.32738073816E+03  0.78298246521E+02 0.  0.
          6    2    1    2  502    0  0.53575518697E+02  0.48305930283E+02 -0.86583945345E+02  0.22194853529E+03  0.19120819444E+03 0.  0.
         24    2    5    5    0    0  0.77990061625E+02  0.77069097121E+02 -0.10812159073E+03  0.17825242743E+03  0.89786157400E+02 0.  0.
          4    1    6    6  501    0  0.97652528562E+02  0.54885543378E+02 -0.83476450207E+02  0.13970238704E+03  0.00000000000E+00 0. -1.
         -3    1    6    6    0  501 -0.19662466937E+02  0.22183553743E+02 -0.24645140520E+02  0.38550040388E+02  0.00000000000E+00 0.  1.
          5    1    5    5  502    0 -0.24414542928E+02 -0.28763166838E+02  0.21537645382E+02  0.43696107853E+02  0.47000000000E+01 0. -1.
         11    1    4    4    0    0 -0.20802756485E+02  0.82491079453E+01 -0.29750134577E+03  0.29834183950E+03  0.00000000000E+00 0. -1.
        -12    1    4    4    0    0  0.81969014868E+01  0.20538609923E+02 -0.18821103681E+02  0.29038898659E+02  0.00000000000E+00 0.  1.
         -5    1    3    3    0  504 -0.40969663699E+02 -0.77093648152E+02 -0.12959507808E+03  0.15632951798E+03  0.47000000000E+01 0.  1.
<mgrwt>
<rscale>  2 0.19999397E+03</rscale>
<asrwt>0</asrwt>
<pdfrwt beam="1">  1       21 0.13319793E-01 0.20436334E+03</pdfrwt>
<pdfrwt beam="2">  1       21 0.95243100E-01 0.20436334E+03</pdfrwt>
<totfact> 0.44527012E+04</totfact>
</mgrwt>
</event>
<event>
12    1  0.1803907E-001  0.1734455E+03  0.7546771E-02  0.1178809E+00
         21   -1    0    0  502  503  0.00000000000E+00  0.00000000000E+00  0.17347783698E+03  0.17347783698E+03  0.00000000000E+00 0.  1.
         21   -1    0    0  503  504 -0.00000000000E+00 -0.00000000000E+00 -0.16605599767E+03  0.16605599767E+03  0.00000000000E+00 0.  1.
         -6    2    1    2    0  504  0.16203454398E+02  0.66954572548E+01 -0.35671671296E+02  0.17707568149E+03  0.17255708551E+03 0.  0.
        -24    2    3    3    0    0  0.56917870363E+02  0.52094853160E+02 -0.20651955277E+02  0.11409591740E+03  0.81473047183E+02 0.  0.
          6    2    1    2  502    0 -0.16203454398E+02 -0.66954572548E+01  0.43093510610E+02  0.16245815315E+03  0.15565416727E+03 0.  0.
         24    2    5    5    0    0 -0.17167771831E+02  0.50224807888E+02  0.44375437185E+02  0.10532165144E+03  0.79411630887E+02 0.  0.
          4    1    6    6  501    0 -0.13909962591E+02  0.14993443484E+02 -0.22041320270E+02  0.30068425400E+02  0.00000000000E+00 0. -1.
         -3    1    6    6    0  501 -0.32578092401E+01  0.35231364405E+02  0.66416757455E+02  0.75253226042E+02  0.00000000000E+00 0.  1.
          5    1    5    5  502    0  0.96431743362E+00 -0.56920265143E+02 -0.12819265749E+01  0.57136501712E+02  0.47000000000E+01 0. -1.
         11    1    4    4    0    0  0.14781824389E+02 -0.16319476044E+02  0.14531189536E+02  0.26381491617E+02  0.00000000000E+00 0. -1.
        -12    1    4    4    0    0  0.42136045975E+02  0.68414329205E+02 -0.35183144812E+02  0.87714425779E+02  0.00000000000E+00 0.  1.
         -5    1    3    3    0  504 -0.40714415965E+02 -0.45399395906E+02 -0.15019716020E+02  0.62979764094E+02  0.47000000000E+01 0.  1.
<mgrwt>
<rscale>  2 0.16908177E+03</rscale>
<asrwt>0</asrwt>
<pdfrwt beam="1">  1       21 0.26688898E-01 0.17344546E+03</pdfrwt>
<pdfrwt beam="2">  1       21 0.25547077E-01 0.17344546E+03</pdfrwt>
<totfact> 0.19529460E+05</totfact>
</mgrwt>
</event>
<event>
12    1  0.1410528E-001  0.2251333E+03  0.7546771E-02  0.1130409E+00
         21   -1    0    0  502  503  0.00000000000E+00  0.00000000000E+00  0.10056166625E+03  0.10056166625E+03  0.00000000000E+00 0. -1.
         21   -1    0    0  503  504 -0.00000000000E+00 -0.00000000000E+00 -0.50045015628E+03  0.50045015628E+03  0.00000000000E+00 0. -1.
         -6    2    1    2    0  504  0.13298062051E+03 -0.49540393813E+02 -0.20437140601E+03  0.30406033106E+03  0.17477676413E+03 0.  0.
        -24    2    3    3    0    0  0.44166731342E+02  0.35990852108E+02 -0.10760628179E+03  0.14725127455E+03  0.82811740613E+02 0.  0.
          6    2    1    2  502    0 -0.13298062051E+03  0.49540393813E+02 -0.19551708402E+03  0.29695149147E+03  0.17267067525E+03 0.  0.
         24    2    5    5    0    0 -0.33503353591E+02  0.35318932269E+02 -0.16599980126E+03  0.19211191600E+03  0.83553291805E+02 0.  0.
          2    1    6    6  501    0 -0.23990458782E+02  0.18414936546E+02 -0.16969264627E+03  0.17236660407E+03  0.00000000000E+00 0. -1.
         -1    1    6    6    0  501 -0.95128948092E+01  0.16903995723E+02  0.36928450049E+01  0.19745311932E+02  0.00000000000E+00 0.  1.
          5    1    5    5  502    0 -0.99477266921E+02  0.14221461544E+02 -0.29517282757E+02  0.10483957547E+03  0.47000000000E+01 0. -1.
         13    1    4    4    0    0  0.61999137756E+02  0.48184375308E+02 -0.78785300507E+02  0.11123286692E+03  0.00000000000E+00 0. -1.
        -14    1    4    4    0    0 -0.17832406414E+02 -0.12193523200E+02 -0.28820981279E+02  0.36018407633E+02  0.00000000000E+00 0.  1.
         -5    1    3    3    0  504  0.88813889170E+02 -0.85531245921E+02 -0.96765124222E+02  0.15680905651E+03  0.47000000000E+01 0.  1.
<mgrwt>
<rscale>  2 0.22472444E+03</rscale>
<asrwt>0</asrwt>
<pdfrwt beam="1">  1       21 0.15471025E-01 0.22513332E+03</pdfrwt>
<pdfrwt beam="2">  1       21 0.76992333E-01 0.22513332E+03</pdfrwt>
<totfact> 0.54752059E+04</totfact>
</mgrwt>
</event>
<event>
12    1  0.1410528E-001  0.1810100E+03  0.7546771E-02  0.1167055E+00
         21   -1    0    0  502  503  0.00000000000E+00  0.00000000000E+00  0.69873156879E+02  0.69873156879E+02  0.00000000000E+00 0.  1.
         21   -1    0    0  503  504 -0.00000000000E+00 -0.00000000000E+00 -0.14444569144E+04  0.14444569144E+04  0.00000000000E+00 0.  1.
         -6    2    1    2    0  504 -0.51693499768E+02  0.12875240288E+02 -0.13097325547E+04  0.13220534981E+04  0.17201191013E+03 0.  0.
        -24    2    3    3    0    0 -0.50113320725E+02  0.62450729847E+02 -0.63628815928E+03  0.64676861757E+03  0.83878390903E+02 0.  0.
          6    2    1    2  502    0  0.51693499768E+02 -0.12875240288E+02 -0.64851202817E+02  0.19227657319E+03  0.17299309917E+03 0.  0.
         24    2    5    5    0    0  0.10083232968E+03 -0.71886771586E+01 -0.37931450955E+02  0.13576352473E+03  0.82304944492E+02 0.  0.
          2    1    6    6  501    0  0.72409295859E+02  0.10027936851E+02 -0.61084220809E+02  0.95262519787E+02  0.00000000000E+00 0. -1.
         -1    1    6    6    0  501  0.28423033823E+02 -0.17216614010E+02  0.23152769854E+02  0.40501004945E+02  0.00000000000E+00 0.  1.
          5    1    5    5  502    0 -0.49138829914E+02 -0.56865631298E+01 -0.26919751862E+02  0.56513048456E+02  0.47000000000E+01 0. -1.
         11    1    4    4    0    0 -0.12584660497E+02  0.75017322288E+02 -0.39522568549E+03  0.40247896193E+03  0.00000000000E+00 0. -1.
        -12    1    4    4    0    0 -0.37528660228E+02 -0.12566592441E+02 -0.24106247379E+03  0.24428965564E+03  0.00000000000E+00 0.  1.
         -5    1    3    3    0  504 -0.15801790434E+01 -0.49575489559E+02 -0.67344439538E+03  0.67528488048E+03  0.47000000000E+01 0.  1.
<mgrwt>
<rscale>  2 0.18077512E+03</rscale>
<asrwt>0</asrwt>
<pdfrwt beam="1">  1       21 0.10749718E-01 0.18100995E+03</pdfrwt>
<pdfrwt beam="2">  1       21 0.22222410E+00 0.18100995E+03</pdfrwt>
<totfact> 0.70379964E+03</totfact>
</mgrwt>
</event>
<event>
12    1  0.1410528E-001  0.1784949E+03  0.7546771E-02  0.1170084E+00
         21   -1    0    0  502  503  0.00000000000E+00  0.00000000000E+00  0.19600576839E+03  0.19600576839E+03  0.00000000000E+00 0. -1.
         21   -1    0    0  503  504 -0.00000000000E+00 -0.00000000000E+00 -0.17076783083E+03  0.17076783083E+03  0.00000000000E+00 0. -1.
         -6    2    1    2    0  504  0.26015097461E+02  0.74642079820E+01  0.59502521236E+02  0.18501970230E+03  0.17308737824E+03 0.  0.
        -24    2    3    3    0    0  0.82142492371E+01 -0.38782663878E+01  0.10638538665E+03  0.13339010815E+03  0.79953459076E+02 0.  0.
          6    2    1    2  502    0 -0.26015097461E+02 -0.74642079820E+01 -0.34264583675E+02  0.18175389692E+03  0.17643105638E+03 0.  0.
         24    2    5    5    0    0 -0.71045648456E+02 -0.31341831466E+01  0.22167515257E+02  0.10927513156E+03  0.79952163050E+02 0.  0.
          4    1    6    6  501    0  0.92034734624E+01  0.19436268496E+02 -0.40575770930E+01  0.21884615343E+02  0.00000000000E+00 0. -1.
         -3    1    6    6    0  501 -0.80249121918E+02 -0.22570451643E+02  0.26225092350E+02  0.87390516218E+02  0.00000000000E+00 0.  1.
          5    1    5    5  502    0  0.45030550995E+02 -0.43300248354E+01 -0.56432098933E+02  0.72478765359E+02  0.47000000000E+01 0. -1.
         11    1    4    4    0    0  0.40263910722E+02  0.38471431986E+01  0.30516366295E+02  0.50667855977E+02  0.00000000000E+00 0. -1.
        -12    1    4    4    0    0 -0.32049661485E+02 -0.77254095864E+01  0.75869020356E+02  0.82722252172E+02  0.00000000000E+00 0.  1.
         -5    1    3    3    0  504  0.17800848223E+02  0.11342474370E+02 -0.46882865415E+02  0.51629594148E+02  0.47000000000E+01 0.  1.
<mgrwt>
<rscale>  2 0.17766300E+03</rscale>
<asrwt>0</asrwt>
<pdfrwt beam="1">  1       21 0.30154734E-01 0.17849487E+03</pdfrwt>
<pdfrwt beam="2">  1       21 0.26271974E-01 0.17849487E+03</pdfrwt>
<totfact> 0.14598587E+05</totfact>
</mgrwt>
</event>
<event>
12    1  0.1410528E-001  0.1826739E+03  0.7546771E-02  0.1166257E+00
         21   -1    0    0  502  503  0.00000000000E+00  0.00000000000E+00  0.19500190745E+02  0.19500190745E+02  0.00000000000E+00 0. -1.
         21   -1    0    0  503  504 -0.00000000000E+00 -0.00000000000E+00 -0.20168852624E+04  0.20168852624E+04  0.00000000000E+00 0. -1.
         -6    2    1    2    0  504  0.26952576033E+02  0.34651359554E+02 -0.56786928146E+03  0.59524522821E+03  0.17295722826E+03 0.  0.
        -24    2    3    3    0    0  0.28417688130E+02  0.45388946961E+02 -0.57393080430E+03  0.58196839139E+03  0.80143115397E+02 0.  0.
          6    2    1    2  502    0 -0.26952576033E+02 -0.34651359554E+02 -0.14295157902E+04  0.14411402250E+04  0.17732060072E+03 0.  0.
         24    2    5    5    0    0 -0.78839798581E+02 -0.21944935745E+02 -0.66472800099E+03  0.67447459404E+03  0.79720566161E+02 0.  0.
          4    1    6    6  501    0 -0.18394859047E+02 -0.45627292485E+02 -0.30283577172E+03  0.30680568002E+03  0.00000000000E+00 0. -1.
         -3    1    6    6    0  501 -0.60444939533E+02  0.23682356740E+02 -0.36189222927E+03  0.36766891403E+03  0.00000000000E+00 0.  1.
          5    1    5    5  502    0  0.51887222548E+02 -0.12706423809E+02 -0.76478778924E+03  0.76666563092E+03  0.47000000000E+01 0. -1.
         11    1    4    4    0    0 -0.14231842918E+02 -0.92910238850E+01 -0.25595679175E+03  0.25652046258E+03  0.00000000000E+00 0. -1.
        -12    1    4    4    0    0  0.42649531048E+02  0.54679970846E+02 -0.31797401255E+03  0.32544792881E+03  0.00000000000E+00 0.  1.
         -5    1    3    3    0  504 -0.14651120972E+01 -0.10737587407E+02  0.60615228418E+01  0.13276836820E+02  0.47000000000E+01 0.  1.
<mgrwt>
<rscale>  2 0.18160647E+03</rscale>
<asrwt>0</asrwt>
<pdfrwt beam="1">  1       21 0.30000289E-02 0.18267390E+03</pdfrwt>
<pdfrwt beam="2">  1       21 0.31029009E+00 0.18267390E+03</pdfrwt>
<totfact> 0.19042691E+04</totfact>
</mgrwt>
</event>
<event>
12    1  0.1410528E-001  0.1802698E+03  0.7546771E-02  0.1167873E+00
         21   -1    0    0  502  503  0.00000000000E+00  0.00000000000E+00  0.12136497266E+03  0.12136497266E+03  0.00000000000E+00 0. -1.
         21   -1    0    0  503  504 -0.00000000000E+00 -0.00000000000E+00 -0.26695308618E+03  0.26695308618E+03  0.00000000000E+00 0. -1.
         -6    2    1    2    0  504 -0.41265000338E+02 -0.29580907304E+02 -0.59989407807E+02  0.18998928283E+03  0.17297216022E+03 0.  0.
        -24    2    3    3    0    0  0.92355653929E+01 -0.74669307314E+02 -0.16753533325E+02  0.10952375110E+03  0.77807262210E+02 0.  0.
          6    2    1    2  502    0  0.41265000338E+02  0.29580907304E+02 -0.85598705705E+02  0.19832877601E+03  0.17154980223E+03 0.  0.
         24    2    5    5    0    0  0.47711963892E+02 -0.16329280463E+02 -0.11122229771E+03  0.14515014170E+03  0.78454363993E+02 0.  0.
          2    1    6    6  501    0  0.22655210066E+02 -0.43155712581E+02 -0.33346718878E+02  0.59056563830E+02  0.00000000000E+00 0. -1.
         -1    1    6    6    0  501  0.25056753826E+02  0.26826432118E+02 -0.77875578831E+02  0.86093577872E+02  0.00000000000E+00 0.  1.
          5    1    5    5  502    0 -0.64469635546E+01  0.45910187768E+02  0.25623592004E+02  0.53178634311E+02  0.47000000000E+01 0. -1.
         13    1    4    4    0    0 -0.16444289131E+02 -0.24049223038E+02 -0.38895432665E+02  0.48596650667E+02  0.00000000000E+00 0. -1.
        -14    1    4    4    0    0  0.25679854524E+02 -0.50620084276E+02  0.22141899340E+02  0.60927100430E+02  0.00000000000E+00 0.  1.
         -5    1    3    3    0  504 -0.50500565731E+02  0.45088400010E+02 -0.43235874482E+02  0.80465531731E+02  0.47000000000E+01 0.  1.
<mgrwt>
<rscale>  2 0.17992774E+03</rscale>
<asrwt>0</asrwt>
<pdfrwt beam="1">  1       21 0.18671534E-01 0.18026979E+03</pdfrwt>
<pdfrwt beam="2">  1       21 0.41069706E-01 0.18026979E+03</pdfrwt>
<totfact> 0.15040164E+05</totfact>
</mgrwt>
</event>
<event>
12    1  0.1410528E-001  0.2269851E+03  0.7546771E-02  0.1128889E+00
         21   -1    0    0  502  503  0.00000000000E+00  0.00000000000E+00  0.83158560911E+02  0.83158560911E+02  0.00000000000E+00 0. -1.
         21   -1    0    0  503  504 -0.00000000000E+00 -0.00000000000E+00 -0.65439480442E+03  0.65439480442E+03  0.00000000000E+00 0.  1.
         -6    2    1    2    0  504 -0.14262890884E+03 -0.34741701274E+02 -0.37305275813E+03  0.43668134290E+03  0.17312493594E+03 0.  0.
        -24    2    3    3    0    0 -0.11222697850E+03 -0.47899175427E+02 -0.14233420086E+03  0.20354932202E+03  0.79272164393E+02 0.  0.
          6    2    1    2  502    0  0.14262890884E+03  0.34741701274E+02 -0.19818348538E+03  0.30087202243E+03  0.17232901253E+03 0.  0.
         24    2    5    5    0    0  0.13352076050E+03  0.81039001703E+02 -0.17344717446E+03  0.24738956296E+03  0.81991220574E+02 0.  0.
          2    1    6    6  501    0  0.11903120144E+03  0.97526414107E+02 -0.14478033289E+03  0.21128457861E+03  0.00000000000E+00 0. -1.
         -1    1    6    6    0  501  0.14489559054E+02 -0.16487412403E+02 -0.28666841566E+02  0.36104984347E+02  0.00000000000E+00 0.  1.
          5    1    5    5  502    0  0.91081483428E+01 -0.46297300429E+02 -0.24736310921E+02  0.53482459473E+02  0.47000000000E+01 0. -1.
         11    1    4    4    0    0 -0.31869571820E+02  0.18759317935E+01  0.89910471712E+00  0.31937393716E+02  0.00000000000E+00 0. -1.
        -12    1    4    4    0    0 -0.80357406684E+02 -0.49775107221E+02 -0.14323330558E+03  0.17161192830E+03  0.00000000000E+00 0.  1.
         -5    1    3    3    0  504 -0.30401930338E+02  0.13157474154E+02 -0.23071855727E+03  0.23313202088E+03  0.47000000000E+01 0.  1.
<mgrwt>
<rscale>  2 0.22683333E+03</rscale>
<asrwt>0</asrwt>
<pdfrwt beam="1">  1       21 0.12793625E-01 0.22698510E+03</pdfrwt>
<pdfrwt beam="2">  1       21 0.10067612E+00 0.22698510E+03</pdfrwt>
<totfact> 0.41528930E+04</totfact>
</mgrwt>
</event>
<event>
12    1  0.1410528E-001  0.1861361E+03  0.7546771E-02  0.1162784E+00
         21   -1    0    0  502  503  0.00000000000E+00  0.00000000000E+00  0.23197658036E+03  0.23197658036E+03  0.00000000000E+00 0.  1.
         21   -1    0    0  503  504 -0.00000000000E+00 -0.00000000000E+00 -0.19630018772E+03  0.19630018772E+03  0.00000000000E+00 0.  1.
         -6    2    1    2    0  504  0.12330344238E+02 -0.63016253163E+02  0.12540284502E+03  0.22164305087E+03  0.17110430418E+03 0.  0.
        -24    2    3    3    0    0 -0.10192495350E+02 -0.25049964176E+02 -0.59438285197E+01  0.82996896750E+02  0.78241728674E+02 0.  0.
          6    2    1    2  502    0 -0.12330344238E+02  0.63016253163E+02 -0.89726452383E+02  0.20663371722E+03  0.17470996332E+03 0.  0.
         24    2    5    5    0    0 -0.22765827704E+02 -0.27249891016E+02 -0.16030582462E+02  0.89543805852E+02  0.80624277491E+02 0.  0.
          4    1    6    6  501    0 -0.20317936579E+02  0.16823814180E+02  0.19561227966E+02  0.32840537602E+02  0.00000000000E+00 0. -1.
         -3    1    6    6    0  501 -0.24478911251E+01 -0.44073705196E+02 -0.35591810429E+02  0.56703268250E+02  0.00000000000E+00 0.  1.
          5    1    5    5  502    0  0.10435483466E+02  0.90266144179E+02 -0.73695869920E+02  0.11708991136E+03  0.47000000000E+01 0. -1.
         13    1    4    4    0    0  0.29045450052E+01 -0.44598164397E+02  0.19127067835E+02  0.48613551334E+02  0.00000000000E+00 0. -1.
        -14    1    4    4    0    0 -0.13097040355E+02  0.19548200221E+02 -0.25070896355E+02  0.34383345416E+02  0.00000000000E+00 0.  1.
         -5    1    3    3    0  504  0.22522839588E+02 -0.37966288987E+02  0.13134667354E+03  0.13864615412E+03  0.47000000000E+01 0.  1.
<mgrwt>
<rscale>  2 0.18528529E+03</rscale>
<asrwt>0</asrwt>
<pdfrwt beam="1">  1       21 0.35688705E-01 0.18613612E+03</pdfrwt>
<pdfrwt beam="2">  1       21 0.30200029E-01 0.18613612E+03</pdfrwt>
<totfact> 0.79843979E+04</totfact>
</mgrwt>
</event>
<event>
12    1  0.1410528E-001  0.1760705E+03  0.7546771E-02  0.1174475E+00
         21   -1    0    0  502  503  0.00000000000E+00  0.00000000000E+00  0.54608981160E+03  0.54608981160E+03  0.00000000000E+00 0.  1.
         21   -1    0    0  503  504 -0.00000000000E+00 -0.00000000000E+00 -0.63960298945E+02  0.63960298945E+02  0.00000000000E+00 0.  1.
         -6    2    1    2    0  504  0.75308291699E+01 -0.38866494190E+02  0.12303415819E+03  0.21479810137E+03  0.17156194949E+03 0.  0.
        -24    2    3    3    0    0  0.38700112859E+02  0.36030125153E+02  0.59044343151E+02  0.11136786274E+03  0.78234888250E+02 0.  0.
          6    2    1    2  502    0 -0.75308291699E+01  0.38866494190E+02  0.35909535447E+03  0.39525200918E+03  0.16033514711E+03 0.  0.
         24    2    5    5    0    0 -0.38435607580E+02  0.76169493700E+02  0.24728328471E+03  0.27330674259E+03  0.79173637933E+02 0.  0.
          4    1    6    6  501    0 -0.56030754019E+02  0.70099494438E+02  0.23348499758E+03  0.25013721956E+03  0.00000000000E+00 0. -1.
         -3    1    6    6    0  501  0.17595146439E+02  0.60699992620E+01  0.13798287136E+02  0.23169523023E+02  0.00000000000E+00 0.  1.
          5    1    5    5  502    0  0.30904778410E+02 -0.37302999510E+02  0.11181206975E+03  0.12194526659E+03  0.47000000000E+01 0. -1.
         13    1    4    4    0    0  0.31561765241E+02  0.40423821778E+02 -0.44819209554E+00  0.51287730194E+02  0.00000000000E+00 0. -1.
        -14    1    4    4    0    0  0.71383476181E+01 -0.43936966252E+01  0.59492535247E+02  0.60080132547E+02  0.00000000000E+00 0.  1.
         -5    1    3    3    0  504 -0.31169283689E+02 -0.74896619343E+02  0.63989815037E+02  0.10343023863E+03  0.47000000000E+01 0.  1.
<mgrwt>
<rscale>  2 0.17327460E+03</rscale>
<asrwt>0</asrwt>
<pdfrwt beam="1">  1       21 0.84013814E-01 0.17607050E+03</pdfrwt>
<pdfrwt beam="2">  1       21 0.98400464E-02 0.17607050E+03</pdfrwt>
<totfact> 0.10342045E+05</totfact>
</mgrwt>
</event>
<event>
12    1  0.1410528E-001  0.2078860E+03  0.7546771E-02  0.1144428E+00
         21   -1    0    0  502  503  0.00000000000E+00  0.00000000000E+00  0.10218027984E+04  0.10218027984E+04  0.00000000000E+00 0.  1.
         21   -1    0    0  503  504 -0.00000000000E+00 -0.00000000000E+00 -0.78574927466E+02  0.78574927466E+02  0.00000000000E+00 0.  1.
         -6    2    1    2    0  504  0.97770980255E+02  0.38582359917E+02  0.88325990374E+02  0.22056306785E+03  0.17262335661E+03 0.  0.
        -24    2    3    3    0    0 -0.12671697818E+02  0.20326216728E+02  0.11623231448E+02  0.84782822117E+02  0.80494101677E+02 0.  0.
          6    2    1    2  502    0 -0.97770980255E+02 -0.38582359917E+02  0.85490188056E+03  0.87981465802E+03  0.17935675064E+03 0.  0.
         24    2    5    5    0    0 -0.98557731026E+02 -0.23305238550E+02  0.85403888604E+03  0.86378829931E+03  0.80567032081E+02 0.  0.
          2    1    6    6  501    0 -0.99192872479E+01 -0.17068489080E+02  0.43423160547E+03  0.43468012695E+03  0.00000000000E+00 0. -1.
         -1    1    6    6    0  501 -0.88638443778E+02 -0.62367494698E+01  0.41980728058E+03  0.42910817236E+03  0.00000000000E+00 0.  1.
          5    1    5    5  502    0  0.78675077061E+00 -0.15277121368E+02  0.86299452007E+00  0.16026358713E+02  0.47000000000E+01 0. -1.
         13    1    4    4    0    0 -0.33370434749E+02  0.32550032379E+02  0.29197286041E+02  0.55005200076E+02  0.00000000000E+00 0. -1.
        -14    1    4    4    0    0  0.20698736931E+02 -0.12223815651E+02 -0.17574054593E+02  0.29777622041E+02  0.00000000000E+00 0.  1.
         -5    1    3    3    0  504  0.11044267807E+03  0.18256143189E+02  0.76702758926E+02  0.13578024573E+03  0.47000000000E+01 0.  1.
<mgrwt>
<rscale>  2 0.20642556E+03</rscale>
<asrwt>0</asrwt>
<pdfrwt beam="1">  1       21 0.15720042E+00 0.20788604E+03</pdfrwt>
<pdfrwt beam="2">  1       21 0.12088451E-01 0.20788604E+03</pdfrwt>
<totfact> 0.15121324E+04</totfact>
</mgrwt>
</event>
<event>
12    1  0.1410528E-001  0.2131987E+03  0.7546771E-02  0.1140208E+00
         21   -1    0    0  502  503  0.00000000000E+00  0.00000000000E+00  0.10099082509E+03  0.10099082509E+03  0.00000000000E+00 0.  1.
         21   -1    0    0  503  504 -0.00000000000E+00 -0.00000000000E+00 -0.74780199579E+03  0.74780199579E+03  0.00000000000E+00 0.  1.
         -6    2    1    2    0  504 -0.11275457685E+03 -0.38767813481E+02 -0.59399596585E+03  0.62914959150E+03  0.16965100374E+03 0.  0.
        -24    2    3    3    0    0 -0.72308105567E+02 -0.37501630955E+01 -0.18425106554E+03  0.21590011938E+03  0.86150336852E+02 0.  0.
          6    2    1    2  502    0  0.11275457685E+03  0.38767813481E+02 -0.52815204843E+02  0.21964322938E+03  0.17674038697E+03 0.  0.
         24    2    5    5    0    0  0.26266934483E+02  0.90837528171E+01 -0.88411107383E+02  0.12140670859E+03  0.78425751951E+02 0.  0.
          4    1    6    6  501    0  0.18602351616E+02  0.26990659207E+02 -0.95273402510E+02  0.10075497207E+03  0.00000000000E+00 0. -1.
         -3    1    6    6    0  501  0.76645828674E+01 -0.17906906390E+02  0.68622951271E+01  0.20651736522E+02  0.00000000000E+00 0.  1.
          5    1    5    5  502    0  0.86487642367E+02  0.29684060664E+02  0.35595902540E+02  0.98236520792E+02  0.47000000000E+01 0. -1.
         13    1    4    4    0    0  0.91800341484E+01 -0.25795093382E+02 -0.35092974883E+02  0.44510411767E+02  0.00000000000E+00 0. -1.
        -14    1    4    4    0    0 -0.81488139715E+02  0.22044930286E+02 -0.14915809066E+03  0.17138970761E+03  0.00000000000E+00 0.  1.
         -5    1    3    3    0  504 -0.40446471283E+02 -0.35017650386E+02 -0.40974490031E+03  0.41324947212E+03  0.47000000000E+01 0.  1.
<mgrwt>
<rscale>  2 0.21172372E+03</rscale>
<asrwt>0</asrwt>
<pdfrwt beam="1">  1       21 0.15537050E-01 0.21319874E+03</pdfrwt>
<pdfrwt beam="2">  1       21 0.11504646E+00 0.21319874E+03</pdfrwt>
<totfact> 0.21277068E+04</totfact>
</mgrwt>
</event>
<event>
12    1  0.1410528E-001  0.1913991E+03  0.7546771E-02  0.1157987E+00
         21   -1    0    0  502  503  0.00000000000E+00  0.00000000000E+00  0.18247662017E+04  0.18247662017E+04  0.00000000000E+00 0.  1.
         21   -1    0    0  503  504 -0.00000000000E+00 -0.00000000000E+00 -0.38420919680E+02  0.38420919680E+02  0.00000000000E+00 0.  1.
         -6    2    1    2    0  504 -0.52006730907E+02 -0.60976395780E+02  0.23895293144E+03  0.30400249342E+03  0.16998879863E+03 0.  0.
        -24    2    3    3    0    0 -0.67445400510E+02  0.64505730628E+01  0.90042650744E+02  0.13974321562E+03  0.82643786307E+02 0.  0.
          6    2    1    2  502    0  0.52006730907E+02  0.60976395780E+02  0.15473923506E+04  0.15591846280E+04  0.17381253275E+03 0.  0.
         24    2    5    5    0    0  0.35634580161E+02  0.41707014374E+00  0.13289017515E+04  0.13318177194E+04  0.80551692756E+02 0.  0.
          2    1    6    6  501    0  0.46560845145E+02  0.15499164197E+02  0.44121071847E+03  0.44393133983E+03  0.00000000000E+00 0. -1.
         -1    1    6    6    0  501 -0.10926264984E+02 -0.15082094053E+02  0.88769103307E+03  0.88788637957E+03  0.00000000000E+00 0.  1.
          5    1    5    5  502    0  0.16372150746E+02  0.60559325636E+02  0.21849059904E+03  0.22736690857E+03  0.47000000000E+01 0. -1.
         11    1    4    4    0    0 -0.30219734708E+02 -0.26124647718E+02  0.79782417944E+02  0.89224233239E+02  0.00000000000E+00 0. -1.
        -12    1    4    4    0    0 -0.37225665802E+02  0.32575220781E+02  0.10260232800E+02  0.50518982377E+02  0.00000000000E+00 0.  1.
         -5    1    3    3    0  504  0.15438669603E+02 -0.67426968843E+02  0.14891028070E+03  0.16425927780E+03  0.47000000000E+01 0.  1.
<mgrwt>
<rscale>  2 0.19052677E+03</rscale>
<asrwt>0</asrwt>
<pdfrwt beam="1">  1       21 0.28073319E+00 0.19139911E+03</pdfrwt>
<pdfrwt beam="2">  1       21 0.59109121E-02 0.19139911E+03</pdfrwt>
<totfact> 0.89266406E+03</totfact>
</mgrwt>
</event>
<event>
12    1  0.1410528E-001  0.4057733E+03  0.7546771E-02  0.1041827E+00
         21   -1    0    0  502  503  0.00000000000E+00  0.00000000000E+00  0.52869544367E+03  0.52869544367E+03  0.00000000000E+00 0. -1.
         21   -1    0    0  503  504 -0.00000000000E+00 -0.00000000000E+00 -0.31279574507E+03  0.31279574507E+03  0.00000000000E+00 0.  1.
         -6    2    1    2    0  504  0.35463159569E+03 -0.92992685839E+02  0.77750718186E+02  0.41315515047E+03  0.17389880938E+03 0.  0.
        -24    2    3    3    0    0  0.28312436581E+03 -0.12891077903E+02  0.32489469013E+02  0.29653515992E+03  0.80944110776E+02 0.  0.
          6    2    1    2  502    0 -0.35463159569E+03  0.92992685839E+02  0.13814898041E+03  0.42833603827E+03  0.17313408853E+03 0.  0.
         24    2    5    5    0    0 -0.28510518868E+03  0.10023792900E+02  0.87503152755E+02  0.30873316069E+03  0.79208066054E+02 0.  0.
          2    1    6    6  501    0 -0.17434174737E+03 -0.81958698895E+01  0.90167793907E+02  0.19644960732E+03  0.00000000000E+00 0. -1.
         -1    1    6    6    0  501 -0.11076344132E+03  0.18219662790E+02 -0.26646411524E+01  0.11228355337E+03  0.00000000000E+00 0.  1.
          5    1    5    5  502    0 -0.69526407008E+02  0.82968892938E+02  0.50645827659E+02  0.11960287758E+03  0.47000000000E+01 0. -1.
         13    1    4    4    0    0  0.88081506775E+02 -0.36896140913E+02  0.29671688292E+02  0.10000043068E+03  0.00000000000E+00 0. -1.
        -14    1    4    4    0    0  0.19504285904E+03  0.24005063010E+02  0.28177807209E+01  0.19653472924E+03  0.00000000000E+00 0.  1.
         -5    1    3    3    0  504  0.71507229882E+02 -0.80101607936E+02  0.45261249172E+02  0.11661999055E+03  0.47000000000E+01 0.  1.
<mgrwt>
<rscale>  2 0.40569153E+03</rscale>
<asrwt>0</asrwt>
<pdfrwt beam="1">  1       21 0.81337761E-01 0.40577334E+03</pdfrwt>
<pdfrwt beam="2">  1       21 0.48122422E-01 0.40577334E+03</pdfrwt>
<totfact> 0.48784339E+03</totfact>
</mgrwt>
</event>
<event>
12    1  0.1410528E-001  0.1738177E+03  0.7546771E-02  0.1174053E+00
         21   -1    0    0  502  503  0.00000000000E+00  0.00000000000E+00  0.28383489799E+02  0.28383489799E+02  0.00000000000E+00 0. -1.
         21   -1    0    0  503  504 -0.00000000000E+00 -0.00000000000E+00 -0.11922853305E+04  0.11922853305E+04  0.00000000000E+00 0. -1.
         -6    2    1    2    0  504  0.52204062033E+00  0.94573673151E+01 -0.78346615993E+03  0.80240586238E+03  0.17304979025E+03 0.  0.
        -24    2    3    3    0    0  0.31187289688E+02  0.16537336269E+02 -0.75411205230E+03  0.75911340235E+03  0.79511255004E+02 0.  0.
          6    2    1    2  502    0 -0.52204062033E+00 -0.94573673151E+01 -0.38043568075E+03  0.41826295790E+03  0.17355944353E+03 0.  0.
         24    2    5    5    0    0  0.38525718800E+02 -0.46438620735E+02 -0.32898097736E+03  0.34368402574E+03  0.79053460276E+02 0.  0.
          4    1    6    6  501    0  0.57468982321E+02 -0.17892693311E+02 -0.25716475332E+03  0.26411463942E+03  0.00000000000E+00 0. -1.
         -3    1    6    6    0  501 -0.18943263521E+02 -0.28545927425E+02 -0.71816224037E+02  0.79569386326E+02  0.00000000000E+00 0.  1.
          5    1    5    5  502    0 -0.39047759420E+02  0.36981253420E+02 -0.51454703396E+02  0.74578932158E+02  0.47000000000E+01 0. -1.
         11    1    4    4    0    0  0.34341147722E+02 -0.16362631371E+01 -0.71546198746E+03  0.71628754511E+03  0.00000000000E+00 0. -1.
        -12    1    4    4    0    0 -0.31538580347E+01  0.18173599406E+02 -0.38650064845E+02  0.42825857241E+02  0.00000000000E+00 0.  1.
         -5    1    3    3    0  504 -0.30665249067E+02 -0.70799689536E+01 -0.29354107622E+02  0.43292460026E+02  0.47000000000E+01 0.  1.
<mgrwt>
<rscale>  2 0.17369034E+03</rscale>
<asrwt>0</asrwt>
<pdfrwt beam="1">  1       21 0.43666914E-02 0.17381771E+03</pdfrwt>
<pdfrwt beam="2">  1       21 0.18342848E+00 0.17381771E+03</pdfrwt>
<totfact> 0.59006770E+04</totfact>
</mgrwt>
</event>
<event>
12    1  0.1410528E-001  0.2207919E+03  0.7546771E-02  0.1133313E+00
         21   -1    0    0  502  503  0.00000000000E+00  0.00000000000E+00  0.10395378260E+03  0.10395378260E+03  0.00000000000E+00 0. -1.
         21   -1    0    0  503  504 -0.00000000000E+00 -0.00000000000E+00 -0.49872477702E+03  0.49872477702E+03  0.00000000000E+00 0.  1.
         -6    2    1    2    0  504 -0.53754934942E+02 -0.12699122957E+03 -0.27124083342E+03  0.34967904361E+03  0.17230054675E+03 0.  0.
        -24    2    3    3    0    0  0.43247649732E+01 -0.28540394193E+02 -0.45127158324E+02  0.96271658966E+02  0.79990713266E+02 0.  0.
          6    2    1    2  502    0  0.53754934942E+02  0.12699122957E+03 -0.12353016100E+03  0.25299951600E+03  0.17243169373E+03 0.  0.
         24    2    5    5    0    0  0.41591267814E+01  0.68647588372E+02 -0.13881758720E+03  0.17477215471E+03  0.80902372151E+02 0.  0.
          4    1    6    6  501    0  0.39159343449E+02  0.56660759418E+02 -0.83802904647E+02  0.10847498635E+03  0.00000000000E+00 0. -1.
         -3    1    6    6    0  501 -0.35000216667E+02  0.11986828954E+02 -0.55014682552E+02  0.66297168352E+02  0.00000000000E+00 0.  1.
          5    1    5    5  502    0  0.49595808161E+02  0.58343641198E+02  0.15287426202E+02  0.78227361296E+02  0.47000000000E+01 0. -1.
         11    1    4    4    0    0 -0.18564362371E+02 -0.42288997859E+02 -0.28544579670E+01  0.46272484485E+02  0.00000000000E+00 0. -1.
        -12    1    4    4    0    0  0.22889127344E+02  0.13748603665E+02 -0.42272700357E+02  0.49999174481E+02  0.00000000000E+00 0.  1.
         -5    1    3    3    0  504 -0.58079699916E+02 -0.98450835377E+02 -0.22611367510E+03  0.25340738465E+03  0.47000000000E+01 0.  1.
<mgrwt>
<rscale>  2 0.22076627E+03</rscale>
<asrwt>0</asrwt>
<pdfrwt beam="1">  1       21 0.15992889E-01 0.22079188E+03</pdfrwt>
<pdfrwt beam="2">  1       21 0.76726890E-01 0.22079188E+03</pdfrwt>
<totfact> 0.52022575E+04</totfact>
</mgrwt>
</event>
<event>
12    1  0.1410528E-001  0.1866894E+03  0.7546771E-02  0.1162170E+00
         21   -1    0    0  502  503  0.00000000000E+00  0.00000000000E+00  0.20894017472E+04  0.20894017472E+04  0.00000000000E+00 0. -1.
         21   -1    0    0  503  504 -0.00000000000E+00 -0.00000000000E+00 -0.16418457531E+02  0.16418457531E+02  0.00000000000E+00 0. -1.
         -6    2    1    2    0  504 -0.62725445828E+02  0.15705261757E+02  0.10367597783E+04  0.10529137013E+04  0.17197467158E+03 0.  0.
        -24    2    3    3    0    0 -0.93585196287E+02 -0.21898054980E+02  0.87511063522E+03  0.88403839497E+03  0.80421055221E+02 0.  0.
          6    2    1    2  502    0  0.62725445828E+02 -0.15705261757E+02  0.10362235114E+04  0.10529065035E+04  0.17513367087E+03 0.  0.
         24    2    5    5    0    0  0.10184937383E+03 -0.42179361189E+02  0.84321047120E+03  0.85414110565E+03  0.80004600888E+02 0.  0.
          4    1    6    6  501    0  0.97553668890E+02 -0.39002240553E+02  0.84216979823E+03  0.84869774486E+03  0.00000000000E+00 0. -1.
         -3    1    6    6    0  501  0.42957049364E+01 -0.31771206356E+01  0.10406729667E+01  0.54433607870E+01  0.00000000000E+00 0.  1.
          5    1    5    5  502    0 -0.39123927999E+02  0.26474099432E+02  0.19301304021E+03  0.19876539783E+03  0.47000000000E+01 0. -1.
         13    1    4    4    0    0 -0.22294935511E+02  0.29572112263E+02  0.29083403703E+03  0.29318255588E+03  0.00000000000E+00 0. -1.
        -14    1    4    4    0    0 -0.71290260777E+02 -0.51470167244E+02  0.58427659819E+03  0.59085583909E+03  0.00000000000E+00 0.  1.
         -5    1    3    3    0  504  0.30859750460E+02  0.37603316738E+02  0.16164914308E+03  0.16887530632E+03  0.47000000000E+01 0.  1.
<mgrwt>
<rscale>  2 0.18594493E+03</rscale>
<asrwt>0</asrwt>
<pdfrwt beam="1">  1       21 0.32144621E+00 0.18668942E+03</pdfrwt>
<pdfrwt beam="2">  1       21 0.25259182E-02 0.18668942E+03</pdfrwt>
<totfact> 0.21708168E+04</totfact>
</mgrwt>
</event>
<event>
12    1  0.1410528E-001  0.1856964E+03  0.7546771E-02  0.1162993E+00
         21   -1    0    0  502  503  0.00000000000E+00  0.00000000000E+00  0.14180713800E+04  0.14180713800E+04  0.00000000000E+00 0.  1.
         21   -1    0    0  503  504 -0.00000000000E+00 -0.00000000000E+00 -0.24563373463E+03  0.24563373463E+03  0.00000000000E+00 0.  1.
         -6    2    1    2    0  504  0.17044630500E+01 -0.67343375469E+02 -0.20436441414E+03  0.27443657924E+03  0.17033081589E+03 0.  0.
        -24    2    3    3    0    0  0.48410178528E+02 -0.57913869442E+02 -0.19901531418E+03  0.22625938222E+03  0.76737546900E+02 0.  0.
          6    2    1    2  502    0 -0.17044630500E+01  0.67343375469E+02  0.13768020595E+04  0.13892685354E+04  0.17304657451E+03 0.  0.
         24    2    5    5    0    0 -0.21726471098E+02  0.25003407116E+02  0.31996250503E+03  0.33138125990E+03  0.79626156993E+02 0.  0.
          4    1    6    6  501    0 -0.22335706911E+02  0.21187542606E+01  0.18580023676E+02  0.29130571615E+02  0.00000000000E+00 0. -1.
         -3    1    6    6    0  501  0.60923581282E+00  0.22884652856E+02  0.30138248135E+03  0.30225068829E+03  0.00000000000E+00 0.  1.
          5    1    5    5  502    0  0.20022008048E+02  0.42339968353E+02  0.10568395545E+04  0.10578872755E+04  0.47000000000E+01 0. -1.
         11    1    4    4    0    0  0.53080716561E+01 -0.24581156800E+02 -0.62104465733E+01  0.25903253482E+02  0.00000000000E+00 0. -1.
        -12    1    4    4    0    0  0.43102106872E+02 -0.33332712642E+02 -0.19280486761E+03  0.20035612873E+03  0.00000000000E+00 0.  1.
         -5    1    3    3    0  504 -0.46705715478E+02 -0.94295060272E+01 -0.53490999637E+01  0.48177197019E+02  0.47000000000E+01 0.  1.
<mgrwt>
<rscale>  2 0.18506112E+03</rscale>
<asrwt>0</asrwt>
<pdfrwt beam="1">  1       21 0.21816482E+00 0.18569640E+03</pdfrwt>
<pdfrwt beam="2">  1       21 0.37789806E-01 0.18569640E+03</pdfrwt>
<totfact> 0.70326880E+02</totfact>
</mgrwt>
</event>
<event>
12    1  0.1410528E-001  0.2230051E+03  0.7546771E-02  0.1131692E+00
         21   -1    0    0  502  503  0.00000000000E+00  0.00000000000E+00  0.16501972228E+03  0.16501972228E+03  0.00000000000E+00 0. -1.
         21   -1    0    0  503  504 -0.00000000000E+00 -0.00000000000E+00 -0.31985714916E+03  0.31985714916E+03  0.00000000000E+00 0. -1.
         -6    2    1    2    0  504 -0.14017704698E+03 -0.14268126400E+02 -0.18758882475E+02  0.22363242011E+03  0.17264524239E+03 0.  0.
        -24    2    3    3    0    0 -0.14866768455E+03  0.29042284256E+02 -0.37063389535E+02  0.17562171738E+03  0.80769784375E+02 0.  0.
          6    2    1    2  502    0  0.14017704698E+03  0.14268126400E+02 -0.13607854440E+03  0.26124445133E+03  0.17285285411E+03 0.  0.
         24    2    5    5    0    0  0.49710341755E+02 -0.42528927529E+02 -0.11007435077E+03  0.15120610267E+03  0.80418250624E+02 0.  0.
          2    1    6    6  501    0  0.53461564620E+02  0.40425371726E+01 -0.39609972242E+02  0.66659064646E+02  0.00000000000E+00 0. -1.
         -1    1    6    6    0  501 -0.37512228657E+01 -0.46571464701E+02 -0.70464378531E+02  0.84547038027E+02  0.00000000000E+00 0.  1.
          5    1    5    5  502    0  0.90466705226E+02  0.56797053929E+02 -0.26004193629E+02  0.11003834866E+03  0.47000000000E+01 0. -1.
         11    1    4    4    0    0 -0.62020931809E+02  0.42090414668E+02 -0.45351623256E+02  0.87606898823E+02  0.00000000000E+00 0. -1.
        -12    1    4    4    0    0 -0.86646752739E+02 -0.13048130412E+02  0.82882337208E+01  0.88014818557E+02  0.00000000000E+00 0.  1.
         -5    1    3    3    0  504  0.84906375672E+01 -0.43310410656E+02  0.18304507060E+02  0.48010702726E+02  0.47000000000E+01 0.  1.
<mgrwt>
<rscale>  2 0.22296491E+03</rscale>
<asrwt>0</asrwt>
<pdfrwt beam="1">  1       21 0.25387650E-01 0.22300514E+03</pdfrwt>
<pdfrwt beam="2">  1       21 0.49208792E-01 0.22300514E+03</pdfrwt>
<totfact> 0.57140223E+04</totfact>
</mgrwt>
</event>
<event>
12    1  0.1410528E-001  0.2226069E+03  0.7546771E-02  0.1131960E+00
         21   -1    0    0  502  503  0.00000000000E+00  0.00000000000E+00  0.36627118188E+02  0.36627118188E+02  0.00000000000E+00 0. -1.
         21   -1    0    0  503  504 -0.00000000000E+00 -0.00000000000E+00 -0.13609758290E+04  0.13609758290E+04  0.00000000000E+00 0. -1.
         -6    2    1    2    0  504 -0.80467944460E+02 -0.11357578157E+03 -0.60775288127E+03  0.64722743037E+03  0.17368141436E+03 0.  0.
        -24    2    3    3    0    0 -0.11219522749E+03 -0.97055865247E+02 -0.57186385438E+03  0.59633892111E+03  0.81143273511E+02 0.  0.
          6    2    1    2  502    0  0.80467944460E+02  0.11357578157E+03 -0.71659582958E+03  0.75037551685E+03  0.17372186124E+03 0.  0.
         24    2    5    5    0    0  0.80498619011E+02  0.64941789098E+02 -0.67072282992E+03  0.68335545820E+03  0.80050634171E+02 0.  0.
          4    1    6    6  501    0  0.80469678606E+02  0.16271243941E+02 -0.42675942899E+03  0.43458455195E+03  0.00000000000E+00 0. -1.
         -3    1    6    6    0  501  0.28940405201E-01  0.48670545157E+02 -0.24396340093E+03  0.24877090625E+03  0.00000000000E+00 0.  1.
          5    1    5    5  502    0 -0.30674551425E-01  0.48633992471E+02 -0.45872999656E+02  0.67020058655E+02  0.47000000000E+01 0. -1.
         11    1    4    4    0    0 -0.10368746109E+03 -0.96928889755E+02 -0.40307333637E+03  0.42733407744E+03  0.00000000000E+00 0. -1.
        -12    1    4    4    0    0 -0.85077664060E+01 -0.12697549283E+00 -0.16879051801E+03  0.16900484366E+03  0.00000000000E+00 0.  1.
         -5    1    3    3    0  504  0.31727283033E+02 -0.16519916322E+02 -0.35889026891E+02  0.50888509264E+02  0.47000000000E+01 0.  1.
<mgrwt>
<rscale>  2 0.22259901E+03</rscale>
<asrwt>0</asrwt>
<pdfrwt beam="1">  1       21 0.56349420E-02 0.22260690E+03</pdfrwt>
<pdfrwt beam="2">  1       21 0.20938087E+00 0.22260690E+03</pdfrwt>
<totfact> 0.25149430E+04</totfact>
</mgrwt>
</event>
<event>
12    1  0.1410528E-001  0.1894199E+03  0.7546771E-02  0.1159224E+00
         21   -1    0    0  502  503  0.00000000000E+00  0.00000000000E+00  0.21620768142E+03  0.21620768142E+03  0.00000000000E+00 0. -1.
         21   -1    0    0  503  504 -0.00000000000E+00 -0.00000000000E+00 -0.21761837772E+03  0.21761837772E+03  0.00000000000E+00 0. -1.
         -6    2    1    2    0  504  0.70185810385E+02  0.14579371223E+02 -0.10733072003E+03  0.21680317706E+03  0.17419853064E+03 0.  0.
        -24    2    3    3    0    0  0.14916007645E+02  0.49376479111E+02 -0.11700702300E+03  0.15061170744E+03  0.79578382828E+02 0.  0.
          6    2    1    2  502    0 -0.70185810385E+02 -0.14579371223E+02  0.10592002373E+03  0.21702288207E+03  0.17533189633E+03 0.  0.
         24    2    5    5    0    0  0.12546041431E+02  0.37934121333E+02  0.34589804164E+02  0.95728544082E+02  0.79819163634E+02 0.  0.
          4    1    6    6  501    0 -0.27172281027E+02  0.41153883967E+02  0.16906813737E+02  0.52132670875E+02  0.00000000000E+00 0. -1.
         -3    1    6    6    0  501  0.39718322458E+02 -0.32197626343E+01  0.17682990427E+02  0.43595873207E+02  0.00000000000E+00 0.  1.
          5    1    5    5  502    0 -0.82731851815E+02 -0.52513492556E+02  0.71330219567E+02  0.12129433799E+03  0.47000000000E+01 0. -1.
         11    1    4    4    0    0 -0.21171123681E+02  0.54138772593E+02 -0.66025415092E+02  0.87969191277E+02  0.00000000000E+00 0. -1.
        -12    1    4    4    0    0  0.36087131326E+02 -0.47622934818E+01 -0.50981607905E+02  0.62642516162E+02  0.00000000000E+00 0.  1.
         -5    1    3    3    0  504  0.55269802739E+02 -0.34797107888E+02  0.96763029632E+01  0.66191469626E+02  0.47000000000E+01 0.  1.
<mgrwt>
<rscale>  2 0.18915716E+03</rscale>
<asrwt>0</asrwt>
<pdfrwt beam="1">  1       21 0.33262720E-01 0.18941985E+03</pdfrwt>
<pdfrwt beam="2">  1       21 0.33479750E-01 0.18941985E+03</pdfrwt>
<totfact> 0.74885436E+04</totfact>
</mgrwt>
</event>
<event>
12    1  0.1410528E-001  0.2845964E+03  0.7546771E-02  0.1093343E+00
         21   -1    0    0  502  503  0.00000000000E+00  0.00000000000E+00  0.87135707156E+03  0.87135707156E+03  0.00000000000E+00 0.  1.
         21   -1    0    0  503  504 -0.00000000000E+00 -0.00000000000E+00 -0.12830240999E+03  0.12830240999E+03  0.00000000000E+00 0.  1.
         -6    2    1    2    0  504 -0.51125019269E+02 -0.21886493489E+03  0.10840575102E+03  0.30454380501E+03  0.17458377644E+03 0.  0.
        -24    2    3    3    0    0  0.25271293946E+02 -0.53081809417E+02  0.51027028257E+02  0.11314148216E+03  0.82103109472E+02 0.  0.
          6    2    1    2  502    0  0.51125019269E+02  0.21886493489E+03  0.63464891055E+03  0.69511567654E+03  0.17288995570E+03 0.  0.
         24    2    5    5    0    0  0.17135346289E+02  0.43816738327E+02  0.31988929562E+03  0.33332447407E+03  0.81009363113E+02 0.  0.
          2    1    6    6  501    0 -0.29962625452E+02  0.66031116947E+01  0.71874945008E+02  0.78149649570E+02  0.00000000000E+00 0. -1.
         -1    1    6    6    0  501  0.47097971741E+02  0.37213626633E+02  0.24801435062E+03  0.25517482450E+03  0.00000000000E+00 0.  1.
          5    1    5    5  502    0  0.33989672980E+02  0.17504819656E+03  0.31475961493E+03  0.36179120246E+03  0.47000000000E+01 0. -1.
         11    1    4    4    0    0  0.30772529602E+02 -0.88849384649E+01 -0.13481863126E+02  0.34751278292E+02  0.00000000000E+00 0. -1.
        -12    1    4    4    0    0 -0.55012356558E+01 -0.44196870952E+02  0.64508891383E+02  0.78390203872E+02  0.00000000000E+00 0.  1.
         -5    1    3    3    0  504 -0.76396313215E+02 -0.16578312547E+03  0.57378722762E+02  0.19140232284E+03  0.47000000000E+01 0.  1.
<mgrwt>
<rscale>  2 0.28433709E+03</rscale>
<asrwt>0</asrwt>
<pdfrwt beam="1">  1       21 0.13405493E+00 0.28459642E+03</pdfrwt>
<pdfrwt beam="2">  1       21 0.19738833E-01 0.28459642E+03</pdfrwt>
<totfact> 0.89272565E+03</totfact>
</mgrwt>
</event>
<event>
12    1  0.1410528E-001  0.1943857E+03  0.7546771E-02  0.1155047E+00
         21   -1    0    0  502  503  0.00000000000E+00  0.00000000000E+00  0.18252726932E+03  0.18252726932E+03  0.00000000000E+00 0.  1.
         21   -1    0    0  503  504 -0.00000000000E+00 -0.00000000000E+00 -0.24155726478E+03  0.24155726478E+03  0.00000000000E+00 0.  1.
         -6    2    1    2    0  504 -0.67542723737E+02  0.48456797015E+02 -0.11221288849E+03  0.22255480306E+03  0.17328827807E+03 0.  0.
        -24    2    3    3    0    0 -0.29885887015E+02  0.79058903341E+02 -0.12646211868E+03  0.17176448091E+03  0.79792812960E+02 0.  0.
          6    2    1    2  502    0  0.67542723737E+02 -0.48456797015E+02  0.53182893027E+02  0.20152973103E+03  0.17571491590E+03 0.  0.
         24    2    5    5    0    0  0.78021114115E+02 -0.53894960838E+02  0.95715165728E+02  0.15713992914E+03  0.80867813916E+02 0.  0.
          4    1    6    6  501    0  0.41943829175E+02 -0.13027757129E+01 -0.19038028527E+00  0.41964488262E+02  0.00000000000E+00 0. -1.
         -3    1    6    6    0  501  0.36077284940E+02 -0.52592185125E+02  0.95905546013E+02  0.11517544088E+03  0.00000000000E+00 0.  1.
          5    1    5    5  502    0 -0.10478390378E+02  0.54381638227E+01 -0.42532272701E+02  0.44389801889E+02  0.47000000000E+01 0. -1.
         11    1    4    4    0    0  0.47086291218E+01  0.51003070711E+01 -0.74847754142E+02  0.75168947183E+02  0.00000000000E+00 0. -1.
        -12    1    4    4    0    0 -0.34594516137E+02  0.73958596270E+02 -0.51614364540E+02  0.96595533726E+02  0.00000000000E+00 0.  1.
         -5    1    3    3    0  504 -0.37656836722E+02 -0.30602106325E+02  0.14249230196E+02  0.50790322155E+02  0.47000000000E+01 0.  1.
<mgrwt>
<rscale>  2 0.19383571E+03</rscale>
<asrwt>0</asrwt>
<pdfrwt beam="1">  1       21 0.28081119E-01 0.19438573E+03</pdfrwt>
<pdfrwt beam="2">  1       21 0.37162656E-01 0.19438573E+03</pdfrwt>
<totfact> 0.84550218E+04</totfact>
</mgrwt>
</event>
<event>
12    1  0.1410528E-001  0.2094196E+03  0.7546771E-02  0.1142109E+00
         21   -1    0    0  502  503  0.00000000000E+00  0.00000000000E+00  0.57170429086E+02  0.57170429086E+02  0.00000000000E+00 0. -1.
         21   -1    0    0  503  504 -0.00000000000E+00 -0.00000000000E+00 -0.89825212626E+03  0.89825212626E+03  0.00000000000E+00 0. -1.
         -6    2    1    2    0  504  0.95068104618E+02  0.68477150675E+02 -0.60376096048E+03  0.63891393022E+03  0.17307988953E+03 0.  0.
        -24    2    3    3    0    0  0.67534045605E+02  0.78254301170E+02 -0.23395583079E+03  0.26792654362E+03  0.79779189318E+02 0.  0.
          6    2    1    2  502    0 -0.95068104618E+02 -0.68477150675E+02 -0.23732073670E+03  0.31650862512E+03  0.17357855003E+03 0.  0.
         24    2    5    5    0    0 -0.17307192859E+02  0.19969211732E+02 -0.13739953771E+03  0.16199048888E+03  0.81633186774E+02 0.  0.
          4    1    6    6  501    0  0.25270665254E+02 -0.16048852554E+02 -0.44336938146E+02  0.53497067909E+02  0.00000000000E+00 0. -1.
         -3    1    6    6    0  501 -0.42577858114E+02  0.36018064286E+02 -0.93062599560E+02  0.10849342097E+03  0.00000000000E+00 0.  1.
          5    1    5    5  502    0 -0.77760911759E+02 -0.88446362408E+02 -0.99921198990E+02  0.15451813624E+03  0.47000000000E+01 0. -1.
         11    1    4    4    0    0  0.57814751457E+02  0.94049725546E+02 -0.21322933003E+03  0.24011381374E+03  0.00000000000E+00 0. -1.
        -12    1    4    4    0    0  0.97192941477E+01 -0.15795424375E+02 -0.20726500761E+02  0.27812729886E+02  0.00000000000E+00 0.  1.
         -5    1    3    3    0  504  0.27534059013E+02 -0.97771504949E+01 -0.36980512968E+03  0.37098738660E+03  0.47000000000E+01 0.  1.
<mgrwt>
<rscale>  2 0.20931626E+03</rscale>
<asrwt>0</asrwt>
<pdfrwt beam="1">  1       21 0.87954517E-02 0.20941962E+03</pdfrwt>
<pdfrwt beam="2">  1       21 0.13819262E+00 0.20941962E+03</pdfrwt>
<totfact> 0.37267278E+04</totfact>
</mgrwt>
</event>
<event>
12    1  0.1410528E-001  0.2184447E+03  0.7546771E-02  0.1135264E+00
         21   -1    0    0  502  503  0.00000000000E+00  0.00000000000E+00  0.15565781447E+03  0.15565781447E+03  0.00000000000E+00 0.  1.
         21   -1    0    0  503  504 -0.00000000000E+00 -0.00000000000E+00 -0.43990884201E+03  0.43990884201E+03  0.00000000000E+00 0.  1.
         -6    2    1    2    0  504 -0.13324843283E+03 -0.11701618505E+02 -0.30731805710E+03  0.37704442205E+03  0.17270215765E+03 0.  0.
        -24    2    3    3    0    0 -0.62778540204E+02 -0.50881242590E+02 -0.24842545217E+03  0.27708704301E+03  0.92368707686E+02 0.  0.
          6    2    1    2  502    0  0.13324843283E+03  0.11701618505E+02  0.23067029561E+02  0.21852223443E+03  0.17125363166E+03 0.  0.
         24    2    5    5    0    0  0.26209602081E+02 -0.81773063136E+01  0.59215083314E+02  0.10371258879E+03  0.80598160041E+02 0.  0.
          4    1    6    6  501    0 -0.12609229372E+02 -0.32246324762E+02  0.43084256477E+02  0.55272699248E+02  0.00000000000E+00 0. -1.
         -3    1    6    6    0  501  0.38818831453E+02  0.24069018448E+02  0.16130826837E+02  0.48439889543E+02  0.00000000000E+00 0.  1.
          5    1    5    5  502    0  0.10703883075E+03  0.19878924818E+02 -0.36148053753E+02  0.11480964564E+03  0.47000000000E+01 0. -1.
         13    1    4    4    0    0 -0.38650763807E+02  0.18403555742E+02 -0.51677564037E+02  0.67105462010E+02  0.00000000000E+00 0. -1.
        -14    1    4    4    0    0 -0.24127776397E+02 -0.69284798332E+02 -0.19674788813E+03  0.20998158100E+03  0.00000000000E+00 0.  1.
         -5    1    3    3    0  504 -0.70469892629E+02  0.39179624085E+02 -0.58892604927E+02  0.99957379046E+02  0.47000000000E+01 0.  1.
<mgrwt>
<rscale>  2 0.21815834E+03</rscale>
<asrwt>0</asrwt>
<pdfrwt beam="1">  1       21 0.23947357E-01 0.21844475E+03</pdfrwt>
<pdfrwt beam="2">  1       21 0.67678282E-01 0.21844475E+03</pdfrwt>
<totfact> 0.32360162E+04</totfact>
</mgrwt>
</event>
<event>
12    1  0.1410528E-001  0.2249709E+03  0.7546771E-02  0.1130341E+00
         21   -1    0    0  502  503  0.00000000000E+00  0.00000000000E+00  0.16653249845E+03  0.16653249845E+03  0.00000000000E+00 0. -1.
         21   -1    0    0  503  504 -0.00000000000E+00 -0.00000000000E+00 -0.31040337849E+03  0.31040337849E+03  0.00000000000E+00 0. -1.
         -6    2    1    2    0  504  0.14347749152E+03  0.91110051984E+01 -0.10863430061E+03  0.24982659769E+03  0.17304079477E+03 0.  0.
        -24    2    3    3    0    0  0.15118763632E+03 -0.34397941943E+02 -0.10805572528E+03  0.20538675561E+03  0.80416166470E+02 0.  0.
          6    2    1    2  502    0 -0.14347749152E+03 -0.91110051984E+01 -0.35236579437E+02  0.22710927925E+03  0.17224461444E+03 0.  0.
         24    2    5    5    0    0 -0.32222508618E+02 -0.54736979059E+02 -0.29309581851E+01  0.10250934396E+03  0.80406144945E+02 0.  0.
          2    1    6    6  501    0  0.14109261453E+02 -0.39359281412E+02  0.22482958536E+02  0.47473231579E+02  0.00000000000E+00 0. -1.
         -1    1    6    6    0  501 -0.46331770071E+02 -0.15377697647E+02 -0.25413916721E+02  0.55036112380E+02  0.00000000000E+00 0.  1.
          5    1    5    5  502    0 -0.11125498290E+03  0.45625973861E+02 -0.32305621252E+02  0.12459993529E+03  0.47000000000E+01 0. -1.
         13    1    4    4    0    0  0.10188806335E+03  0.17027745803E+02 -0.60135468984E+02  0.11952989672E+03  0.00000000000E+00 0. -1.
        -14    1    4    4    0    0  0.49299572967E+02 -0.51425687747E+02 -0.47920256293E+02  0.85856858888E+02  0.00000000000E+00 0.  1.
         -5    1    3    3    0  504 -0.77101448013E+01  0.43508947141E+02 -0.57857532845E+00  0.44439842075E+02  0.47000000000E+01 0.  1.
<mgrwt>
<rscale>  2 0.22481781E+03</rscale>
<asrwt>0</asrwt>
<pdfrwt beam="1">  1       21 0.25620384E-01 0.22497093E+03</pdfrwt>
<pdfrwt beam="2">  1       21 0.47754366E-01 0.22497093E+03</pdfrwt>
<totfact> 0.59719681E+04</totfact>
</mgrwt>
</event>
<event>
12    1  0.1410528E-001  0.1936284E+03  0.7546771E-02  0.1155578E+00
         21   -1    0    0  502  503  0.00000000000E+00  0.00000000000E+00  0.11645667854E+04  0.11645667854E+04  0.00000000000E+00 0.  1.
         21   -1    0    0  503  504 -0.00000000000E+00 -0.00000000000E+00 -0.33111986632E+02  0.33111986632E+02  0.00000000000E+00 0.  1.
         -6    2    1    2    0  504  0.61231690601E+02  0.61985495544E+02  0.45490408545E+03  0.49439832467E+03  0.17291747999E+03 0.  0.
        -24    2    3    3    0    0  0.40934510520E+02 -0.15482525387E+00  0.39632988575E+03  0.40649825721E+03  0.80546860012E+02 0.  0.
          6    2    1    2  502    0 -0.61231690601E+02 -0.61985495544E+02  0.67655071334E+03  0.70328044738E+03  0.17114613160E+03 0.  0.
         24    2    5    5    0    0  0.14244949729E+02 -0.57358413730E+02  0.51231003101E+03  0.52240694227E+03  0.83393880094E+02 0.  0.
          2    1    6    6  501    0  0.84745875027E+01 -0.54873383789E+02  0.51308148464E+03  0.51607704537E+03  0.00000000000E+00 0. -1.
         -1    1    6    6    0  501  0.57703622266E+01 -0.24850299405E+01 -0.77145362581E+00  0.63298968971E+01  0.00000000000E+00 0.  1.
          5    1    5    5  502    0 -0.75476640330E+02 -0.46270818144E+01  0.16424068233E+03  0.18087350511E+03  0.47000000000E+01 0. -1.
         11    1    4    4    0    0  0.20104729778E+02  0.32526026205E+02  0.30356024775E+03  0.30595909295E+03  0.00000000000E+00 0. -1.
        -12    1    4    4    0    0  0.20829780742E+02 -0.32680851459E+02  0.92769637991E+02  0.10053916426E+03  0.00000000000E+00 0.  1.
         -5    1    3    3    0  504  0.20297180081E+02  0.62140320798E+02  0.58574199704E+02  0.87900067458E+02  0.47000000000E+01 0.  1.
<mgrwt>
<rscale>  2 0.19323218E+03</rscale>
<asrwt>0</asrwt>
<pdfrwt beam="1">  1       21 0.17916409E+00 0.19362845E+03</pdfrwt>
<pdfrwt beam="2">  1       21 0.50941527E-02 0.19362845E+03</pdfrwt>
<totfact> 0.48019484E+04</totfact>
</mgrwt>
</event>
<event>
12    1  0.1410528E-001  0.1746726E+03  0.7546771E-02  0.1173078E+00
         21   -1    0    0  502  503  0.00000000000E+00  0.00000000000E+00  0.74567031917E+02  0.74567031917E+02  0.00000000000E+00 0.  1.
         21   -1    0    0  503  504 -0.00000000000E+00 -0.00000000000E+00 -0.83204208003E+03  0.83204208003E+03  0.00000000000E+00 0. -1.
         -6    2    1    2    0  504 -0.13557927098E+02 -0.19347676000E+02 -0.70199599230E+03  0.72340091551E+03  0.17306750532E+03 0.  0.
        -24    2    3    3    0    0  0.18991570133E+01 -0.54688312758E+02 -0.23858115242E+03  0.25835974971E+03  0.82670282660E+02 0.  0.
          6    2    1    2  502    0  0.13557927098E+02  0.19347676000E+02 -0.55479055812E+02  0.18320819644E+03  0.17300048455E+03 0.  0.
         24    2    5    5    0    0  0.41099028490E+02  0.62244352638E+02 -0.20182476180E+01  0.10918938028E+03  0.79716735164E+02 0.  0.
          2    1    6    6  501    0  0.63130950974E+02  0.33774569788E+02 -0.10065494969E+02  0.72301816880E+02  0.00000000000E+00 0. -1.
         -1    1    6    6    0  501 -0.22031922485E+02  0.28469782850E+02  0.80472473508E+01  0.36887563403E+02  0.00000000000E+00 0.  1.
          5    1    5    5  502    0 -0.27541101392E+02 -0.42896676638E+02 -0.53460808194E+02  0.74018816156E+02  0.47000000000E+01 0. -1.
         11    1    4    4    0    0 -0.40113383495E+02 -0.26888483854E+02 -0.12937102223E+03  0.13809031643E+03  0.00000000000E+00 0. -1.
        -12    1    4    4    0    0  0.42012540509E+02 -0.27799828904E+02 -0.10921013018E+03  0.12026943328E+03  0.00000000000E+00 0.  1.
         -5    1    3    3    0  504 -0.15457084111E+02  0.35340636759E+02 -0.46341483988E+03  0.46504116579E+03  0.47000000000E+01 0.  1.
<mgrwt>
<rscale>  2 0.17465598E+03</rscale>
<asrwt>0</asrwt>
<pdfrwt beam="1">  1       21 0.11471851E-01 0.17467258E+03</pdfrwt>
<pdfrwt beam="2">  1       21 0.12800647E+00 0.17467258E+03</pdfrwt>
<totfact> 0.28893675E+04</totfact>
</mgrwt>
</event>
<event>
12    1  0.1410528E-001  0.2167658E+03  0.7546771E-02  0.1136449E+00
         21   -1    0    0  502  503  0.00000000000E+00  0.00000000000E+00  0.43233731433E+03  0.43233731433E+03  0.00000000000E+00 0. -1.
         21   -1    0    0  503  504 -0.00000000000E+00 -0.00000000000E+00 -0.14219144303E+03  0.14219144303E+03  0.00000000000E+00 0. -1.
         -6    2    1    2    0  504  0.76999952341E+02  0.10726577790E+03  0.50766843249E+01  0.21682524057E+03  0.17190832573E+03 0.  0.
        -24    2    3    3    0    0  0.77706084603E+02  0.22053130923E+02 -0.39341147020E+02  0.12061335165E+03  0.80469115691E+02 0.  0.
          6    2    1    2  502    0 -0.76999952341E+02 -0.10726577790E+03  0.28506918698E+03  0.35770351679E+03  0.17103340255E+03 0.  0.
         24    2    5    5    0    0 -0.50083919432E+02 -0.24092845493E+01  0.71443710428E+02  0.11816794269E+03  0.79657110684E+02 0.  0.
          2    1    6    6  501    0  0.21635972280E+02  0.37406882184E+01  0.19906751709E+02  0.29637591138E+02  0.00000000000E+00 0. -1.
         -1    1    6    6    0  501 -0.71719891712E+02 -0.61499727677E+01  0.51536958719E+02  0.88530351554E+02  0.00000000000E+00 0.  1.
          5    1    5    5  502    0 -0.26916032909E+02 -0.10485649335E+03  0.21362547655E+03  0.23953557409E+03  0.47000000000E+01 0. -1.
         11    1    4    4    0    0  0.17084548537E+02  0.43387201350E+01 -0.53122438161E+02  0.55970525522E+02  0.00000000000E+00 0. -1.
        -12    1    4    4    0    0  0.60621536066E+02  0.17714410788E+02  0.13781291140E+02  0.64642826130E+02  0.00000000000E+00 0.  1.
         -5    1    3    3    0  504 -0.70613226125E+00  0.85212646977E+02  0.44417831345E+02  0.96211888917E+02  0.47000000000E+01 0.  1.
<mgrwt>
<rscale>  2 0.21659229E+03</rscale>
<asrwt>0</asrwt>
<pdfrwt beam="1">  1       21 0.66513432E-01 0.21676580E+03</pdfrwt>
<pdfrwt beam="2">  1       21 0.21875607E-01 0.21676580E+03</pdfrwt>
<totfact> 0.39948500E+04</totfact>
</mgrwt>
</event>
<event>
12    1  0.1410528E-001  0.1991903E+03  0.7546771E-02  0.1151527E+00
         21   -1    0    0  502  503  0.00000000000E+00  0.00000000000E+00  0.64815076929E+02  0.64815076929E+02  0.00000000000E+00 0. -1.
         21   -1    0    0  503  504 -0.00000000000E+00 -0.00000000000E+00 -0.66219588890E+03  0.66219588890E+03  0.00000000000E+00 0. -1.
         -6    2    1    2    0  504 -0.91987136359E+02 -0.21196400785E+02 -0.41668850662E+03  0.46185073495E+03  0.17540202153E+03 0.  0.
        -24    2    3    3    0    0  0.10722419075E+02 -0.47131753017E+01 -0.10337106372E+03  0.13168280869E+03  0.80731660445E+02 0.  0.
          6    2    1    2  502    0  0.91987136359E+02  0.21196400785E+02 -0.18069230535E+03  0.26516023088E+03  0.16955623895E+03 0.  0.
         24    2    5    5    0    0  0.52453761834E+02  0.41735748104E+02 -0.19215903253E+03  0.21891816862E+03  0.80664744283E+02 0.  0.
          2    1    6    6  501    0  0.67470329008E+02  0.16180472631E+02 -0.16383126888E+03  0.17791778341E+03  0.00000000000E+00 0. -1.
         -1    1    6    6    0  501 -0.15016567174E+02  0.25555275473E+02 -0.28327763650E+02  0.41000385213E+02  0.00000000000E+00 0.  1.
          5    1    5    5  502    0  0.39533374525E+02 -0.20539347319E+02  0.11466727182E+02  0.46242062258E+02  0.47000000000E+01 0. -1.
         11    1    4    4    0    0 -0.31231343200E+02  0.14886688897E+02 -0.52679407729E+02  0.63024838778E+02  0.00000000000E+00 0. -1.
        -12    1    4    4    0    0  0.41953762274E+02 -0.19599864199E+02 -0.50691655993E+02  0.68657969915E+02  0.00000000000E+00 0.  1.
         -5    1    3    3    0  504 -0.10270955543E+03 -0.16483225483E+02 -0.31331744290E+03  0.33016792625E+03  0.47000000000E+01 0.  1.
<mgrwt>
<rscale>  2 0.19789580E+03</rscale>
<asrwt>0</asrwt>
<pdfrwt beam="1">  1       21 0.99715507E-02 0.19919034E+03</pdfrwt>
<pdfrwt beam="2">  1       21 0.10187629E+00 0.19919034E+03</pdfrwt>
<totfact> 0.63849458E+04</totfact>
</mgrwt>
</event>
<event>
12    1  0.1410528E-001  0.2625228E+03  0.7546771E-02  0.1105960E+00
         21   -1    0    0  502  503  0.00000000000E+00  0.00000000000E+00  0.15046959487E+04  0.15046959487E+04  0.00000000000E+00 0.  1.
         21   -1    0    0  503  504 -0.00000000000E+00 -0.00000000000E+00 -0.67583433149E+02  0.67583433149E+02  0.00000000000E+00 0. -1.
         -6    2    1    2    0  504  0.54770706965E+02  0.18746125261E+03  0.26640445080E+03  0.37249791379E+03  0.17216797844E+03 0.  0.
        -24    2    3    3    0    0 -0.15237083065E+01  0.36263603186E+02  0.44728199665E+02  0.98285877770E+02  0.79637499463E+02 0.  0.
          6    2    1    2  502    0 -0.54770706965E+02 -0.18746125261E+03  0.11707080647E+04  0.11997814680E+04  0.17543274111E+03 0.  0.
         24    2    5    5    0    0 -0.11377161921E+02 -0.37480430695E+02  0.66234742430E+03  0.66796394536E+03  0.77055170631E+02 0.  0.
          4    1    6    6  501    0 -0.33662233527E+00  0.18519313006E+02  0.34690621666E+03  0.34740034747E+03  0.00000000000E+00 0. -1.
         -3    1    6    6    0  501 -0.11040539586E+02 -0.55999743702E+02  0.31544120764E+03  0.32056359788E+03  0.00000000000E+00 0.  1.
          5    1    5    5  502    0 -0.43393545044E+02 -0.14998082191E+03  0.50836064044E+03  0.53181752269E+03  0.47000000000E+01 0. -1.
         13    1    4    4    0    0 -0.26708860944E+02  0.19883553779E+01  0.48688304716E+02  0.55568586685E+02  0.00000000000E+00 0. -1.
        -14    1    4    4    0    0  0.25185152637E+02  0.34275247808E+02 -0.39601050506E+01  0.42717291085E+02  0.00000000000E+00 0.  1.
         -5    1    3    3    0  504  0.56294415272E+02  0.15119764942E+03  0.22167625113E+03  0.27421203602E+03  0.47000000000E+01 0.  1.
<mgrwt>
<rscale>  2 0.26197847E+03</rscale>
<asrwt>0</asrwt>
<pdfrwt beam="1">  1       21 0.23149166E+00 0.26252276E+03</pdfrwt>
<pdfrwt beam="2">  1       21 0.10397452E-01 0.26252276E+03</pdfrwt>
<totfact> 0.61176746E+03</totfact>
</mgrwt>
</event>
<event>
12    1  0.1410528E-001  0.1828842E+03  0.7546771E-02  0.1165397E+00
         21   -1    0    0  502  503  0.00000000000E+00  0.00000000000E+00  0.23678123709E+03  0.23678123709E+03  0.00000000000E+00 0.  1.
         21   -1    0    0  503  504 -0.00000000000E+00 -0.00000000000E+00 -0.19854035366E+03  0.19854035366E+03  0.00000000000E+00 0.  1.
         -6    2    1    2    0  504 -0.29818415604E+02 -0.48010759705E+02 -0.98911944808E+02  0.20791875668E+03  0.17393235925E+03 0.  0.
        -24    2    3    3    0    0  0.33529148888E+02 -0.67703122786E+02 -0.87310250907E+02  0.14041029504E+03  0.79900277726E+02 0.  0.
          6    2    1    2  502    0  0.29818415604E+02  0.48010759705E+02  0.13715282823E+03  0.22740283407E+03  0.17235712836E+03 0.  0.
         24    2    5    5    0    0  0.15143379388E+02  0.20709742919E+02  0.16533630627E+03  0.18524716257E+03  0.79512273765E+02 0.  0.
          4    1    6    6  501    0  0.67236375633E+01 -0.17830472944E+02  0.13266192922E+03  0.13402358200E+03  0.00000000000E+00 0. -1.
         -3    1    6    6    0  501  0.84197418242E+01  0.38540215863E+02  0.32674377048E+02  0.51223580572E+02  0.00000000000E+00 0.  1.
          5    1    5    5  502    0  0.14675036216E+02  0.27301016786E+02 -0.28183478036E+02  0.42155671501E+02  0.47000000000E+01 0. -1.
         11    1    4    4    0    0  0.42901074354E+02 -0.53678662500E+01 -0.18314025445E+02  0.46954442780E+02  0.00000000000E+00 0. -1.
        -12    1    4    4    0    0 -0.93719254660E+01 -0.62335256536E+02 -0.68996225461E+02  0.93455852264E+02  0.00000000000E+00 0.  1.
         -5    1    3    3    0  504 -0.63347564491E+02  0.19692363081E+02 -0.11601693901E+02  0.67508461633E+02  0.47000000000E+01 0.  1.
<mgrwt>
<rscale>  2 0.18250869E+03</rscale>
<asrwt>0</asrwt>
<pdfrwt beam="1">  1       21 0.36427883E-01 0.18288422E+03</pdfrwt>
<pdfrwt beam="2">  1       21 0.30544670E-01 0.18288422E+03</pdfrwt>
<totfact> 0.75074716E+04</totfact>
</mgrwt>
</event>
<event>
12    1  0.1410528E-001  0.2263186E+03  0.7546771E-02  0.1129314E+00
         21   -1    0    0  502  503  0.00000000000E+00  0.00000000000E+00  0.30545159467E+03  0.30545159467E+03  0.00000000000E+00 0. -1.
         21   -1    0    0  503  504 -0.00000000000E+00 -0.00000000000E+00 -0.27143523311E+03  0.27143523311E+03  0.00000000000E+00 0. -1.
         -6    2    1    2    0  504  0.14474787317E+03  0.72657527734E+01 -0.16152613587E+03  0.27779324852E+03  0.17341758390E+03 0.  0.
        -24    2    3    3    0    0  0.89879361548E+02  0.42949132081E+02 -0.28536383399E+02  0.12949550279E+03  0.77664872926E+02 0.  0.
          6    2    1    2  502    0 -0.14474787317E+03 -0.72657527734E+01  0.19554249743E+03  0.29909357926E+03  0.17382566814E+03 0.  0.
         24    2    5    5    0    0 -0.16639875384E+03  0.25086183787E+02  0.15263646369E+03  0.24096934882E+03  0.80314849970E+02 0.  0.
          2    1    6    6  501    0 -0.10192658019E+03 -0.21547559925E+02  0.10654505458E+03  0.14901400519E+03  0.00000000000E+00 0. -1.
         -1    1    6    6    0  501 -0.64472173652E+02  0.46633743712E+02  0.46091409112E+02  0.91955343629E+02  0.00000000000E+00 0.  1.
          5    1    5    5  502    0  0.21650880675E+02 -0.32351936560E+02  0.42906033737E+02  0.58124230440E+02  0.47000000000E+01 0. -1.
         11    1    4    4    0    0  0.86334589914E+02  0.61126331075E+02 -0.15652153166E+02  0.10693493192E+03  0.00000000000E+00 0. -1.
        -12    1    4    4    0    0  0.35447716339E+01 -0.18177198994E+02 -0.12884230234E+02  0.22560570869E+02  0.00000000000E+00 0.  1.
         -5    1    3    3    0  504  0.54868511620E+02 -0.35683379308E+02 -0.13298975247E+03  0.14829774573E+03  0.47000000000E+01 0.  1.
<mgrwt>
<rscale>  2 0.22624022E+03</rscale>
<asrwt>0</asrwt>
<pdfrwt beam="1">  1       21 0.46992553E-01 0.22631858E+03</pdfrwt>
<pdfrwt beam="2">  1       21 0.41759267E-01 0.22631858E+03</pdfrwt>
<totfact> 0.23482285E+04</totfact>
</mgrwt>
</event>
<event>
12    1  0.1410528E-001  0.1737161E+03  0.7546771E-02  0.1175108E+00
         21   -1    0    0  502  503  0.00000000000E+00  0.00000000000E+00  0.52640590135E+02  0.52640590135E+02  0.00000000000E+00 0.  1.
         21   -1    0    0  503  504 -0.00000000000E+00 -0.00000000000E+00 -0.56040518704E+03  0.56040518704E+03  0.00000000000E+00 0.  1.
         -6    2    1    2    0  504  0.90244776046E+01 -0.11040120744E+02 -0.23818582963E+03  0.29234345291E+03  0.16890494239E+03 0.  0.
        -24    2    3    3    0    0 -0.23051714048E+02  0.51418267786E+02 -0.13248319848E+03  0.16535893181E+03  0.81342231752E+02 0.  0.
          6    2    1    2  502    0 -0.90244776046E+01  0.11040120744E+02 -0.26957876728E+03  0.32070232427E+03  0.17312984595E+03 0.  0.
         24    2    5    5    0    0  0.51987815463E+02  0.42910752656E+02 -0.18363777044E+03  0.21049260590E+03  0.77718985821E+02 0.  0.
          4    1    6    6  501    0  0.24407478421E+02 -0.16895794814E+02 -0.25298700970E+02  0.39002783952E+02  0.00000000000E+00 0. -1.
         -3    1    6    6    0  501  0.27580337042E+02  0.59806547470E+02 -0.15833906947E+03  0.17148982195E+03  0.00000000000E+00 0.  1.
          5    1    5    5  502    0 -0.61012293068E+02 -0.31870631912E+02 -0.85940996845E+02  0.11020971837E+03  0.47000000000E+01 0. -1.
         13    1    4    4    0    0  0.54632708807E+01  0.36944841505E+02 -0.98481725838E+01  0.38623246184E+02  0.00000000000E+00 0. -1.
        -14    1    4    4    0    0 -0.28514984928E+02  0.14473426281E+02 -0.12263502590E+03  0.12673568563E+03  0.00000000000E+00 0.  1.
         -5    1    3    3    0  504  0.32076191652E+02 -0.62458388530E+02 -0.10570263114E+03  0.12698452110E+03  0.47000000000E+01 0.  1.
<mgrwt>
<rscale>  2 0.17265378E+03</rscale>
<asrwt>0</asrwt>
<pdfrwt beam="1">  1       21 0.80985521E-02 0.17371606E+03</pdfrwt>
<pdfrwt beam="2">  1       21 0.86216185E-01 0.17371606E+03</pdfrwt>
<totfact> 0.13719230E+05</totfact>
</mgrwt>
</event>
<event>
12    1  0.1410528E-001  0.1970560E+03  0.7546771E-02  0.1152427E+00
         21   -1    0    0  502  503  0.00000000000E+00  0.00000000000E+00  0.22312966093E+03  0.22312966093E+03  0.00000000000E+00 0.  1.
         21   -1    0    0  503  504 -0.00000000000E+00 -0.00000000000E+00 -0.17342907865E+03  0.17342907865E+03  0.00000000000E+00 0.  1.
         -6    2    1    2    0  504 -0.92665613969E+02 -0.16498623917E+02  0.30358507888E+02  0.19855576801E+03  0.17217326565E+03 0.  0.
        -24    2    3    3    0    0  0.15766543848E+02 -0.16611613711E+02  0.31408138432E+02  0.90016662888E+02  0.81191125270E+02 0.  0.
          6    2    1    2  502    0  0.92665613969E+02  0.16498623917E+02  0.19342074399E+02  0.19800297157E+03  0.17312406045E+03 0.  0.
         24    2    5    5    0    0  0.12894285991E+03  0.22195029337E+02  0.26886887695E+02  0.16022067657E+03  0.88480958529E+02 0.  0.
          2    1    6    6  501    0  0.66802793200E+02 -0.14040495218E+02  0.50055704628E+02  0.84648226509E+02  0.00000000000E+00 0. -1.
         -1    1    6    6    0  501  0.62140066710E+02  0.36235524556E+02 -0.23168816933E+02  0.75572450063E+02  0.00000000000E+00 0.  1.
          5    1    5    5  502    0 -0.36277245940E+02 -0.56964054203E+01 -0.75448132961E+01  0.37782294999E+02  0.47000000000E+01 0. -1.
         11    1    4    4    0    0  0.36355953036E+01 -0.48471169369E+02  0.27108763106E+02  0.55655699172E+02  0.00000000000E+00 0. -1.
        -12    1    4    4    0    0  0.12130948544E+02  0.31859555657E+02  0.42993753261E+01  0.34360963716E+02  0.00000000000E+00 0.  1.
         -5    1    3    3    0  504 -0.10843215782E+03  0.11298979464E+00 -0.10496305446E+01  0.10853910512E+03  0.47000000000E+01 0.  1.
<mgrwt>
<rscale>  2 0.19684695E+03</rscale>
<asrwt>0</asrwt>
<pdfrwt beam="1">  1       21 0.34327640E-01 0.19705598E+03</pdfrwt>
<pdfrwt beam="2">  1       21 0.26681397E-01 0.19705598E+03</pdfrwt>
<totfact> 0.10916189E+05</totfact>
</mgrwt>
</event>
<event>
12    1  0.1410528E-001  0.2188961E+03  0.7546771E-02  0.1135139E+00
         21   -1    0    0  502  503  0.00000000000E+00  0.00000000000E+00  0.56659265804E+03  0.56659265804E+03  0.00000000000E+00 0.  1.
         21   -1    0    0  503  504 -0.00000000000E+00 -0.00000000000E+00 -0.83773335264E+02  0.83773335264E+02  0.00000000000E+00 0.  1.
         -6    2    1    2    0  504 -0.42155769769E+02 -0.12680758163E+03  0.22989189513E+03  0.31586965685E+03  0.17048778546E+03 0.  0.
        -24    2    3    3    0    0  0.24233835540E+02 -0.57005689539E+02  0.18202528192E+03  0.20819799627E+03  0.79851580867E+02 0.  0.
          6    2    1    2  502    0  0.42155769769E+02  0.12680758163E+03  0.25292742765E+03  0.33449633645E+03  0.17337313448E+03 0.  0.
         24    2    5    5    0    0 -0.34816482866E+02  0.58852850936E+02  0.17880104759E+03  0.20777071426E+03  0.80765150547E+02 0.  0.
          2    1    6    6  501    0 -0.69432246149E+01  0.64141454277E+02  0.69421517027E+02  0.94771733925E+02  0.00000000000E+00 0. -1.
         -1    1    6    6    0  501 -0.27873258251E+02 -0.52886033413E+01  0.10937953056E+03  0.11299898033E+03  0.00000000000E+00 0.  1.
          5    1    5    5  502    0  0.76972252635E+02  0.67954730694E+02  0.74126380064E+02  0.12672562220E+03  0.47000000000E+01 0. -1.
         13    1    4    4    0    0 -0.10656662514E+02 -0.10786561618E+02 -0.19832472778E+01  0.15292077598E+02  0.00000000000E+00 0. -1.
        -14    1    4    4    0    0  0.34890498055E+02 -0.46219127921E+02  0.18400852920E+03  0.19290591867E+03  0.00000000000E+00 0.  1.
         -5    1    3    3    0  504 -0.66389605310E+02 -0.69801892091E+02  0.47866613203E+02  0.10767166058E+03  0.47000000000E+01 0.  1.
<mgrwt>
<rscale>  2 0.21832436E+03</rscale>
<asrwt>0</asrwt>
<pdfrwt beam="1">  1       21 0.87168099E-01 0.21889613E+03</pdfrwt>
<pdfrwt beam="2">  1       21 0.12888206E-01 0.21889613E+03</pdfrwt>
<totfact> 0.57667839E+04</totfact>
</mgrwt>
</event>
<event>
12    1  0.1410528E-001  0.2757327E+03  0.7546771E-02  0.1098062E+00
         21   -1    0    0  502  503  0.00000000000E+00  0.00000000000E+00  0.32142292757E+03  0.32142292757E+03  0.00000000000E+00 0.  1.
         21   -1    0    0  503  504 -0.00000000000E+00 -0.00000000000E+00 -0.37216214993E+03  0.37216214993E+03  0.00000000000E+00 0.  1.
         -6    2    1    2    0  504 -0.21090804285E+03 -0.37324760914E+02  0.18407001031E+03  0.33152724971E+03  0.17364679177E+03 0.  0.
        -24    2    3    3    0    0 -0.31301018630E+02 -0.15405560139E+02  0.95119026055E+02  0.12985052296E+03  0.81218496330E+02 0.  0.
          6    2    1    2  502    0  0.21090804285E+03  0.37324760914E+02 -0.23480923267E+03  0.36205782778E+03  0.17342189768E+03 0.  0.
         24    2    5    5    0    0  0.44713846114E+02  0.31663215325E+02 -0.35710772573E+02  0.10260677085E+03  0.79063284198E+02 0.  0.
          2    1    6    6  501    0  0.57742164780E+02 -0.39352808982E+01 -0.16927835837E+02  0.60300876074E+02  0.00000000000E+00 0. -1.
         -1    1    6    6    0  501 -0.13028318666E+02  0.35598496223E+02 -0.18782936737E+02  0.42305894779E+02  0.00000000000E+00 0.  1.
          5    1    5    5  502    0  0.16619419674E+03  0.56615455890E+01 -0.19909846009E+03  0.25945105693E+03  0.47000000000E+01 0. -1.
         13    1    4    4    0    0 -0.24876667650E+02 -0.31707769963E+02  0.81291620948E+01  0.41113435101E+02  0.00000000000E+00 0. -1.
        -14    1    4    4    0    0 -0.64243509797E+01  0.16302209824E+02  0.86989863961E+02  0.88737087864E+02  0.00000000000E+00 0.  1.
         -5    1    3    3    0  504 -0.17960702422E+03 -0.21919200775E+02  0.88950984251E+02  0.20167672675E+03  0.47000000000E+01 0.  1.
<mgrwt>
<rscale>  2 0.27569735E+03</rscale>
<asrwt>0</asrwt>
<pdfrwt beam="1">  1       21 0.49449681E-01 0.27573275E+03</pdfrwt>
<pdfrwt beam="2">  1       21 0.57255715E-01 0.27573275E+03</pdfrwt>
<totfact> 0.10639725E+04</totfact>
</mgrwt>
</event>
<event>
12    1  0.1410528E-001  0.1775927E+03  0.7546771E-02  0.1170208E+00
         21   -1    0    0  502  503  0.00000000000E+00  0.00000000000E+00  0.62127564661E+03  0.62127564661E+03  0.00000000000E+00 0.  1.
         21   -1    0    0  503  504 -0.00000000000E+00 -0.00000000000E+00 -0.50778466274E+02  0.50778466274E+02  0.00000000000E+00 0.  1.
         -6    2    1    2    0  504  0.15151788470E+02  0.38907367502E+02  0.27204109415E+03  0.32475710244E+03  0.17238752489E+03 0.  0.
        -24    2    3    3    0    0 -0.22056885698E+02 -0.85858801075E+01  0.58119362712E+02  0.10244045622E+03  0.80968902705E+02 0.  0.
          6    2    1    2  502    0 -0.15151788470E+02 -0.38907367502E+02  0.29845608618E+03  0.34729701044E+03  0.17261465217E+03 0.  0.
         24    2    5    5    0    0  0.29379810483E+02 -0.71334062814E+02  0.24951493779E+03  0.27346016409E+03  0.81061923121E+02 0.  0.
          4    1    6    6  501    0  0.54016369705E+02 -0.25204798318E+02  0.13216019159E+03  0.14498057213E+03  0.00000000000E+00 0. -1.
         -3    1    6    6    0  501 -0.24636559222E+02 -0.46129264496E+02  0.11735474620E+03  0.12847959195E+03  0.00000000000E+00 0.  1.
          5    1    5    5  502    0 -0.44531598953E+02  0.32426695312E+02  0.48941148392E+02  0.73836846358E+02  0.47000000000E+01 0. -1.
         13    1    4    4    0    0 -0.44290310370E+02  0.40654396516E+01  0.66584555249E+01  0.44972151630E+02  0.00000000000E+00 0. -1.
        -14    1    4    4    0    0  0.22233424672E+02 -0.12651319759E+02  0.51460907187E+02  0.57468304593E+02  0.00000000000E+00 0.  1.
         -5    1    3    3    0  504  0.37208674168E+02  0.47493247609E+02  0.21392173144E+03  0.22231664621E+03  0.47000000000E+01 0.  1.
<mgrwt>
<rscale>  2 0.17753752E+03</rscale>
<asrwt>0</asrwt>
<pdfrwt beam="1">  1       21 0.95580863E-01 0.17759273E+03</pdfrwt>
<pdfrwt beam="2">  1       21 0.78120722E-02 0.17759273E+03</pdfrwt>
<totfact> 0.11488893E+05</totfact>
</mgrwt>
</event>
<event>
12    1  0.1410528E-001  0.2019508E+03  0.7546771E-02  0.1148410E+00
         21   -1    0    0  502  503  0.00000000000E+00  0.00000000000E+00  0.34944952030E+02  0.34944952030E+02  0.00000000000E+00 0.  1.
         21   -1    0    0  503  504 -0.00000000000E+00 -0.00000000000E+00 -0.11888505817E+04  0.11888505817E+04  0.00000000000E+00 0. -1.
         -6    2    1    2    0  504  0.10293938554E+03  0.10036309682E+02 -0.67651748672E+03  0.70601701865E+03  0.17345568937E+03 0.  0.
        -24    2    3    3    0    0  0.10154626194E+03 -0.20599763599E+02 -0.65550006845E+03  0.66854260538E+03  0.80826245055E+02 0.  0.
          6    2    1    2  502    0 -0.10293938554E+03 -0.10036309682E+02 -0.47738814297E+03  0.51777851510E+03  0.17174954744E+03 0.  0.
         24    2    5    5    0    0 -0.70060822634E+02  0.21136708780E+02 -0.13854952635E+03  0.17589190365E+03  0.79916901786E+02 0.  0.
          4    1    6    6  501    0 -0.45904699447E+01  0.37825716928E+02 -0.69660472793E+02  0.79400495875E+02  0.00000000000E+00 0. -1.
         -3    1    6    6    0  501 -0.65470352689E+02 -0.16689008148E+02 -0.68889053561E+02  0.96491407777E+02  0.00000000000E+00 0.  1.
          5    1    5    5  502    0 -0.32878562905E+02 -0.31173018462E+02 -0.33883861662E+03  0.34188661145E+03  0.47000000000E+01 0. -1.
         11    1    4    4    0    0  0.63668536440E+02 -0.48632770383E+02 -0.48829874329E+03  0.49482773930E+03  0.00000000000E+00 0. -1.
        -12    1    4    4    0    0  0.37877725502E+02  0.28033006784E+02 -0.16720132516E+03  0.17371486607E+03  0.00000000000E+00 0.  1.
         -5    1    3    3    0  504  0.13931235970E+01  0.30636073281E+02 -0.21017418273E+02  0.37474413275E+02  0.47000000000E+01 0.  1.
<mgrwt>
<rscale>  2 0.20158391E+03</rscale>
<asrwt>0</asrwt>
<pdfrwt beam="1">  1       21 0.53761458E-02 0.20195079E+03</pdfrwt>
<pdfrwt beam="2">  1       21 0.18290011E+00 0.20195079E+03</pdfrwt>
<totfact> 0.41111625E+04</totfact>
</mgrwt>
</event>
<event>
12    1  0.1410528E-001  0.2336489E+03  0.7546771E-02  0.1124855E+00
         21   -1    0    0  502  503  0.00000000000E+00  0.00000000000E+00  0.30258199673E+03  0.30258199673E+03  0.00000000000E+00 0. -1.
         21   -1    0    0  503  504 -0.00000000000E+00 -0.00000000000E+00 -0.30633875803E+03  0.30633875803E+03  0.00000000000E+00 0. -1.
         -6    2    1    2    0  504 -0.64520494020E+02 -0.14267440451E+03 -0.19963444222E+03  0.30402755322E+03  0.16751108245E+03 0.  0.
        -24    2    3    3    0    0 -0.85390800054E+02 -0.46075615615E+02 -0.13762078875E+03  0.18725992540E+03  0.81928304485E+02 0.  0.
          6    2    1    2  502    0  0.64520494020E+02  0.14267440451E+03  0.19587768092E+03  0.30489320154E+03  0.17341545090E+03 0.  0.
         24    2    5    5    0    0  0.23049459236E+02  0.11908947897E+02  0.12206539754E+03  0.14904136630E+03  0.81487833321E+02 0.  0.
          2    1    6    6  501    0  0.51659923374E+02  0.80406611163E+01  0.99495245685E+02  0.11239530163E+03  0.00000000000E+00 0. -1.
         -1    1    6    6    0  501 -0.28610464138E+02  0.38682867805E+01  0.22570151859E+02  0.36646064670E+02  0.00000000000E+00 0.  1.
          5    1    5    5  502    0  0.41471034784E+02  0.13076545662E+03  0.73812283376E+02  0.15585183524E+03  0.47000000000E+01 0. -1.
         13    1    4    4    0    0 -0.14316042390E+02 -0.52882153961E+02 -0.49425204539E+02  0.73785649831E+02  0.00000000000E+00 0. -1.
        -14    1    4    4    0    0 -0.71074757664E+02  0.68065383455E+01 -0.88195584207E+02  0.11347427556E+03  0.00000000000E+00 0.  1.
         -5    1    3    3    0  504  0.20870306034E+02 -0.96598788899E+02 -0.62013653479E+02  0.11676762783E+03  0.47000000000E+01 0.  1.
<mgrwt>
<rscale>  2 0.23255418E+03</rscale>
<asrwt>0</asrwt>
<pdfrwt beam="1">  1       21 0.46551076E-01 0.23364888E+03</pdfrwt>
<pdfrwt beam="2">  1       21 0.47129040E-01 0.23364888E+03</pdfrwt>
<totfact> 0.18596373E+04</totfact>
</mgrwt>
</event>
<event>
12    1  0.1410528E-001  0.1894057E+03  0.7546771E-02  0.1159085E+00
         21   -1    0    0  502  503  0.00000000000E+00  0.00000000000E+00  0.79186839278E+03  0.79186839278E+03  0.00000000000E+00 0. -1.
         21   -1    0    0  503  504 -0.00000000000E+00 -0.00000000000E+00 -0.47391198382E+02  0.47391198382E+02  0.00000000000E+00 0. -1.
         -6    2    1    2    0  504  0.63630435866E+02  0.44872954630E+02  0.28261408027E+03  0.34021350728E+03  0.17266180164E+03 0.  0.
        -24    2    3    3    0    0  0.77941290857E+02  0.44661348997E+02  0.98880958896E+02  0.15586385245E+03  0.80290818609E+02 0.  0.
          6    2    1    2  502    0 -0.63630435866E+02 -0.44872954630E+02  0.46186311413E+03  0.49904608388E+03  0.17224123554E+03 0.  0.
         24    2    5    5    0    0 -0.57732336863E+02 -0.43593626734E+02  0.47322689315E+03  0.48534755384E+03  0.79906999752E+02 0.  0.
          4    1    6    6  501    0  0.12265852863E+02 -0.34715540400E+02  0.14270679917E+03  0.14737995257E+03  0.00000000000E+00 0. -1.
         -3    1    6    6    0  501 -0.69998189727E+02 -0.88780863337E+01  0.33052009398E+03  0.33796760127E+03  0.00000000000E+00 0.  1.
          5    1    5    5  502    0 -0.58980990023E+01 -0.12793278958E+01 -0.11363779019E+02  0.13698530041E+02  0.47000000000E+01 0. -1.
         11    1    4    4    0    0  0.42912974328E+02  0.48016605420E+02  0.16793040769E+02  0.66551663991E+02  0.00000000000E+00 0. -1.
        -12    1    4    4    0    0  0.35028316529E+02 -0.33552564227E+01  0.82087918127E+02  0.89312188457E+02  0.00000000000E+00 0.  1.
         -5    1    3    3    0  504 -0.14310854992E+02  0.21160563283E+00  0.18373312137E+03  0.18434965483E+03  0.47000000000E+01 0.  1.
<mgrwt>
<rscale>  2 0.18930978E+03</rscale>
<asrwt>0</asrwt>
<pdfrwt beam="1">  1       21 0.12182590E+00 0.18940568E+03</pdfrwt>
<pdfrwt beam="2">  1       21 0.72909542E-02 0.18940568E+03</pdfrwt>
<totfact> 0.71821103E+04</totfact>
</mgrwt>
</event>
<event>
12    1  0.1410528E-001  0.4031628E+03  0.7546771E-02  0.1043003E+00
         21   -1    0    0  502  503  0.00000000000E+00  0.00000000000E+00  0.66092550383E+03  0.66092550383E+03  0.00000000000E+00 0. -1.
         21   -1    0    0  503  504 -0.00000000000E+00 -0.00000000000E+00 -0.48367455894E+03  0.48367455894E+03  0.00000000000E+00 0.  1.
         -6    2    1    2    0  504  0.45201508175E+02 -0.35828325321E+03 -0.31427155938E+03  0.51118184824E+03  0.17924899739E+03 0.  0.
        -24    2    3    3    0    0 -0.19277667395E+02 -0.30433564545E+03 -0.21702922007E+03  0.38255031626E+03  0.79064837677E+02 0.  0.
          6    2    1    2  502    0 -0.45201508175E+02  0.35828325321E+03  0.49152250427E+03  0.63341821453E+03  0.17092160900E+03 0.  0.
         24    2    5    5    0    0 -0.25136275666E+02  0.70277277363E+02  0.16110295121E+03  0.19461389969E+03  0.79684885618E+02 0.  0.
          4    1    6    6  501    0 -0.22353040582E+02  0.80979187189E+02  0.91810173099E+02  0.12444434525E+03  0.00000000000E+00 0. -1.
         -3    1    6    6    0  501 -0.27832350840E+01 -0.10701909826E+02  0.69292778113E+02  0.70169554438E+02  0.00000000000E+00 0.  1.
          5    1    5    5  502    0 -0.20065232508E+02  0.28800597584E+03  0.33041955306E+03  0.43880431484E+03  0.47000000000E+01 0. -1.
         13    1    4    4    0    0 -0.34175322352E+02 -0.23075709350E+03 -0.19574240301E+03  0.30451909168E+03  0.00000000000E+00 0. -1.
        -14    1    4    4    0    0  0.14897654957E+02 -0.73578551942E+02 -0.21286817059E+02  0.78031224581E+02  0.00000000000E+00 0.  1.
         -5    1    3    3    0  504  0.64479175569E+02 -0.53947607760E+02 -0.97242339309E+02  0.12863153198E+03  0.47000000000E+01 0.  1.
<mgrwt>
<rscale>  2 0.40225155E+03</rscale>
<asrwt>0</asrwt>
<pdfrwt beam="1">  1       21 0.10168085E+00 0.40316283E+03</pdfrwt>
<pdfrwt beam="2">  1       21 0.74411471E-01 0.40316283E+03</pdfrwt>
<totfact> 0.11094323E+03</totfact>
</mgrwt>
</event>
<event>
12    1  0.1410528E-001  0.1853026E+03  0.7546771E-02  0.1164057E+00
         21   -1    0    0  502  503  0.00000000000E+00  0.00000000000E+00  0.18247240795E+03  0.18247240795E+03  0.00000000000E+00 0. -1.
         21   -1    0    0  503  504 -0.00000000000E+00 -0.00000000000E+00 -0.59774538597E+03  0.59774538597E+03  0.00000000000E+00 0. -1.
         -6    2    1    2    0  504  0.21703301085E+02  0.44458587135E+02 -0.53175302816E+03  0.56134646541E+03  0.17291897532E+03 0.  0.
        -24    2    3    3    0    0  0.54829440508E+02  0.39733445513E+02 -0.18799522446E+03  0.21593195258E+03  0.81849798311E+02 0.  0.
          6    2    1    2  502    0 -0.21703301085E+02 -0.44458587135E+02  0.11648005014E+03  0.21887132851E+03  0.17857619414E+03 0.  0.
         24    2    5    5    0    0 -0.26212157736E+02 -0.31026451097E+02  0.15432794558E+03  0.17818588571E+03  0.79267756375E+02 0.  0.
          2    1    6    6  501    0 -0.14326609774E+02 -0.34118899166E+02  0.17722912508E+02  0.41029899533E+02  0.00000000000E+00 0. -1.
         -1    1    6    6    0  501 -0.11885547962E+02  0.30924480694E+01  0.13660503307E+03  0.13715598618E+03  0.00000000000E+00 0.  1.
          5    1    5    5  502    0  0.45088566509E+01 -0.13432136038E+02 -0.37847895434E+02  0.40685442797E+02  0.47000000000E+01 0. -1.
         13    1    4    4    0    0  0.38858644727E+02  0.63568293544E+02 -0.15648849086E+03  0.17331927182E+03  0.00000000000E+00 0. -1.
        -14    1    4    4    0    0  0.15970795781E+02 -0.23834848030E+02 -0.31506733604E+02  0.42612680752E+02  0.00000000000E+00 0.  1.
         -5    1    3    3    0  504 -0.33126139423E+02  0.47251416212E+01 -0.34375780369E+03  0.34541451283E+03  0.47000000000E+01 0.  1.
<mgrwt>
<rscale>  2 0.18392596E+03</rscale>
<asrwt>0</asrwt>
<pdfrwt beam="1">  1       21 0.28072679E-01 0.18530261E+03</pdfrwt>
<pdfrwt beam="2">  1       21 0.91960826E-01 0.18530261E+03</pdfrwt>
<totfact> 0.12174844E+04</totfact>
</mgrwt>
</event>
<event>
12    1  0.1410528E-001  0.1792262E+03  0.7546771E-02  0.1168917E+00
         21   -1    0    0  502  503  0.00000000000E+00  0.00000000000E+00  0.21104412594E+02  0.21104412594E+02  0.00000000000E+00 0.  1.
         21   -1    0    0  503  504 -0.00000000000E+00 -0.00000000000E+00 -0.16520026527E+04  0.16520026527E+04  0.00000000000E+00 0.  1.
         -6    2    1    2    0  504 -0.39122421182E+01  0.47357660842E+02 -0.10580636099E+04  0.10728891642E+04  0.17127318045E+03 0.  0.
        -24    2    3    3    0    0  0.30230175741E+02  0.79852978075E+02 -0.73370540856E+03  0.74509047121E+03  0.97702723084E+02 0.  0.
          6    2    1    2  502    0  0.39122421182E+01 -0.47357660842E+02 -0.57283463013E+03  0.60021790104E+03  0.17281192543E+03 0.  0.
         24    2    5    5    0    0 -0.46082246348E+02 -0.67720325274E+02 -0.47596721240E+03  0.48922477694E+03  0.78015890734E+02 0.  0.
          4    1    6    6  501    0 -0.30986139158E+02 -0.12707731040E+02 -0.34175432382E+03  0.34339138762E+03  0.00000000000E+00 0. -1.
         -3    1    6    6    0  501 -0.15096107190E+02 -0.55012594234E+02 -0.13421288859E+03  0.14583338931E+03  0.00000000000E+00 0.  1.
          5    1    5    5  502    0  0.49994488466E+02  0.20362664431E+02 -0.96867417732E+02  0.11099312410E+03  0.47000000000E+01 0. -1.
         11    1    4    4    0    0  0.43540970096E+02 -0.28643017358E+01 -0.32233829706E+03  0.32527833936E+03  0.00000000000E+00 0. -1.
        -12    1    4    4    0    0 -0.13310794355E+02  0.82717279811E+02 -0.41136711150E+03  0.41981213185E+03  0.00000000000E+00 0.  1.
         -5    1    3    3    0  504 -0.34142417859E+02 -0.32495317233E+02 -0.32435820138E+03  0.32779869301E+03  0.47000000000E+01 0.  1.
<mgrwt>
<rscale>  2 0.17885420E+03</rscale>
<asrwt>0</asrwt>
<pdfrwt beam="1">  1       21 0.32468319E-02 0.17922616E+03</pdfrwt>
<pdfrwt beam="2">  1       21 0.25415432E+00 0.17922616E+03</pdfrwt>
<totfact> 0.35284152E+04</totfact>
</mgrwt>
</event>
<event>
12    1  0.1410528E-001  0.1916515E+03  0.7546771E-02  0.1157062E+00
         21   -1    0    0  502  503  0.00000000000E+00  0.00000000000E+00  0.27013387622E+03  0.27013387622E+03  0.00000000000E+00 0.  1.
         21   -1    0    0  503  504 -0.00000000000E+00 -0.00000000000E+00 -0.13811696738E+03  0.13811696738E+03  0.00000000000E+00 0.  1.
         -6    2    1    2    0  504 -0.43514905605E+02 -0.68638933108E+02  0.92897349359E+02  0.21264757531E+03  0.17315953228E+03 0.  0.
        -24    2    3    3    0    0 -0.30814078377E+02 -0.53488531743E+02 -0.14766549752E+02  0.10308275046E+03  0.81224823768E+02 0.  0.
          6    2    1    2  502    0  0.43514905605E+02  0.68638933108E+02  0.39119559476E+02  0.19560326829E+03  0.17356684155E+03 0.  0.
         24    2    5    5    0    0  0.51822808565E+01  0.67852915835E+02 -0.34992495661E+02  0.11202878259E+03  0.81823585563E+02 0.  0.
          4    1    6    6  501    0  0.44164393191E+01 -0.18656350288E+02 -0.11604621298E+02  0.22410523818E+02  0.00000000000E+00 0. -1.
         -3    1    6    6    0  501  0.76584153734E+00  0.86509266123E+02 -0.23387874363E+02  0.89618258774E+02  0.00000000000E+00 0.  1.
          5    1    5    5  502    0  0.38332624748E+02  0.78601727376E+00  0.74112055138E+02  0.83574485700E+02  0.47000000000E+01 0. -1.
         11    1    4    4    0    0  0.31298262441E+01 -0.23109115757E+02 -0.43406571419E+02  0.49274308577E+02  0.00000000000E+00 0. -1.
        -12    1    4    4    0    0 -0.33943904621E+02 -0.30379415986E+02  0.28640021667E+02  0.53808441881E+02  0.00000000000E+00 0.  1.
         -5    1    3    3    0  504 -0.12700827228E+02 -0.15150401366E+02  0.10766389911E+03  0.10956482486E+03  0.47000000000E+01 0.  1.
<mgrwt>
<rscale>  2 0.19155924E+03</rscale>
<asrwt>0</asrwt>
<pdfrwt beam="1">  1       21 0.41559058E-01 0.19165150E+03</pdfrwt>
<pdfrwt beam="2">  1       21 0.21248764E-01 0.19165150E+03</pdfrwt>
<totfact> 0.11492305E+05</totfact>
</mgrwt>
</event>
<event>
12    1  0.1410528E-001  0.1792943E+03  0.7546771E-02  0.1168543E+00
         21   -1    0    0  502  503  0.00000000000E+00  0.00000000000E+00  0.38540384799E+02  0.38540384799E+02  0.00000000000E+00 0.  1.
         21   -1    0    0  503  504 -0.00000000000E+00 -0.00000000000E+00 -0.11159191789E+04  0.11159191789E+04  0.00000000000E+00 0.  1.
         -6    2    1    2    0  504  0.18781004900E+02  0.43454013282E+02 -0.82905953852E+03  0.84817717292E+03  0.17269574644E+03 0.  0.
        -24    2    3    3    0    0 -0.16414935507E+02 -0.35811720483E+02 -0.34733610012E+03  0.35868624157E+03  0.80383605378E+02 0.  0.
          6    2    1    2  502    0 -0.18781004900E+02 -0.43454013282E+02 -0.24831925553E+03  0.30628239073E+03  0.17293198891E+03 0.  0.
         24    2    5    5    0    0 -0.16152601799E+02 -0.71129346376E+02 -0.66780414999E+02  0.12256719488E+03  0.72407202486E+02 0.  0.
          4    1    6    6  501    0 -0.34189966718E+02 -0.59981664133E+02 -0.21081468618E+02  0.72188518307E+02  0.00000000000E+00 0. -1.
         -3    1    6    6    0  501  0.18037364918E+02 -0.11147682243E+02 -0.45698946381E+02  0.50378676570E+02  0.00000000000E+00 0.  1.
          5    1    5    5  502    0 -0.26284031001E+01  0.27675333094E+02 -0.18153884053E+03  0.18371519585E+03  0.47000000000E+01 0. -1.
         13    1    4    4    0    0  0.13320091450E+02 -0.51314104580E+02 -0.25492122487E+03  0.26037548475E+03  0.00000000000E+00 0. -1.
        -14    1    4    4    0    0 -0.29735026957E+02  0.15502384097E+02 -0.92414875247E+02  0.98310756826E+02  0.00000000000E+00 0.  1.
         -5    1    3    3    0  504  0.35195940406E+02  0.79265733765E+02 -0.48172343840E+03  0.48949093135E+03  0.47000000000E+01 0.  1.
<mgrwt>
<rscale>  2 0.17923732E+03</rscale>
<asrwt>0</asrwt>
<pdfrwt beam="1">  1       21 0.59292902E-02 0.17929431E+03</pdfrwt>
<pdfrwt beam="2">  1       21 0.17167987E+00 0.17929431E+03</pdfrwt>
<totfact> 0.42137161E+04</totfact>
</mgrwt>
</event>
<event>
12    1  0.1410528E-001  0.1877257E+03  0.7546771E-02  0.1160841E+00
         21   -1    0    0  502  503  0.00000000000E+00  0.00000000000E+00  0.35202565294E+02  0.35202565294E+02  0.00000000000E+00 0. -1.
         21   -1    0    0  503  504 -0.00000000000E+00 -0.00000000000E+00 -0.17155081472E+04  0.17155081472E+04  0.00000000000E+00 0. -1.
         -6    2    1    2    0  504  0.47159052995E+02  0.54360872662E+02 -0.14061244984E+04  0.14184213533E+04  0.17191262209E+03 0.  0.
        -24    2    3    3    0    0  0.57829300344E+02 -0.84631349623E+01 -0.52141298466E+03  0.53140542181E+03  0.84287419707E+02 0.  0.
          6    2    1    2  502    0 -0.47159052995E+02 -0.54360872662E+02 -0.27418108351E+03  0.33228935924E+03  0.17338359481E+03 0.  0.
         24    2    5    5    0    0 -0.13600045697E+02 -0.97571066514E+02 -0.22461223764E+03  0.25831309072E+03  0.81055050877E+02 0.  0.
          2    1    6    6  501    0  0.36799420326E+01  0.46091966134E+01  0.41236202342E+01  0.71965902078E+01  0.00000000000E+00 0. -1.
         -1    1    6    6    0  501 -0.17279987730E+02 -0.10218026313E+03 -0.22873585788E+03  0.25111650051E+03  0.00000000000E+00 0.  1.
          5    1    5    5  502    0 -0.33559007297E+02  0.43210193852E+02 -0.49568845868E+02  0.73976268520E+02  0.47000000000E+01 0. -1.
         11    1    4    4    0    0  0.25147533194E+02  0.37688640424E+02 -0.26331021859E+03  0.26717990804E+03  0.00000000000E+00 0. -1.
        -12    1    4    4    0    0  0.32681767150E+02 -0.46151775386E+02 -0.25810276607E+03  0.26422551377E+03  0.00000000000E+00 0.  1.
         -5    1    3    3    0  504 -0.10670247350E+02  0.62824007625E+02 -0.88471151376E+03  0.88701593147E+03  0.47000000000E+01 0.  1.
<mgrwt>
<rscale>  2 0.18738538E+03</rscale>
<asrwt>0</asrwt>
<pdfrwt beam="1">  1       21 0.54157795E-02 0.18772574E+03</pdfrwt>
<pdfrwt beam="2">  1       21 0.26392432E+00 0.18772574E+03</pdfrwt>
<totfact> 0.13010193E+04</totfact>
</mgrwt>
</event>
<event>
12    1  0.1410528E-001  0.1835932E+03  0.7546771E-02  0.1164528E+00
         21   -1    0    0  502  503  0.00000000000E+00  0.00000000000E+00  0.22987251298E+03  0.22987251298E+03  0.00000000000E+00 0.  1.
         21   -1    0    0  503  504 -0.00000000000E+00 -0.00000000000E+00 -0.18471098486E+03  0.18471098486E+03  0.00000000000E+00 0.  1.
         -6    2    1    2    0  504 -0.45350884061E+02  0.35246966008E+02 -0.72227581728E+02  0.19666910870E+03  0.17367459070E+03 0.  0.
        -24    2    3    3    0    0 -0.28538975587E+02  0.22134349988E+02 -0.11656064253E+03  0.14725158908E+03  0.82415074611E+02 0.  0.
          6    2    1    2  502    0  0.45350884061E+02 -0.35246966008E+02  0.11738910985E+03  0.21791438915E+03  0.17437725365E+03 0.  0.
         24    2    5    5    0    0 -0.24485531980E+02  0.22039690700E+02  0.35588217276E+02  0.95962094919E+02  0.82806480483E+02 0.  0.
          2    1    6    6  501    0 -0.51965914712E+02  0.27327597966E+02  0.13335943321E+02  0.60208814028E+02  0.00000000000E+00 0. -1.
         -1    1    6    6    0  501  0.27480382731E+02 -0.52879072661E+01  0.22252273955E+02  0.35753280891E+02  0.00000000000E+00 0.  1.
          5    1    5    5  502    0  0.69836416041E+02 -0.57286656708E+02  0.81800892573E+02  0.12195229423E+03  0.47000000000E+01 0. -1.
         13    1    4    4    0    0  0.14751527520E+02  0.17266510221E+02  0.11324646883E+00  0.22710190755E+02  0.00000000000E+00 0. -1.
        -14    1    4    4    0    0 -0.43290503107E+02  0.48678397675E+01 -0.11667388900E+03  0.12454139832E+03  0.00000000000E+00 0.  1.
         -5    1    3    3    0  504 -0.16811908474E+02  0.13112616020E+02  0.44333060798E+02  0.49417519618E+02  0.47000000000E+01 0.  1.
<mgrwt>
<rscale>  2 0.18342620E+03</rscale>
<asrwt>0</asrwt>
<pdfrwt beam="1">  1       21 0.35365002E-01 0.18359324E+03</pdfrwt>
<pdfrwt beam="2">  1       21 0.28417075E-01 0.18359324E+03</pdfrwt>
<totfact> 0.91591148E+04</totfact>
</mgrwt>
</event>
<event>
12    1  0.1410528E-001  0.2111258E+03  0.7546771E-02  0.1140812E+00
         21   -1    0    0  502  503  0.00000000000E+00  0.00000000000E+00  0.88923631980E+02  0.88923631980E+02  0.00000000000E+00 0.  1.
         21   -1    0    0  503  504 -0.00000000000E+00 -0.00000000000E+00 -0.50047722798E+03  0.50047722798E+03  0.00000000000E+00 0.  1.
         -6    2    1    2    0  504  0.71739054454E+00  0.12038662417E+03 -0.21745861975E+03  0.30261351936E+03  0.17260717502E+03 0.  0.
        -24    2    3    3    0    0  0.46672488982E+02  0.38312659960E+02 -0.56785932103E+02  0.11637225318E+03  0.81680340866E+02 0.  0.
          6    2    1    2  502    0 -0.71739054454E+00 -0.12038662417E+03 -0.19409497625E+03  0.28678734059E+03  0.17343778421E+03 0.  0.
         24    2    5    5    0    0 -0.82937249696E+01 -0.10444287141E+03 -0.21943579737E+03  0.25554872170E+03  0.78587408245E+02 0.  0.
          4    1    6    6  501    0 -0.90985526604E+01 -0.68955048576E+02 -0.58919125069E+02  0.91153966911E+02  0.00000000000E+00 0. -1.
         -3    1    6    6    0  501  0.80482769085E+00 -0.35487822835E+02 -0.16051667230E+03  0.16439475479E+03  0.00000000000E+00 0.  1.
          5    1    5    5  502    0  0.75763344250E+01 -0.15943752760E+02  0.25340821120E+02  0.31238618894E+02  0.47000000000E+01 0. -1.
         13    1    4    4    0    0 -0.15925874739E+02  0.33554748387E+02 -0.11219970113E+02  0.38800030346E+02  0.00000000000E+00 0. -1.
        -14    1    4    4    0    0  0.62598363721E+02  0.47579115731E+01 -0.45565961990E+02  0.77572222832E+02  0.00000000000E+00 0.  1.
         -5    1    3    3    0  504 -0.45955098437E+02  0.82073964211E+02 -0.16067268765E+03  0.18624126618E+03  0.47000000000E+01 0.  1.
<mgrwt>
<rscale>  2 0.21095518E+03</rscale>
<asrwt>0</asrwt>
<pdfrwt beam="1">  1       21 0.13680559E-01 0.21112584E+03</pdfrwt>
<pdfrwt beam="2">  1       21 0.76996497E-01 0.21112584E+03</pdfrwt>
<totfact> 0.68918288E+04</totfact>
</mgrwt>
</event>
<event>
12    1  0.1410528E-001  0.1800317E+03  0.7546771E-02  0.1168823E+00
         21   -1    0    0  502  503  0.00000000000E+00  0.00000000000E+00  0.13567056068E+03  0.13567056068E+03  0.00000000000E+00 0. -1.
         21   -1    0    0  503  504 -0.00000000000E+00 -0.00000000000E+00 -0.48984747833E+03  0.48984747833E+03  0.00000000000E+00 0. -1.
         -6    2    1    2    0  504 -0.70411979658E+01  0.29438761317E+02 -0.40446283270E+03  0.44272067240E+03  0.17746884682E+03 0.  0.
        -24    2    3    3    0    0 -0.43290865945E+02  0.75301001847E+02 -0.30592873334E+03  0.32805401521E+03  0.80515259756E+02 0.  0.
          6    2    1    2  502    0  0.70411979658E+01 -0.29438761317E+02  0.50285915054E+02  0.18279736661E+03  0.17311841280E+03 0.  0.
         24    2    5    5    0    0 -0.50763425193E+02  0.53639854874E+01 -0.27744318189E+01  0.96831698731E+02  0.82237356048E+02 0.  0.
          2    1    6    6  501    0 -0.40953734859E+02 -0.34566070170E+02  0.83455822625E+01  0.54237167599E+02  0.00000000000E+00 0. -1.
         -1    1    6    6    0  501 -0.98096903334E+01  0.39930055657E+02 -0.11120014081E+02  0.42594531132E+02  0.00000000000E+00 0.  1.
          5    1    5    5  502    0  0.57804623158E+02 -0.34802746804E+02  0.53060346873E+02  0.85965667879E+02  0.47000000000E+01 0. -1.
         13    1    4    4    0    0 -0.21250850546E+02 -0.53620431211E+01 -0.14549177464E+03  0.14713329550E+03  0.00000000000E+00 0. -1.
        -14    1    4    4    0    0 -0.22040015399E+02  0.80663044968E+02 -0.16043695870E+03  0.18092071971E+03  0.00000000000E+00 0.  1.
         -5    1    3    3    0  504  0.36249667979E+02 -0.45862240531E+02 -0.98534099361E+02  0.11466665719E+03  0.47000000000E+01 0.  1.
<mgrwt>
<rscale>  2 0.17895024E+03</rscale>
<asrwt>0</asrwt>
<pdfrwt beam="1">  1       21 0.20872394E-01 0.18003169E+03</pdfrwt>
<pdfrwt beam="2">  1       21 0.75361152E-01 0.18003169E+03</pdfrwt>
<totfact> 0.33746467E+04</totfact>
</mgrwt>
</event>
<event>
12    1  0.1410528E-001  0.2873685E+03  0.7546771E-02  0.1091825E+00
         21   -1    0    0  502  503  0.00000000000E+00  0.00000000000E+00  0.21081146731E+03  0.21081146731E+03  0.00000000000E+00 0. -1.
         21   -1    0    0  503  504 -0.00000000000E+00 -0.00000000000E+00 -0.66628634690E+03  0.66628634690E+03  0.00000000000E+00 0.  1.
         -6    2    1    2    0  504  0.22884908133E+03  0.20447729726E+02 -0.50991351977E+03  0.58531398267E+03  0.17259967841E+03 0.  0.
        -24    2    3    3    0    0  0.24163525510E+03 -0.68726408483E+01 -0.48004395702E+03  0.54260368336E+03  0.74442775553E+02 0.  0.
          6    2    1    2  502    0 -0.22884908133E+03 -0.20447729726E+02  0.54438640176E+02  0.29178383155E+03  0.17141828120E+03 0.  0.
         24    2    5    5    0    0 -0.20428524606E+03 -0.69011013350E+02  0.40082515348E+02  0.23530407553E+03  0.85243288317E+02 0.  0.
          2    1    6    6  501    0 -0.16079120983E+03 -0.64870996737E+02  0.64810298159E+02  0.18510114566E+03  0.00000000000E+00 0. -1.
         -1    1    6    6    0  501 -0.43494036229E+02 -0.41400166134E+01 -0.24727782810E+02  0.50202929873E+02  0.00000000000E+00 0.  1.
          5    1    5    5  502    0 -0.24563835274E+02  0.48563283624E+02  0.14356124827E+02  0.56479756017E+02  0.47000000000E+01 0. -1.
         11    1    4    4    0    0  0.23653199587E+02 -0.12821610739E+02 -0.20096325468E+02  0.33581689207E+02  0.00000000000E+00 0. -1.
        -12    1    4    4    0    0  0.21798205551E+03  0.59489698910E+01 -0.45994763155E+03  0.50902199416E+03  0.00000000000E+00 0.  1.
         -5    1    3    3    0  504 -0.12786173765E+02  0.27320370575E+02 -0.29869562750E+02  0.42710299305E+02  0.47000000000E+01 0.  1.
<mgrwt>
<rscale>  2 0.28719134E+03</rscale>
<asrwt>0</asrwt>
<pdfrwt beam="1">  1       21 0.32432534E-01 0.28736851E+03</pdfrwt>
<pdfrwt beam="2">  1       21 0.10250559E+00 0.28736851E+03</pdfrwt>
<totfact> 0.66680254E+03</totfact>
</mgrwt>
</event>
<event>
12    1  0.1410528E-001  0.1771547E+03  0.7546771E-02  0.1170730E+00
         21   -1    0    0  502  503  0.00000000000E+00  0.00000000000E+00  0.87739839854E+03  0.87739839854E+03  0.00000000000E+00 0. -1.
         21   -1    0    0  503  504 -0.00000000000E+00 -0.00000000000E+00 -0.49628707001E+02  0.49628707001E+02  0.00000000000E+00 0. -1.
         -6    2    1    2    0  504 -0.74417547533E+01  0.30923978083E+02  0.65937740899E+03  0.68260995765E+03  0.17368395048E+03 0.  0.
        -24    2    3    3    0    0  0.41657864570E+02 -0.21283682245E+02  0.48294776890E+03  0.49212132198E+03  0.82197781308E+02 0.  0.
          6    2    1    2  502    0  0.74417547533E+01 -0.30923978083E+02  0.16839228254E+03  0.24441714789E+03  0.17427595712E+03 0.  0.
         24    2    5    5    0    0  0.60784129608E+02 -0.58994955444E+02  0.11659182561E+03  0.16480077983E+03  0.79940778412E+02 0.  0.
          4    1    6    6  501    0  0.62796796285E+02 -0.57319849032E+02  0.50978683745E+02  0.99135406960E+02  0.00000000000E+00 0. -1.
         -3    1    6    6    0  501 -0.20126666768E+01 -0.16751064113E+01  0.65613141865E+02  0.65665372870E+02  0.00000000000E+00 0.  1.
          5    1    5    5  502    0 -0.53342374855E+02  0.28070977361E+02  0.51800456933E+02  0.79616368063E+02  0.47000000000E+01 0. -1.
         13    1    4    4    0    0  0.12217826834E+02  0.30922624143E+02  0.21471312296E+03  0.21727220059E+03  0.00000000000E+00 0. -1.
        -14    1    4    4    0    0  0.29440037736E+02 -0.52206306388E+02  0.26823464593E+03  0.27484912139E+03  0.00000000000E+00 0.  1.
         -5    1    3    3    0  504 -0.49099619323E+02  0.52207660328E+02  0.17642964010E+03  0.19048863567E+03  0.47000000000E+01 0.  1.
<mgrwt>
<rscale>  2 0.17700891E+03</rscale>
<asrwt>0</asrwt>
<pdfrwt beam="1">  1       21 0.13498436E+00 0.17715468E+03</pdfrwt>
<pdfrwt beam="2">  1       21 0.76351864E-02 0.17715468E+03</pdfrwt>
<totfact> 0.51569070E+04</totfact>
</mgrwt>
</event>
<event>
12    1  0.1410528E-001  0.3140513E+03  0.7546771E-02  0.1078427E+00
         21   -1    0    0  502  503  0.00000000000E+00  0.00000000000E+00  0.37509597789E+03  0.37509597789E+03  0.00000000000E+00 0. -1.
         21   -1    0    0  503  504 -0.00000000000E+00 -0.00000000000E+00 -0.26296113649E+03  0.26296113649E+03  0.00000000000E+00 0.  1.
         -6    2    1    2    0  504  0.26067300778E+03 -0.26217743413E+02  0.50780961244E+02  0.31806877697E+03  0.17306430541E+03 0.  0.
        -24    2    3    3    0    0  0.13487415686E+03 -0.39688829989E+02  0.92399074273E+02  0.18479845620E+03  0.76463318488E+02 0.  0.
          6    2    1    2  502    0 -0.26067300778E+03  0.26217743413E+02  0.61353880153E+02  0.31998833741E+03  0.17317751128E+03 0.  0.
         24    2    5    5    0    0 -0.11462627800E+03 -0.27815003014E+02 -0.16485713735E+02  0.14583243788E+03  0.84157371506E+02 0.  0.
          2    1    6    6  501    0 -0.62843030041E+01  0.23866859377E+02 -0.90880315984E-01  0.24680512555E+02  0.00000000000E+00 0. -1.
         -1    1    6    6    0  501 -0.10834197500E+03 -0.51681862390E+02 -0.16394833419E+02  0.12115192532E+03  0.00000000000E+00 0.  1.
          5    1    5    5  502    0 -0.14604672977E+03  0.54032746427E+02  0.77839593888E+02  0.17415589953E+03  0.47000000000E+01 0. -1.
         13    1    4    4    0    0  0.10113137601E+03 -0.60314513795E+02  0.53530790737E+02  0.12934814009E+03  0.00000000000E+00 0. -1.
        -14    1    4    4    0    0  0.33742780845E+02  0.20625683806E+02  0.38868283536E+02  0.55450316110E+02  0.00000000000E+00 0.  1.
         -5    1    3    3    0  504  0.12579885092E+03  0.13471086576E+02 -0.41618113029E+02  0.13327032077E+03  0.47000000000E+01 0.  1.
<mgrwt>
<rscale>  2 0.31403573E+03</rscale>
<asrwt>0</asrwt>
<pdfrwt beam="1">  1       21 0.57707074E-01 0.31405133E+03</pdfrwt>
<pdfrwt beam="2">  1       21 0.40455559E-01 0.31405133E+03</pdfrwt>
<totfact> 0.15596749E+04</totfact>
</mgrwt>
</event>
<event>
12    1  0.1410528E-001  0.3499598E+03  0.7546771E-02  0.1062886E+00
         21   -1    0    0  502  503  0.00000000000E+00  0.00000000000E+00  0.35113176055E+03  0.35113176055E+03  0.00000000000E+00 0. -1.
         21   -1    0    0  503  504 -0.00000000000E+00 -0.00000000000E+00 -0.71974638950E+03  0.71974638950E+03  0.00000000000E+00 0.  1.
         -6    2    1    2    0  504 -0.28887883225E+03 -0.94408405336E+02 -0.56966111651E+03  0.66727992175E+03  0.16847783114E+03 0.  0.
        -24    2    3    3    0    0 -0.26890393648E+03 -0.48764371414E+02 -0.53570242951E+03  0.60680135764E+03  0.80891925917E+02 0.  0.
          6    2    1    2  502    0  0.28887883225E+03  0.94408405336E+02  0.20104648756E+03  0.40359822831E+03  0.17351631916E+03 0.  0.
         24    2    5    5    0    0  0.69207747129E+02  0.24711156458E+02  0.22617783946E+02  0.11209868386E+03  0.81573263125E+02 0.  0.
          2    1    6    6  501    0  0.56086732328E+02  0.50972779346E+02  0.12682727756E+01  0.75799434650E+02  0.00000000000E+00 0. -1.
         -1    1    6    6    0  501  0.13121014801E+02 -0.26261622888E+02  0.21349511170E+02  0.36299249212E+02  0.00000000000E+00 0.  1.
          5    1    5    5  502    0  0.21967108512E+03  0.69697248878E+02  0.17842870361E+03  0.29149954445E+03  0.47000000000E+01 0. -1.
         13    1    4    4    0    0 -0.94440107080E+02 -0.37570191555E+02 -0.27241515706E+03  0.29075844083E+03  0.00000000000E+00 0. -1.
        -14    1    4    4    0    0 -0.17446382940E+03 -0.11194179859E+02 -0.26328727245E+03  0.31604291682E+03  0.00000000000E+00 0.  1.
         -5    1    3    3    0  504 -0.19974895768E+02 -0.45644033922E+02 -0.33958686997E+02  0.60478564105E+02  0.47000000000E+01 0.  1.
<mgrwt>
<rscale>  2 0.34934047E+03</rscale>
<asrwt>0</asrwt>
<pdfrwt beam="1">  1       21 0.54020271E-01 0.34995977E+03</pdfrwt>
<pdfrwt beam="2">  1       21 0.11073021E+00 0.34995977E+03</pdfrwt>
<totfact> 0.18705725E+03</totfact>
</mgrwt>
</event>
<event>
12    1  0.1410528E-001  0.2819172E+03  0.7546771E-02  0.1095429E+00
         21   -1    0    0  502  503  0.00000000000E+00  0.00000000000E+00  0.96962995525E+02  0.96962995525E+02  0.00000000000E+00 0. -1.
         21   -1    0    0  503  504 -0.00000000000E+00 -0.00000000000E+00 -0.82556323617E+03  0.82556323617E+03  0.00000000000E+00 0. -1.
         -6    2    1    2    0  504  0.12992185571E+03  0.17164599651E+03 -0.29189710392E+03  0.40580934548E+03  0.18203095586E+03 0.  0.
        -24    2    3    3    0    0  0.12202707084E+03  0.14410158168E+03 -0.31012834027E+03  0.37152392008E+03  0.78705551850E+02 0.  0.
          6    2    1    2  502    0 -0.12992185571E+03 -0.17164599651E+03 -0.43670313672E+03  0.51671688622E+03  0.17304529514E+03 0.  0.
         24    2    5    5    0    0 -0.47432742012E+02 -0.84375242707E+02 -0.33929321271E+03  0.36201904640E+03  0.81048498874E+02 0.  0.
          4    1    6    6  501    0 -0.63395412198E+02 -0.70832600896E+02 -0.20332539570E+03  0.22444921959E+03  0.00000000000E+00 0. -1.
         -3    1    6    6    0  501  0.15962670186E+02 -0.13542641811E+02 -0.13596781701E+03  0.13756982682E+03  0.00000000000E+00 0.  1.
          5    1    5    5  502    0 -0.82489113695E+02 -0.87270753801E+02 -0.97409924010E+02  0.15469783981E+03  0.47000000000E+01 0. -1.
         13    1    4    4    0    0  0.77152337105E+02  0.13395575751E+03 -0.26667161573E+03  0.30823753620E+03  0.00000000000E+00 0. -1.
        -14    1    4    4    0    0  0.44874733735E+02  0.10145824170E+02 -0.43456724540E+02  0.63286383872E+02  0.00000000000E+00 0.  1.
         -5    1    3    3    0  504  0.78947848669E+01  0.27544414828E+02  0.18231236344E+02  0.34285425401E+02  0.47000000000E+01 0.  1.
<mgrwt>
<rscale>  2 0.28047702E+03</rscale>
<asrwt>0</asrwt>
<pdfrwt beam="1">  1       21 0.14917384E-01 0.28191720E+03</pdfrwt>
<pdfrwt beam="2">  1       21 0.12700973E+00 0.28191720E+03</pdfrwt>
<totfact> 0.17270132E+04</totfact>
</mgrwt>
</event>
<event>
12    1  0.1410528E-001  0.1734885E+03  0.7546771E-02  0.1174307E+00
         21   -1    0    0  502  503  0.00000000000E+00  0.00000000000E+00  0.24368553979E+03  0.24368553979E+03  0.00000000000E+00 0.  1.
         21   -1    0    0  503  504 -0.00000000000E+00 -0.00000000000E+00 -0.12419915579E+03  0.12419915579E+03  0.00000000000E+00 0.  1.
         -6    2    1    2    0  504 -0.11599953512E+02 -0.62922585949E+01  0.74698925703E+02  0.18870830339E+03  0.17279103804E+03 0.  0.
        -24    2    3    3    0    0 -0.50167517483E+02 -0.56418581899E+02  0.46278926893E+02  0.11921088177E+03  0.79810143873E+02 0.  0.
          6    2    1    2  502    0  0.11599953512E+02  0.62922585949E+01  0.44787458297E+02  0.17917639219E+03  0.17298587126E+03 0.  0.
         24    2    5    5    0    0  0.53927494055E+02 -0.15308651170E+02  0.74346083466E+02  0.12301570920E+03  0.80392755696E+02 0.  0.
          2    1    6    6  501    0  0.17800831269E+02  0.18321555251E+02  0.68749906588E+02  0.73342338635E+02  0.00000000000E+00 0. -1.
         -1    1    6    6    0  501  0.36126662786E+02 -0.33630206421E+02  0.55961768779E+01  0.49673370568E+02  0.00000000000E+00 0.  1.
          5    1    5    5  502    0 -0.42327540543E+02  0.21600909765E+02 -0.29558625169E+02  0.56160682982E+02  0.47000000000E+01 0. -1.
         13    1    4    4    0    0  0.21257513428E+01 -0.57037447761E+02  0.18539420625E+02  0.60012493557E+02  0.00000000000E+00 0. -1.
        -14    1    4    4    0    0 -0.52293268826E+02  0.61886586198E+00  0.27739506268E+02  0.59198388217E+02  0.00000000000E+00 0.  1.
         -5    1    3    3    0  504  0.38567563971E+02  0.50126323304E+02  0.28419998810E+02  0.69497421614E+02  0.47000000000E+01 0.  1.
<mgrwt>
<rscale>  2 0.17343992E+03</rscale>
<asrwt>0</asrwt>
<pdfrwt beam="1">  1       21 0.37490083E-01 0.17348851E+03</pdfrwt>
<pdfrwt beam="2">  1       21 0.19107562E-01 0.17348851E+03</pdfrwt>
<totfact> 0.17347437E+05</totfact>
</mgrwt>
</event>
<event>
12    1  0.1410528E-001  0.1845980E+03  0.7546771E-02  0.1163534E+00
         21   -1    0    0  502  503  0.00000000000E+00  0.00000000000E+00  0.28027315452E+03  0.28027315452E+03  0.00000000000E+00 0. -1.
         21   -1    0    0  503  504 -0.00000000000E+00 -0.00000000000E+00 -0.24710499931E+03  0.24710499931E+03  0.00000000000E+00 0. -1.
         -6    2    1    2    0  504  0.90361739684E+01 -0.64276534702E+02 -0.17156973763E+03  0.25201708575E+03  0.17281004394E+03 0.  0.
        -24    2    3    3    0    0 -0.17612054793E+01 -0.73752736598E+02 -0.34387295572E+02  0.11400442613E+03  0.79824526812E+02 0.  0.
          6    2    1    2  502    0 -0.90361739684E+01  0.64276534702E+02  0.20473789284E+03  0.27536106807E+03  0.17231653342E+03 0.  0.
         24    2    5    5    0    0  0.13719694218E+02 -0.72610793273E+01  0.33857426795E+02  0.88658943188E+02  0.80455761606E+02 0.  0.
          2    1    6    6  501    0 -0.23048432853E+02  0.15261116241E+02  0.36117531308E+02  0.45481952395E+02  0.00000000000E+00 0. -1.
         -1    1    6    6    0  501  0.36768127071E+02 -0.22522195569E+02 -0.22601045128E+01  0.43176990793E+02  0.00000000000E+00 0.  1.
          5    1    5    5  502    0 -0.22755868187E+02  0.71537614029E+02  0.17088046605E+03  0.18670212488E+03  0.47000000000E+01 0. -1.
         13    1    4    4    0    0  0.15112401773E+01 -0.63815903240E+02 -0.59210405904E+02  0.87066787701E+02  0.00000000000E+00 0. -1.
        -14    1    4    4    0    0 -0.32724456566E+01 -0.99368333587E+01  0.24823110332E+02  0.26937638433E+02  0.00000000000E+00 0.  1.
         -5    1    3    3    0  504  0.10797379448E+02  0.94762018966E+01 -0.13718244206E+03  0.13801265962E+03  0.47000000000E+01 0.  1.
<mgrwt>
<rscale>  2 0.18448245E+03</rscale>
<asrwt>0</asrwt>
<pdfrwt beam="1">  1       21 0.43118947E-01 0.18459804E+03</pdfrwt>
<pdfrwt beam="2">  1       21 0.38016154E-01 0.18459804E+03</pdfrwt>
<totfact> 0.34653440E+04</totfact>
</mgrwt>
</event>
<event>
12    1  0.1410528E-001  0.1988467E+03  0.7546771E-02  0.1150721E+00
         21   -1    0    0  502  503  0.00000000000E+00  0.00000000000E+00  0.61795152652E+03  0.61795152652E+03  0.00000000000E+00 0.  1.
         21   -1    0    0  503  504 -0.00000000000E+00 -0.00000000000E+00 -0.96172149894E+02  0.96172149894E+02  0.00000000000E+00 0.  1.
         -6    2    1    2    0  504  0.87523008190E+02 -0.44553969562E+02  0.54311389204E+02  0.20613040802E+03  0.17290079510E+03 0.  0.
        -24    2    3    3    0    0  0.61580728610E+02  0.29346849901E+02  0.83129007186E+02  0.12254286054E+03  0.58761357190E+02 0.  0.
          6    2    1    2  502    0 -0.87523008190E+02  0.44553969562E+02  0.46746798743E+03  0.50799326840E+03  0.17287425576E+03 0.  0.
         24    2    5    5    0    0 -0.11559174792E+03  0.46894530017E+02  0.26625548779E+03  0.30476459822E+03  0.80180586289E+02 0.  0.
          4    1    6    6  501    0 -0.10188092438E+03  0.25051194180E+02  0.13487012558E+03  0.17087198675E+03  0.00000000000E+00 0. -1.
         -3    1    6    6    0  501 -0.13710823536E+02  0.21843335838E+02  0.13138536221E+03  0.13389261147E+03  0.00000000000E+00 0.  1.
          5    1    5    5  502    0  0.28068739730E+02 -0.23405604555E+01  0.20121249964E+03  0.20322867018E+03  0.47000000000E+01 0. -1.
         13    1    4    4    0    0  0.91755670727E+01  0.91536949868E+01  0.60700684792E+02  0.62068947930E+02  0.00000000000E+00 0. -1.
        -14    1    4    4    0    0  0.52405161537E+02  0.20193154914E+02  0.22428322394E+02  0.60473912612E+02  0.00000000000E+00 0.  1.
         -5    1    3    3    0  504  0.25942279580E+02 -0.73900819463E+02 -0.28817617981E+02  0.83587547477E+02  0.47000000000E+01 0.  1.
<mgrwt>
<rscale>  2 0.19884095E+03</rscale>
<asrwt>0</asrwt>
<pdfrwt beam="1">  1       21 0.95069463E-01 0.19884672E+03</pdfrwt>
<pdfrwt beam="2">  1       21 0.14795716E-01 0.19884672E+03</pdfrwt>
<totfact> 0.37068232E+04</totfact>
</mgrwt>
</event>
<event>
12    1  0.1410528E-001  0.1854964E+03  0.7546771E-02  0.1163855E+00
         21   -1    0    0  502  503  0.00000000000E+00  0.00000000000E+00  0.44032951350E+02  0.44032951350E+02  0.00000000000E+00 0. -1.
         21   -1    0    0  503  504 -0.00000000000E+00 -0.00000000000E+00 -0.81778697668E+03  0.81778697668E+03  0.00000000000E+00 0. -1.
         -6    2    1    2    0  504  0.44724163692E+02  0.28222472949E+02 -0.49713647453E+03  0.52876409807E+03  0.17219186478E+03 0.  0.
        -24    2    3    3    0    0  0.10225816662E+02 -0.49853096209E+02 -0.24866419128E+03  0.26599709864E+03  0.79565557427E+02 0.  0.
          6    2    1    2  502    0 -0.44724163692E+02 -0.28222472949E+02 -0.27661755080E+03  0.33305582996E+03  0.17779808116E+03 0.  0.
         24    2    5    5    0    0 -0.21408290462E+02 -0.87657644032E+02 -0.17523789042E+03  0.21315547531E+03  0.81146540039E+02 0.  0.
          4    1    6    6  501    0 -0.17718835110E+02 -0.79712898048E+02 -0.70004232155E+02  0.10755787164E+03  0.00000000000E+00 0. -1.
         -3    1    6    6    0  501 -0.36894553520E+01 -0.79447459839E+01 -0.10523365826E+03  0.10559760367E+03  0.00000000000E+00 0.  1.
          5    1    5    5  502    0 -0.23315873230E+02  0.59435171083E+02 -0.10137966038E+03  0.11990035465E+03  0.47000000000E+01 0. -1.
         11    1    4    4    0    0 -0.23889309764E+02 -0.27704873023E+02 -0.19636290052E+03  0.19974145241E+03  0.00000000000E+00 0. -1.
        -12    1    4    4    0    0  0.34115126426E+02 -0.22148223185E+02 -0.52301290758E+02  0.66255646221E+02  0.00000000000E+00 0.  1.
         -5    1    3    3    0  504  0.34498347030E+02  0.78075569157E+02 -0.24847228325E+03  0.26276699943E+03  0.47000000000E+01 0.  1.
<mgrwt>
<rscale>  2 0.18413998E+03</rscale>
<asrwt>0</asrwt>
<pdfrwt beam="1">  1       21 0.67743014E-02 0.18549641E+03</pdfrwt>
<pdfrwt beam="2">  1       21 0.12581336E+00 0.18549641E+03</pdfrwt>
<totfact> 0.75380220E+04</totfact>
</mgrwt>
</event>
<event>
12    1  0.1410528E-001  0.1815927E+03  0.7546771E-02  0.1166884E+00
         21   -1    0    0  502  503  0.00000000000E+00  0.00000000000E+00  0.81504454302E+02  0.81504454302E+02  0.00000000000E+00 0. -1.
         21   -1    0    0  503  504 -0.00000000000E+00 -0.00000000000E+00 -0.39942905847E+03  0.39942905847E+03  0.00000000000E+00 0.  1.
         -6    2    1    2    0  504  0.46947675807E+02  0.18300740890E+02 -0.16623978559E+03  0.24432370659E+03  0.17181212388E+03 0.  0.
        -24    2    3    3    0    0  0.76540716192E+02  0.55316137278E+02 -0.85270344616E+02  0.15038740913E+03  0.80168478075E+02 0.  0.
          6    2    1    2  502    0 -0.46947675807E+02 -0.18300740890E+02 -0.15168481858E+03  0.23660980618E+03  0.17446178611E+03 0.  0.
         24    2    5    5    0    0 -0.36939807311E+02 -0.45359937762E+02 -0.17315668605E+03  0.20034014034E+03  0.82041822209E+02 0.  0.
          2    1    6    6  501    0 -0.20801578812E+02  0.20252968535E+02 -0.81156379593E+02  0.86193076080E+02  0.00000000000E+00 0. -1.
         -1    1    6    6    0  501 -0.16138228499E+02 -0.65612906297E+02 -0.92000306453E+02  0.11414706426E+03  0.00000000000E+00 0.  1.
          5    1    5    5  502    0 -0.10007868496E+02  0.27059196872E+02  0.21471867469E+02  0.36269665835E+02  0.47000000000E+01 0. -1.
         13    1    4    4    0    0  0.28168767332E+02 -0.15329531053E+01  0.94856629639E+01  0.29762513337E+02  0.00000000000E+00 0. -1.
        -14    1    4    4    0    0  0.48371948860E+02  0.56849090383E+02 -0.94756007580E+02  0.12062489580E+03  0.00000000000E+00 0.  1.
         -5    1    3    3    0  504 -0.29593040385E+02 -0.37015396388E+02 -0.80969440971E+02  0.93936297459E+02  0.47000000000E+01 0.  1.
<mgrwt>
<rscale>  2 0.18095333E+03</rscale>
<asrwt>0</asrwt>
<pdfrwt beam="1">  1       21 0.12539147E-01 0.18159272E+03</pdfrwt>
<pdfrwt beam="2">  1       21 0.61450625E-01 0.18159272E+03</pdfrwt>
<totfact> 0.13401014E+05</totfact>
</mgrwt>
</event>
<event>
12    1  0.1410528E-001  0.2124519E+03  0.7546771E-02  0.1140297E+00
         21   -1    0    0  502  503  0.00000000000E+00  0.00000000000E+00  0.38117927142E+03  0.38117927142E+03  0.00000000000E+00 0. -1.
         21   -1    0    0  503  504 -0.00000000000E+00 -0.00000000000E+00 -0.11883634695E+03  0.11883634695E+03  0.00000000000E+00 0. -1.
         -6    2    1    2    0  504  0.26939631755E+02  0.11824920872E+03  0.16480332371E+03  0.26624264511E+03  0.17034198380E+03 0.  0.
        -24    2    3    3    0    0 -0.14254363512E+02  0.61683756272E+02  0.16722397771E+03  0.19606754110E+03  0.80439724538E+02 0.  0.
          6    2    1    2  502    0 -0.26939631755E+02 -0.11824920872E+03  0.97539600760E+02  0.23377297326E+03  0.17443397085E+03 0.  0.
         24    2    5    5    0    0 -0.70077144927E+02 -0.99243135868E+02  0.11264501554E+03  0.18405034860E+03  0.80159996477E+02 0.  0.
          4    1    6    6  501    0 -0.35378596769E+02  0.47343454852E+01  0.32359907688E+02  0.48179069751E+02  0.00000000000E+00 0. -1.
         -3    1    6    6    0  501 -0.34698548158E+02 -0.10397748135E+03  0.80285107848E+02  0.13587127885E+03  0.00000000000E+00 0.  1.
          5    1    5    5  502    0  0.43137513172E+02 -0.19006072857E+02 -0.15105414776E+02  0.49722624666E+02  0.47000000000E+01 0. -1.
         13    1    4    4    0    0 -0.11689281964E+02  0.77216992865E+02  0.16136313911E+03  0.17926841875E+03  0.00000000000E+00 0. -1.
        -14    1    4    4    0    0 -0.25650815479E+01 -0.15533236593E+02  0.58608386041E+01  0.16799122345E+02  0.00000000000E+00 0.  1.
         -5    1    3    3    0  504  0.41193995266E+02  0.56565452453E+02 -0.24206540000E+01  0.70175104011E+02  0.47000000000E+01 0.  1.
<mgrwt>
<rscale>  2 0.21161029E+03</rscale>
<asrwt>0</asrwt>
<pdfrwt beam="1">  1       21 0.58642964E-01 0.21245195E+03</pdfrwt>
<pdfrwt beam="2">  1       21 0.18282515E-01 0.21245195E+03</pdfrwt>
<totfact> 0.73593688E+04</totfact>
</mgrwt>
</event>
<event>
12    1  0.1410528E-001  0.3927342E+03  0.7546771E-02  0.1046346E+00
         21   -1    0    0  502  503  0.00000000000E+00  0.00000000000E+00  0.71840277491E+03  0.71840277491E+03  0.00000000000E+00 0. -1.
         21   -1    0    0  503  504 -0.00000000000E+00 -0.00000000000E+00 -0.29393667773E+03  0.29393667773E+03  0.00000000000E+00 0.  1.
         -6    2    1    2    0  504 -0.20769470510E+03  0.28422190971E+03  0.47520511410E+03  0.61634117999E+03  0.17360116704E+03 0.  0.
        -24    2    3    3    0    0 -0.10917858961E+03  0.25452815349E+03  0.37031064662E+03  0.46933069234E+03  0.80229535889E+02 0.  0.
          6    2    1    2  502    0  0.20769470510E+03 -0.28422190971E+03 -0.50739016926E+02  0.39599827265E+03  0.17412926123E+03 0.  0.
         24    2    5    5    0    0  0.20216362139E+03 -0.20565199490E+03 -0.83477361354E+02  0.31057161641E+03  0.79519722329E+02 0.  0.
          2    1    6    6  501    0  0.34180816810E+02 -0.20967737772E+02  0.14129965730E+02  0.42516234506E+02  0.00000000000E+00 0. -1.
         -1    1    6    6    0  501  0.16798280458E+03 -0.18468425712E+03 -0.97607327084E+02  0.26805538190E+03  0.00000000000E+00 0.  1.
          5    1    5    5  502    0  0.55310837076E+01 -0.78569914818E+02  0.32738344428E+02  0.85426656246E+02  0.47000000000E+01 0. -1.
         11    1    4    4    0    0 -0.34336503037E+02  0.14492761076E+03  0.14516794685E+03  0.20798254877E+03  0.00000000000E+00 0. -1.
        -12    1    4    4    0    0 -0.74842086572E+02  0.10960054273E+03  0.22514269977E+03  0.26134814358E+03  0.00000000000E+00 0.  1.
         -5    1    3    3    0  504 -0.98516115490E+02  0.29693756225E+02  0.10489446749E+03  0.14701048765E+03  0.47000000000E+01 0.  1.
<mgrwt>
<rscale>  2 0.39267576E+03</rscale>
<asrwt>0</asrwt>
<pdfrwt beam="1">  1       21 0.11052350E+00 0.39273424E+03</pdfrwt>
<pdfrwt beam="2">  1       21 0.45221027E-01 0.39273424E+03</pdfrwt>
<totfact> 0.26833870E+03</totfact>
</mgrwt>
</event>
<event>
12    1  0.1410528E-001  0.2443966E+03  0.7546771E-02  0.1118370E+00
         21   -1    0    0  502  503  0.00000000000E+00  0.00000000000E+00  0.10477362779E+04  0.10477362779E+04  0.00000000000E+00 0.  1.
         21   -1    0    0  503  504 -0.00000000000E+00 -0.00000000000E+00 -0.61302905449E+02  0.61302905449E+02  0.00000000000E+00 0. -1.
         -6    2    1    2    0  504  0.25111311860E+02 -0.15796684157E+03  0.67974981796E+03  0.72234998056E+03  0.18478522229E+03 0.  0.
        -24    2    3    3    0    0  0.11619777174E+02 -0.60091170711E+02  0.13330731849E+03  0.16702740432E+03  0.79883318733E+02 0.  0.
          6    2    1    2  502    0 -0.25111311860E+02  0.15796684157E+03  0.30668355451E+03  0.38668920281E+03  0.17288619361E+03 0.  0.
         24    2    5    5    0    0 -0.13693874879E+02  0.53317546720E+02  0.51154586443E+02  0.11028555540E+03  0.80720685190E+02 0.  0.
          4    1    6    6  501    0  0.15621919859E+01  0.69275330693E+02  0.54235751177E+02  0.87994480464E+02  0.00000000000E+00 0. -1.
         -3    1    6    6    0  501 -0.15256066865E+02 -0.15957783973E+02 -0.30811647346E+01  0.22291074932E+02  0.00000000000E+00 0.  1.
          5    1    5    5  502    0 -0.11417436981E+02  0.10464929485E+03  0.25552896807E+03  0.27640364741E+03  0.47000000000E+01 0. -1.
         13    1    4    4    0    0 -0.23571306441E+02 -0.29199526184E+02  0.16141014795E+02  0.40850350981E+02  0.00000000000E+00 0. -1.
        -14    1    4    4    0    0  0.35191083615E+02 -0.30891644527E+02  0.11716630370E+03  0.12617705334E+03  0.00000000000E+00 0.  1.
         -5    1    3    3    0  504  0.13491534686E+02 -0.97875670863E+02  0.54644249947E+03  0.55532257624E+03  0.47000000000E+01 0.  1.
<mgrwt>
<rscale>  2 0.24214876E+03</rscale>
<asrwt>0</asrwt>
<pdfrwt beam="1">  1       21 0.16119018E+00 0.24439656E+03</pdfrwt>
<pdfrwt beam="2">  1       21 0.94312170E-02 0.24439656E+03</pdfrwt>
<totfact> 0.21488706E+04</totfact>
</mgrwt>
</event>
<event>
12    1  0.1410528E-001  0.1984642E+03  0.7546771E-02  0.1151063E+00
         21   -1    0    0  502  503  0.00000000000E+00  0.00000000000E+00  0.45654984205E+03  0.45654984205E+03  0.00000000000E+00 0.  1.
         21   -1    0    0  503  504 -0.00000000000E+00 -0.00000000000E+00 -0.12227149420E+03  0.12227149420E+03  0.00000000000E+00 0. -1.
         -6    2    1    2    0  504  0.93904901829E+02  0.22246839839E+02  0.10038499045E+02  0.19871786965E+03  0.17342135908E+03 0.  0.
        -24    2    3    3    0    0  0.12000529982E+03 -0.31633327527E+01 -0.26447365080E+02  0.14694706777E+03  0.80515209413E+02 0.  0.
          6    2    1    2  502    0 -0.93904901829E+02 -0.22246839839E+02  0.32423984880E+03  0.38010346661E+03  0.17330352941E+03 0.  0.
         24    2    5    5    0    0 -0.10845815447E+02  0.40530608131E+02  0.17379790533E+03  0.19708792585E+03  0.82931156452E+02 0.  0.
          4    1    6    6  501    0 -0.54883906580E+01  0.62954964148E+02  0.88612071531E+02  0.10883726000E+03  0.00000000000E+00 0. -1.
         -3    1    6    6    0  501 -0.53574247894E+01 -0.22424356017E+02  0.85185833800E+02  0.88250665853E+02  0.00000000000E+00 0.  1.
          5    1    5    5  502    0 -0.83059086382E+02 -0.62777447970E+02  0.15044194347E+03  0.18301554076E+03  0.47000000000E+01 0. -1.
         13    1    4    4    0    0  0.57203641815E+01  0.25980119812E+02 -0.45159223709E+01  0.26983008481E+02  0.00000000000E+00 0. -1.
        -14    1    4    4    0    0  0.11428493564E+03 -0.29143452565E+02 -0.21931442709E+02  0.11996405929E+03  0.00000000000E+00 0.  1.
         -5    1    3    3    0  504 -0.26100397990E+02  0.25410172591E+02  0.36485864125E+02  0.51770801880E+02  0.47000000000E+01 0.  1.
<mgrwt>
<rscale>  2 0.19843841E+03</rscale>
<asrwt>0</asrwt>
<pdfrwt beam="1">  1       21 0.70238436E-01 0.19846415E+03</pdfrwt>
<pdfrwt beam="2">  1       21 0.18810999E-01 0.19846415E+03</pdfrwt>
<totfact> 0.47446792E+04</totfact>
</mgrwt>
</event>
<event>
12    1  0.1410528E-001  0.1912378E+03  0.7546771E-02  0.1157541E+00
         21   -1    0    0  502  503  0.00000000000E+00  0.00000000000E+00  0.23154005801E+03  0.23154005801E+03  0.00000000000E+00 0. -1.
         21   -1    0    0  503  504 -0.00000000000E+00 -0.00000000000E+00 -0.26244673567E+03  0.26244673567E+03  0.00000000000E+00 0. -1.
         -6    2    1    2    0  504  0.51384157610E+02 -0.57229963685E+02 -0.17185048015E+03  0.25710795347E+03  0.17508943947E+03 0.  0.
        -24    2    3    3    0    0  0.97135653215E+02 -0.14231614746E+02 -0.92930354036E+02  0.15614987471E+03  0.78159188110E+02 0.  0.
          6    2    1    2  502    0 -0.51384157610E+02  0.57229963685E+02  0.14094380250E+03  0.23687884021E+03  0.17415748356E+03 0.  0.
         24    2    5    5    0    0  0.34126984513E+02  0.72208136859E+01  0.45840360168E+02  0.99474963796E+02  0.81099559676E+02 0.  0.
          4    1    6    6  501    0  0.93228413580E+01  0.65899764577E+01 -0.23338345436E+02  0.25981176424E+02  0.00000000000E+00 0. -1.
         -3    1    6    6    0  501  0.24804143155E+02  0.63083722820E+00  0.69178705604E+02  0.73493787372E+02  0.00000000000E+00 0.  1.
          5    1    5    5  502    0 -0.85511142123E+02  0.50009149999E+02  0.95103442328E+02  0.13740387641E+03  0.47000000000E+01 0. -1.
         11    1    4    4    0    0  0.24633856297E+02 -0.21949196388E+02 -0.73695189736E+02  0.80743885765E+02  0.00000000000E+00 0. -1.
        -12    1    4    4    0    0  0.72501796918E+02  0.77175816415E+01 -0.19235164299E+02  0.75405988942E+02  0.00000000000E+00 0.  1.
         -5    1    3    3    0  504 -0.45751495605E+02 -0.42998348938E+02 -0.78920126118E+02  0.10095807877E+03  0.47000000000E+01 0.  1.
<mgrwt>
<rscale>  2 0.19102426E+03</rscale>
<asrwt>0</asrwt>
<pdfrwt beam="1">  1       21 0.35621547E-01 0.19123784E+03</pdfrwt>
<pdfrwt beam="2">  1       21 0.40376421E-01 0.19123784E+03</pdfrwt>
<totfact> 0.44945948E+04</totfact>
</mgrwt>
</event>
<event>
12    1  0.1410528E-001  0.1725513E+03  0.7546771E-02  0.1175352E+00
         21   -1    0    0  502  503  0.00000000000E+00  0.00000000000E+00  0.49011639530E+02  0.49011639530E+02  0.00000000000E+00 0. -1.
         21   -1    0    0  503  504 -0.00000000000E+00 -0.00000000000E+00 -0.77877621361E+03  0.77877621361E+03  0.00000000000E+00 0. -1.
         -6    2    1    2    0  504  0.32550980106E+01 -0.34030331329E+01 -0.55962430080E+03  0.58546231253E+03  0.17194355192E+03 0.  0.
        -24    2    3    3    0    0  0.18121224301E+02 -0.86979698097E+01 -0.56260816027E+03  0.56872817130E+03  0.80745014590E+02 0.  0.
          6    2    1    2  502    0 -0.32550980106E+01  0.34030331329E+01 -0.17014027328E+03  0.24232554061E+03  0.17248703935E+03 0.  0.
         24    2    5    5    0    0 -0.10923242394E+02 -0.52320509091E+02 -0.15749628739E+03  0.18448201050E+03  0.79823422383E+02 0.  0.
          2    1    6    6  501    0 -0.25974632185E+02 -0.42281888064E+02 -0.35163585872E+02  0.60818725297E+02  0.00000000000E+00 0. -1.
         -1    1    6    6    0  501  0.15051389790E+02 -0.10038621027E+02 -0.12233270152E+03  0.12366328520E+03  0.00000000000E+00 0.  1.
          5    1    5    5  502    0  0.76681443836E+01  0.55723542224E+02 -0.12643985887E+02  0.57843530108E+02  0.47000000000E+01 0. -1.
         13    1    4    4    0    0  0.38868683924E+02  0.17638410239E+02 -0.19619720960E+03  0.20078653630E+03  0.00000000000E+00 0. -1.
        -14    1    4    4    0    0 -0.20747459623E+02 -0.26336380048E+02 -0.36641095067E+03  0.36794163500E+03  0.00000000000E+00 0.  1.
         -5    1    3    3    0  504 -0.14866126291E+02  0.52949366768E+01  0.29838594686E+01  0.16734141228E+02  0.47000000000E+01 0.  1.
<mgrwt>
<rscale>  2 0.17241533E+03</rscale>
<asrwt>0</asrwt>
<pdfrwt beam="1">  1       21 0.75402525E-02 0.17255131E+03</pdfrwt>
<pdfrwt beam="2">  1       21 0.11981172E+00 0.17255131E+03</pdfrwt>
<totfact> 0.71198896E+04</totfact>
</mgrwt>
</event>
<event>
12    1  0.1410528E-001  0.1879845E+03  0.7546771E-02  0.1161687E+00
         21   -1    0    0  502  503  0.00000000000E+00  0.00000000000E+00  0.13217484399E+03  0.13217484399E+03  0.00000000000E+00 0. -1.
         21   -1    0    0  503  504 -0.00000000000E+00 -0.00000000000E+00 -0.55792854714E+03  0.55792854714E+03  0.00000000000E+00 0. -1.
         -6    2    1    2    0  504  0.56653678731E+02  0.21813045260E+02 -0.46707227238E+03  0.50348255608E+03  0.17791213673E+03 0.  0.
        -24    2    3    3    0    0  0.87632456530E+02  0.60160046436E+02 -0.38848189465E+03  0.41059168115E+03  0.79803931841E+02 0.  0.
          6    2    1    2  502    0 -0.56653678731E+02 -0.21813045260E+02  0.41318569230E+02  0.18662083505E+03  0.17156533348E+03 0.  0.
         24    2    5    5    0    0 -0.60015410135E+02 -0.76606889679E+02  0.20198268861E+02  0.12761385485E+03  0.80042869044E+02 0.  0.
          2    1    6    6  501    0 -0.34539349866E+02 -0.24350942058E+02  0.47336616713E+02  0.63456208129E+02  0.00000000000E+00 0. -1.
         -1    1    6    6    0  501 -0.25476060269E+02 -0.52255947621E+02 -0.27138347853E+02  0.64157646721E+02  0.00000000000E+00 0.  1.
          5    1    5    5  502    0  0.33617314040E+01  0.54793844418E+02  0.21120300369E+02  0.59006980196E+02  0.47000000000E+01 0. -1.
         11    1    4    4    0    0  0.75788183610E+02  0.15858446577E+02 -0.31156419781E+03  0.32104141238E+03  0.00000000000E+00 0. -1.
        -12    1    4    4    0    0  0.11844272919E+02  0.44301599860E+02 -0.76917696836E+02  0.89550268775E+02  0.00000000000E+00 0.  1.
         -5    1    3    3    0  504 -0.30978777799E+02 -0.38347001176E+02 -0.78590377731E+02  0.92890874929E+02  0.47000000000E+01 0.  1.
<mgrwt>
<rscale>  2 0.18646745E+03</rscale>
<asrwt>0</asrwt>
<pdfrwt beam="1">  1       21 0.20334591E-01 0.18798451E+03</pdfrwt>
<pdfrwt beam="2">  1       21 0.85835163E-01 0.18798451E+03</pdfrwt>
<totfact> 0.26290774E+04</totfact>
</mgrwt>
</event>
<event>
12    1  0.1410528E-001  0.1776995E+03  0.7546771E-02  0.1170516E+00
         21   -1    0    0  502  503  0.00000000000E+00  0.00000000000E+00  0.11395755962E+03  0.11395755962E+03  0.00000000000E+00 0.  1.
         21   -1    0    0  503  504 -0.00000000000E+00 -0.00000000000E+00 -0.30071904415E+03  0.30071904415E+03  0.00000000000E+00 0.  1.
         -6    2    1    2    0  504  0.29032102528E+02  0.22119655146E+01 -0.15454907250E+03  0.23408101468E+03  0.17338036178E+03 0.  0.
        -24    2    3    3    0    0 -0.32529369485E+01  0.12596177705E+02 -0.17584930015E+03  0.19375800221E+03  0.80311529460E+02 0.  0.
          6    2    1    2  502    0 -0.29032102528E+02 -0.22119655146E+01 -0.32212412018E+02  0.18059558909E+03  0.17529795077E+03 0.  0.
         24    2    5    5    0    0 -0.48788147154E+02  0.53142491833E+02  0.10525047087E+02  0.10777390511E+03  0.79372729984E+02 0.  0.
          4    1    6    6  501    0 -0.57029382058E+02  0.37167382758E+01  0.54893108443E+01  0.57413387767E+02  0.00000000000E+00 0. -1.
         -3    1    6    6    0  501  0.82412349039E+01  0.49425753557E+02  0.50357362430E+01  0.50360517342E+02  0.00000000000E+00 0.  1.
          5    1    5    5  502    0  0.19756044626E+02 -0.55354457347E+02 -0.42737459106E+02  0.72821683984E+02  0.47000000000E+01 0. -1.
         11    1    4    4    0    0  0.37816853974E+02  0.47989555619E+01 -0.10211013816E+03  0.10899369125E+03  0.00000000000E+00 0. -1.
        -12    1    4    4    0    0 -0.41069790923E+02  0.77972221436E+01 -0.73739161994E+02  0.84764310952E+02  0.00000000000E+00 0.  1.
         -5    1    3    3    0  504  0.32285039476E+02 -0.10384212191E+02  0.21300227649E+02  0.40323012470E+02  0.47000000000E+01 0.  1.
<mgrwt>
<rscale>  2 0.17722480E+03</rscale>
<asrwt>0</asrwt>
<pdfrwt beam="1">  1       21 0.17531932E-01 0.17769954E+03</pdfrwt>
<pdfrwt beam="2">  1       21 0.46264468E-01 0.17769954E+03</pdfrwt>
<totfact> 0.13260895E+05</totfact>
</mgrwt>
</event>
<event>
12    1  0.1410528E-001  0.2353632E+03  0.7546771E-02  0.1123123E+00
         21   -1    0    0  502  503  0.00000000000E+00  0.00000000000E+00  0.37278234043E+03  0.37278234043E+03  0.00000000000E+00 0. -1.
         21   -1    0    0  503  504 -0.00000000000E+00 -0.00000000000E+00 -0.18250703497E+03  0.18250703497E+03  0.00000000000E+00 0. -1.
         -6    2    1    2    0  504 -0.24775306543E+02 -0.15620606459E+03 -0.26032273693E+02  0.23562577764E+03  0.17270691181E+03 0.  0.
        -24    2    3    3    0    0 -0.74391563748E+02 -0.76198427039E+02 -0.40737424575E+02  0.14022490496E+03  0.81628311089E+02 0.  0.
          6    2    1    2  502    0  0.24775306543E+02  0.15620606459E+03  0.21630757915E+03  0.31966359776E+03  0.17430346097E+03 0.  0.
         24    2    5    5    0    0  0.23490443858E+02  0.21207186190E+02  0.14162798078E+03  0.16530855102E+03  0.79163668457E+02 0.  0.
          2    1    6    6  501    0 -0.14110198314E+02  0.29051722517E+02  0.11266388455E+03  0.11720175408E+03  0.00000000000E+00 0. -1.
         -1    1    6    6    0  501  0.37600642172E+02 -0.78445363269E+01  0.28964096230E+02  0.48106796946E+02  0.00000000000E+00 0.  1.
          5    1    5    5  502    0  0.12848626855E+01  0.13499887840E+03  0.74679598375E+02  0.15435504674E+03  0.47000000000E+01 0. -1.
         13    1    4    4    0    0 -0.10776155454E+02 -0.64844202844E+02 -0.39166057974E+01  0.65850102276E+02  0.00000000000E+00 0. -1.
        -14    1    4    4    0    0 -0.63615408294E+02 -0.11354224196E+02 -0.36820818778E+02  0.74374802689E+02  0.00000000000E+00 0.  1.
         -5    1    3    3    0  504  0.49616257205E+02 -0.80007637549E+02  0.14705150882E+02  0.95400872677E+02  0.47000000000E+01 0.  1.
<mgrwt>
<rscale>  2 0.23506769E+03</rscale>
<asrwt>0</asrwt>
<pdfrwt beam="1">  1       21 0.57351129E-01 0.23536322E+03</pdfrwt>
<pdfrwt beam="2">  1       21 0.28078006E-01 0.23536322E+03</pdfrwt>
<totfact> 0.33847563E+04</totfact>
</mgrwt>
</event>
<event>
12    1  0.1410528E-001  0.1894798E+03  0.7546771E-02  0.1159165E+00
         21   -1    0    0  502  503  0.00000000000E+00  0.00000000000E+00  0.69312188917E+03  0.69312188917E+03  0.00000000000E+00 0.  1.
         21   -1    0    0  503  504 -0.00000000000E+00 -0.00000000000E+00 -0.51783022307E+02  0.51783022307E+02  0.00000000000E+00 0.  1.
         -6    2    1    2    0  504  0.72646922371E+02 -0.26091399234E+02  0.34822666321E+03  0.39643964777E+03  0.17304406639E+03 0.  0.
        -24    2    3    3    0    0  0.18310357900E+02 -0.75771577086E+02  0.24840384190E+03  0.27231363131E+03  0.79835105210E+02 0.  0.
          6    2    1    2  502    0 -0.72646922371E+02  0.26091399234E+02  0.29311220365E+03  0.34846526370E+03  0.17191550144E+03 0.  0.
         24    2    5    5    0    0 -0.98389197605E+02  0.39850501901E+00  0.13146900078E+03  0.18271423179E+03  0.80123650184E+02 0.  0.
          2    1    6    6  501    0 -0.81227090822E+02  0.16209777994E+02  0.13571656618E+03  0.15899554560E+03  0.00000000000E+00 0. -1.
         -1    1    6    6    0  501 -0.17162106783E+02 -0.15811272975E+02 -0.42475653995E+01  0.23718686181E+02  0.00000000000E+00 0.  1.
          5    1    5    5  502    0  0.25742275235E+02  0.25692894215E+02  0.16164320287E+03  0.16575103192E+03  0.47000000000E+01 0. -1.
         13    1    4    4    0    0  0.35496559475E+02 -0.27502933561E+02  0.18712121840E+03  0.19243380022E+03  0.00000000000E+00 0. -1.
        -14    1    4    4    0    0 -0.17186201575E+02 -0.48268643525E+02  0.61282623499E+02  0.79879831091E+02  0.00000000000E+00 0.  1.
         -5    1    3    3    0  504  0.54336564471E+02  0.49680177852E+02  0.99822821307E+02  0.12412601647E+03  0.47000000000E+01 0.  1.
<mgrwt>
<rscale>  2 0.18922172E+03</rscale>
<asrwt>0</asrwt>
<pdfrwt beam="1">  1       21 0.10663413E+00 0.18947978E+03</pdfrwt>
<pdfrwt beam="2">  1       21 0.79666193E-02 0.18947978E+03</pdfrwt>
<totfact> 0.85215576E+04</totfact>
</mgrwt>
</event>
<event>
12    1  0.1410528E-001  0.1945821E+03  0.7546771E-02  0.1154801E+00
         21   -1    0    0  502  503  0.00000000000E+00  0.00000000000E+00  0.31980028990E+02  0.31980028990E+02  0.00000000000E+00 0. -1.
         21   -1    0    0  503  504 -0.00000000000E+00 -0.00000000000E+00 -0.13148731058E+04  0.13148731058E+04  0.00000000000E+00 0.  1.
         -6    2    1    2    0  504  0.71635433559E+02 -0.53441787568E+02 -0.86017958415E+03  0.88150501600E+03  0.17074693627E+03 0.  0.
        -24    2    3    3    0    0 -0.25376760417E+02 -0.31329092620E+02 -0.48541925299E+03  0.49373223090E+03  0.80710424582E+02 0.  0.
          6    2    1    2  502    0 -0.71635433559E+02  0.53441787568E+02 -0.42271349264E+03  0.46534811877E+03  0.17284245654E+03 0.  0.
         24    2    5    5    0    0  0.28250731704E+02  0.11731153930E+02 -0.16728474935E+03  0.18789009336E+03  0.79892277481E+02 0.  0.
          4    1    6    6  501    0  0.40072086719E+02  0.33944803907E+02 -0.70638258817E+02  0.88021505640E+02  0.00000000000E+00 0. -1.
         -3    1    6    6    0  501 -0.11821355015E+02 -0.22213649977E+02 -0.96646490537E+02  0.99868587719E+02  0.00000000000E+00 0.  1.
          5    1    5    5  502    0 -0.99886165263E+02  0.41710633638E+02 -0.25542874329E+03  0.27745802542E+03  0.47000000000E+01 0. -1.
         13    1    4    4    0    0 -0.38559846872E+02  0.10434319047E+02 -0.14132409626E+03  0.14686128485E+03  0.00000000000E+00 0. -1.
        -14    1    4    4    0    0  0.13183086455E+02 -0.41763411667E+02 -0.34409515673E+03  0.34687094605E+03  0.00000000000E+00 0.  1.
         -5    1    3    3    0  504  0.97012193975E+02 -0.22112694948E+02 -0.37476033116E+03  0.38777278510E+03  0.47000000000E+01 0.  1.
<mgrwt>
<rscale>  2 0.19411563E+03</rscale>
<asrwt>0</asrwt>
<pdfrwt beam="1">  1       21 0.49200047E-02 0.19458205E+03</pdfrwt>
<pdfrwt beam="2">  1       21 0.20228816E+00 0.19458205E+03</pdfrwt>
<totfact> 0.35839273E+04</totfact>
</mgrwt>
</event>
<event>
12    1  0.1410528E-001  0.1850032E+03  0.7546771E-02  0.1163336E+00
         21   -1    0    0  502  503  0.00000000000E+00  0.00000000000E+00  0.53325877554E+02  0.53325877554E+02  0.00000000000E+00 0.  1.
         21   -1    0    0  503  504 -0.00000000000E+00 -0.00000000000E+00 -0.81279866186E+03  0.81279866186E+03  0.00000000000E+00 0.  1.
         -6    2    1    2    0  504  0.38907391822E+02 -0.54090217014E+02 -0.58182010213E+03  0.61052502410E+03  0.17258805606E+03 0.  0.
        -24    2    3    3    0    0 -0.31525433046E+02 -0.44563019357E+02 -0.45273884681E+03  0.46309500413E+03  0.80652363979E+02 0.  0.
          6    2    1    2  502    0 -0.38907391822E+02  0.54090217014E+02 -0.17765268218E+03  0.25559951532E+03  0.17126324775E+03 0.  0.
         24    2    5    5    0    0  0.26899736393E+02  0.72571789790E+02 -0.13302054221E+03  0.17382993311E+03  0.80821534899E+02 0.  0.
          4    1    6    6  501    0  0.36903947596E+02  0.89673858674E+00 -0.28200662727E+02  0.46454094184E+02  0.00000000000E+00 0. -1.
         -3    1    6    6    0  501 -0.10004211203E+02  0.71675051203E+02 -0.10481987948E+03  0.12737583893E+03  0.00000000000E+00 0.  1.
          5    1    5    5  502    0 -0.65807128215E+02 -0.18481572776E+02 -0.44632139971E+02  0.81769582209E+02  0.47000000000E+01 0. -1.
         11    1    4    4    0    0 -0.23587289637E+02 -0.68342615960E+02 -0.33197802840E+03  0.33975945127E+03  0.00000000000E+00 0. -1.
        -12    1    4    4    0    0 -0.79381434090E+01  0.23779596603E+02 -0.12076081841E+03  0.12333555286E+03  0.00000000000E+00 0.  1.
         -5    1    3    3    0  504  0.70432824868E+02 -0.95271976565E+01 -0.12908125532E+03  0.14743001997E+03  0.47000000000E+01 0.  1.
<mgrwt>
<rscale>  2 0.18469358E+03</rscale>
<asrwt>0</asrwt>
<pdfrwt beam="1">  1       21 0.82039818E-02 0.18500317E+03</pdfrwt>
<pdfrwt beam="2">  1       21 0.12504594E+00 0.18500317E+03</pdfrwt>
<totfact> 0.54951313E+04</totfact>
</mgrwt>
</event>
<event>
12    1  0.1410528E-001  0.2850483E+03  0.7546771E-02  0.1092978E+00
         21   -1    0    0  502  503  0.00000000000E+00  0.00000000000E+00  0.18061018862E+04  0.18061018862E+04  0.00000000000E+00 0.  1.
         21   -1    0    0  503  504 -0.00000000000E+00 -0.00000000000E+00 -0.50384479780E+02  0.50384479780E+02  0.00000000000E+00 0. -1.
         -6    2    1    2    0  504 -0.17628024465E+03  0.14143979486E+03  0.11819939045E+04  0.12158529446E+04  0.17351902631E+03 0.  0.
        -24    2    3    3    0    0 -0.13832622235E+03  0.12194550088E+03  0.61057541490E+03  0.64282439774E+03  0.80100062877E+02 0.  0.
          6    2    1    2  502    0  0.17628024465E+03 -0.14143979486E+03  0.57372350198E+03  0.64063342141E+03  0.17370257243E+03 0.  0.
         24    2    5    5    0    0  0.36874603477E+02 -0.14651918392E+02  0.18596716164E+03  0.20948823949E+03  0.87904051006E+02 0.  0.
          4    1    6    6  501    0  0.21114571210E+02 -0.40590337423E+02  0.41187416011E+02  0.61561382758E+02  0.00000000000E+00 0. -1.
         -3    1    6    6    0  501  0.15760032267E+02  0.25938419031E+02  0.14477974563E+03  0.14792685674E+03  0.00000000000E+00 0.  1.
          5    1    5    5  502    0  0.13940564117E+03 -0.12678787647E+03  0.38775634034E+03  0.43114518191E+03  0.47000000000E+01 0. -1.
         11    1    4    4    0    0 -0.12758583246E+03  0.10966703570E+03  0.60056386688E+03  0.62368418416E+03  0.00000000000E+00 0. -1.
        -12    1    4    4    0    0 -0.10740389895E+02  0.12278465178E+02  0.10011548017E+02  0.19140213581E+02  0.00000000000E+00 0.  1.
         -5    1    3    3    0  504 -0.37954022293E+02  0.19494293977E+02  0.57141848959E+03  0.57302854689E+03  0.47000000000E+01 0.  1.
<mgrwt>
<rscale>  2 0.28502033E+03</rscale>
<asrwt>0</asrwt>
<pdfrwt beam="1">  1       21 0.27786178E+00 0.28504828E+03</pdfrwt>
<pdfrwt beam="2">  1       21 0.77514598E-02 0.28504828E+03</pdfrwt>
<totfact> 0.53396158E+03</totfact>
</mgrwt>
</event>
<event>
12    1  0.1410528E-001  0.1931195E+03  0.7546771E-02  0.1156272E+00
         21   -1    0    0  502  503  0.00000000000E+00  0.00000000000E+00  0.22963468101E+03  0.22963468101E+03  0.00000000000E+00 0. -1.
         21   -1    0    0  503  504 -0.00000000000E+00 -0.00000000000E+00 -0.17719277365E+03  0.17719277365E+03  0.00000000000E+00 0. -1.
         -6    2    1    2    0  504 -0.72125824318E+02 -0.54539271363E+02 -0.36657491029E+02  0.19656779498E+03  0.17064131891E+03 0.  0.
        -24    2    3    3    0    0 -0.74962178758E+02 -0.35501337449E+02 -0.82354773980E+02  0.14675996926E+03  0.88749684924E+02 0.  0.
          6    2    1    2  502    0  0.72125824318E+02  0.54539271363E+02  0.89099398389E+02  0.21025965967E+03  0.16761191795E+03 0.  0.
         24    2    5    5    0    0 -0.10122595458E+02 -0.14494885217E+02  0.37047959135E+02  0.90836212816E+02  0.81031460843E+02 0.  0.
          2    1    6    6  501    0 -0.13154667491E+02  0.29277866280E+02 -0.19172937956E+01  0.32154544721E+02  0.00000000000E+00 0. -1.
         -1    1    6    6    0  501  0.30320720330E+01 -0.43772751497E+02  0.38965252930E+02  0.58681668095E+02  0.00000000000E+00 0.  1.
          5    1    5    5  502    0  0.82248419776E+02  0.69034156580E+02  0.52051439254E+02  0.11942344686E+03  0.47000000000E+01 0. -1.
         13    1    4    4    0    0  0.15608419870E+02 -0.25583147630E+02 -0.25623210155E+02  0.39429292565E+02  0.00000000000E+00 0. -1.
        -14    1    4    4    0    0 -0.90570598628E+02 -0.99181898192E+01 -0.56731563825E+02  0.10733067669E+03  0.00000000000E+00 0.  1.
         -5    1    3    3    0  504  0.28363544399E+01 -0.19037933914E+02  0.45697282952E+02  0.49807825724E+02  0.47000000000E+01 0.  1.
<mgrwt>
<rscale>  2 0.19244809E+03</rscale>
<asrwt>0</asrwt>
<pdfrwt beam="1">  1       21 0.35328413E-01 0.19311946E+03</pdfrwt>
<pdfrwt beam="2">  1       21 0.27260427E-01 0.19311946E+03</pdfrwt>
<totfact> 0.99097190E+04</totfact>
</mgrwt>
</event>
<event>
12    1  0.1410528E-001  0.1902349E+03  0.7546771E-02  0.1158531E+00
         21   -1    0    0  502  503  0.00000000000E+00  0.00000000000E+00  0.14832153646E+03  0.14832153646E+03  0.00000000000E+00 0.  1.
         21   -1    0    0  503  504 -0.00000000000E+00 -0.00000000000E+00 -0.24243802316E+03  0.24243802316E+03  0.00000000000E+00 0.  1.
         -6    2    1    2    0  504 -0.56733752577E+02 -0.52805861345E+02 -0.49649999253E+02  0.19660730052E+03  0.17373005070E+03 0.  0.
        -24    2    3    3    0    0  0.17081483942E+02 -0.37174062240E+02 -0.74874177118E+02  0.11691168311E+03  0.79928163061E+02 0.  0.
          6    2    1    2  502    0  0.56733752577E+02  0.52805861345E+02 -0.44466487450E+02  0.19415225911E+03  0.17236778567E+03 0.  0.
         24    2    5    5    0    0 -0.30981197374E+02  0.54915934249E+02 -0.20590150537E+02  0.10309988782E+03  0.78930590674E+02 0.  0.
          4    1    6    6  501    0 -0.13714619454E+02 -0.15419753558E+02  0.11790078674E+02  0.23766900128E+02  0.00000000000E+00 0. -1.
         -3    1    6    6    0  501 -0.17266577920E+02  0.70335687807E+02 -0.32380229211E+02  0.79332987692E+02  0.00000000000E+00 0.  1.
          5    1    5    5  502    0  0.87714949950E+02 -0.21100729041E+01 -0.23876336913E+02  0.91052371286E+02  0.47000000000E+01 0. -1.
         11    1    4    4    0    0  0.13478731277E+02  0.17349538191E+02  0.25818040665E+01  0.22121220231E+02  0.00000000000E+00 0. -1.
        -12    1    4    4    0    0  0.36027526655E+01 -0.54523600431E+02 -0.77455981184E+02  0.94790462875E+02  0.00000000000E+00 0.  1.
         -5    1    3    3    0  504 -0.73815236519E+02 -0.15631799104E+02  0.25224177865E+02  0.79695617411E+02  0.47000000000E+01 0.  1.
<mgrwt>
<rscale>  2 0.18992330E+03</rscale>
<asrwt>0</asrwt>
<pdfrwt beam="1">  1       21 0.22818698E-01 0.19023488E+03</pdfrwt>
<pdfrwt beam="2">  1       21 0.37298157E-01 0.19023488E+03</pdfrwt>
<totfact> 0.12500965E+05</totfact>
</mgrwt>
</event>
<event>
12    1  0.1410528E-001  0.1984439E+03  0.7546771E-02  0.1151294E+00
         21   -1    0    0  502  503  0.00000000000E+00  0.00000000000E+00  0.43865791708E+03  0.43865791708E+03  0.00000000000E+00 0.  1.
         21   -1    0    0  503  504 -0.00000000000E+00 -0.00000000000E+00 -0.10309755556E+03  0.10309755556E+03  0.00000000000E+00 0.  1.
         -6    2    1    2    0  504  0.86159434380E+02 -0.40963657114E+02  0.68192761659E+02  0.20879090248E+03  0.17274813713E+03 0.  0.
        -24    2    3    3    0    0  0.53352045345E+02  0.43924364628E+02  0.28277960300E+02  0.10930430852E+03  0.79824797351E+02 0.  0.
          6    2    1    2  502    0 -0.86159434380E+02  0.40963657114E+02  0.26736759986E+03  0.33296457015E+03  0.17400719004E+03 0.  0.
         24    2    5    5    0    0 -0.12768497705E+03  0.19220301754E+02  0.21787421772E+03  0.26463573969E+03  0.76746508803E+02 0.  0.
          2    1    6    6  501    0 -0.58466303832E+02 -0.29232799215E+02  0.10405571178E+03  0.12288391427E+03  0.00000000000E+00 0. -1.
         -1    1    6    6    0  501 -0.69218673214E+02  0.48453100969E+02  0.11381850594E+03  0.14175182542E+03  0.00000000000E+00 0.  1.
          5    1    5    5  502    0  0.41525542665E+02  0.21743355360E+02  0.49493382139E+02  0.68328830456E+02  0.47000000000E+01 0. -1.
         11    1    4    4    0    0  0.40954053091E+02 -0.15749202408E+00 -0.17516235338E+02  0.44542987874E+02  0.00000000000E+00 0. -1.
        -12    1    4    4    0    0  0.12397992254E+02  0.44081856652E+02  0.45794195638E+02  0.64761320647E+02  0.00000000000E+00 0.  1.
         -5    1    3    3    0  504  0.32807389035E+02 -0.84888021742E+02  0.39914801359E+02  0.99486593961E+02  0.47000000000E+01 0.  1.
<mgrwt>
<rscale>  2 0.19816753E+03</rscale>
<asrwt>0</asrwt>
<pdfrwt beam="1">  1       21 0.67485832E-01 0.19844387E+03</pdfrwt>
<pdfrwt beam="2">  1       21 0.15861163E-01 0.19844387E+03</pdfrwt>
<totfact> 0.70955544E+04</totfact>
</mgrwt>
</event>
<event>
12    1  0.1410528E-001  0.2442631E+03  0.7546771E-02  0.1117051E+00
         21   -1    0    0  502  503  0.00000000000E+00  0.00000000000E+00  0.19396769728E+04  0.19396769728E+04  0.00000000000E+00 0. -1.
         21   -1    0    0  503  504 -0.00000000000E+00 -0.00000000000E+00 -0.39913057497E+02  0.39913057497E+02  0.00000000000E+00 0. -1.
         -6    2    1    2    0  504  0.93131957897E+02 -0.14371047471E+03  0.47395329955E+03  0.53300771864E+03  0.17360655475E+03 0.  0.
        -24    2    3    3    0    0  0.70225407790E+02 -0.99998853359E+02  0.16671234200E+03  0.22179314335E+03  0.80422726198E+02 0.  0.
          6    2    1    2  502    0 -0.93131957897E+02  0.14371047471E+03  0.14258106158E+04  0.14465823117E+04  0.17417867342E+03 0.  0.
         24    2    5    5    0    0 -0.45290974114E+02  0.15300228141E+02  0.81833645163E+03  0.82382641949E+03  0.82036894499E+02 0.  0.
          4    1    6    6  501    0 -0.61339380652E+02 -0.47735505544E+01  0.70169843410E+03  0.70439051586E+03  0.00000000000E+00 0. -1.
         -3    1    6    6    0  501  0.16048406538E+02  0.20073778695E+02  0.11663801753E+03  0.11943590363E+03  0.00000000000E+00 0.  1.
          5    1    5    5  502    0 -0.47840983784E+02  0.12841024657E+03  0.60747416412E+03  0.62275589217E+03  0.47000000000E+01 0. -1.
         13    1    4    4    0    0  0.14606697696E+02 -0.84364571748E+02  0.77373948425E+02  0.11540131922E+03  0.00000000000E+00 0. -1.
        -14    1    4    4    0    0  0.55618710094E+02 -0.15634281611E+02  0.89338393577E+02  0.10639182413E+03  0.00000000000E+00 0.  1.
         -5    1    3    3    0  504  0.22906550107E+02 -0.43711621353E+02  0.30724095754E+03  0.31121457529E+03  0.47000000000E+01 0.  1.
<mgrwt>
<rscale>  2 0.24416115E+03</rscale>
<asrwt>0</asrwt>
<pdfrwt beam="1">  1       21 0.29841177E+00 0.24426312E+03</pdfrwt>
<pdfrwt beam="2">  1       21 0.61404719E-02 0.24426312E+03</pdfrwt>
<totfact> 0.62711610E+03</totfact>
</mgrwt>
</event>
<event>
12    1  0.1410528E-001  0.1954024E+03  0.7546771E-02  0.1153914E+00
         21   -1    0    0  502  503  0.00000000000E+00  0.00000000000E+00  0.12806851185E+04  0.12806851185E+04  0.00000000000E+00 0. -1.
         21   -1    0    0  503  504 -0.00000000000E+00 -0.00000000000E+00 -0.33093193599E+02  0.33093193599E+02  0.00000000000E+00 0. -1.
         -6    2    1    2    0  504  0.82848366225E+02  0.37091992199E+02  0.41340753158E+03  0.45726130088E+03  0.17303884665E+03 0.  0.
        -24    2    3    3    0    0  0.18456918205E+02  0.41562917960E+02  0.95485454412E+02  0.13281903344E+03  0.80344817261E+02 0.  0.
          6    2    1    2  502    0 -0.82848366225E+02 -0.37091992199E+02  0.83418439332E+03  0.85651701121E+03  0.17180838386E+03 0.  0.
         24    2    5    5    0    0 -0.74496961916E+02  0.29809493775E+02  0.38353374249E+03  0.40082670643E+03  0.84412757946E+02 0.  0.
          4    1    6    6  501    0  0.11272746193E+02  0.18384573895E+02  0.30565449309E+02  0.37407406426E+02  0.00000000000E+00 0. -1.
         -3    1    6    6    0  501 -0.85769708108E+02  0.11424919880E+02  0.35296829318E+03  0.36341930000E+03  0.00000000000E+00 0.  1.
          5    1    5    5  502    0 -0.83514043089E+01 -0.66901485974E+02  0.45065065083E+03  0.45569030478E+03  0.47000000000E+01 0. -1.
         11    1    4    4    0    0  0.13276188213E+01  0.58983423903E+02  0.37527607601E+02  0.69922301158E+02  0.00000000000E+00 0. -1.
        -12    1    4    4    0    0  0.17129299383E+02 -0.17420505943E+02  0.57957846812E+02  0.62896732282E+02  0.00000000000E+00 0.  1.
         -5    1    3    3    0  504  0.64391448020E+02 -0.44709257612E+01  0.31792207716E+03  0.32444226744E+03  0.47000000000E+01 0.  1.
<mgrwt>
<rscale>  2 0.19512966E+03</rscale>
<asrwt>0</asrwt>
<pdfrwt beam="1">  1       21 0.19702844E+00 0.19540243E+03</pdfrwt>
<pdfrwt beam="2">  1       21 0.50912616E-02 0.19540243E+03</pdfrwt>
<totfact> 0.36536222E+04</totfact>
</mgrwt>
</event>
<event>
12    1  0.1410528E-001  0.1908312E+03  0.7546771E-02  0.1159419E+00
         21   -1    0    0  502  503  0.00000000000E+00  0.00000000000E+00  0.37303467585E+03  0.37303467585E+03  0.00000000000E+00 0. -1.
         21   -1    0    0  503  504 -0.00000000000E+00 -0.00000000000E+00 -0.11757416795E+03  0.11757416795E+03  0.00000000000E+00 0.  1.
         -6    2    1    2    0  504  0.40822881666E+02 -0.45605057880E+02  0.15529685727E+02  0.18404178844E+03  0.17286954556E+03 0.  0.
        -24    2    3    3    0    0  0.65911952614E+01 -0.90885845809E+02  0.29852032305E+02  0.12531038525E+03  0.80671357960E+02 0.  0.
          6    2    1    2  502    0 -0.40822881666E+02  0.45605057880E+02  0.23993082217E+03  0.30656705536E+03  0.18074908308E+03 0.  0.
         24    2    5    5    0    0 -0.62674227246E+02  0.67426639879E+01  0.24016762988E+03  0.26173500165E+03  0.82771966055E+02 0.  0.
          2    1    6    6  501    0 -0.69818285894E+02  0.10947289561E+02  0.24292724530E+03  0.25299818716E+03  0.00000000000E+00 0. -1.
         -1    1    6    6    0  501  0.71440586474E+01 -0.42046255733E+01 -0.27596154200E+01  0.87368144901E+01  0.00000000000E+00 0.  1.
          5    1    5    5  502    0  0.21851345581E+02  0.38862393892E+02 -0.23680771080E+00  0.44832053718E+02  0.47000000000E+01 0. -1.
         13    1    4    4    0    0  0.34280652222E+02 -0.33123986779E+02  0.37700342732E+02  0.60775632116E+02  0.00000000000E+00 0. -1.
        -14    1    4    4    0    0 -0.27689456961E+02 -0.57761859030E+02 -0.78483104272E+01  0.64534753133E+02  0.00000000000E+00 0.  1.
         -5    1    3    3    0  504  0.34231686404E+02  0.45280787929E+02 -0.14322346578E+02  0.58731403193E+02  0.47000000000E+01 0.  1.
<mgrwt>
<rscale>  2 0.18894191E+03</rscale>
<asrwt>0</asrwt>
<pdfrwt beam="1">  1       21 0.57389950E-01 0.19083123E+03</pdfrwt>
<pdfrwt beam="2">  1       21 0.18088334E-01 0.19083123E+03</pdfrwt>
<totfact> 0.79353111E+04</totfact>
</mgrwt>
</event>
<event>
12    1  0.1410528E-001  0.1829774E+03  0.7546771E-02  0.1164967E+00
         21   -1    0    0  502  503  0.00000000000E+00  0.00000000000E+00  0.69805433270E+03  0.69805433270E+03  0.00000000000E+00 0. -1.
         21   -1    0    0  503  504 -0.00000000000E+00 -0.00000000000E+00 -0.51759035930E+02  0.51759035930E+02  0.00000000000E+00 0. -1.
         -6    2    1    2    0  504  0.99070007718E+01  0.49926106607E+02  0.22144849557E+03  0.28726321710E+03  0.17575538377E+03 0.  0.
        -24    2    3    3    0    0  0.13424104452E+02  0.90974373441E+02  0.97837498793E+02  0.15688262517E+03  0.81138392311E+02 0.  0.
          6    2    1    2  502    0 -0.99070007718E+01 -0.49926106607E+02  0.42484680120E+03  0.46255015153E+03  0.17569027692E+03 0.  0.
         24    2    5    5    0    0 -0.74088243504E+02 -0.36085514883E+02  0.29489589366E+03  0.31687886998E+03  0.81592879172E+02 0.  0.
          4    1    6    6  501    0 -0.75682898129E+02 -0.54759154997E+02  0.27009329611E+03  0.28579162816E+03  0.00000000000E+00 0. -1.
         -3    1    6    6    0  501  0.15946546255E+01  0.18673640114E+02  0.24802597558E+02  0.31087241822E+02  0.00000000000E+00 0.  1.
          5    1    5    5  502    0  0.64181242732E+02 -0.13840591724E+02  0.12995090754E+03  0.14567128155E+03  0.47000000000E+01 0. -1.
         11    1    4    4    0    0 -0.95294918958E+01  0.84009228566E+02  0.38540894746E+02  0.92918040594E+02  0.00000000000E+00 0. -1.
        -12    1    4    4    0    0  0.22953596348E+02  0.69651448753E+01  0.59296604047E+02  0.63964584576E+02  0.00000000000E+00 0.  1.
         -5    1    3    3    0  504 -0.35171036801E+01 -0.41048266834E+02  0.12361099677E+03  0.13038059193E+03  0.47000000000E+01 0.  1.
<mgrwt>
<rscale>  2 0.18296174E+03</rscale>
<asrwt>0</asrwt>
<pdfrwt beam="1">  1       21 0.10739297E+00 0.18297737E+03</pdfrwt>
<pdfrwt beam="2">  1       21 0.79629291E-02 0.18297737E+03</pdfrwt>
<totfact> 0.84078827E+04</totfact>
</mgrwt>
</event>
<event>
12    1  0.1410528E-001  0.1949720E+03  0.7546771E-02  0.1156692E+00
         21   -1    0    0  502  503  0.00000000000E+00  0.00000000000E+00  0.15985047086E+03  0.15985047086E+03  0.00000000000E+00 0.  1.
         21   -1    0    0  503  504 -0.00000000000E+00 -0.00000000000E+00 -0.22896946557E+03  0.22896946557E+03  0.00000000000E+00 0.  1.
         -6    2    1    2    0  504  0.89254835588E+01  0.71899045681E+02 -0.41347550762E+01  0.18330342553E+03  0.16832680293E+03 0.  0.
        -24    2    3    3    0    0 -0.26159640015E+02  0.10485676908E+03 -0.70000764605E+01  0.13485265160E+03  0.80355259852E+02 0.  0.
          6    2    1    2  502    0 -0.89254835588E+01 -0.71899045681E+02 -0.64984239628E+02  0.20551651090E+03  0.18101090527E+03 0.  0.
         24    2    5    5    0    0 -0.19045180641E+02  0.14609082931E+02  0.13656895948E+02  0.88074683644E+02  0.83633096812E+02 0.  0.
          2    1    6    6  501    0 -0.32595054484E+02  0.29664434888E+02 -0.20309720930E+02  0.48527322596E+02  0.00000000000E+00 0. -1.
         -1    1    6    6    0  501  0.13549873843E+02 -0.15055351957E+02  0.33966616878E+02  0.39547361048E+02  0.00000000000E+00 0.  1.
          5    1    5    5  502    0  0.10119697082E+02 -0.86508128612E+02 -0.78641135576E+02  0.11744182726E+03  0.47000000000E+01 0. -1.
         11    1    4    4    0    0 -0.46064732925E+01 -0.41845224758E+01 -0.21845502917E+02  0.22714660953E+02  0.00000000000E+00 0. -1.
        -12    1    4    4    0    0 -0.21553166723E+02  0.10904129156E+03  0.14845426456E+02  0.11213799065E+03  0.00000000000E+00 0.  1.
         -5    1    3    3    0  504  0.35085123574E+02 -0.32957723399E+02  0.28653213843E+01  0.48450773930E+02  0.47000000000E+01 0.  1.
<mgrwt>
<rscale>  2 0.19197480E+03</rscale>
<asrwt>0</asrwt>
<pdfrwt beam="1">  1       21 0.24592380E-01 0.19497201E+03</pdfrwt>
<pdfrwt beam="2">  1       21 0.35226072E-01 0.19497201E+03</pdfrwt>
<totfact> 0.12132990E+05</totfact>
</mgrwt>
</event>
<event>
12    1  0.1410528E-001  0.2339477E+03  0.7546771E-02  0.1123936E+00
         21   -1    0    0  502  503  0.00000000000E+00  0.00000000000E+00  0.34419622444E+03  0.34419622444E+03  0.00000000000E+00 0.  1.
         21   -1    0    0  503  504 -0.00000000000E+00 -0.00000000000E+00 -0.16628526867E+03  0.16628526867E+03  0.00000000000E+00 0.  1.
         -6    2    1    2    0  504  0.16909148886E+02  0.15575980032E+03  0.14292840272E+03  0.27393280325E+03  0.17338863193E+03 0.  0.
        -24    2    3    3    0    0  0.55851864212E+01  0.28407679701E+02  0.11469625426E+03  0.14291395362E+03  0.80193371442E+02 0.  0.
          6    2    1    2  502    0 -0.16909148886E+02 -0.15575980032E+03  0.34982553049E+02  0.23654868986E+03  0.17373678063E+03 0.  0.
         24    2    5    5    0    0 -0.11345510824E+02 -0.38079741695E+02  0.70218894861E+02  0.11349081709E+03  0.79816571111E+02 0.  0.
          4    1    6    6  501    0  0.24317297461E+02  0.11890653716E+02  0.28249184945E+02  0.39124609284E+02  0.00000000000E+00 0. -1.
         -3    1    6    6    0  501 -0.35662808285E+02 -0.49970395411E+02  0.41969709917E+02  0.74366207802E+02  0.00000000000E+00 0.  1.
          5    1    5    5  502    0 -0.55636380624E+01 -0.11768005863E+03 -0.35236341813E+02  0.12305787277E+03  0.47000000000E+01 0. -1.
         13    1    4    4    0    0 -0.15239925191E+01  0.17554420895E+02 -0.81291180393E+01  0.19405226261E+02  0.00000000000E+00 0. -1.
        -14    1    4    4    0    0  0.71091789403E+01  0.10853258806E+02  0.12282537230E+03  0.12350872736E+03  0.00000000000E+00 0.  1.
         -5    1    3    3    0  504  0.11323962465E+02  0.12735212062E+03  0.28232148453E+02  0.13101884963E+03  0.47000000000E+01 0.  1.
<mgrwt>
<rscale>  2 0.23388302E+03</rscale>
<asrwt>0</asrwt>
<pdfrwt beam="1">  1       21 0.52953265E-01 0.23394765E+03</pdfrwt>
<pdfrwt beam="2">  1       21 0.25582349E-01 0.23394765E+03</pdfrwt>
<totfact> 0.48043217E+04</totfact>
</mgrwt>
</event>
<event>
12    1  0.1410528E-001  0.2057594E+03  0.7546771E-02  0.1145005E+00
         21   -1    0    0  502  503  0.00000000000E+00  0.00000000000E+00  0.33229075335E+04  0.33229075335E+04  0.00000000000E+00 0. -1.
         21   -1    0    0  503  504 -0.00000000000E+00 -0.00000000000E+00 -0.21328430107E+02  0.21328430107E+02  0.00000000000E+00 0. -1.
         -6    2    1    2    0  504  0.44300244990E+02 -0.10169636646E+03  0.58866581306E+03  0.62353101021E+03  0.17308615936E+03 0.  0.
        -24    2    3    3    0    0  0.56709019014E+02 -0.25330410065E+02  0.48613312363E+03  0.49499782628E+03  0.69569329572E+02 0.  0.
          6    2    1    2  502    0 -0.44300244990E+02  0.10169636646E+03  0.27129132903E+04  0.27207049534E+04  0.17329818219E+03 0.  0.
         24    2    5    5    0    0  0.23271382300E+02  0.12744415552E+01  0.12167738675E+04  0.12196700603E+04  0.80704583998E+02 0.  0.
          4    1    6    6  501    0  0.44333866207E+02  0.25351161672E+02  0.83376090624E+03  0.83532354322E+03  0.00000000000E+00 0. -1.
         -3    1    6    6    0  501 -0.21062483907E+02 -0.24076720117E+02  0.38301296125E+03  0.38434651704E+03  0.00000000000E+00 0.  1.
          5    1    5    5  502    0 -0.67571627290E+02  0.10042192490E+03  0.14961394228E+04  0.15010348931E+04  0.47000000000E+01 0. -1.
         11    1    4    4    0    0 -0.13021196175E+02 -0.99068294344E+01  0.40524600628E+02  0.43702861180E+02  0.00000000000E+00 0. -1.
        -12    1    4    4    0    0  0.69730215189E+02 -0.15423580631E+02  0.44560852300E+03  0.45129496509E+03  0.00000000000E+00 0.  1.
         -5    1    3    3    0  504 -0.12408774024E+02 -0.76365956395E+02  0.10253268943E+03  0.12853318393E+03  0.47000000000E+01 0.  1.
<mgrwt>
<rscale>  2 0.20571473E+03</rscale>
<asrwt>0</asrwt>
<pdfrwt beam="1">  1       21 0.51121613E+00 0.20575938E+03</pdfrwt>
<pdfrwt beam="2">  1       21 0.32812996E-02 0.20575938E+03</pdfrwt>
<totfact> 0.84230843E+02</totfact>
</mgrwt>
</event>
<event>
12    1  0.1410528E-001  0.4024886E+03  0.7546771E-02  0.1043025E+00
         21   -1    0    0  502  503  0.00000000000E+00  0.00000000000E+00  0.31485812593E+03  0.31485812593E+03  0.00000000000E+00 0. -1.
         21   -1    0    0  503  504 -0.00000000000E+00 -0.00000000000E+00 -0.52230944731E+03  0.52230944731E+03  0.00000000000E+00 0. -1.
         -6    2    1    2    0  504  0.35555711533E+03  0.70130912485E+02 -0.15953947282E+03  0.43183726646E+03  0.17231185150E+03 0.  0.
        -24    2    3    3    0    0  0.26919960492E+03  0.11350271275E+03 -0.10723565064E+03  0.32185311998E+03  0.82089298824E+02 0.  0.
          6    2    1    2  502    0 -0.35555711533E+03 -0.70130912485E+02 -0.47911848558E+02  0.40533030678E+03  0.17509398965E+03 0.  0.
         24    2    5    5    0    0 -0.35094605108E+03 -0.75496216982E+02 -0.76674396815E+02  0.37533993185E+03  0.78347251178E+02 0.  0.
          4    1    6    6  501    0 -0.33121333737E+03 -0.89490977721E+02 -0.74199727162E+02  0.35102209255E+03  0.00000000000E+00 0. -1.
         -3    1    6    6    0  501 -0.19732713714E+02  0.13994760739E+02 -0.24746696527E+01  0.24317839306E+02  0.00000000000E+00 0.  1.
          5    1    5    5  502    0 -0.46110642501E+01  0.53653044974E+01  0.28762548257E+02  0.29990374925E+02  0.47000000000E+01 0. -1.
         11    1    4    4    0    0  0.17637822275E+03  0.35602323774E+02 -0.83525099441E+02  0.19837652370E+03  0.00000000000E+00 0. -1.
        -12    1    4    4    0    0  0.92821382163E+02  0.77900388976E+02 -0.23710551204E+02  0.12347659628E+03  0.00000000000E+00 0.  1.
         -5    1    3    3    0  504  0.86357510417E+02 -0.43371800265E+02 -0.52303822175E+02  0.10998414648E+03  0.47000000000E+01 0.  1.
<mgrwt>
<rscale>  2 0.40218769E+03</rscale>
<asrwt>0</asrwt>
<pdfrwt beam="1">  1       21 0.48439712E-01 0.40248865E+03</pdfrwt>
<pdfrwt beam="2">  1       21 0.80355299E-01 0.40248865E+03</pdfrwt>
<totfact> 0.49542195E+03</totfact>
</mgrwt>
</event>
<event>
12    1  0.1410528E-001  0.1835548E+03  0.7546771E-02  0.1164759E+00
         21   -1    0    0  502  503  0.00000000000E+00  0.00000000000E+00  0.10235241779E+04  0.10235241779E+04  0.00000000000E+00 0. -1.
         21   -1    0    0  503  504 -0.00000000000E+00 -0.00000000000E+00 -0.43857411520E+02  0.43857411520E+02  0.00000000000E+00 0. -1.
         -6    2    1    2    0  504  0.19358402242E+02 -0.55808631972E+02  0.22155202927E+03  0.28771107103E+03  0.17379012510E+03 0.  0.
        -24    2    3    3    0    0  0.71141915511E+02 -0.13256884457E+01  0.11187892821E+03  0.15466896312E+03  0.79640843683E+02 0.  0.
          6    2    1    2  502    0 -0.19358402242E+02  0.55808631972E+02  0.75811473711E+03  0.77967051838E+03  0.17221733792E+03 0.  0.
         24    2    5    5    0    0  0.46871005952E+02  0.23579377895E+02  0.28648376860E+03  0.30229967744E+03  0.80989302063E+02 0.  0.
          4    1    6    6  501    0  0.23536591488E+02  0.21585517438E+02  0.27381908624E+03  0.27567516698E+03  0.00000000000E+00 0. -1.
         -3    1    6    6    0  501  0.23334414464E+02  0.19938604576E+01  0.12664682363E+02  0.26624510461E+02  0.00000000000E+00 0.  1.
          5    1    5    5  502    0 -0.66229408194E+02  0.32229254077E+02  0.47163096850E+03  0.47737084094E+03  0.47000000000E+01 0. -1.
         13    1    4    4    0    0  0.62374324370E+02 -0.51960724100E+01  0.25217912284E+02  0.67479616249E+02  0.00000000000E+00 0. -1.
        -14    1    4    4    0    0  0.87675911404E+01  0.38703839643E+01  0.86661015924E+02  0.87189346868E+02  0.00000000000E+00 0.  1.
         -5    1    3    3    0  504 -0.51783513269E+02 -0.54482943527E+02  0.10967310106E+03  0.13304210792E+03  0.47000000000E+01 0.  1.
<mgrwt>
<rscale>  2 0.18318154E+03</rscale>
<asrwt>0</asrwt>
<pdfrwt beam="1">  1       21 0.15746524E+00 0.18355478E+03</pdfrwt>
<pdfrwt beam="2">  1       21 0.67472948E-02 0.18355478E+03</pdfrwt>
<totfact> 0.42575611E+04</totfact>
</mgrwt>
</event>
<event>
12    1  0.1410528E-001  0.2420642E+03  0.7546771E-02  0.1118839E+00
         21   -1    0    0  502  503  0.00000000000E+00  0.00000000000E+00  0.80092565411E+02  0.80092565411E+02  0.00000000000E+00 0. -1.
         21   -1    0    0  503  504 -0.00000000000E+00 -0.00000000000E+00 -0.10984604417E+04  0.10984604417E+04  0.00000000000E+00 0. -1.
         -6    2    1    2    0  504  0.22370356941E+02 -0.16623793998E+03 -0.85146779178E+03  0.88452797707E+03  0.17104635695E+03 0.  0.
        -24    2    3    3    0    0  0.71833006041E+02 -0.66740359793E+02 -0.42989866805E+03  0.44853607554E+03  0.82203952992E+02 0.  0.
          6    2    1    2  502    0 -0.22370356941E+02  0.16623793998E+03 -0.16690008455E+03  0.29402503008E+03  0.17452677312E+03 0.  0.
         24    2    5    5    0    0 -0.51566710635E+02  0.67102092010E+02 -0.27792196997E+02  0.12066575632E+03  0.81400258818E+02 0.  0.
          2    1    6    6  501    0 -0.55594119257E+02  0.82055471774E+02 -0.14329070824E+02  0.10014553817E+03  0.00000000000E+00 0. -1.
         -1    1    6    6    0  501  0.40274086221E+01 -0.14953379764E+02 -0.13463126173E+02  0.20520218150E+02  0.00000000000E+00 0.  1.
          5    1    5    5  502    0  0.29196353694E+02  0.99135847965E+02 -0.13910788756E+03  0.17335927377E+03  0.47000000000E+01 0. -1.
         13    1    4    4    0    0  0.27447777936E+02 -0.58530748470E+02 -0.35691165278E+03  0.36271911573E+03  0.00000000000E+00 0. -1.
        -14    1    4    4    0    0  0.44385228105E+02 -0.82096113229E+01 -0.72987015270E+02  0.85816959804E+02  0.00000000000E+00 0.  1.
         -5    1    3    3    0  504 -0.49462649100E+02 -0.99497580183E+02 -0.42156912373E+03  0.43599190154E+03  0.47000000000E+01 0.  1.
<mgrwt>
<rscale>  2 0.24143747E+03</rscale>
<asrwt>0</asrwt>
<pdfrwt beam="1">  1       21 0.12321934E-01 0.24206421E+03</pdfrwt>
<pdfrwt beam="2">  1       21 0.16899391E+00 0.24206421E+03</pdfrwt>
<totfact> 0.11722851E+04</totfact>
</mgrwt>
</event>
<event>
12    1  0.1410528E-001  0.1747564E+03  0.7546771E-02  0.1173066E+00
         21   -1    0    0  502  503  0.00000000000E+00  0.00000000000E+00  0.37164732006E+03  0.37164732006E+03  0.00000000000E+00 0.  1.
         21   -1    0    0  503  504 -0.00000000000E+00 -0.00000000000E+00 -0.16431824421E+03  0.16431824421E+03  0.00000000000E+00 0.  1.
         -6    2    1    2    0  504  0.35482041644E+01  0.23166738665E+02 -0.85950207646E+02  0.19474919530E+03  0.17317772184E+03 0.  0.
        -24    2    3    3    0    0 -0.60546713420E+02 -0.11781144120E+02 -0.63545150726E+02  0.11824044059E+03  0.78346127836E+02 0.  0.
          6    2    1    2  502    0 -0.35482041644E+01 -0.23166738665E+02  0.29327928350E+03  0.34121636897E+03  0.17281951507E+03 0.  0.
         24    2    5    5    0    0  0.10153004024E+02  0.53096247815E+02  0.16377705307E+03  0.19023066137E+03  0.80265100707E+02 0.  0.
          4    1    6    6  501    0  0.97097807928E+01  0.19384969528E+02 -0.13252524097E+01  0.21721261027E+02  0.00000000000E+00 0. -1.
         -3    1    6    6    0  501  0.44322323093E+00  0.33711278287E+02  0.16510230548E+03  0.16850940034E+03  0.00000000000E+00 0.  1.
          5    1    5    5  502    0 -0.13701208188E+02 -0.76262986479E+02  0.12950223043E+03  0.15098570760E+03  0.47000000000E+01 0. -1.
         13    1    4    4    0    0  0.12003650465E+01  0.19358244847E+01  0.16254282357E+02  0.16413104144E+02  0.00000000000E+00 0. -1.
        -14    1    4    4    0    0 -0.61747078467E+02 -0.13716968605E+02 -0.79799433083E+02  0.10182733644E+03  0.00000000000E+00 0.  1.
         -5    1    3    3    0  504  0.64094917584E+02  0.34947882785E+02 -0.22405056920E+02  0.76508754707E+02  0.47000000000E+01 0.  1.
<mgrwt>
<rscale>  2 0.17466762E+03</rscale>
<asrwt>0</asrwt>
<pdfrwt beam="1">  1       21 0.57176511E-01 0.17475643E+03</pdfrwt>
<pdfrwt beam="2">  1       21 0.25279730E-01 0.17475643E+03</pdfrwt>
<totfact> 0.42977465E+04</totfact>
</mgrwt>
</event>
<event>
12    1  0.1410528E-001  0.1827443E+03  0.7546771E-02  0.1166193E+00
         21   -1    0    0  502  503  0.00000000000E+00  0.00000000000E+00  0.17299814697E+04  0.17299814697E+04  0.00000000000E+00 0.  1.
         21   -1    0    0  503  504 -0.00000000000E+00 -0.00000000000E+00 -0.37708725439E+02  0.37708725439E+02  0.00000000000E+00 0.  1.
         -6    2    1    2    0  504 -0.37415834169E+02  0.44293539012E+02  0.21627010199E+03  0.28041776227E+03  0.16881795561E+03 0.  0.
        -24    2    3    3    0    0  0.44243163944E+02  0.25463964893E+02  0.13028541434E+03  0.16025869542E+03  0.78119710737E+02 0.  0.
          6    2    1    2  502    0  0.37415834169E+02 -0.44293539012E+02  0.14760026422E+04  0.14872724328E+04  0.17330212734E+03 0.  0.
         24    2    5    5    0    0  0.27798930308E+02 -0.60455665236E+02  0.14548293733E+04  0.14585653522E+04  0.80353675007E+02 0.  0.
          4    1    6    6  501    0  0.14230469447E+02 -0.51199478542E+02  0.38938316345E+03  0.39299254553E+03  0.00000000000E+00 0. -1.
         -3    1    6    6    0  501  0.13568460861E+02 -0.92561866946E+01  0.10654462099E+04  0.10655728066E+04  0.00000000000E+00 0.  1.
          5    1    5    5  502    0  0.96169038615E+01  0.16162126225E+02  0.21173268925E+02  0.28707080677E+02  0.47000000000E+01 0. -1.
         11    1    4    4    0    0  0.28421155182E+02  0.15846848942E+02  0.13681041482E+03  0.14062707522E+03  0.00000000000E+00 0. -1.
        -12    1    4    4    0    0  0.15822008762E+02  0.96171159508E+01 -0.65250004780E+01  0.19631620201E+02  0.00000000000E+00 0.  1.
         -5    1    3    3    0  504 -0.81658998113E+02  0.18829574119E+02  0.85984687648E+02  0.12015906684E+03  0.47000000000E+01 0.  1.
<mgrwt>
<rscale>  2 0.18167325E+03</rscale>
<asrwt>0</asrwt>
<pdfrwt beam="1">  1       21 0.26615093E+00 0.18274433E+03</pdfrwt>
<pdfrwt beam="2">  1       21 0.58013437E-02 0.18274433E+03</pdfrwt>
<totfact> 0.11289054E+04</totfact>
</mgrwt>
</event>
<event>
12    1  0.1410528E-001  0.1915553E+03  0.7546771E-02  0.1157741E+00
         21   -1    0    0  502  503  0.00000000000E+00  0.00000000000E+00  0.40783863028E+02  0.40783863028E+02  0.00000000000E+00 0.  1.
         21   -1    0    0  503  504 -0.00000000000E+00 -0.00000000000E+00 -0.12127746147E+04  0.12127746147E+04  0.00000000000E+00 0.  1.
         -6    2    1    2    0  504  0.64247145122E+02 -0.36323631916E+02 -0.91488375872E+03  0.93472226669E+03  0.17676629203E+03 0.  0.
        -24    2    3    3    0    0  0.75481374697E+00 -0.40345959460E+01 -0.17477542739E+03  0.19117920131E+03  0.77370467778E+02 0.  0.
          6    2    1    2  502    0 -0.64247145122E+02  0.36323631916E+02 -0.25710699296E+03  0.31883621105E+03  0.17350914025E+03 0.  0.
         24    2    5    5    0    0  0.17348367538E+02 -0.22063446850E+02 -0.12931827599E+03  0.15629721622E+03  0.83173564006E+02 0.  0.
          2    1    6    6  501    0  0.20134144205E+02 -0.49799916677E+02 -0.10989838838E+03  0.12232363318E+03  0.00000000000E+00 0. -1.
         -1    1    6    6    0  501 -0.27857766664E+01  0.27736469827E+02 -0.19419887602E+02  0.33973583040E+02  0.00000000000E+00 0.  1.
          5    1    5    5  502    0 -0.81595512660E+02  0.58387078766E+02 -0.12778871698E+03  0.16253899483E+03  0.47000000000E+01 0. -1.
         11    1    4    4    0    0 -0.36521683453E+02 -0.12814792750E+02 -0.98446646927E+02  0.10578182531E+03  0.00000000000E+00 0. -1.
        -12    1    4    4    0    0  0.37276497200E+02  0.87801968038E+01 -0.76328780465E+02  0.85397375994E+02  0.00000000000E+00 0.  1.
         -5    1    3    3    0  504  0.63492331375E+02 -0.32289035970E+02 -0.74010833132E+03  0.74354306538E+03  0.47000000000E+01 0.  1.
<mgrwt>
<rscale>  2 0.19080045E+03</rscale>
<asrwt>0</asrwt>
<pdfrwt beam="1">  1       21 0.62744410E-02 0.19155528E+03</pdfrwt>
<pdfrwt beam="2">  1       21 0.18658069E+00 0.19155528E+03</pdfrwt>
<totfact> 0.30032137E+04</totfact>
</mgrwt>
</event>
<event>
12    1  0.1410528E-001  0.3819327E+03  0.7546771E-02  0.1050260E+00
         21   -1    0    0  502  503  0.00000000000E+00  0.00000000000E+00  0.68954227076E+03  0.68954227076E+03  0.00000000000E+00 0. -1.
         21   -1    0    0  503  504 -0.00000000000E+00 -0.00000000000E+00 -0.39843930555E+03  0.39843930555E+03  0.00000000000E+00 0.  1.
         -6    2    1    2    0  504  0.20936579414E+03  0.26846199854E+03 -0.22720398727E+03  0.44440321246E+03  0.17310887613E+03 0.  0.
        -24    2    3    3    0    0  0.11362232678E+03  0.82023535341E+02 -0.45937317786E+02  0.16726460532E+03  0.78926025710E+02 0.  0.
          6    2    1    2  502    0 -0.20936579414E+03 -0.26846199854E+03  0.51830695248E+03  0.64357836386E+03  0.17217762056E+03 0.  0.
         24    2    5    5    0    0 -0.52079317788E+02 -0.65536354708E+02  0.22663363706E+03  0.25497411080E+03  0.81496764359E+02 0.  0.
          2    1    6    6  501    0  0.13101237498E+02 -0.46397446504E+01  0.30165252087E+01  0.14222133410E+02  0.00000000000E+00 0. -1.
         -1    1    6    6    0  501 -0.65180555286E+02 -0.60896610057E+02  0.22361711185E+03  0.24075197739E+03  0.00000000000E+00 0.  1.
          5    1    5    5  502    0 -0.15728647635E+03 -0.20292564383E+03  0.29167331541E+03  0.38860425305E+03  0.47000000000E+01 0. -1.
         11    1    4    4    0    0 -0.96202872143E+01  0.20231183306E+02 -0.16621023195E+01  0.22463599181E+02  0.00000000000E+00 0. -1.
        -12    1    4    4    0    0  0.12324261399E+03  0.61792352035E+02 -0.44275215467E+02  0.14480100613E+03  0.00000000000E+00 0.  1.
         -5    1    3    3    0  504  0.95743467367E+02  0.18643846320E+03 -0.18126666948E+03  0.27713860714E+03  0.47000000000E+01 0.  1.
<mgrwt>
<rscale>  2 0.38182733E+03</rscale>
<asrwt>0</asrwt>
<pdfrwt beam="1">  1       21 0.10608343E+00 0.38193267E+03</pdfrwt>
<pdfrwt beam="2">  1       21 0.61298355E-01 0.38193267E+03</pdfrwt>
<totfact> 0.15566327E+03</totfact>
</mgrwt>
</event>
<event>
12    1  0.1410528E-001  0.1936927E+03  0.7546771E-02  0.1159136E+00
         21   -1    0    0  502  503  0.00000000000E+00  0.00000000000E+00  0.18763838113E+03  0.18763838113E+03  0.00000000000E+00 0.  1.
         21   -1    0    0  503  504 -0.00000000000E+00 -0.00000000000E+00 -0.19807102870E+03  0.19807102870E+03  0.00000000000E+00 0.  1.
         -6    2    1    2    0  504 -0.31126701170E+02  0.13813453878E+02  0.48805512360E+02  0.18316062904E+03  0.17322284768E+03 0.  0.
        -24    2    3    3    0    0 -0.40819212808E+01  0.68623070864E+02  0.59620771575E+02  0.12091455233E+03  0.79623518050E+02 0.  0.
          6    2    1    2  502    0  0.31126701170E+02 -0.13813453878E+02 -0.59238159925E+02  0.20254878079E+03  0.19067555159E+03 0.  0.
         24    2    5    5    0    0 -0.26742048717E+02 -0.55142324232E+02 -0.79061084480E+02  0.12857644761E+03  0.80780162844E+02 0.  0.
          4    1    6    6  501    0  0.13344941303E+02 -0.58658244429E+02 -0.56043230356E+02  0.82217521044E+02  0.00000000000E+00 0. -1.
         -3    1    6    6    0  501 -0.40086990020E+02  0.35159201967E+01 -0.23017854124E+02  0.46358926564E+02  0.00000000000E+00 0.  1.
          5    1    5    5  502    0  0.57868749887E+02  0.41328870354E+02  0.19822924555E+02  0.73972333180E+02  0.47000000000E+01 0. -1.
         13    1    4    4    0    0 -0.38733013139E+02  0.46311245732E+02  0.19620926896E+02  0.63481954603E+02  0.00000000000E+00 0. -1.
        -14    1    4    4    0    0  0.34651091858E+02  0.22311825132E+02  0.39999844679E+02  0.57432597730E+02  0.00000000000E+00 0.  1.
         -5    1    3    3    0  504 -0.27044779889E+02 -0.54809616986E+02 -0.10815259215E+02  0.62246076706E+02  0.47000000000E+01 0.  1.
<mgrwt>
<rscale>  2 0.18925385E+03</rscale>
<asrwt>0</asrwt>
<pdfrwt beam="1">  1       21 0.28867443E-01 0.19369267E+03</pdfrwt>
<pdfrwt beam="2">  1       21 0.30472466E-01 0.19369267E+03</pdfrwt>
<totfact> 0.11866646E+05</totfact>
</mgrwt>
</event>
<event>
12    1  0.1410528E-001  0.4082428E+03  0.7546771E-02  0.1041236E+00
         21   -1    0    0  502  503  0.00000000000E+00  0.00000000000E+00  0.13394435199E+04  0.13394435199E+04  0.00000000000E+00 0. -1.
         21   -1    0    0  503  504 -0.00000000000E+00 -0.00000000000E+00 -0.13335289830E+03  0.13335289830E+03  0.00000000000E+00 0.  1.
         -6    2    1    2    0  504 -0.17194450828E+03 -0.32420924120E+03  0.40451453446E+03  0.57471228347E+03  0.17884533590E+03 0.  0.
        -24    2    3    3    0    0 -0.19654220618E+03 -0.30337383069E+03  0.39355512583E+03  0.54034136973E+03  0.80116407918E+02 0.  0.
          6    2    1    2  502    0  0.17194450828E+03  0.32420924120E+03  0.80157608710E+03  0.89808413469E+03  0.17133109341E+03 0.  0.
         24    2    5    5    0    0  0.16042506088E+03  0.32820054725E+03  0.67934683654E+03  0.77515851538E+03  0.76855710703E+02 0.  0.
          4    1    6    6  501    0  0.54304801367E+02  0.43938056845E+02  0.13092278634E+03  0.14839252095E+03  0.00000000000E+00 0. -1.
         -3    1    6    6    0  501  0.10612025952E+03  0.28426249040E+03  0.54842405021E+03  0.62676599443E+03  0.00000000000E+00 0.  1.
          5    1    5    5  502    0  0.11519447393E+02 -0.39913060497E+01  0.12222925055E+03  0.12292561931E+03  0.47000000000E+01 0. -1.
         11    1    4    4    0    0 -0.16643821388E+03 -0.22864790251E+03  0.25886242385E+03  0.38339444028E+03  0.00000000000E+00 0. -1.
        -12    1    4    4    0    0 -0.30103992302E+02 -0.74725928180E+02  0.13469270199E+03  0.15694692945E+03  0.00000000000E+00 0.  1.
         -5    1    3    3    0  504  0.24597697906E+02 -0.20835410510E+02  0.10959408629E+02  0.34370913734E+02  0.47000000000E+01 0.  1.
<mgrwt>
<rscale>  2 0.40743152E+03</rscale>
<asrwt>0</asrwt>
<pdfrwt beam="1">  1       21 0.20606822E+00 0.40824282E+03</pdfrwt>
<pdfrwt beam="2">  1       21 0.20515831E-01 0.40824282E+03</pdfrwt>
<totfact> 0.23305614E+03</totfact>
</mgrwt>
</event>
<event>
12    1  0.1410528E-001  0.2507641E+03  0.7546771E-02  0.1112916E+00
         21   -1    0    0  502  503  0.00000000000E+00  0.00000000000E+00  0.48578619863E+02  0.48578619863E+02  0.00000000000E+00 0.  1.
         21   -1    0    0  503  504 -0.00000000000E+00 -0.00000000000E+00 -0.12929495451E+04  0.12929495451E+04  0.00000000000E+00 0. -1.
         -6    2    1    2    0  504  0.52150169766E+02 -0.17403612039E+03 -0.64600687109E+03  0.69297007813E+03  0.17284224102E+03 0.  0.
        -24    2    3    3    0    0  0.99930429946E+02 -0.14868004133E+03 -0.52098598910E+03  0.55666822582E+03  0.79757553150E+02 0.  0.
          6    2    1    2  502    0 -0.52150169766E+02  0.17403612039E+03 -0.59836405417E+03  0.64855808686E+03  0.17198790452E+03 0.  0.
         24    2    5    5    0    0  0.29063703940E+02  0.56011153363E+02 -0.18895555883E+03  0.21478050310E+03  0.80277724853E+02 0.  0.
          4    1    6    6  501    0  0.48959303519E+02  0.48493832953E+02 -0.17796379011E+03  0.19083965999E+03  0.00000000000E+00 0. -1.
         -3    1    6    6    0  501 -0.19895599578E+02  0.75173204099E+01 -0.10991768721E+02  0.23940843100E+02  0.00000000000E+00 0.  1.
          5    1    5    5  502    0 -0.81213873706E+02  0.11802496702E+03 -0.40940849533E+03  0.43377758376E+03  0.47000000000E+01 0. -1.
         13    1    4    4    0    0  0.69600705907E+02 -0.45128724752E+02 -0.29164074731E+03  0.30320815548E+03  0.00000000000E+00 0. -1.
        -14    1    4    4    0    0  0.30329724039E+02 -0.10355131657E+03 -0.22934524179E+03  0.25346007034E+03  0.00000000000E+00 0.  1.
         -5    1    3    3    0  504 -0.47780260180E+02 -0.25356079059E+02 -0.12502088199E+03  0.13630185231E+03  0.47000000000E+01 0.  1.
<mgrwt>
<rscale>  2 0.25061698E+03</rscale>
<asrwt>0</asrwt>
<pdfrwt beam="1">  1       21 0.74736347E-02 0.25076414E+03</pdfrwt>
<pdfrwt beam="2">  1       21 0.19891529E+00 0.25076414E+03</pdfrwt>
<totfact> 0.17698611E+04</totfact>
</mgrwt>
</event>
<event>
12    1  0.1410528E-001  0.1988434E+03  0.7546771E-02  0.1150812E+00
         21   -1    0    0  502  503  0.00000000000E+00  0.00000000000E+00  0.11385066561E+04  0.11385066561E+04  0.00000000000E+00 0.  1.
         21   -1    0    0  503  504 -0.00000000000E+00 -0.00000000000E+00 -0.56374579468E+02  0.56374579468E+02  0.00000000000E+00 0.  1.
         -6    2    1    2    0  504 -0.40492861783E+02 -0.90178845501E+02  0.16983436220E+03  0.26116509475E+03  0.17202209190E+03 0.  0.
        -24    2    3    3    0    0 -0.80202077321E+02 -0.53639602707E+02  0.72817325176E+02  0.15005103833E+03  0.88900905915E+02 0.  0.
          6    2    1    2  502    0  0.40492861783E+02  0.90178845501E+02  0.91229771448E+03  0.93371614086E+03  0.17253062286E+03 0.  0.
         24    2    5    5    0    0  0.83935104667E+02  0.10146300733E+03  0.65997540728E+03  0.67738979129E+03  0.77133309738E+02 0.  0.
          4    1    6    6  501    0  0.10424052535E+02  0.62354992449E+02  0.38252483280E+03  0.38771388118E+03  0.00000000000E+00 0. -1.
         -3    1    6    6    0  501  0.73511052132E+02  0.39108014885E+02  0.27745057449E+03  0.28967591011E+03  0.00000000000E+00 0.  1.
          5    1    5    5  502    0 -0.43442242885E+02 -0.11284161833E+02  0.25232230719E+03  0.25632634957E+03  0.47000000000E+01 0. -1.
         11    1    4    4    0    0  0.18397320324E+02 -0.36566572969E+01  0.22236820798E+01  0.18888549433E+02  0.00000000000E+00 0. -1.
        -12    1    4    4    0    0 -0.98599397645E+02 -0.49982945410E+02  0.70593643097E+02  0.13116248890E+03  0.00000000000E+00 0.  1.
         -5    1    3    3    0  504  0.39709215539E+02 -0.36539242795E+02  0.97017037022E+02  0.11111405643E+03  0.47000000000E+01 0.  1.
<mgrwt>
<rscale>  2 0.19873307E+03</rscale>
<asrwt>0</asrwt>
<pdfrwt beam="1">  1       21 0.17515485E+00 0.19884344E+03</pdfrwt>
<pdfrwt beam="2">  1       21 0.86730130E-02 0.19884344E+03</pdfrwt>
<totfact> 0.20383633E+04</totfact>
</mgrwt>
</event>
<event>
12    1  0.1410528E-001  0.2541665E+03  0.7546771E-02  0.1111193E+00
         21   -1    0    0  502  503  0.00000000000E+00  0.00000000000E+00  0.82208019895E+02  0.82208019895E+02  0.00000000000E+00 0. -1.
         21   -1    0    0  503  504 -0.00000000000E+00 -0.00000000000E+00 -0.80262259301E+03  0.80262259301E+03  0.00000000000E+00 0. -1.
         -6    2    1    2    0  504 -0.17131607153E+03  0.62776616111E+02 -0.43852330671E+03  0.50527391859E+03  0.17236282192E+03 0.  0.
        -24    2    3    3    0    0 -0.65738195955E+02 -0.13356232538E+02 -0.27804048069E+03  0.29858641074E+03  0.85717188581E+02 0.  0.
          6    2    1    2  502    0  0.17131607153E+03 -0.62776616111E+02 -0.28189126640E+03  0.37955669432E+03  0.17694772740E+03 0.  0.
         24    2    5    5    0    0  0.43640334558E+02 -0.81303293528E+02 -0.15805319965E+03  0.20066486006E+03  0.82285283033E+02 0.  0.
          2    1    6    6  501    0  0.42636990439E+02 -0.73648127723E+02 -0.16785070597E+03  0.18819091149E+03  0.00000000000E+00 0. -1.
         -1    1    6    6    0  501  0.10033441184E+01 -0.76551658044E+01  0.97975063199E+01  0.12473948573E+02  0.00000000000E+00 0.  1.
          5    1    5    5  502    0  0.12767573697E+03  0.18526677417E+02 -0.12383806675E+03  0.17889183426E+03  0.47000000000E+01 0. -1.
         13    1    4    4    0    0 -0.70032239886E+02  0.12066265611E+02 -0.25244369546E+03  0.26225546470E+03  0.00000000000E+00 0. -1.
        -14    1    4    4    0    0  0.42940439313E+01 -0.25422498150E+02 -0.25596785232E+02  0.36330946033E+02  0.00000000000E+00 0.  1.
         -5    1    3    3    0  504 -0.10557787558E+03  0.76132848649E+02 -0.16048282602E+03  0.20668750785E+03  0.47000000000E+01 0.  1.
<mgrwt>
<rscale>  2 0.25337015E+03</rscale>
<asrwt>0</asrwt>
<pdfrwt beam="1">  1       21 0.12647387E-01 0.25416648E+03</pdfrwt>
<pdfrwt beam="2">  1       21 0.12348040E+00 0.25416648E+03</pdfrwt>
<totfact> 0.25389888E+04</totfact>
</mgrwt>
</event>
<event>
12    1  0.1410528E-001  0.2737124E+03  0.7546771E-02  0.1099214E+00
         21   -1    0    0  502  503  0.00000000000E+00  0.00000000000E+00  0.15812620778E+03  0.15812620778E+03  0.00000000000E+00 0.  1.
         21   -1    0    0  503  504 -0.00000000000E+00 -0.00000000000E+00 -0.10385943623E+04  0.10385943623E+04  0.00000000000E+00 0. -1.
         -6    2    1    2    0  504  0.84701725633E+02  0.19428699363E+03 -0.88157753849E+03  0.92300595741E+03  0.17274033354E+03 0.  0.
        -24    2    3    3    0    0  0.11597091943E+03  0.19157634320E+03 -0.81515064412E+03  0.84938712556E+03  0.82687163731E+02 0.  0.
          6    2    1    2  502    0 -0.84701725633E+02 -0.19428699363E+03  0.11093839628E+01  0.27371461267E+03  0.17319538168E+03 0.  0.
         24    2    5    5    0    0 -0.28836261349E+02 -0.15018030994E+03 -0.56604855362E+02  0.18195747089E+03  0.80738814084E+02 0.  0.
          4    1    6    6  501    0  0.25346533282E+02 -0.42597127167E+02 -0.32039208689E+02  0.59020952938E+02  0.00000000000E+00 0. -1.
         -3    1    6    6    0  501 -0.54182794631E+02 -0.10758318278E+03 -0.24565646673E+02  0.12293651795E+03  0.00000000000E+00 0.  1.
          5    1    5    5  502    0 -0.55865464284E+02 -0.44106683692E+02  0.57714239324E+02  0.91757141775E+02  0.47000000000E+01 0. -1.
         11    1    4    4    0    0  0.47483977437E+02  0.79979400457E+02 -0.49204184821E+03  0.50075604140E+03  0.00000000000E+00 0. -1.
        -12    1    4    4    0    0  0.68486941996E+02  0.11159694274E+03 -0.32310879591E+03  0.34863108417E+03  0.00000000000E+00 0.  1.
         -5    1    3    3    0  504 -0.31269193800E+02  0.27106504372E+01 -0.66426894373E+02  0.73618831849E+02  0.47000000000E+01 0.  1.
<mgrwt>
<rscale>  2 0.27364041E+03</rscale>
<asrwt>0</asrwt>
<pdfrwt beam="1">  1       21 0.24327109E-01 0.27371236E+03</pdfrwt>
<pdfrwt beam="2">  1       21 0.15978375E+00 0.27371236E+03</pdfrwt>
<totfact> 0.37898756E+03</totfact>
</mgrwt>
</event>
<event>
12    1  0.1410528E-001  0.3020042E+03  0.7546771E-02  0.1084373E+00
         21   -1    0    0  502  503  0.00000000000E+00  0.00000000000E+00  0.13061958701E+04  0.13061958701E+04  0.00000000000E+00 0. -1.
         21   -1    0    0  503  504 -0.00000000000E+00 -0.00000000000E+00 -0.12361192758E+03  0.12361192758E+03  0.00000000000E+00 0.  1.
         -6    2    1    2    0  504  0.24179725886E+03 -0.37309057625E+02  0.11923563566E+03  0.32469007619E+03  0.17705543932E+03 0.  0.
        -24    2    3    3    0    0  0.39237282512E+02  0.46837537408E+02  0.44691203331E+02  0.92978712928E+02  0.53985351284E+02 0.  0.
          6    2    1    2  502    0 -0.24179725886E+03  0.37309057625E+02  0.10633483068E+04  0.11051177215E+04  0.17526458988E+03 0.  0.
         24    2    5    5    0    0 -0.50804318582E+02  0.82249908974E+01  0.50626811532E+03  0.51546984692E+03  0.82176816880E+02 0.  0.
          4    1    6    6  501    0 -0.12542400165E+02 -0.24481535836E+02  0.35463783202E+03  0.35570303527E+03  0.00000000000E+00 0. -1.
         -3    1    6    6    0  501 -0.38261918417E+02  0.32706526734E+02  0.15163028330E+03  0.15976681165E+03  0.00000000000E+00 0.  1.
          5    1    5    5  502    0 -0.19099294028E+03  0.29084066728E+02  0.55708019152E+03  0.58964787455E+03  0.47000000000E+01 0. -1.
         13    1    4    4    0    0  0.47502093288E+02  0.52412582882E+02  0.43238308641E+02  0.82904035157E+02  0.00000000000E+00 0. -1.
        -14    1    4    4    0    0 -0.82648107764E+01 -0.55750454746E+01  0.14528946901E+01  0.10074677771E+02  0.00000000000E+00 0.  1.
         -5    1    3    3    0  504  0.20255997635E+03 -0.84146595033E+02  0.74544432330E+02  0.23171136326E+03  0.47000000000E+01 0.  1.
<mgrwt>
<rscale>  2 0.30174221E+03</rscale>
<asrwt>0</asrwt>
<pdfrwt beam="1">  1       21 0.20095320E+00 0.30200415E+03</pdfrwt>
<pdfrwt beam="2">  1       21 0.19017221E-01 0.30200415E+03</pdfrwt>
<totfact> 0.30788158E+03</totfact>
</mgrwt>
</event>
<event>
12    1  0.1410528E-001  0.1946228E+03  0.7546771E-02  0.1154668E+00
         21   -1    0    0  502  503  0.00000000000E+00  0.00000000000E+00  0.15788049975E+04  0.15788049975E+04  0.00000000000E+00 0. -1.
         21   -1    0    0  503  504 -0.00000000000E+00 -0.00000000000E+00 -0.25954969093E+02  0.25954969093E+02  0.00000000000E+00 0. -1.
         -6    2    1    2    0  504 -0.72234283803E+02 -0.47209741295E+02  0.54353443285E+03  0.57685140600E+03  0.17286212273E+03 0.  0.
        -24    2    3    3    0    0 -0.10975333942E+03 -0.62532776589E+01  0.35146236399E+03  0.37685420331E+03  0.80052471860E+02 0.  0.
          6    2    1    2  502    0  0.72234283803E+02  0.47209741295E+02  0.10093155955E+04  0.10279085606E+04  0.17444622691E+03 0.  0.
         24    2    5    5    0    0  0.85267816258E+02 -0.23057444747E+02  0.72842788512E+03  0.73803385270E+03  0.79275075935E+02 0.  0.
          2    1    6    6  501    0  0.52992718523E+02 -0.14432279217E+02  0.65574295378E+03  0.65803901126E+03  0.00000000000E+00 0. -1.
         -1    1    6    6    0  501  0.32275097735E+02 -0.86251655296E+01  0.72684931339E+02  0.79994841446E+02  0.00000000000E+00 0.  1.
          5    1    5    5  502    0 -0.13033532454E+02  0.70267186042E+02  0.28088771039E+03  0.28987470785E+03  0.47000000000E+01 0. -1.
         13    1    4    4    0    0 -0.36230695394E+02 -0.30499142405E+02  0.67017527196E+02  0.82062232042E+02  0.00000000000E+00 0. -1.
        -14    1    4    4    0    0 -0.73522644030E+02  0.24245864746E+02  0.28444483680E+03  0.29479197127E+03  0.00000000000E+00 0.  1.
         -5    1    3    3    0  504  0.37519055620E+02 -0.40956463636E+02  0.19207206886E+03  0.19999720269E+03  0.47000000000E+01 0.  1.
<mgrwt>
<rscale>  2 0.19426718E+03</rscale>
<asrwt>0</asrwt>
<pdfrwt beam="1">  1       21 0.24289300E+00 0.19462281E+03</pdfrwt>
<pdfrwt beam="2">  1       21 0.39930734E-02 0.19462281E+03</pdfrwt>
<totfact> 0.28734588E+04</totfact>
</mgrwt>
</event>
<event>
12    1  0.1410528E-001  0.2628540E+03  0.7546771E-02  0.1105441E+00
         21   -1    0    0  502  503  0.00000000000E+00  0.00000000000E+00  0.22520534262E+04  0.22520534262E+04  0.00000000000E+00 0. -1.
         21   -1    0    0  503  504 -0.00000000000E+00 -0.00000000000E+00 -0.30696081191E+02  0.30696081191E+02  0.00000000000E+00 0. -1.
         -6    2    1    2    0  504 -0.12591524654E+03 -0.15264562726E+03  0.11374093551E+04  0.11673861383E+04  0.17301739258E+03 0.  0.
        -24    2    3    3    0    0 -0.24825098525E+02 -0.13435397937E+03  0.63238144126E+03  0.65199397101E+03  0.80762452259E+02 0.  0.
          6    2    1    2  502    0  0.12591524654E+03  0.15264562726E+03  0.10839479900E+04  0.11153633691E+04  0.17302272486E+03 0.  0.
         24    2    5    5    0    0  0.89420333274E+02  0.80760145995E+02  0.93143990338E+03  0.94279394078E+03  0.82230918696E+02 0.  0.
          4    1    6    6  501    0  0.86261600636E+02  0.64601469671E+02  0.90666198514E+03  0.91304456021E+03  0.00000000000E+00 0. -1.
         -3    1    6    6    0  501  0.31587326376E+01  0.16158676324E+02  0.24777918239E+02  0.29749380576E+02  0.00000000000E+00 0.  1.
          5    1    5    5  502    0  0.36494913268E+02  0.71885481267E+02  0.15250808662E+03  0.17256942834E+03  0.47000000000E+01 0. -1.
         11    1    4    4    0    0 -0.45735613692E+02 -0.97982398825E+02  0.53722841701E+03  0.54800243511E+03  0.00000000000E+00 0. -1.
        -12    1    4    4    0    0  0.20910515167E+02 -0.36371580543E+02  0.95153024247E+02  0.10399153590E+03  0.00000000000E+00 0.  1.
         -5    1    3    3    0  504 -0.10109014802E+03 -0.18291647894E+02  0.50502791380E+03  0.51539216731E+03  0.47000000000E+01 0.  1.
<mgrwt>
<rscale>  2 0.26285307E+03</rscale>
<asrwt>0</asrwt>
<pdfrwt beam="1">  1       21 0.34646963E+00 0.26285395E+03</pdfrwt>
<pdfrwt beam="2">  1       21 0.47224758E-02 0.26285395E+03</pdfrwt>
<totfact> 0.50392060E+03</totfact>
</mgrwt>
</event>
<event>
12    1  0.1410528E-001  0.2139833E+03  0.7546771E-02  0.1138822E+00
         21   -1    0    0  502  503  0.00000000000E+00  0.00000000000E+00  0.19853491962E+03  0.19853491962E+03  0.00000000000E+00 0.  1.
         21   -1    0    0  503  504 -0.00000000000E+00 -0.00000000000E+00 -0.29526585800E+03  0.29526585800E+03  0.00000000000E+00 0. -1.
         -6    2    1    2    0  504  0.37343951922E+01 -0.12259368936E+03 -0.16587752222E+03  0.27074748400E+03  0.17534448760E+03 0.  0.
        -24    2    3    3    0    0 -0.48937698610E+02 -0.63696668915E+02 -0.15583990633E+03  0.19095993976E+03  0.75679972322E+02 0.  0.
          6    2    1    2  502    0 -0.37343951922E+01  0.12259368936E+03  0.69146583846E+02  0.22305329363E+03  0.17299816000E+03 0.  0.
         24    2    5    5    0    0  0.11312839567E+02  0.87012813740E+02  0.11317404141E+03  0.16429169900E+03  0.80524459742E+02 0.  0.
          4    1    6    6  501    0  0.47320725461E+01  0.10171727027E+03  0.88989846991E+02  0.13523308933E+03  0.00000000000E+00 0. -1.
         -3    1    6    6    0  501  0.65807670206E+01 -0.14704456528E+02  0.24184194419E+02  0.29058609672E+02  0.00000000000E+00 0.  1.
          5    1    5    5  502    0 -0.15047234759E+02  0.35580875622E+02 -0.44027457564E+02  0.58761594630E+02  0.47000000000E+01 0. -1.
         13    1    4    4    0    0 -0.29825069947E+01 -0.41514251322E+02 -0.20654929144E+02  0.46464551098E+02  0.00000000000E+00 0. -1.
        -14    1    4    4    0    0 -0.45955191616E+02 -0.22182417593E+02 -0.13518497719E+03  0.14449538866E+03  0.00000000000E+00 0.  1.
         -5    1    3    3    0  504  0.52672093802E+02 -0.58897020447E+02 -0.10037615891E+02  0.79787544240E+02  0.47000000000E+01 0.  1.
<mgrwt>
<rscale>  2 0.21350207E+03</rscale>
<asrwt>0</asrwt>
<pdfrwt beam="1">  1       21 0.30543834E-01 0.21398329E+03</pdfrwt>
<pdfrwt beam="2">  1       21 0.45425517E-01 0.21398329E+03</pdfrwt>
<totfact> 0.47329610E+04</totfact>
</mgrwt>
</event>
<event>
12    1  0.1410528E-001  0.1752655E+03  0.7546771E-02  0.1172907E+00
         21   -1    0    0  502  503  0.00000000000E+00  0.00000000000E+00  0.50584946327E+03  0.50584946327E+03  0.00000000000E+00 0. -1.
         21   -1    0    0  503  504 -0.00000000000E+00 -0.00000000000E+00 -0.70607856949E+02  0.70607856949E+02  0.00000000000E+00 0. -1.
         -6    2    1    2    0  504  0.26565294620E+02  0.99019134174E+00  0.10746611204E+03  0.20558926171E+03  0.17323765161E+03 0.  0.
        -24    2    3    3    0    0  0.90743709884E+00 -0.55719133224E+02  0.10445595273E+03  0.14309586842E+03  0.80373728604E+02 0.  0.
          6    2    1    2  502    0 -0.26565294620E+02 -0.99019134174E+00  0.32777549429E+03  0.37086805851E+03  0.17146325208E+03 0.  0.
         24    2    5    5    0    0 -0.36291578703E+02 -0.44107938053E+02  0.30217876690E+03  0.31957455857E+03  0.86909737304E+02 0.  0.
          4    1    6    6  501    0 -0.42779410517E+02 -0.86483237532E+01  0.26193577272E+03  0.26554702125E+03  0.00000000000E+00 0. -1.
         -3    1    6    6    0  501  0.64878318148E+01 -0.35459614299E+02  0.40242994179E+02  0.54027537316E+02  0.00000000000E+00 0.  1.
          5    1    5    5  502    0  0.97262840824E+01  0.43117746711E+02  0.25596727391E+02  0.51293499945E+02  0.47000000000E+01 0. -1.
         13    1    4    4    0    0  0.58718386037E+01 -0.67873203648E+02  0.43700677637E+02  0.80938244903E+02  0.00000000000E+00 0. -1.
        -14    1    4    4    0    0 -0.49644015048E+01  0.12154070423E+02  0.60755275091E+02  0.62157623519E+02  0.00000000000E+00 0.  1.
         -5    1    3    3    0  504  0.25657857521E+02  0.56709324566E+02  0.30101593090E+01  0.62493393286E+02  0.47000000000E+01 0.  1.
<mgrwt>
<rscale>  2 0.17482538E+03</rscale>
<asrwt>0</asrwt>
<pdfrwt beam="1">  1       21 0.77822992E-01 0.17526545E+03</pdfrwt>
<pdfrwt beam="2">  1       21 0.10862748E-01 0.17526545E+03</pdfrwt>
<totfact> 0.10327116E+05</totfact>
</mgrwt>
</event>
<event>
12    1  0.1410528E-001  0.2086954E+03  0.7546771E-02  0.1142771E+00
         21   -1    0    0  502  503  0.00000000000E+00  0.00000000000E+00  0.29483052457E+02  0.29483052457E+02  0.00000000000E+00 0.  1.
         21   -1    0    0  503  504 -0.00000000000E+00 -0.00000000000E+00 -0.19907371894E+04  0.19907371894E+04  0.00000000000E+00 0. -1.
         -6    2    1    2    0  504  0.73950515306E+02 -0.87929159326E+02 -0.46612034287E+03  0.51070729691E+03  0.17422271180E+03 0.  0.
        -24    2    3    3    0    0  0.45410572800E+02  0.90438529608E+01 -0.32010951502E+03  0.33305723280E+03  0.79455064754E+02 0.  0.
          6    2    1    2  502    0 -0.73950515306E+02  0.87929159326E+02 -0.14951337941E+04  0.15095129449E+04  0.17321678038E+03 0.  0.
         24    2    5    5    0    0 -0.84920198285E+02  0.28073404533E+02 -0.58019262975E+03  0.59253831635E+03  0.80489829172E+02 0.  0.
          2    1    6    6  501    0 -0.55335888914E+02 -0.20601217357E+02 -0.21629377404E+03  0.22420853562E+03  0.00000000000E+00 0. -1.
         -1    1    6    6    0  501 -0.29584309370E+02  0.48674621891E+02 -0.36389885572E+03  0.36832978073E+03  0.00000000000E+00 0.  1.
          5    1    5    5  502    0  0.10969682979E+02  0.59855754792E+02 -0.91494116431E+03  0.91697462859E+03  0.47000000000E+01 0. -1.
         13    1    4    4    0    0  0.12857559352E+02 -0.31889926673E+02 -0.18520201348E+03  0.18836684967E+03  0.00000000000E+00 0. -1.
        -14    1    4    4    0    0  0.32553013448E+02  0.40933779634E+02 -0.13490750154E+03  0.14469038313E+03  0.00000000000E+00 0.  1.
         -5    1    3    3    0  504  0.28539942506E+02 -0.96973012287E+02 -0.14601082785E+03  0.17765006412E+03  0.47000000000E+01 0.  1.
<mgrwt>
<rscale>  2 0.20848532E+03</rscale>
<asrwt>0</asrwt>
<pdfrwt beam="1">  1       21 0.45358527E-02 0.20869540E+03</pdfrwt>
<pdfrwt beam="2">  1       21 0.30626736E+00 0.20869540E+03</pdfrwt>
<totfact> 0.97957146E+03</totfact>
</mgrwt>
</event>
<event>
12    1  0.1410528E-001  0.1879792E+03  0.7546771E-02  0.1160820E+00
         21   -1    0    0  502  503  0.00000000000E+00  0.00000000000E+00  0.22809345618E+02  0.22809345618E+02  0.00000000000E+00 0.  1.
         21   -1    0    0  503  504 -0.00000000000E+00 -0.00000000000E+00 -0.16244422966E+04  0.16244422966E+04  0.00000000000E+00 0. -1.
         -6    2    1    2    0  504  0.27727439984E+02  0.66822554019E+02 -0.99426525876E+03  0.10114594605E+04  0.17103441418E+03 0.  0.
        -24    2    3    3    0    0 -0.99477824233E+01  0.10212582092E+03 -0.83678405206E+03  0.84566391322E+03  0.66417337165E+02 0.  0.
          6    2    1    2  502    0 -0.27727439984E+02 -0.66822554019E+02 -0.60736769222E+03  0.63579218170E+03  0.17349962567E+03 0.  0.
         24    2    5    5    0    0 -0.21982000448E+02 -0.50772449494E+02 -0.18272282283E+03  0.21077927480E+03  0.89326495132E+02 0.  0.
          4    1    6    6  501    0 -0.51742511108E+02 -0.47363943980E+02 -0.15425033525E+03  0.16945145786E+03  0.00000000000E+00 0. -1.
         -3    1    6    6    0  501  0.29760510660E+02 -0.34085055144E+01 -0.28472487578E+02  0.41327816946E+02  0.00000000000E+00 0.  1.
          5    1    5    5  502    0 -0.57454395357E+01 -0.16050104525E+02 -0.42464486939E+03  0.42501290690E+03  0.47000000000E+01 0. -1.
         11    1    4    4    0    0  0.75782968374E+01  0.27546445542E+02 -0.47494253256E+03  0.47580105767E+03  0.00000000000E+00 0. -1.
        -12    1    4    4    0    0 -0.17526079261E+02  0.74579375376E+02 -0.36184151950E+03  0.36986285555E+03  0.00000000000E+00 0.  1.
         -5    1    3    3    0  504  0.37675222407E+02 -0.35303266899E+02 -0.15748120671E+03  0.16579554729E+03  0.47000000000E+01 0.  1.
<mgrwt>
<rscale>  2 0.18740839E+03</rscale>
<asrwt>0</asrwt>
<pdfrwt beam="1">  1       21 0.35091286E-02 0.18797921E+03</pdfrwt>
<pdfrwt beam="2">  1       21 0.24991431E+00 0.18797921E+03</pdfrwt>
<totfact> 0.32592396E+04</totfact>
</mgrwt>
</event>
<event>
12    1  0.1410528E-001  0.2242372E+03  0.7546771E-02  0.1130797E+00
         21   -1    0    0  502  503  0.00000000000E+00  0.00000000000E+00  0.29436831858E+03  0.29436831858E+03  0.00000000000E+00 0. -1.
         21   -1    0    0  503  504 -0.00000000000E+00 -0.00000000000E+00 -0.20725475874E+03  0.20725475874E+03  0.00000000000E+00 0.  1.
         -6    2    1    2    0  504  0.14118872182E+03 -0.19102967371E+02 -0.61834439075E+02  0.23242459611E+03  0.17291187492E+03 0.  0.
        -24    2    3    3    0    0  0.10727915690E+03 -0.27395173167E+02  0.26612917631E+02  0.13722142295E+03  0.76564734142E+02 0.  0.
          6    2    1    2  502    0 -0.14118872182E+03  0.19102967371E+02  0.14894799891E+03  0.26919848122E+03  0.17315639572E+03 0.  0.
         24    2    5    5    0    0 -0.14111924191E+03  0.16217466514E+02  0.51529036155E+02  0.17162350878E+03  0.81374077808E+02 0.  0.
          4    1    6    6  501    0 -0.11726017968E+03  0.68461842269E+01  0.72905639836E+02  0.13824634641E+03  0.00000000000E+00 0. -1.
         -3    1    6    6    0  501 -0.23859062237E+02  0.93712822872E+01 -0.21376603681E+02  0.33377162365E+02  0.00000000000E+00 0.  1.
          5    1    5    5  502    0 -0.69479907209E-01  0.28855008570E+01  0.97418962754E+02  0.97574972440E+02  0.47000000000E+01 0. -1.
         11    1    4    4    0    0  0.19411364311E+02  0.21188505395E+02  0.22905841903E+02  0.36748216536E+02  0.00000000000E+00 0. -1.
        -12    1    4    4    0    0  0.87867792589E+02 -0.48583678562E+02  0.37070757284E+01  0.10047320642E+03  0.00000000000E+00 0.  1.
         -5    1    3    3    0  504  0.33909564922E+02  0.82922057956E+01 -0.88447356706E+02  0.95203173153E+02  0.47000000000E+01 0.  1.
<mgrwt>
<rscale>  2 0.22418998E+03</rscale>
<asrwt>0</asrwt>
<pdfrwt beam="1">  1       21 0.45287434E-01 0.22423719E+03</pdfrwt>
<pdfrwt beam="2">  1       21 0.31885347E-01 0.22423719E+03</pdfrwt>
<totfact> 0.43565783E+04</totfact>
</mgrwt>
</event>
<event>
12    1  0.1410528E-001  0.2129168E+03  0.7546771E-02  0.1139286E+00
         21   -1    0    0  502  503  0.00000000000E+00  0.00000000000E+00  0.12758037069E+04  0.12758037069E+04  0.00000000000E+00 0. -1.
         21   -1    0    0  503  504 -0.00000000000E+00 -0.00000000000E+00 -0.35736320173E+02  0.35736320173E+02  0.00000000000E+00 0. -1.
         -6    2    1    2    0  504  0.65682070716E+02  0.10654839171E+03  0.56964443531E+03  0.60811946078E+03  0.17218537019E+03 0.  0.
        -24    2    3    3    0    0  0.43808414868E+02  0.13517862217E+01  0.36779272173E+03  0.37940350833E+03  0.82185956469E+02 0.  0.
          6    2    1    2  502    0 -0.65682070716E+02 -0.10654839171E+03  0.67042295143E+03  0.70342056631E+03  0.17224071852E+03 0.  0.
         24    2    5    5    0    0 -0.97029604705E+01 -0.88657333299E+02  0.59861999262E+03  0.61051466957E+03  0.80174784122E+02 0.  0.
          2    1    6    6  501    0 -0.10586464753E+01 -0.59145946044E+02  0.15618576492E+03  0.16701304389E+03  0.00000000000E+00 0. -1.
         -1    1    6    6    0  501 -0.86443139952E+01 -0.29511387255E+02  0.44243422770E+03  0.44350162568E+03  0.00000000000E+00 0.  1.
          5    1    5    5  502    0 -0.55979110245E+02 -0.17891058407E+02  0.71802958811E+02  0.92905896738E+02  0.47000000000E+01 0. -1.
         11    1    4    4    0    0  0.47922722126E+02  0.31740401215E+02  0.29269760632E+03  0.29828833217E+03  0.00000000000E+00 0. -1.
        -12    1    4    4    0    0 -0.41143072579E+01 -0.30388614994E+02  0.75095115410E+02  0.81115176163E+02  0.00000000000E+00 0.  1.
         -5    1    3    3    0  504  0.21873655848E+02  0.10519660548E+03  0.20185171358E+03  0.22871595244E+03  0.47000000000E+01 0.  1.
<mgrwt>
<rscale>  2 0.21290560E+03</rscale>
<asrwt>0</asrwt>
<pdfrwt beam="1">  1       21 0.19627746E+00 0.21291679E+03</pdfrwt>
<pdfrwt beam="2">  1       21 0.54978964E-02 0.21291679E+03</pdfrwt>
<totfact> 0.32036272E+04</totfact>
</mgrwt>
</event>
<event>
12    1  0.1410528E-001  0.1748169E+03  0.7546771E-02  0.1172922E+00
         21   -1    0    0  502  503  0.00000000000E+00  0.00000000000E+00  0.80516839996E+02  0.80516839996E+02  0.00000000000E+00 0.  1.
         21   -1    0    0  503  504 -0.00000000000E+00 -0.00000000000E+00 -0.43239256051E+03  0.43239256051E+03  0.00000000000E+00 0.  1.
         -6    2    1    2    0  504  0.14156313382E+02  0.19214080229E+02 -0.26564421340E+03  0.31800598885E+03  0.17318019153E+03 0.  0.
        -24    2    3    3    0    0 -0.10254369338E+02 -0.53119099524E+02 -0.17085196463E+03  0.19620438479E+03  0.79868491700E+02 0.  0.
          6    2    1    2  502    0 -0.14156313382E+02 -0.19214080229E+02 -0.86231507114E+02  0.19490341166E+03  0.17315277928E+03 0.  0.
         24    2    5    5    0    0 -0.10485649729E+01 -0.16258631599E+02  0.27540490368E+02  0.80244329354E+02  0.73588254455E+02 0.  0.
          2    1    6    6  501    0 -0.35180488972E+02 -0.12697628233E+01  0.24403132548E+02  0.42834471867E+02  0.00000000000E+00 0. -1.
         -1    1    6    6    0  501  0.34131923999E+02 -0.14988868776E+02  0.31373578204E+01  0.37409857487E+02  0.00000000000E+00 0.  1.
          5    1    5    5  502    0 -0.13107748409E+02 -0.29554486301E+01 -0.11377199748E+03  0.11465908231E+03  0.47000000000E+01 0. -1.
         13    1    4    4    0    0 -0.71700067528E+01  0.20851469274E+02 -0.46917611662E+02  0.51840669863E+02  0.00000000000E+00 0. -1.
        -14    1    4    4    0    0 -0.30843625856E+01 -0.73970568798E+02 -0.12393435297E+03  0.14436371492E+03  0.00000000000E+00 0.  1.
         -5    1    3    3    0  504  0.24410682721E+02  0.72333179753E+02 -0.94792248774E+02  0.12180160406E+03  0.47000000000E+01 0.  1.
<mgrwt>
<rscale>  2 0.17481015E+03</rscale>
<asrwt>0</asrwt>
<pdfrwt beam="1">  1       21 0.12387207E-01 0.17481694E+03</pdfrwt>
<pdfrwt beam="2">  1       21 0.66521930E-01 0.17481694E+03</pdfrwt>
<totfact> 0.11564048E+05</totfact>
</mgrwt>
</event>
<event>
12    1  0.1410528E-001  0.2044475E+03  0.7546771E-02  0.1146637E+00
         21   -1    0    0  502  503  0.00000000000E+00  0.00000000000E+00  0.25408256002E+03  0.25408256002E+03  0.00000000000E+00 0. -1.
         21   -1    0    0  503  504 -0.00000000000E+00 -0.00000000000E+00 -0.41121325391E+03  0.41121325391E+03  0.00000000000E+00 0.  1.
         -6    2    1    2    0  504  0.90426530720E+02  0.47939691177E+02 -0.33720522958E+03  0.39285204177E+03  0.17363809612E+03 0.  0.
        -24    2    3    3    0    0 -0.63318828315E+01  0.34343515856E+02 -0.23708586153E+03  0.25287695672E+03  0.80730909096E+02 0.  0.
          6    2    1    2  502    0 -0.90426530720E+02 -0.47939691177E+02  0.18007453569E+03  0.27244377215E+03  0.17698474265E+03 0.  0.
         24    2    5    5    0    0 -0.43081581660E+02 -0.17393952605E+02  0.80681955030E+01  0.91383402629E+02  0.78276805197E+02 0.  0.
          4    1    6    6  501    0 -0.32098095477E+02  0.22297189180E+02  0.25497219796E+02  0.46664339660E+02  0.00000000000E+00 0. -1.
         -3    1    6    6    0  501 -0.10983486183E+02 -0.39691141786E+02 -0.17429024293E+02  0.44719062969E+02  0.00000000000E+00 0.  1.
          5    1    5    5  502    0 -0.47344949059E+02 -0.30545738571E+02  0.17200634019E+03  0.18106036952E+03  0.47000000000E+01 0. -1.
         11    1    4    4    0    0  0.11291368731E+02  0.21624952845E+02 -0.12816792995E+02  0.27557281725E+02  0.00000000000E+00 0. -1.
        -12    1    4    4    0    0 -0.17623251562E+02  0.12718563011E+02 -0.22426906853E+03  0.22531967500E+03  0.00000000000E+00 0.  1.
         -5    1    3    3    0  504  0.96758413551E+02  0.13596175321E+02 -0.10011936805E+03  0.13997508505E+03  0.47000000000E+01 0.  1.
<mgrwt>
<rscale>  2 0.20372108E+03</rscale>
<asrwt>0</asrwt>
<pdfrwt beam="1">  1       21 0.39089625E-01 0.20444748E+03</pdfrwt>
<pdfrwt beam="2">  1       21 0.63263577E-01 0.20444748E+03</pdfrwt>
<totfact> 0.14475037E+04</totfact>
</mgrwt>
</event>
<event>
12    1  0.1410528E-001  0.1752054E+03  0.7546771E-02  0.1172920E+00
         21   -1    0    0  502  503  0.00000000000E+00  0.00000000000E+00  0.49036425814E+03  0.49036425814E+03  0.00000000000E+00 0. -1.
         21   -1    0    0  503  504 -0.00000000000E+00 -0.00000000000E+00 -0.68352748600E+02  0.68352748600E+02  0.00000000000E+00 0. -1.
         -6    2    1    2    0  504  0.65051561136E+01  0.20925011574E+02  0.12697990507E+03  0.21638117657E+03  0.17382964108E+03 0.  0.
        -24    2    3    3    0    0 -0.56627760044E+02 -0.73045501474E-01  0.39321447945E+02  0.10623228366E+03  0.80823346134E+02 0.  0.
          6    2    1    2  502    0 -0.65051561136E+01 -0.20925011574E+02  0.29503160447E+03  0.34233583017E+03  0.17224981804E+03 0.  0.
         24    2    5    5    0    0  0.37156259170E+02  0.34236036739E+02  0.21868044665E+03  0.23840965572E+03  0.80407290627E+02 0.  0.
          2    1    6    6  501    0  0.29262254283E+02  0.59159934431E+02  0.18003138536E+03  0.19174847348E+03  0.00000000000E+00 0. -1.
         -1    1    6    6    0  501  0.78940048877E+01 -0.24923897692E+02  0.38649061290E+02  0.46661182239E+02  0.00000000000E+00 0.  1.
          5    1    5    5  502    0 -0.43661415284E+02 -0.55161048313E+02  0.76351157827E+02  0.10392617446E+03  0.47000000000E+01 0. -1.
         13    1    4    4    0    0  0.18137291792E+02  0.41794888590E+01 -0.49228834950E+01  0.19252643003E+02  0.00000000000E+00 0. -1.
        -14    1    4    4    0    0 -0.74765051837E+02 -0.42525343604E+01  0.44244331440E+02  0.86979640659E+02  0.00000000000E+00 0.  1.
         -5    1    3    3    0  504  0.63132916158E+02  0.20998057075E+02  0.87658457121E+02  0.11014889291E+03  0.47000000000E+01 0.  1.
<mgrwt>
<rscale>  2 0.17481221E+03</rscale>
<asrwt>0</asrwt>
<pdfrwt beam="1">  1       21 0.75440653E-01 0.17520536E+03</pdfrwt>
<pdfrwt beam="2">  1       21 0.10515808E-01 0.17520536E+03</pdfrwt>
<totfact> 0.11725652E+05</totfact>
</mgrwt>
</event>
<event>
12    1  0.1410528E-001  0.2128157E+03  0.7546771E-02  0.1140226E+00
         21   -1    0    0  502  503  0.00000000000E+00  0.00000000000E+00  0.19213051872E+04  0.19213051872E+04  0.00000000000E+00 0.  1.
         21   -1    0    0  503  504 -0.00000000000E+00 -0.00000000000E+00 -0.30383150679E+02  0.30383150679E+02  0.00000000000E+00 0.  1.
         -6    2    1    2    0  504  0.11294278394E+03  0.50165577468E+02  0.45967755814E+03  0.50470828459E+03  0.16779254296E+03 0.  0.
        -24    2    3    3    0    0  0.11272859686E+02 -0.20987414634E+02  0.17564758363E+03  0.19471693278E+03  0.80591943366E+02 0.  0.
          6    2    1    2  502    0 -0.11294278394E+03 -0.50165577468E+02  0.14312444784E+04  0.14469800533E+04  0.17325663076E+03 0.  0.
         24    2    5    5    0    0 -0.42265952925E+02 -0.89054556887E+02  0.70385011255E+03  0.71511106187E+03  0.79131062062E+02 0.  0.
          4    1    6    6  501    0 -0.13950108601E+02 -0.62613871213E+02  0.20602840356E+03  0.21578416409E+03  0.00000000000E+00 0. -1.
         -3    1    6    6    0  501 -0.28315844324E+02 -0.26440685674E+02  0.49782170899E+03  0.49932689777E+03  0.00000000000E+00 0.  1.
          5    1    5    5  502    0 -0.70676831015E+02  0.38888979419E+02  0.72739436583E+03  0.73186899143E+03  0.47000000000E+01 0. -1.
         13    1    4    4    0    0 -0.16046987244E+02 -0.57397303967E+01  0.15775950263E+03  0.15867738016E+03  0.00000000000E+00 0. -1.
        -14    1    4    4    0    0  0.27319846930E+02 -0.15247684237E+02  0.17888081005E+02  0.36039552618E+02  0.00000000000E+00 0.  1.
         -5    1    3    3    0  504  0.10166992425E+03  0.71152992102E+02  0.28402997451E+03  0.30999135182E+03  0.47000000000E+01 0.  1.
<mgrwt>
<rscale>  2 0.21170090E+03</rscale>
<asrwt>0</asrwt>
<pdfrwt beam="1">  1       21 0.29558532E+00 0.21281569E+03</pdfrwt>
<pdfrwt beam="2">  1       21 0.46743324E-02 0.21281569E+03</pdfrwt>
<totfact> 0.10689192E+04</totfact>
</mgrwt>
</event>
<event>
12    1  0.1410528E-001  0.2693359E+03  0.7546771E-02  0.1101837E+00
         21   -1    0    0  502  503  0.00000000000E+00  0.00000000000E+00  0.18460419193E+04  0.18460419193E+04  0.00000000000E+00 0. -1.
         21   -1    0    0  503  504 -0.00000000000E+00 -0.00000000000E+00 -0.47215870369E+02  0.47215870369E+02  0.00000000000E+00 0.  1.
         -6    2    1    2    0  504  0.12843268376E+03 -0.16172339609E+03  0.50905100072E+03  0.57591212033E+03  0.17289429692E+03 0.  0.
        -24    2    3    3    0    0  0.11287270962E+03 -0.69941613573E+02  0.41614208463E+03  0.44430602212E+03  0.81249792628E+02 0.  0.
          6    2    1    2  502    0 -0.12843268376E+03  0.16172339609E+03  0.12897750482E+04  0.13173456693E+04  0.17096937280E+03 0.  0.
         24    2    5    5    0    0 -0.14274461302E+03  0.18031015131E+03  0.11723593913E+04  0.11975173535E+04  0.82057872029E+02 0.  0.
          2    1    6    6  501    0  0.23280107230E+01  0.31386721247E+02  0.25259680721E+03  0.25454998118E+03  0.00000000000E+00 0. -1.
         -1    1    6    6    0  501 -0.14507262374E+03  0.14892343006E+03  0.91976258412E+03  0.94296737236E+03  0.00000000000E+00 0.  1.
          5    1    5    5  502    0  0.14311929253E+02 -0.18586755212E+02  0.11741565688E+03  0.11982831581E+03  0.47000000000E+01 0. -1.
         11    1    4    4    0    0  0.57070783862E+02 -0.80627189007E+02  0.27073111056E+03  0.28818943805E+03  0.00000000000E+00 0. -1.
        -12    1    4    4    0    0  0.55801925762E+02  0.10685575434E+02  0.14541097407E+03  0.15611658407E+03  0.00000000000E+00 0.  1.
         -5    1    3    3    0  504  0.15559974140E+02 -0.91781782522E+02  0.92908916094E+02  0.13160609822E+03  0.47000000000E+01 0.  1.
<mgrwt>
<rscale>  2 0.26902751E+03</rscale>
<asrwt>0</asrwt>
<pdfrwt beam="1">  1       21 0.28400639E+00 0.26933594E+03</pdfrwt>
<pdfrwt beam="2">  1       21 0.72639815E-02 0.26933594E+03</pdfrwt>
<totfact> 0.55712400E+03</totfact>
</mgrwt>
</event>
<event>
12    1  0.1410528E-001  0.1803245E+03  0.7546771E-02  0.1167645E+00
         21   -1    0    0  502  503  0.00000000000E+00  0.00000000000E+00  0.57142592165E+02  0.57142592165E+02  0.00000000000E+00 0. -1.
         21   -1    0    0  503  504 -0.00000000000E+00 -0.00000000000E+00 -0.11867673168E+04  0.11867673168E+04  0.00000000000E+00 0. -1.
         -6    2    1    2    0  504  0.46934644162E+02 -0.16829523767E+02 -0.10147444629E+04  0.10306421513E+04  0.17329404297E+03 0.  0.
        -24    2    3    3    0    0 -0.35193490666E+02 -0.32346485749E+02 -0.42283803440E+03  0.43284526543E+03  0.79234736983E+02 0.  0.
          6    2    1    2  502    0 -0.46934644162E+02  0.16829523767E+02 -0.11488026178E+03  0.21326775772E+03  0.17262551446E+03 0.  0.
         24    2    5    5    0    0 -0.86212414681E+02 -0.19342530914E+02 -0.10475300432E+03  0.15871675278E+03  0.80069355876E+02 0.  0.
          2    1    6    6  501    0 -0.45638263777E+02 -0.49866477847E+02 -0.50258632496E+02  0.84234475565E+02  0.00000000000E+00 0. -1.
         -1    1    6    6    0  501 -0.40574150904E+02  0.30523946933E+02 -0.54494371827E+02  0.74482277212E+02  0.00000000000E+00 0.  1.
          5    1    5    5  502    0  0.39277770519E+02  0.36172054680E+02 -0.10127257454E+02  0.54551004943E+02  0.47000000000E+01 0. -1.
         13    1    4    4    0    0 -0.33954236474E+02 -0.34989472919E+02 -0.42586102320E+03  0.42864293353E+03  0.00000000000E+00 0. -1.
        -14    1    4    4    0    0 -0.12392541917E+01  0.26429871705E+01  0.30229887949E+01  0.42023318990E+01  0.00000000000E+00 0.  1.
         -5    1    3    3    0  504  0.82128134828E+02  0.15516961982E+02 -0.59190642846E+03  0.59779688582E+03  0.47000000000E+01 0.  1.
<mgrwt>
<rscale>  2 0.18016368E+03</rscale>
<asrwt>0</asrwt>
<pdfrwt beam="1">  1       21 0.87911682E-02 0.18032448E+03</pdfrwt>
<pdfrwt beam="2">  1       21 0.18257958E+00 0.18032448E+03</pdfrwt>
<totfact> 0.17955431E+04</totfact>
</mgrwt>
</event>
<event>
12    1  0.1410528E-001  0.3335844E+03  0.7546771E-02  0.1069607E+00
         21   -1    0    0  502  503  0.00000000000E+00  0.00000000000E+00  0.18176995482E+04  0.18176995482E+04  0.00000000000E+00 0. -1.
         21   -1    0    0  503  504 -0.00000000000E+00 -0.00000000000E+00 -0.61186493016E+02  0.61186493016E+02  0.00000000000E+00 0.  1.
         -6    2    1    2    0  504 -0.11080977865E+03 -0.26231895336E+03  0.85403880650E+03  0.91687559486E+03  0.17374847657E+03 0.  0.
        -24    2    3    3    0    0 -0.96175860723E+02 -0.27623773904E+03  0.72095037781E+03  0.78218148215E+03  0.80506764309E+02 0.  0.
          6    2    1    2  502    0  0.11080977865E+03  0.26231895336E+03  0.90247424874E+03  0.96201044640E+03  0.17295747750E+03 0.  0.
         24    2    5    5    0    0  0.46388834662E+02  0.15557964077E+03  0.33550993919E+03  0.38148141425E+03  0.81266238491E+02 0.  0.
          4    1    6    6  501    0  0.10585228853E+02  0.44221668776E+02  0.30345498227E+02  0.54666738716E+02  0.00000000000E+00 0. -1.
         -3    1    6    6    0  501  0.35803605808E+02  0.11135797200E+03  0.30516444096E+03  0.32681467553E+03  0.00000000000E+00 0.  1.
          5    1    5    5  502    0  0.64420943988E+02  0.10673931259E+03  0.56696430955E+03  0.58052903216E+03  0.47000000000E+01 0. -1.
         11    1    4    4    0    0 -0.53873775974E+02 -0.87226186564E+02  0.33532203906E+03  0.35064463669E+03  0.00000000000E+00 0. -1.
        -12    1    4    4    0    0 -0.42302084749E+02 -0.18901155247E+03  0.38562833875E+03  0.43153684546E+03  0.00000000000E+00 0.  1.
         -5    1    3    3    0  504 -0.14633917927E+02  0.13918785675E+02  0.13308842869E+03  0.13469411271E+03  0.47000000000E+01 0.  1.
<mgrwt>
<rscale>  2 0.33348156E+03</rscale>
<asrwt>0</asrwt>
<pdfrwt beam="1">  1       21 0.27964604E+00 0.33358443E+03</pdfrwt>
<pdfrwt beam="2">  1       21 0.94133080E-02 0.33358443E+03</pdfrwt>
<totfact> 0.35760914E+03</totfact>
</mgrwt>
</event>
<event>
12    1  0.1410528E-001  0.1998079E+03  0.7546771E-02  0.1149977E+00
         21   -1    0    0  502  503  0.00000000000E+00  0.00000000000E+00  0.12240992381E+04  0.12240992381E+04  0.00000000000E+00 0. -1.
         21   -1    0    0  503  504 -0.00000000000E+00 -0.00000000000E+00 -0.35048400197E+02  0.35048400197E+02  0.00000000000E+00 0.  1.
         -6    2    1    2    0  504 -0.97697597560E+02 -0.13683383974E+02  0.42712585556E+03  0.47155032685E+03  0.17375603213E+03 0.  0.
        -24    2    3    3    0    0 -0.11777014402E+03 -0.36607579380E+02  0.21334422921E+03  0.25555704080E+03  0.67703170342E+02 0.  0.
          6    2    1    2  502    0  0.97697597560E+02  0.13683383974E+02  0.76192498234E+03  0.78759731144E+03  0.17334298575E+03 0.  0.
         24    2    5    5    0    0  0.15692752789E+02 -0.40427602347E+02  0.24402068304E+03  0.26043533762E+03  0.79998861301E+02 0.  0.
          2    1    6    6  501    0 -0.31823908417E+02 -0.78777533149E+01  0.10352545465E+03  0.10859254074E+03  0.00000000000E+00 0. -1.
         -1    1    6    6    0  501  0.47516661206E+02 -0.32549849032E+02  0.14049522839E+03  0.15184279688E+03  0.00000000000E+00 0.  1.
          5    1    5    5  502    0  0.82004844771E+02  0.54110986320E+02  0.51790429930E+03  0.52716197382E+03  0.47000000000E+01 0. -1.
         11    1    4    4    0    0 -0.42691022329E+02  0.56275575832E+01  0.12481209641E+03  0.13203125464E+03  0.00000000000E+00 0. -1.
        -12    1    4    4    0    0 -0.75079121688E+02 -0.42235136964E+02  0.88532132803E+02  0.12352578616E+03  0.00000000000E+00 0.  1.
         -5    1    3    3    0  504  0.20072546457E+02  0.22924195407E+02  0.21378162635E+03  0.21599328606E+03  0.47000000000E+01 0.  1.
<mgrwt>
<rscale>  2 0.19971811E+03</rscale>
<asrwt>0</asrwt>
<pdfrwt beam="1">  1       21 0.18832293E+00 0.19980794E+03</pdfrwt>
<pdfrwt beam="2">  1       21 0.53920625E-02 0.19980794E+03</pdfrwt>
<totfact> 0.37678458E+04</totfact>
</mgrwt>
</event>
<event>
12    1  0.1410528E-001  0.1936259E+03  0.7546771E-02  0.1155659E+00
         21   -1    0    0  502  503  0.00000000000E+00  0.00000000000E+00  0.41153868995E+02  0.41153868995E+02  0.00000000000E+00 0. -1.
         21   -1    0    0  503  504 -0.00000000000E+00 -0.00000000000E+00 -0.10774750543E+04  0.10774750543E+04  0.00000000000E+00 0. -1.
         -6    2    1    2    0  504  0.40012641520E+02 -0.75078344096E+02 -0.74175070857E+03  0.76611971907E+03  0.17177759183E+03 0.  0.
        -24    2    3    3    0    0  0.38497550151E+02  0.19739431634E+02 -0.26723952403E+03  0.28220272170E+03  0.79685045021E+02 0.  0.
          6    2    1    2  502    0 -0.40012641520E+02  0.75078344096E+02 -0.29457047671E+03  0.35250920420E+03  0.17393448209E+03 0.  0.
         24    2    5    5    0    0 -0.89320396164E+02  0.45645814216E+02 -0.15703216710E+03  0.20339044249E+03  0.81528504618E+02 0.  0.
          2    1    6    6  501    0 -0.92824095565E+02  0.53437151826E+02 -0.16146989567E+03  0.19376369402E+03  0.00000000000E+00 0. -1.
         -1    1    6    6    0  501  0.35036994006E+01 -0.77913376104E+01  0.44377285685E+01  0.96267484696E+01  0.00000000000E+00 0.  1.
          5    1    5    5  502    0  0.49307754645E+02  0.29432529880E+02 -0.13753830961E+03  0.14911876171E+03  0.47000000000E+01 0. -1.
         13    1    4    4    0    0  0.32711572648E+02 -0.27062669331E+02 -0.10530107087E+03  0.11353744133E+03  0.00000000000E+00 0. -1.
        -14    1    4    4    0    0  0.57859775027E+01  0.46802100965E+02 -0.16193845316E+03  0.16866528037E+03  0.00000000000E+00 0.  1.
         -5    1    3    3    0  504  0.15150913688E+01 -0.94817775730E+02 -0.47451118453E+03  0.48391699737E+03  0.47000000000E+01 0.  1.
<mgrwt>
<rscale>  2 0.19314024E+03</rscale>
<asrwt>0</asrwt>
<pdfrwt beam="1">  1       21 0.63313644E-02 0.19362586E+03</pdfrwt>
<pdfrwt beam="2">  1       21 0.16576539E+00 0.19362586E+03</pdfrwt>
<totfact> 0.41092123E+04</totfact>
</mgrwt>
</event>
<event>
12    1  0.1410528E-001  0.2652820E+03  0.7546771E-02  0.1104695E+00
         21   -1    0    0  502  503  0.00000000000E+00  0.00000000000E+00  0.12524494660E+04  0.12524494660E+04  0.00000000000E+00 0.  1.
         21   -1    0    0  503  504 -0.00000000000E+00 -0.00000000000E+00 -0.14563704208E+03  0.14563704208E+03  0.00000000000E+00 0.  1.
         -6    2    1    2    0  504 -0.17752229812E+03 -0.93152947289E+02  0.44398653543E+01  0.26531911825E+03  0.17373221976E+03 0.  0.
        -24    2    3    3    0    0 -0.44569920259E+02 -0.95308937250E+02  0.21363285628E+01  0.13224628347E+03  0.80088977279E+02 0.  0.
          6    2    1    2  502    0  0.17752229812E+03  0.93152947289E+02  0.11023725586E+04  0.11327673899E+04  0.16656849552E+03 0.  0.
         24    2    5    5    0    0  0.19541611569E+02  0.47952905246E+02  0.37777934789E+03  0.38976109641E+03  0.80716298724E+02 0.  0.
          4    1    6    6  501    0 -0.27973947470E+02 -0.27121592089E+00  0.12291458987E+03  0.12605796959E+03  0.00000000000E+00 0. -1.
         -3    1    6    6    0  501  0.47515559039E+02  0.48224121166E+02  0.25486475802E+03  0.26370312682E+03  0.00000000000E+00 0.  1.
          5    1    5    5  502    0  0.15798068655E+03  0.45200042043E+02  0.72459321070E+03  0.74300629345E+03  0.47000000000E+01 0. -1.
         13    1    4    4    0    0 -0.25459511420E+01  0.48603519719E+01 -0.20554596581E+02  0.21274311484E+02  0.00000000000E+00 0. -1.
        -14    1    4    4    0    0 -0.42023969117E+02 -0.10016928922E+03  0.22690925144E+02  0.11097197199E+03  0.00000000000E+00 0.  1.
         -5    1    3    3    0  504 -0.13295237786E+03  0.21559899616E+01  0.23035367915E+01  0.13307283477E+03  0.47000000000E+01 0.  1.
<mgrwt>
<rscale>  2 0.26411548E+03</rscale>
<asrwt>0</asrwt>
<pdfrwt beam="1">  1       21 0.19268453E+00 0.26528197E+03</pdfrwt>
<pdfrwt beam="2">  1       21 0.22405700E-01 0.26528197E+03</pdfrwt>
<totfact> 0.26246585E+03</totfact>
</mgrwt>
</event>
<event>
12    1  0.1410528E-001  0.1851000E+03  0.7546771E-02  0.1163461E+00
         21   -1    0    0  502  503  0.00000000000E+00  0.00000000000E+00  0.81844973146E+02  0.81844973146E+02  0.00000000000E+00 0.  1.
         21   -1    0    0  503  504 -0.00000000000E+00 -0.00000000000E+00 -0.86020117860E+03  0.86020117860E+03  0.00000000000E+00 0.  1.
         -6    2    1    2    0  504 -0.59117633074E+02 -0.27610590762E+02 -0.72959128349E+03  0.75270542088E+03  0.17321885123E+03 0.  0.
        -24    2    3    3    0    0 -0.52179939493E+02 -0.82594072410E+02 -0.56183737841E+03  0.57597178652E+03  0.80856244070E+02 0.  0.
          6    2    1    2  502    0  0.59117633074E+02  0.27610590762E+02 -0.48764921962E+02  0.18934073086E+03  0.17092295190E+03 0.  0.
         24    2    5    5    0    0  0.59269469778E+01 -0.44600612618E+02  0.19652810058E+02  0.76439078809E+02  0.58586316487E+02 0.  0.
          2    1    6    6  501    0  0.15922924815E+02 -0.53192301867E+02  0.35616242382E+01  0.55638526938E+02  0.00000000000E+00 0. -1.
         -1    1    6    6    0  501 -0.99959778367E+01  0.85916892487E+01  0.16091185820E+02  0.20800551871E+02  0.00000000000E+00 0.  1.
          5    1    5    5  502    0  0.53190686097E+02  0.72211203380E+02 -0.68417732020E+02  0.11290165205E+03  0.47000000000E+01 0. -1.
         11    1    4    4    0    0 -0.44951273724E+02 -0.64735201834E+02 -0.22174347010E+03  0.23533259421E+03  0.00000000000E+00 0. -1.
        -12    1    4    4    0    0 -0.72286657695E+01 -0.17858870576E+02 -0.34009390832E+03  0.34063919232E+03  0.00000000000E+00 0.  1.
         -5    1    3    3    0  504 -0.69376935815E+01  0.54983481648E+02 -0.16775390508E+03  0.17673363436E+03  0.47000000000E+01 0.  1.
<mgrwt>
<rscale>  2 0.18456096E+03</rscale>
<asrwt>0</asrwt>
<pdfrwt beam="1">  1       21 0.12591535E-01 0.18510000E+03</pdfrwt>
<pdfrwt beam="2">  1       21 0.13233864E+00 0.18510000E+03</pdfrwt>
<totfact> 0.22350749E+04</totfact>
</mgrwt>
</event>
<event>
12    1  0.1410528E-001  0.2014166E+03  0.7546771E-02  0.1148702E+00
         21   -1    0    0  502  503  0.00000000000E+00  0.00000000000E+00  0.33411666874E+03  0.33411666874E+03  0.00000000000E+00 0.  1.
         21   -1    0    0  503  504 -0.00000000000E+00 -0.00000000000E+00 -0.12176802716E+03  0.12176802716E+03  0.00000000000E+00 0. -1.
         -6    2    1    2    0  504 -0.29372194461E+02 -0.98042914086E+02  0.12431896902E+03  0.23607146763E+03  0.17262500677E+03 0.  0.
        -24    2    3    3    0    0 -0.10005925639E+02 -0.20161719917E+01  0.11186829799E+03  0.13721148193E+03  0.78792710189E+02 0.  0.
          6    2    1    2  502    0  0.29372194461E+02  0.98042914086E+02  0.88029672564E+02  0.21981322826E+03  0.17347476259E+03 0.  0.
         24    2    5    5    0    0 -0.43722055895E+02  0.76852898181E+02  0.29432196711E+02  0.12364909573E+03  0.81270280798E+02 0.  0.
          2    1    6    6  501    0 -0.24877200117E+02  0.92233372095E+02  0.20270706209E+02  0.97656395305E+02  0.00000000000E+00 0. -1.
         -1    1    6    6    0  501 -0.18844855778E+02 -0.15380473914E+02  0.91614905025E+01  0.25992700425E+02  0.00000000000E+00 0.  1.
          5    1    5    5  502    0  0.73094250356E+02  0.21190015905E+02  0.58597475852E+02  0.96164132531E+02  0.47000000000E+01 0. -1.
         13    1    4    4    0    0 -0.24062626512E+02  0.29485221285E+02  0.30291539937E+02  0.48641193043E+02  0.00000000000E+00 0. -1.
        -14    1    4    4    0    0  0.14056700873E+02 -0.31501393277E+02  0.81576758056E+02  0.88570288883E+02  0.00000000000E+00 0.  1.
         -5    1    3    3    0  504 -0.19366268822E+02 -0.96026742094E+02  0.12450671025E+02  0.98859985709E+02  0.47000000000E+01 0.  1.
<mgrwt>
<rscale>  2 0.20123346E+03</rscale>
<asrwt>0</asrwt>
<pdfrwt beam="1">  1       21 0.51402564E-01 0.20141656E+03</pdfrwt>
<pdfrwt beam="2">  1       21 0.18733543E-01 0.20141656E+03</pdfrwt>
<totfact> 0.93431531E+04</totfact>
</mgrwt>
</event>
<event>
12    1  0.1410528E-001  0.2244008E+03  0.7546771E-02  0.1131300E+00
         21   -1    0    0  502  503  0.00000000000E+00  0.00000000000E+00  0.26647941123E+03  0.26647941123E+03  0.00000000000E+00 0. -1.
         21   -1    0    0  503  504 -0.00000000000E+00 -0.00000000000E+00 -0.23916507548E+03  0.23916507548E+03  0.00000000000E+00 0.  1.
         -6    2    1    2    0  504 -0.81095336904E+02  0.11606513768E+03 -0.10566670085E+03  0.24480033354E+03  0.16945259450E+03 0.  0.
        -24    2    3    3    0    0 -0.55736000857E+02 -0.42257811515E+01 -0.46159045085E+02  0.10813924847E+03  0.80243882005E+02 0.  0.
          6    2    1    2  502    0  0.81095336904E+02 -0.11606513768E+03  0.13298103660E+03  0.26084415317E+03  0.17409234991E+03 0.  0.
         24    2    5    5    0    0  0.15600491435E+02 -0.13300738599E+03  0.89906246651E+02  0.18050647776E+03  0.81025398897E+02 0.  0.
          4    1    6    6  501    0 -0.37845213211E+01 -0.13663274803E+03  0.76203738984E+02  0.15649230100E+03  0.00000000000E+00 0. -1.
         -3    1    6    6    0  501  0.19385012757E+02  0.36253620381E+01  0.13702507667E+02  0.24014176768E+02  0.00000000000E+00 0.  1.
          5    1    5    5  502    0  0.65494845469E+02  0.16942248312E+02  0.43074789947E+02  0.80337675407E+02  0.47000000000E+01 0. -1.
         11    1    4    4    0    0  0.16549921825E+02 -0.44418695307E+01  0.68972782903E+01  0.18471669258E+02  0.00000000000E+00 0. -1.
        -12    1    4    4    0    0 -0.72285922682E+02  0.21608837919E+00 -0.53056323375E+02  0.89667579215E+02  0.00000000000E+00 0.  1.
         -5    1    3    3    0  504 -0.25359336047E+02  0.12029091883E+03 -0.59507655762E+02  0.13666108507E+03  0.47000000000E+01 0.  1.
<mgrwt>
<rscale>  2 0.22350035E+03</rscale>
<asrwt>0</asrwt>
<pdfrwt beam="1">  1       21 0.40996832E-01 0.22440079E+03</pdfrwt>
<pdfrwt beam="2">  1       21 0.36794627E-01 0.22440079E+03</pdfrwt>
<totfact> 0.40188475E+04</totfact>
</mgrwt>
</event>
<event>
12    1  0.1410528E-001  0.2541275E+03  0.7546771E-02  0.1111099E+00
         21   -1    0    0  502  503  0.00000000000E+00  0.00000000000E+00  0.10618445619E+04  0.10618445619E+04  0.00000000000E+00 0. -1.
         21   -1    0    0  503  504 -0.00000000000E+00 -0.00000000000E+00 -0.71406945634E+02  0.71406945634E+02  0.00000000000E+00 0.  1.
         -6    2    1    2    0  504  0.77549376716E+01  0.18362472726E+03  0.26919520750E+03  0.36854803437E+03  0.17199829761E+03 0.  0.
        -24    2    3    3    0    0  0.44992393175E+02  0.19081527912E+03  0.22158725687E+03  0.30749937271E+03  0.83786428594E+02 0.  0.
          6    2    1    2  502    0 -0.77549376716E+01 -0.18362472726E+03  0.72124240878E+03  0.76470347317E+03  0.17550672393E+03 0.  0.
         24    2    5    5    0    0  0.45115165559E+02 -0.51614346392E+02  0.22689468909E+03  0.25028754571E+03  0.80394257759E+02 0.  0.
          4    1    6    6  501    0 -0.28493484045E+00  0.15435913049E+02  0.89376385401E+02  0.90699982728E+02  0.00000000000E+00 0. -1.
         -3    1    6    6    0  501  0.45400100399E+02 -0.67050259440E+02  0.13751830369E+03  0.15958756298E+03  0.00000000000E+00 0.  1.
          5    1    5    5  502    0 -0.52870103230E+02 -0.13201038086E+03  0.49434771969E+03  0.51441592747E+03  0.47000000000E+01 0. -1.
         11    1    4    4    0    0  0.65703435227E+02  0.11994441564E+03  0.12019898860E+03  0.18207526220E+03  0.00000000000E+00 0. -1.
        -12    1    4    4    0    0 -0.20711042052E+02  0.70870863481E+02  0.10138826827E+03  0.12542411051E+03  0.00000000000E+00 0.  1.
         -5    1    3    3    0  504 -0.37237455503E+02 -0.71905518654E+01  0.47607950622E+02  0.61048661664E+02  0.47000000000E+01 0.  1.
<mgrwt>
<rscale>  2 0.25352280E+03</rscale>
<asrwt>0</asrwt>
<pdfrwt beam="1">  1       21 0.16336069E+00 0.25412751E+03</pdfrwt>
<pdfrwt beam="2">  1       21 0.10985685E-01 0.25412751E+03</pdfrwt>
<totfact> 0.15705564E+04</totfact>
</mgrwt>
</event>
<event>
12    1  0.1410528E-001  0.1806751E+03  0.7546771E-02  0.1167203E+00
         21   -1    0    0  502  503  0.00000000000E+00  0.00000000000E+00  0.40535924836E+03  0.40535924836E+03  0.00000000000E+00 0.  1.
         21   -1    0    0  503  504 -0.00000000000E+00 -0.00000000000E+00 -0.15082569675E+03  0.15082569675E+03  0.00000000000E+00 0.  1.
         -6    2    1    2    0  504  0.50801506480E+02 -0.97022205597E+01 -0.62674972546E+02  0.19123712015E+03  0.17311429114E+03 0.  0.
        -24    2    3    3    0    0  0.94150914022E+02 -0.16255482522E+02 -0.74927432252E+02  0.14547327913E+03  0.80123152168E+02 0.  0.
          6    2    1    2  502    0 -0.50801506480E+02  0.97022205597E+01  0.31720852416E+03  0.36494782496E+03  0.17288938949E+03 0.  0.
         24    2    5    5    0    0 -0.37434427585E+02 -0.44756395009E+02  0.28092221205E+03  0.29799107732E+03  0.80479324523E+02 0.  0.
          2    1    6    6  501    0  0.16186103593E+02  0.12847711629E+02  0.62001875099E+02  0.65355077534E+02  0.00000000000E+00 0. -1.
         -1    1    6    6    0  501 -0.53620531178E+02 -0.57604106638E+02  0.21892033695E+03  0.23263599979E+03  0.00000000000E+00 0.  1.
          5    1    5    5  502    0 -0.13367078895E+02  0.54458615569E+02  0.36286312102E+02  0.66956747635E+02  0.47000000000E+01 0. -1.
         11    1    4    4    0    0  0.79043954768E+01 -0.35113848153E+02 -0.27196600327E+02  0.45112269610E+02  0.00000000000E+00 0. -1.
        -12    1    4    4    0    0  0.86246518545E+02  0.18858365631E+02 -0.47730831925E+02  0.10036100952E+03  0.00000000000E+00 0.  1.
         -5    1    3    3    0  504 -0.43349407542E+02  0.65532619626E+01  0.12252459705E+02  0.45763841026E+02  0.47000000000E+01 0.  1.
<mgrwt>
<rscale>  2 0.18062118E+03</rscale>
<asrwt>0</asrwt>
<pdfrwt beam="1">  1       21 0.62362961E-01 0.18067508E+03</pdfrwt>
<pdfrwt beam="2">  1       21 0.23203954E-01 0.18067508E+03</pdfrwt>
<totfact> 0.41865361E+04</totfact>
</mgrwt>
</event>
<event>
12    1  0.1410528E-001  0.2326193E+03  0.7546771E-02  0.1125109E+00
         21   -1    0    0  502  503  0.00000000000E+00  0.00000000000E+00  0.41571219111E+03  0.41571219111E+03  0.00000000000E+00 0.  1.
         21   -1    0    0  503  504 -0.00000000000E+00 -0.00000000000E+00 -0.16704182132E+03  0.16704182132E+03  0.00000000000E+00 0. -1.
         -6    2    1    2    0  504  0.10168385701E+03  0.11579039555E+03 -0.14691323362E+02  0.23136942921E+03  0.17195625988E+03 0.  0.
        -24    2    3    3    0    0  0.85813714502E+02  0.95133337074E+01  0.18375107069E+02  0.11884319174E+03  0.79571116296E+02 0.  0.
          6    2    1    2  502    0 -0.10168385701E+03 -0.11579039555E+03  0.26336169316E+03  0.35138458322E+03  0.17425476013E+03 0.  0.
         24    2    5    5    0    0 -0.42550540195E+02 -0.50369544973E+02  0.23655475543E+03  0.25909515394E+03  0.82610574073E+02 0.  0.
          4    1    6    6  501    0 -0.50159170981E+02  0.33218166021E+00  0.80644329716E+02  0.94971367757E+02  0.00000000000E+00 0. -1.
         -3    1    6    6    0  501  0.76086307865E+01 -0.50701726634E+02  0.15591042571E+03  0.16412378618E+03  0.00000000000E+00 0.  1.
          5    1    5    5  502    0 -0.59133316814E+02 -0.65420850573E+02  0.26806937731E+02  0.92289429284E+02  0.47000000000E+01 0. -1.
         13    1    4    4    0    0  0.34195929228E+02  0.16542304307E+02 -0.29496092602E+02  0.48093958938E+02  0.00000000000E+00 0. -1.
        -14    1    4    4    0    0  0.51617785275E+02 -0.70289705995E+01  0.47871199671E+02  0.70749232804E+02  0.00000000000E+00 0.  1.
         -5    1    3    3    0  504  0.15870142506E+02  0.10627706184E+03 -0.33066430431E+02  0.11252623746E+03  0.47000000000E+01 0.  1.
<mgrwt>
<rscale>  2 0.23218892E+03</rscale>
<asrwt>0</asrwt>
<pdfrwt beam="1">  1       21 0.63955721E-01 0.23261931E+03</pdfrwt>
<pdfrwt beam="2">  1       21 0.25698742E-01 0.23261931E+03</pdfrwt>
<totfact> 0.31776314E+04</totfact>
</mgrwt>
</event>
<event>
12    1  0.1410528E-001  0.2582709E+03  0.7546771E-02  0.1108307E+00
         21   -1    0    0  502  503  0.00000000000E+00  0.00000000000E+00  0.75215416634E+03  0.75215416634E+03  0.00000000000E+00 0. -1.
         21   -1    0    0  503  504 -0.00000000000E+00 -0.00000000000E+00 -0.16423850346E+03  0.16423850346E+03  0.00000000000E+00 0.  1.
         -6    2    1    2    0  504 -0.19059143573E+03  0.22597455550E+02 -0.17618517242E+02  0.25808006900E+03  0.17163673702E+03 0.  0.
        -24    2    3    3    0    0 -0.14426099029E+03  0.79651237069E+02 -0.13558262167E+01  0.18265985102E+03  0.78785976063E+02 0.  0.
          6    2    1    2  502    0  0.19059143573E+03 -0.22597455550E+02  0.60553418012E+03  0.65831260081E+03  0.17282388932E+03 0.  0.
         24    2    5    5    0    0  0.11335347162E+03  0.10316331513E+02  0.20055335962E+03  0.24469372375E+03  0.81840895444E+02 0.  0.
          2    1    6    6  501    0  0.25640666394E+02 -0.31694218644E+02  0.40876873033E+02  0.57731152920E+02  0.00000000000E+00 0. -1.
         -1    1    6    6    0  501  0.87712805229E+02  0.42010550157E+02  0.15967648658E+03  0.18696257083E+03  0.00000000000E+00 0.  1.
          5    1    5    5  502    0  0.77237964104E+02 -0.32913787063E+02  0.40498082050E+03  0.41361887705E+03  0.47000000000E+01 0. -1.
         11    1    4    4    0    0 -0.83616615319E+02  0.27520869859E+02  0.35103438127E+02  0.94770185204E+02  0.00000000000E+00 0. -1.
        -12    1    4    4    0    0 -0.60644374973E+02  0.52130367210E+02 -0.36459264343E+02  0.87889665819E+02  0.00000000000E+00 0.  1.
         -5    1    3    3    0  504 -0.46330445434E+02 -0.57053781519E+02 -0.16262691025E+02  0.75420217974E+02  0.47000000000E+01 0.  1.
<mgrwt>
<rscale>  2 0.25807241E+03</rscale>
<asrwt>0</asrwt>
<pdfrwt beam="1">  1       21 0.11571602E+00 0.25827086E+03</pdfrwt>
<pdfrwt beam="2">  1       21 0.25267463E-01 0.25827086E+03</pdfrwt>
<totfact> 0.82082341E+03</totfact>
</mgrwt>
</event>
<event>
12    1  0.1410528E-001  0.1956825E+03  0.7546771E-02  0.1153906E+00
         21   -1    0    0  502  503  0.00000000000E+00  0.00000000000E+00  0.21619235566E+03  0.21619235566E+03  0.00000000000E+00 0. -1.
         21   -1    0    0  503  504 -0.00000000000E+00 -0.00000000000E+00 -0.27953423535E+03  0.27953423535E+03  0.00000000000E+00 0.  1.
         -6    2    1    2    0  504 -0.40171426523E+02  0.80102550146E+02 -0.18323289142E+03  0.26807821890E+03  0.17395826195E+03 0.  0.
        -24    2    3    3    0    0 -0.14563723107E+02  0.29284790559E+02 -0.19230427240E+03  0.21026317660E+03  0.78485471646E+02 0.  0.
          6    2    1    2  502    0  0.40171426523E+02 -0.80102550146E+02  0.11989101173E+03  0.22764837211E+03  0.17152190700E+03 0.  0.
         24    2    5    5    0    0  0.74820985255E+01 -0.10578040864E+03  0.43630381732E+02  0.14066723467E+03  0.81475051707E+02 0.  0.
          2    1    6    6  501    0 -0.34979596374E+02 -0.28657238415E+02  0.20439463902E+02  0.49624400859E+02  0.00000000000E+00 0. -1.
         -1    1    6    6    0  501  0.42461694900E+02 -0.77123170225E+02  0.23190917831E+02  0.91042833815E+02  0.00000000000E+00 0.  1.
          5    1    5    5  502    0  0.32689327997E+02  0.25677858494E+02  0.76260630000E+02  0.86981137437E+02  0.47000000000E+01 0. -1.
         13    1    4    4    0    0  0.66253136563E+01  0.28116823694E+01 -0.16891956161E+03  0.16907282050E+03  0.00000000000E+00 0. -1.
        -14    1    4    4    0    0 -0.21189036763E+02  0.26473108190E+02 -0.23384710793E+02  0.41190356093E+02  0.00000000000E+00 0.  1.
         -5    1    3    3    0  504 -0.25607703416E+02  0.50817759586E+02  0.90713809803E+01  0.57815042303E+02  0.47000000000E+01 0.  1.
<mgrwt>
<rscale>  2 0.19513957E+03</rscale>
<asrwt>0</asrwt>
<pdfrwt beam="1">  1       21 0.33260362E-01 0.19568250E+03</pdfrwt>
<pdfrwt beam="2">  1       21 0.43005267E-01 0.19568250E+03</pdfrwt>
<totfact> 0.45193264E+04</totfact>
</mgrwt>
</event>
<event>
12    1  0.1410528E-001  0.2412939E+03  0.7546771E-02  0.1119468E+00
         21   -1    0    0  502  503  0.00000000000E+00  0.00000000000E+00  0.36203879119E+02  0.36203879119E+02  0.00000000000E+00 0.  1.
         21   -1    0    0  503  504 -0.00000000000E+00 -0.00000000000E+00 -0.20424979080E+04  0.20424979080E+04  0.00000000000E+00 0.  1.
         -6    2    1    2    0  504 -0.11008482634E+02  0.16794669098E+03 -0.14992254499E+04  0.15185189102E+04  0.17290301694E+03 0.  0.
        -24    2    3    3    0    0 -0.41780167983E+02  0.37168019449E+02 -0.67131108548E+03  0.67976135143E+03  0.91048763380E+02 0.  0.
          6    2    1    2  502    0  0.11008482634E+02 -0.16794669098E+03 -0.50706857895E+03  0.56018287690E+03  0.16840140770E+03 0.  0.
         24    2    5    5    0    0 -0.39777932186E+02 -0.13808487796E+03 -0.29705196241E+03  0.34200850391E+03  0.89890104938E+02 0.  0.
          4    1    6    6  501    0 -0.63721472993E+02 -0.62250120406E+02 -0.17435654371E+03  0.19579506619E+03  0.00000000000E+00 0. -1.
         -3    1    6    6    0  501  0.23943540807E+02 -0.75834757550E+02 -0.12269541870E+03  0.14621343772E+03  0.00000000000E+00 0.  1.
          5    1    5    5  502    0  0.50786414820E+02 -0.29861813023E+02 -0.21001661654E+03  0.21817437299E+03  0.47000000000E+01 0. -1.
         13    1    4    4    0    0 -0.56555244959E+02  0.45175106066E+02 -0.64124570561E+03  0.64531801533E+03  0.00000000000E+00 0. -1.
        -14    1    4    4    0    0  0.14775076976E+02 -0.80070866169E+01 -0.30065379864E+02  0.34443336106E+02  0.00000000000E+00 0.  1.
         -5    1    3    3    0  504  0.30771685349E+02  0.13077867153E+03 -0.82791436442E+03  0.83875755875E+03  0.47000000000E+01 0.  1.
<mgrwt>
<rscale>  2 0.24048860E+03</rscale>
<asrwt>0</asrwt>
<pdfrwt beam="1">  1       21 0.55698259E-02 0.24129387E+03</pdfrwt>
<pdfrwt beam="2">  1       21 0.31423054E+00 0.24129387E+03</pdfrwt>
<totfact> 0.60110668E+03</totfact>
</mgrwt>
</event>
<event>
12    1  0.1410528E-001  0.1781218E+03  0.7546771E-02  0.1170275E+00
         21   -1    0    0  502  503  0.00000000000E+00  0.00000000000E+00  0.82630016256E+02  0.82630016256E+02  0.00000000000E+00 0. -1.
         21   -1    0    0  503  504 -0.00000000000E+00 -0.00000000000E+00 -0.38521082528E+03  0.38521082528E+03  0.00000000000E+00 0. -1.
         -6    2    1    2    0  504 -0.30016188130E+02 -0.76133195044E+00 -0.18132138612E+03  0.25236174577E+03  0.17293771852E+03 0.  0.
        -24    2    3    3    0    0 -0.39237751732E+02 -0.33643716035E+02 -0.19267796414E+03  0.21606642537E+03  0.82996394597E+02 0.  0.
          6    2    1    2  502    0  0.30016188130E+02  0.76133195044E+00 -0.12125942291E+03  0.21547909577E+03  0.17557289624E+03 0.  0.
         24    2    5    5    0    0  0.13418877069E+02  0.61913172108E+02 -0.58700102666E+02  0.12631196708E+03  0.92172142394E+02 0.  0.
          4    1    6    6  501    0 -0.32172200427E+02  0.38548189215E+02 -0.25078962637E+01  0.50272287751E+02  0.00000000000E+00 0. -1.
         -3    1    6    6    0  501  0.45591077496E+02  0.23364982893E+02 -0.56192206402E+02  0.76039679334E+02  0.00000000000E+00 0.  1.
          5    1    5    5  502    0  0.16597311061E+02 -0.61151840157E+02 -0.62559320240E+02  0.89167128685E+02  0.47000000000E+01 0. -1.
         13    1    4    4    0    0  0.19283319616E+02 -0.88565086034E+01 -0.10869324461E+03  0.11074522827E+03  0.00000000000E+00 0. -1.
        -14    1    4    4    0    0 -0.58521071348E+02 -0.24787207431E+02 -0.83984719528E+02  0.10532119710E+03  0.00000000000E+00 0.  1.
         -5    1    3    3    0  504  0.92215636023E+01  0.32882384084E+02  0.11356578024E+02  0.36295320397E+02  0.47000000000E+01 0.  1.
<mgrwt>
<rscale>  2 0.17746904E+03</rscale>
<asrwt>0</asrwt>
<pdfrwt beam="1">  1       21 0.12712310E-01 0.17812185E+03</pdfrwt>
<pdfrwt beam="2">  1       21 0.59263206E-01 0.17812185E+03</pdfrwt>
<totfact> 0.14149906E+05</totfact>
</mgrwt>
</event>
<event>
12    1  0.1410528E-001  0.1838465E+03  0.7546771E-02  0.1164189E+00
         21   -1    0    0  502  503  0.00000000000E+00  0.00000000000E+00  0.20744583353E+03  0.20744583353E+03  0.00000000000E+00 0. -1.
         21   -1    0    0  503  504 -0.00000000000E+00 -0.00000000000E+00 -0.25009766764E+03  0.25009766764E+03  0.00000000000E+00 0. -1.
         -6    2    1    2    0  504  0.47970548689E+02  0.40232134604E+02 -0.15654333015E+03  0.24127791335E+03  0.17259611543E+03 0.  0.
        -24    2    3    3    0    0  0.66601647951E+02  0.81722183163E+02 -0.14731012692E+03  0.19463154124E+03  0.71181940273E+02 0.  0.
          6    2    1    2  502    0 -0.47970548689E+02 -0.40232134604E+02  0.11389149604E+03  0.21626558782E+03  0.17285755236E+03 0.  0.
         24    2    5    5    0    0 -0.12763079008E+02  0.45227008986E+02  0.63613913360E+02  0.11094343220E+03  0.77803191752E+02 0.  0.
          4    1    6    6  501    0 -0.35412761061E+02  0.45875088530E+02  0.66377308430E+02  0.88116595872E+02  0.00000000000E+00 0. -1.
         -3    1    6    6    0  501  0.22649682054E+02 -0.64807954377E+00 -0.27633950701E+01  0.22826836324E+02  0.00000000000E+00 0.  1.
          5    1    5    5  502    0 -0.35207469682E+02 -0.85459143590E+02  0.50277582684E+02  0.10532215562E+03  0.47000000000E+01 0. -1.
         11    1    4    4    0    0  0.21155588499E+02  0.30212324784E+02 -0.11092915892E+03  0.11690005044E+03  0.00000000000E+00 0. -1.
        -12    1    4    4    0    0  0.45446059452E+02  0.51509858379E+02 -0.36380968007E+02  0.77731490806E+02  0.00000000000E+00 0.  1.
         -5    1    3    3    0  504 -0.18631099262E+02 -0.41490048559E+02 -0.92332032220E+01  0.46646372109E+02  0.47000000000E+01 0.  1.
<mgrwt>
<rscale>  2 0.18378501E+03</rscale>
<asrwt>0</asrwt>
<pdfrwt beam="1">  1       21 0.31914744E-01 0.18384649E+03</pdfrwt>
<pdfrwt beam="2">  1       21 0.38476564E-01 0.18384649E+03</pdfrwt>
<totfact> 0.61736865E+04</totfact>
</mgrwt>
</event>
<event>
12    1  0.1410528E-001  0.2161939E+03  0.7546771E-02  0.1136847E+00
         21   -1    0    0  502  503  0.00000000000E+00  0.00000000000E+00  0.21971999088E+03  0.21971999088E+03  0.00000000000E+00 0.  1.
         21   -1    0    0  503  504 -0.00000000000E+00 -0.00000000000E+00 -0.37765515861E+03  0.37765515861E+03  0.00000000000E+00 0.  1.
         -6    2    1    2    0  504 -0.32799392923E+02 -0.12550289494E+03 -0.27659342435E+03  0.35075886592E+03  0.17234002095E+03 0.  0.
        -24    2    3    3    0    0 -0.88980881620E+01 -0.14125454203E+03 -0.27807650888E+03  0.32171275956E+03  0.78361554701E+02 0.  0.
          6    2    1    2  502    0  0.32799392923E+02  0.12550289494E+03  0.11865825662E+03  0.24661628356E+03  0.17295384540E+03 0.  0.
         24    2    5    5    0    0  0.36231754612E+02  0.14900226657E+03  0.59681933606E+02  0.18286443456E+03  0.79768745404E+02 0.  0.
          4    1    6    6  501    0  0.35432764629E+02  0.38318054506E+02 -0.84789849573E+01  0.52873881041E+02  0.00000000000E+00 0. -1.
         -3    1    6    6    0  501  0.79898998260E+00  0.11068421207E+03  0.68160918563E+02  0.12999055352E+03  0.00000000000E+00 0.  1.
          5    1    5    5  502    0 -0.34323616891E+01 -0.23499371638E+02  0.58976323016E+02  0.63751848998E+02  0.47000000000E+01 0. -1.
         13    1    4    4    0    0  0.42446080792E+00 -0.19179946024E+01  0.53778999875E+01  0.57254413408E+01  0.00000000000E+00 0. -1.
        -14    1    4    4    0    0 -0.93225489699E+01 -0.13933654742E+03 -0.28345440887E+03  0.31598731822E+03  0.00000000000E+00 0.  1.
         -5    1    3    3    0  504 -0.23901304761E+02  0.15751647091E+02  0.14830845330E+01  0.29046106367E+02  0.47000000000E+01 0.  1.
<mgrwt>
<rscale>  2 0.21607113E+03</rscale>
<asrwt>0</asrwt>
<pdfrwt beam="1">  1       21 0.33803076E-01 0.21619392E+03</pdfrwt>
<pdfrwt beam="2">  1       21 0.58100794E-01 0.21619392E+03</pdfrwt>
<totfact> 0.23091520E+04</totfact>
</mgrwt>
</event>
<event>
12    1  0.1410528E-001  0.1983548E+03  0.7546771E-02  0.1151198E+00
         21   -1    0    0  502  503  0.00000000000E+00  0.00000000000E+00  0.63972598861E+03  0.63972598861E+03  0.00000000000E+00 0.  1.
         21   -1    0    0  503  504 -0.00000000000E+00 -0.00000000000E+00 -0.13354164388E+03  0.13354164388E+03  0.00000000000E+00 0.  1.
         -6    2    1    2    0  504  0.97544976813E+02  0.18735054213E+02 -0.30975034602E+02  0.20075878041E+03  0.17169336151E+03 0.  0.
        -24    2    3    3    0    0  0.11262416626E+03  0.59524666701E+02 -0.40485462150E+02  0.15599593116E+03  0.80425550175E+02 0.  0.
          6    2    1    2  502    0 -0.97544976813E+02 -0.18735054213E+02  0.53715937933E+03  0.57250885208E+03  0.17134807309E+03 0.  0.
         24    2    5    5    0    0 -0.89128883858E+02  0.49228535137E+02  0.37192048210E+03  0.39357908022E+03  0.78817769433E+02 0.  0.
          4    1    6    6  501    0 -0.76442144549E+02 -0.12682533182E+01  0.23298398001E+03  0.24520714686E+03  0.00000000000E+00 0. -1.
         -3    1    6    6    0  501 -0.12686739309E+02  0.50496788455E+02  0.13893650208E+03  0.14837193336E+03  0.00000000000E+00 0.  1.
          5    1    5    5  502    0 -0.84160929545E+01 -0.67963589350E+02  0.16523889723E+03  0.17892977186E+03  0.47000000000E+01 0. -1.
         13    1    4    4    0    0  0.10212522092E+03  0.36799255370E+02 -0.18474175309E+00  0.10855312098E+03  0.00000000000E+00 0. -1.
        -14    1    4    4    0    0  0.10498945337E+02  0.22725411331E+02 -0.40300720397E+02  0.47442810181E+02  0.00000000000E+00 0.  1.
         -5    1    3    3    0  504 -0.15079189448E+02 -0.40789612487E+02  0.95104275483E+01  0.44762849255E+02  0.47000000000E+01 0.  1.
<mgrwt>
<rscale>  2 0.19828008E+03</rscale>
<asrwt>0</asrwt>
<pdfrwt beam="1">  1       21 0.98419381E-01 0.19835482E+03</pdfrwt>
<pdfrwt beam="2">  1       21 0.20544869E-01 0.19835482E+03</pdfrwt>
<totfact> 0.18645965E+04</totfact>
</mgrwt>
</event>
<event>
12    1  0.1410528E-001  0.5570862E+03  0.7546771E-02  0.9998828E-01
         21   -1    0    0  502  503  0.00000000000E+00  0.00000000000E+00  0.20501856912E+03  0.20501856912E+03  0.00000000000E+00 0.  1.
         21   -1    0    0  503  504 -0.00000000000E+00 -0.00000000000E+00 -0.17395831868E+04  0.17395831868E+04  0.00000000000E+00 0. -1.
         -6    2    1    2    0  504 -0.25893211786E+03  0.46139376059E+03 -0.11183681726E+04  0.12494368506E+04  0.17439905468E+03 0.  0.
        -24    2    3    3    0    0 -0.19853580763E+03  0.41364423698E+03 -0.10396613994E+04  0.11392344122E+04  0.80257079278E+02 0.  0.
          6    2    1    2  502    0  0.25893211786E+03 -0.46139376059E+03 -0.41619644517E+03  0.69516490536E+03  0.17350712004E+03 0.  0.
         24    2    5    5    0    0  0.44302852901E+02 -0.14128424460E+03 -0.11201010964E+03  0.20415855069E+03  0.84914478218E+02 0.  0.
          4    1    6    6  501    0  0.24869231176E+02 -0.48379403013E+02 -0.92422986064E+02  0.10724296549E+03  0.00000000000E+00 0. -1.
         -3    1    6    6    0  501  0.19433621725E+02 -0.92904841591E+02 -0.19587123577E+02  0.96915585199E+02  0.00000000000E+00 0.  1.
          5    1    5    5  502    0  0.21462926496E+03 -0.32010951599E+03 -0.30418633553E+03  0.49100635467E+03  0.47000000000E+01 0. -1.
         13    1    4    4    0    0 -0.91972857653E+02  0.13893536295E+03 -0.45440609922E+03  0.48399064518E+03  0.00000000000E+00 0. -1.
        -14    1    4    4    0    0 -0.10656294997E+03  0.27470887403E+03 -0.58525530018E+03  0.65524376698E+03  0.00000000000E+00 0.  1.
         -5    1    3    3    0  504 -0.60396310232E+02  0.47749523613E+02 -0.78706773158E+02  0.11020243843E+03  0.47000000000E+01 0.  1.
<mgrwt>
<rscale>  2 0.55701658E+03</rscale>
<asrwt>0</asrwt>
<pdfrwt beam="1">  1       21 0.31541318E-01 0.55708624E+03</pdfrwt>
<pdfrwt beam="2">  1       21 0.26762819E+00 0.55708624E+03</pdfrwt>
<totfact> 0.38604604E+02</totfact>
</mgrwt>
</event>
<event>
12    1  0.1410528E-001  0.2767243E+03  0.7546771E-02  0.1097757E+00
         21   -1    0    0  502  503  0.00000000000E+00  0.00000000000E+00  0.15584130912E+04  0.15584130912E+04  0.00000000000E+00 0.  1.
         21   -1    0    0  503  504 -0.00000000000E+00 -0.00000000000E+00 -0.61080371032E+02  0.61080371032E+02  0.00000000000E+00 0.  1.
         -6    2    1    2    0  504 -0.22449446910E+02  0.21379953635E+03  0.38351114257E+03  0.47181109011E+03  0.17120364734E+03 0.  0.
        -24    2    3    3    0    0 -0.65256758864E+01  0.58984957313E+02  0.66080027202E+02  0.11824960554E+03  0.78067852412E+02 0.  0.
          6    2    1    2  502    0  0.22449446910E+02 -0.21379953635E+03  0.11138215776E+04  0.11476823722E+04  0.17424724145E+03 0.  0.
         24    2    5    5    0    0 -0.12974756946E+02 -0.22473667997E+03  0.97422590547E+03  0.10031709989E+04  0.81000113599E+02 0.  0.
          2    1    6    6  501    0 -0.54596550375E+01  0.55498397992E+01  0.18657320464E+02  0.20216432965E+02  0.00000000000E+00 0. -1.
         -1    1    6    6    0  501 -0.75151019084E+01 -0.23028651977E+03  0.95556858501E+03  0.98295456589E+03  0.00000000000E+00 0.  1.
          5    1    5    5  502    0  0.35424203856E+02  0.10937143614E+02  0.13959567217E+03  0.14451137332E+03  0.47000000000E+01 0. -1.
         11    1    4    4    0    0  0.20980069463E+02  0.64101289075E+02  0.33510132137E+02  0.75313129875E+02  0.00000000000E+00 0. -1.
        -12    1    4    4    0    0 -0.27505745350E+02 -0.51163317617E+01  0.32569895064E+02  0.42936475664E+02  0.00000000000E+00 0.  1.
         -5    1    3    3    0  504 -0.15923771024E+02  0.15481457904E+03  0.31743111537E+03  0.35356148457E+03  0.47000000000E+01 0.  1.
<mgrwt>
<rscale>  2 0.27624645E+03</rscale>
<asrwt>0</asrwt>
<pdfrwt beam="1">  1       21 0.23975583E+00 0.27672427E+03</pdfrwt>
<pdfrwt beam="2">  1       21 0.93969813E-02 0.27672427E+03</pdfrwt>
<totfact> 0.64564575E+03</totfact>
</mgrwt>
</event>
<event>
12    1  0.1410528E-001  0.1801899E+03  0.7546771E-02  0.1167639E+00
         21   -1    0    0  502  503  0.00000000000E+00  0.00000000000E+00  0.50641608280E+02  0.50641608280E+02  0.00000000000E+00 0.  1.
         21   -1    0    0  503  504 -0.00000000000E+00 -0.00000000000E+00 -0.65433146375E+03  0.65433146375E+03  0.00000000000E+00 0. -1.
         -6    2    1    2    0  504 -0.47542902300E+02 -0.15277170373E+02 -0.35236349200E+03  0.39572664774E+03  0.17304863403E+03 0.  0.
        -24    2    3    3    0    0  0.14558901717E+01 -0.61231061739E+02 -0.17078330926E+03  0.20206174498E+03  0.88941821012E+02 0.  0.
          6    2    1    2  502    0  0.47542902300E+02  0.15277170373E+02 -0.25132636346E+03  0.30924642429E+03  0.17313200302E+03 0.  0.
         24    2    5    5    0    0  0.55984017068E+01  0.70172391357E+02 -0.17717055750E+03  0.20778707294E+03  0.82647169505E+02 0.  0.
          2    1    6    6  501    0  0.12336142829E+02  0.88327413164E+02 -0.14682455564E+03  0.17178871463E+03  0.00000000000E+00 0. -1.
         -1    1    6    6    0  501 -0.67377411224E+01 -0.18155021807E+02 -0.30346001861E+02  0.35998358312E+02  0.00000000000E+00 0.  1.
          5    1    5    5  502    0  0.41944500593E+02 -0.54895220984E+02 -0.74155805964E+02  0.10145935134E+03  0.47000000000E+01 0. -1.
         13    1    4    4    0    0  0.10426815941E+02 -0.42836271881E+01  0.82543097277E+01  0.13971455960E+02  0.00000000000E+00 0. -1.
        -14    1    4    4    0    0 -0.89709257698E+01 -0.56947434551E+02 -0.17903761899E+03  0.18809028902E+03  0.00000000000E+00 0.  1.
         -5    1    3    3    0  504 -0.48998792471E+02  0.45953891366E+02 -0.18158018274E+03  0.19366490276E+03  0.47000000000E+01 0.  1.
<mgrwt>
<rscale>  2 0.18016990E+03</rscale>
<asrwt>0</asrwt>
<pdfrwt beam="1">  1       21 0.77910171E-02 0.18018993E+03</pdfrwt>
<pdfrwt beam="2">  1       21 0.10066637E+00 0.18018993E+03</pdfrwt>
<totfact> 0.10206189E+05</totfact>
</mgrwt>
</event>
<event>
12    1  0.1410528E-001  0.1875621E+03  0.7546771E-02  0.1160874E+00
         21   -1    0    0  502  503  0.00000000000E+00  0.00000000000E+00  0.11052725734E+03  0.11052725734E+03  0.00000000000E+00 0.  1.
         21   -1    0    0  503  504 -0.00000000000E+00 -0.00000000000E+00 -0.59550265517E+03  0.59550265517E+03  0.00000000000E+00 0.  1.
         -6    2    1    2    0  504 -0.67383277937E+02 -0.26420696692E+02 -0.48426197315E+03  0.51931609488E+03  0.17303464508E+03 0.  0.
        -24    2    3    3    0    0 -0.10998717193E+03 -0.41731595703E+02 -0.31626499597E+03  0.34526268424E+03  0.73103142110E+02 0.  0.
          6    2    1    2  502    0  0.67383277937E+02  0.26420696692E+02 -0.71342468308E+00  0.18671381763E+03  0.17211328060E+03 0.  0.
         24    2    5    5    0    0  0.91605796654E+02  0.64566236178E+02  0.10660182500E+02  0.13988154739E+03  0.83022809957E+02 0.  0.
          2    1    6    6  501    0  0.73805977711E+02  0.18251497214E+01  0.11129493142E+02  0.74662702435E+02  0.00000000000E+00 0. -1.
         -1    1    6    6    0  501  0.17799818943E+02  0.62741086457E+02 -0.46931064154E+00  0.65218844950E+02  0.00000000000E+00 0.  1.
          5    1    5    5  502    0 -0.24222518717E+02 -0.38145539486E+02 -0.11373607183E+02  0.46832270242E+02  0.47000000000E+01 0. -1.
         11    1    4    4    0    0 -0.17436628719E+02  0.16520898485E+02 -0.27661348114E+02  0.36635041795E+02  0.00000000000E+00 0. -1.
        -12    1    4    4    0    0 -0.92550543207E+02 -0.58252494188E+02 -0.28860364785E+03  0.30862764245E+03  0.00000000000E+00 0.  1.
         -5    1    3    3    0  504  0.42603893989E+02  0.15310899011E+02 -0.16799697718E+03  0.17405341064E+03  0.47000000000E+01 0.  1.
<mgrwt>
<rscale>  2 0.18734934E+03</rscale>
<asrwt>0</asrwt>
<pdfrwt beam="1">  1       21 0.17004194E-01 0.18756212E+03</pdfrwt>
<pdfrwt beam="2">  1       21 0.91615792E-01 0.18756212E+03</pdfrwt>
<totfact> 0.31523994E+04</totfact>
</mgrwt>
</event>
<event>
12    1  0.1410528E-001  0.1859476E+03  0.7546771E-02  0.1162666E+00
         21   -1    0    0  502  503  0.00000000000E+00  0.00000000000E+00  0.84365748622E+02  0.84365748622E+02  0.00000000000E+00 0.  1.
         21   -1    0    0  503  504 -0.00000000000E+00 -0.00000000000E+00 -0.52745889928E+03  0.52745889928E+03  0.00000000000E+00 0.  1.
         -6    2    1    2    0  504 -0.55187372504E+01  0.64080091813E+02 -0.36984015742E+03  0.41395440961E+03  0.17447004492E+03 0.  0.
        -24    2    3    3    0    0 -0.48266745221E+02 -0.70015890363E+01 -0.21580816897E+03  0.23894600695E+03  0.90240387305E+02 0.  0.
          6    2    1    2  502    0  0.55187372504E+01 -0.64080091813E+02 -0.73252993240E+02  0.19787023829E+03  0.17219150837E+03 0.  0.
         24    2    5    5    0    0 -0.59878467913E+02 -0.64053764604E+02 -0.41863421522E+02  0.12517780162E+03  0.78921608426E+02 0.  0.
          4    1    6    6  501    0 -0.67610314024E+02 -0.16514184600E+02 -0.28380364153E+02  0.75161944658E+02  0.00000000000E+00 0. -1.
         -3    1    6    6    0  501  0.77318461108E+01 -0.47539580004E+02 -0.13483057369E+02  0.50015856958E+02  0.00000000000E+00 0.  1.
          5    1    5    5  502    0  0.65397205163E+02 -0.26327209773E-01 -0.31389571718E+02  0.72692436670E+02  0.47000000000E+01 0. -1.
         11    1    4    4    0    0  0.57291297527E+00  0.21622334448E+02 -0.72054335841E+01  0.22798505420E+02  0.00000000000E+00 0. -1.
        -12    1    4    4    0    0 -0.48839658197E+02 -0.28623923484E+02 -0.20860273538E+03  0.21614750153E+03  0.00000000000E+00 0.  1.
         -5    1    3    3    0  504  0.42748007971E+02  0.71081680850E+02 -0.15403198845E+03  0.17500840266E+03  0.47000000000E+01 0.  1.
<mgrwt>
<rscale>  2 0.18541124E+03</rscale>
<asrwt>0</asrwt>
<pdfrwt beam="1">  1       21 0.12979346E-01 0.18594760E+03</pdfrwt>
<pdfrwt beam="2">  1       21 0.81147524E-01 0.18594760E+03</pdfrwt>
<totfact> 0.68088590E+04</totfact>
</mgrwt>
</event>
<event>
12    1  0.1410528E-001  0.2253326E+03  0.7546771E-02  0.1130144E+00
         21   -1    0    0  502  503  0.00000000000E+00  0.00000000000E+00  0.22375642113E+04  0.22375642113E+04  0.00000000000E+00 0. -1.
         21   -1    0    0  503  504 -0.00000000000E+00 -0.00000000000E+00 -0.38071668746E+02  0.38071668746E+02  0.00000000000E+00 0. -1.
         -6    2    1    2    0  504 -0.84163624769E+02 -0.11581284980E+03  0.37568836735E+03  0.43808280984E+03  0.17400766365E+03 0.  0.
        -24    2    3    3    0    0 -0.96449538131E+01 -0.69284597114E+02  0.88552524268E+02  0.13777131656E+03  0.79031674541E+02 0.  0.
          6    2    1    2  502    0  0.84163624769E+02  0.11581284980E+03  0.18238041752E+04  0.18375530702E+04  0.17275266825E+03 0.  0.
         24    2    5    5    0    0  0.27141230996E+02 -0.65861196140E+01  0.56836685418E+03  0.57486624516E+03  0.81549343969E+02 0.  0.
          2    1    6    6  501    0  0.43130870495E+02 -0.31608878514E+02  0.28720199648E+03  0.29213760452E+03  0.00000000000E+00 0. -1.
         -1    1    6    6    0  501 -0.15989639500E+02  0.25022758900E+02  0.28116485771E+03  0.28272864065E+03  0.00000000000E+00 0.  1.
          5    1    5    5  502    0  0.57022393773E+02  0.12239896942E+03  0.12554373210E+04  0.12626868250E+04  0.47000000000E+01 0. -1.
         13    1    4    4    0    0  0.28454231069E+02 -0.98099478274E+01  0.47037912588E+02  0.55843026088E+02  0.00000000000E+00 0. -1.
        -14    1    4    4    0    0 -0.38099184882E+02 -0.59474649286E+02  0.41514611680E+02  0.81928290470E+02  0.00000000000E+00 0.  1.
         -5    1    3    3    0  504 -0.74518670956E+02 -0.46528252689E+02  0.28713584308E+03  0.30031149329E+03  0.47000000000E+01 0.  1.
<mgrwt>
<rscale>  2 0.22509032E+03</rscale>
<asrwt>0</asrwt>
<pdfrwt beam="1">  1       21 0.34424054E+00 0.22533264E+03</pdfrwt>
<pdfrwt beam="2">  1       21 0.58571816E-02 0.22533264E+03</pdfrwt>
<totfact> 0.37346227E+03</totfact>
</mgrwt>
</event>
<event>
12    1  0.1410528E-001  0.1899484E+03  0.7546771E-02  0.1160579E+00
         21   -1    0    0  502  503  0.00000000000E+00  0.00000000000E+00  0.50901941607E+03  0.50901941607E+03  0.00000000000E+00 0.  1.
         21   -1    0    0  503  504 -0.00000000000E+00 -0.00000000000E+00 -0.75162683451E+02  0.75162683451E+02  0.00000000000E+00 0.  1.
         -6    2    1    2    0  504 -0.34821572511E+02 -0.37274698893E+02  0.12889974633E+03  0.22955509965E+03  0.18297118375E+03 0.  0.
        -24    2    3    3    0    0 -0.56995026727E+02 -0.68729625445E+02  0.26221825378E+02  0.11980119345E+03  0.75448971758E+02 0.  0.
          6    2    1    2  502    0  0.34821572511E+02  0.37274698893E+02  0.30495698629E+03  0.35462699988E+03  0.17366519646E+03 0.  0.
         24    2    5    5    0    0  0.60263421257E+02 -0.34016874332E+02  0.17743050625E+03  0.20625291456E+03  0.79182400418E+02 0.  0.
          2    1    6    6  501    0  0.22606730066E+02 -0.51221212450E+02  0.13864346675E+03  0.14952152929E+03  0.00000000000E+00 0. -1.
         -1    1    6    6    0  501  0.37656691190E+02  0.17204338119E+02  0.38787039502E+02  0.56731385272E+02  0.00000000000E+00 0.  1.
          5    1    5    5  502    0 -0.25441848746E+02  0.71291573225E+02  0.12752648005E+03  0.14837408532E+03  0.47000000000E+01 0. -1.
         11    1    4    4    0    0 -0.10222854769E+02  0.10818728759E+02 -0.12779429305E+02  0.19617988301E+02  0.00000000000E+00 0. -1.
        -12    1    4    4    0    0 -0.46772171958E+02 -0.79548354204E+02  0.39001254684E+02  0.10018320514E+03  0.00000000000E+00 0.  1.
         -5    1    3    3    0  504  0.22173454216E+02  0.31454926553E+02  0.10267792095E+03  0.10975390620E+03  0.47000000000E+01 0.  1.
<mgrwt>
<rscale>  2 0.18767106E+03</rscale>
<asrwt>0</asrwt>
<pdfrwt beam="1">  1       21 0.78310677E-01 0.18994841E+03</pdfrwt>
<pdfrwt beam="2">  1       21 0.11563490E-01 0.18994841E+03</pdfrwt>
<totfact> 0.90586303E+04</totfact>
</mgrwt>
</event>
<event>
12    1  0.1410528E-001  0.1903520E+03  0.7546771E-02  0.1160730E+00
         21   -1    0    0  502  503  0.00000000000E+00  0.00000000000E+00  0.18506296171E+03  0.18506296171E+03  0.00000000000E+00 0. -1.
         21   -1    0    0  503  504 -0.00000000000E+00 -0.00000000000E+00 -0.58817878155E+03  0.58817878155E+03  0.00000000000E+00 0.  1.
         -6    2    1    2    0  504  0.23007763330E+02  0.33777389445E+02 -0.51989742112E+03  0.54992174205E+03  0.17450021400E+03 0.  0.
        -24    2    3    3    0    0  0.67133844806E+02  0.56018894270E+02 -0.26312323556E+03  0.28839379331E+03  0.79322590077E+02 0.  0.
          6    2    1    2  502    0 -0.23007763330E+02 -0.33777389445E+02  0.11678160128E+03  0.22332000121E+03  0.18591291329E+03 0.  0.
         24    2    5    5    0    0 -0.83819700442E+01 -0.32602634576E+02 -0.17364378040E+02  0.88292123913E+02  0.79754550448E+02 0.  0.
          2    1    6    6  501    0  0.16593629780E+01 -0.48027825047E+02  0.15610454082E+02  0.50528326124E+02  0.00000000000E+00 0. -1.
         -1    1    6    6    0  501 -0.10041333022E+02  0.15425190471E+02 -0.32974832122E+02  0.37763797789E+02  0.00000000000E+00 0.  1.
          5    1    5    5  502    0 -0.14625793286E+02 -0.11747548694E+01  0.13414597932E+03  0.13502787729E+03  0.47000000000E+01 0. -1.
         11    1    4    4    0    0  0.62573875519E+01 -0.84666245605E+01 -0.11695209491E+03  0.11742500217E+03  0.00000000000E+00 0. -1.
        -12    1    4    4    0    0  0.60876457254E+02  0.64485518830E+02 -0.14617114065E+03  0.17096879114E+03  0.00000000000E+00 0.  1.
         -5    1    3    3    0  504 -0.44126081476E+02 -0.22241504825E+02 -0.25677418556E+03  0.26152794874E+03  0.47000000000E+01 0.  1.
<mgrwt>
<rscale>  2 0.18750636E+03</rscale>
<asrwt>0</asrwt>
<pdfrwt beam="1">  1       21 0.28471225E-01 0.19035199E+03</pdfrwt>
<pdfrwt beam="2">  1       21 0.90489042E-01 0.19035199E+03</pdfrwt>
<totfact> 0.12257576E+04</totfact>
</mgrwt>
</event>
<event>
12    1  0.1410528E-001  0.1783964E+03  0.7546771E-02  0.1169406E+00
         21   -1    0    0  502  503  0.00000000000E+00  0.00000000000E+00  0.30584913710E+03  0.30584913710E+03  0.00000000000E+00 0. -1.
         21   -1    0    0  503  504 -0.00000000000E+00 -0.00000000000E+00 -0.12559490762E+03  0.12559490762E+03  0.00000000000E+00 0. -1.
         -6    2    1    2    0  504 -0.32092982043E+02  0.30251064130E+02  0.61879891529E+00  0.17839750723E+03  0.17285890575E+03 0.  0.
        -24    2    3    3    0    0 -0.16974040118E+02  0.57807868982E+02  0.56033364663E+02  0.11451617979E+03  0.79651426376E+02 0.  0.
          6    2    1    2  502    0  0.32092982043E+02 -0.30251064130E+02  0.17963543056E+03  0.25304653750E+03  0.17268056013E+03 0.  0.
         24    2    5    5    0    0 -0.86946442472E+00 -0.93132187526E+01  0.19490637635E+03  0.21085402594E+03  0.79896387271E+02 0.  0.
          4    1    6    6  501    0 -0.71695470304E+01 -0.38672841952E+02  0.54129979143E+02  0.66910729717E+02  0.00000000000E+00 0. -1.
         -3    1    6    6    0  501  0.63000826057E+01  0.29359623199E+02  0.14077639721E+03  0.14394329622E+03  0.00000000000E+00 0.  1.
          5    1    5    5  502    0  0.32962446468E+02 -0.20937845377E+02 -0.15270945791E+02  0.42192511557E+02  0.47000000000E+01 0. -1.
         11    1    4    4    0    0 -0.38917036449E+02  0.20235857364E+01  0.29918420659E+02  0.49129853653E+02  0.00000000000E+00 0. -1.
        -12    1    4    4    0    0  0.21942996331E+02  0.55784283246E+02  0.26114944003E+02  0.65386326135E+02  0.00000000000E+00 0.  1.
         -5    1    3    3    0  504 -0.15118941925E+02 -0.27556804852E+02 -0.55414565748E+02  0.63881327441E+02  0.47000000000E+01 0.  1.
<mgrwt>
<rscale>  2 0.17835322E+03</rscale>
<asrwt>0</asrwt>
<pdfrwt beam="1">  1       21 0.47053713E-01 0.17839643E+03</pdfrwt>
<pdfrwt beam="2">  1       21 0.19322294E-01 0.17839643E+03</pdfrwt>
<totfact> 0.10696249E+05</totfact>
</mgrwt>
</event>
<event>
12    1  0.1410528E-001  0.1910361E+03  0.7546771E-02  0.1158157E+00
         21   -1    0    0  502  503  0.00000000000E+00  0.00000000000E+00  0.11305351741E+03  0.11305351741E+03  0.00000000000E+00 0. -1.
         21   -1    0    0  503  504 -0.00000000000E+00 -0.00000000000E+00 -0.34682151150E+03  0.34682151150E+03  0.00000000000E+00 0. -1.
         -6    2    1    2    0  504  0.76934138698E+02  0.14826472167E+02 -0.18380036113E+03  0.26509875827E+03  0.17423000004E+03 0.  0.
        -24    2    3    3    0    0  0.15251746443E+02 -0.54358709106E+02 -0.93376312491E+02  0.13552289094E+03  0.80373087598E+02 0.  0.
          6    2    1    2  502    0 -0.76934138698E+02 -0.14826472167E+02 -0.49967632959E+02  0.19477627064E+03  0.17117927821E+03 0.  0.
         24    2    5    5    0    0 -0.76605512550E+02 -0.67132885961E+02 -0.58101478267E+02  0.14163195431E+03  0.79426694337E+02 0.  0.
          4    1    6    6  501    0 -0.68878930323E+02 -0.32434711131E+02 -0.31673846392E+01  0.76199408489E+02  0.00000000000E+00 0. -1.
         -3    1    6    6    0  501 -0.77265822269E+01 -0.34698174830E+02 -0.54934093628E+02  0.65432545817E+02  0.00000000000E+00 0.  1.
          5    1    5    5  502    0 -0.32862614747E+00  0.52306413794E+02  0.81338453078E+01  0.53144316334E+02  0.47000000000E+01 0. -1.
         11    1    4    4    0    0  0.26521435996E+02  0.12674091988E+02 -0.36704064248E+02  0.47023478256E+02  0.00000000000E+00 0. -1.
        -12    1    4    4    0    0 -0.11269689553E+02 -0.67032801093E+02 -0.56672248242E+02  0.88499412687E+02  0.00000000000E+00 0.  1.
         -5    1    3    3    0  504  0.61682392255E+02  0.69185181273E+02 -0.90424048635E+02  0.12957586733E+03  0.47000000000E+01 0.  1.
<mgrwt>
<rscale>  2 0.19033770E+03</rscale>
<asrwt>0</asrwt>
<pdfrwt beam="1">  1       21 0.17392849E-01 0.19103607E+03</pdfrwt>
<pdfrwt beam="2">  1       21 0.53357156E-01 0.19103607E+03</pdfrwt>
<totfact> 0.99531842E+04</totfact>
</mgrwt>
</event>
<event>
12    1  0.1410528E-001  0.2058883E+03  0.7546771E-02  0.1145348E+00
         21   -1    0    0  502  503  0.00000000000E+00  0.00000000000E+00  0.57815584448E+03  0.57815584448E+03  0.00000000000E+00 0.  1.
         21   -1    0    0  503  504 -0.00000000000E+00 -0.00000000000E+00 -0.87901067958E+02  0.87901067958E+02  0.00000000000E+00 0.  1.
         -6    2    1    2    0  504  0.84338075587E+02 -0.72596687401E+02  0.10680306153E+03  0.23194153514E+03  0.17322468575E+03 0.  0.
        -24    2    3    3    0    0 -0.20082198584E+02 -0.65001924000E+01  0.41165312381E+02  0.91931733970E+02  0.79443776132E+02 0.  0.
          6    2    1    2  502    0 -0.84338075587E+02  0.72596687401E+02  0.38345171500E+03  0.43411537730E+03  0.17040467441E+03 0.  0.
         24    2    5    5    0    0 -0.93102926737E+02  0.10756918404E+03  0.34118550697E+03  0.37836216683E+03  0.80691355198E+02 0.  0.
          4    1    6    6  501    0 -0.79855583863E+02  0.70081345531E+02  0.31039170045E+03  0.32807212161E+03  0.00000000000E+00 0. -1.
         -3    1    6    6    0  501 -0.13247342874E+02  0.37487838506E+02  0.30793806514E+02  0.50290045224E+02  0.00000000000E+00 0.  1.
          5    1    5    5  502    0  0.87648511494E+01 -0.34972496636E+02  0.42266208028E+02  0.55753210470E+02  0.47000000000E+01 0. -1.
         11    1    4    4    0    0 -0.37104614569E+01  0.33292607788E+02  0.35026964546E+02  0.48467035218E+02  0.00000000000E+00 0. -1.
        -12    1    4    4    0    0 -0.16371737127E+02 -0.39792800188E+02  0.61383478350E+01  0.43464698751E+02  0.00000000000E+00 0.  1.
         -5    1    3    3    0  504  0.10442027417E+03 -0.66096495002E+02  0.65637749146E+02  0.14000980117E+03  0.47000000000E+01 0.  1.
<mgrwt>
<rscale>  2 0.20529398E+03</rscale>
<asrwt>0</asrwt>
<pdfrwt beam="1">  1       21 0.88947051E-01 0.20588827E+03</pdfrwt>
<pdfrwt beam="2">  1       21 0.13523242E-01 0.20588827E+03</pdfrwt>
<totfact> 0.50767361E+04</totfact>
</mgrwt>
</event>
<event>
12    1  0.1410528E-001  0.2966598E+03  0.7546771E-02  0.1087075E+00
         21   -1    0    0  502  503  0.00000000000E+00  0.00000000000E+00  0.21072489415E+03  0.21072489415E+03  0.00000000000E+00 0.  1.
         21   -1    0    0  503  504 -0.00000000000E+00 -0.00000000000E+00 -0.50370094170E+03  0.50370094170E+03  0.00000000000E+00 0.  1.
         -6    2    1    2    0  504 -0.23876667844E+03 -0.28086053721E+02 -0.29533619573E+03  0.41775661120E+03  0.17175204380E+03 0.  0.
        -24    2    3    3    0    0 -0.15529214143E+03 -0.79224311974E+02 -0.22353477302E+03  0.29626317892E+03  0.86092599182E+02 0.  0.
          6    2    1    2  502    0  0.23876667844E+03  0.28086053721E+02  0.23601481781E+01  0.29666922464E+03  0.17380651715E+03 0.  0.
         24    2    5    5    0    0  0.25857129785E+03  0.26113538564E+02  0.15037804603E+02  0.27260832818E+03  0.80920529252E+02 0.  0.
          4    1    6    6  501    0  0.18292087626E+03  0.44338952975E+01  0.44957852881E+02  0.18841686478E+03  0.00000000000E+00 0. -1.
         -3    1    6    6    0  501  0.75650421592E+02  0.21679643266E+02 -0.29920048278E+02  0.84191463393E+02  0.00000000000E+00 0.  1.
          5    1    5    5  502    0 -0.19804619416E+02  0.19725151570E+01 -0.12677656425E+02  0.24060896465E+02  0.47000000000E+01 0. -1.
         11    1    4    4    0    0  0.20864393046E+01  0.16961809233E+01 -0.44321590890E+02  0.44403081850E+02  0.00000000000E+00 0. -1.
        -12    1    4    4    0    0 -0.15737858073E+03 -0.80920492897E+02 -0.17921318213E+03  0.25186009707E+03  0.00000000000E+00 0.  1.
         -5    1    3    3    0  504 -0.83474537010E+02  0.51138258253E+02 -0.71801422707E+02  0.12149343229E+03  0.47000000000E+01 0.  1.
<mgrwt>
<rscale>  2 0.29635964E+03</rscale>
<asrwt>0</asrwt>
<pdfrwt beam="1">  1       21 0.32419215E-01 0.29665984E+03</pdfrwt>
<pdfrwt beam="2">  1       21 0.77492452E-01 0.29665984E+03</pdfrwt>
<totfact> 0.12782121E+04</totfact>
</mgrwt>
</event>
<event>
12    1  0.1410528E-001  0.2108899E+03  0.7546771E-02  0.1141259E+00
         21   -1    0    0  502  503  0.00000000000E+00  0.00000000000E+00  0.57161140400E+03  0.57161140400E+03  0.00000000000E+00 0. -1.
         21   -1    0    0  503  504 -0.00000000000E+00 -0.00000000000E+00 -0.85539253699E+02  0.85539253699E+02  0.00000000000E+00 0. -1.
         -6    2    1    2    0  504  0.81944610598E+02 -0.83569959294E+02  0.34538144740E+03  0.40363847214E+03  0.17302258432E+03 0.  0.
        -24    2    3    3    0    0  0.11697849204E+02 -0.95842969729E+01  0.61281179603E+02  0.10173859159E+03  0.79791350540E+02 0.  0.
          6    2    1    2  502    0 -0.81944610598E+02  0.83569959294E+02  0.14069070290E+03  0.25351218555E+03  0.17543003460E+03 0.  0.
         24    2    5    5    0    0 -0.18817550152E+02  0.43163403277E+02 -0.25188125022E+01  0.91806369853E+02  0.78771095924E+02 0.  0.
          4    1    6    6  501    0 -0.46754865510E+02  0.18347956674E+02 -0.14986309924E+02  0.52414258061E+02  0.00000000000E+00 0. -1.
         -3    1    6    6    0  501  0.27937315358E+02  0.24815446603E+02  0.12467497421E+02  0.39392111792E+02  0.00000000000E+00 0.  1.
          5    1    5    5  502    0 -0.63127060446E+02  0.40406556018E+02  0.14320951540E+03  0.16170581570E+03  0.47000000000E+01 0. -1.
         11    1    4    4    0    0  0.23402120954E+02 -0.35778311815E+02  0.59132168585E+02  0.72968213786E+02  0.00000000000E+00 0. -1.
        -12    1    4    4    0    0 -0.11704271749E+02  0.26194014843E+02  0.21490110181E+01  0.28770377806E+02  0.00000000000E+00 0.  1.
         -5    1    3    3    0  504  0.70246761393E+02 -0.73985662321E+02  0.28410026780E+03  0.30189988055E+03  0.47000000000E+01 0.  1.
<mgrwt>
<rscale>  2 0.21038853E+03</rscale>
<asrwt>0</asrwt>
<pdfrwt beam="1">  1       21 0.87940214E-01 0.21088991E+03</pdfrwt>
<pdfrwt beam="2">  1       21 0.13159886E-01 0.21088991E+03</pdfrwt>
<totfact> 0.54618886E+04</totfact>
</mgrwt>
</event>
<event>
12    1  0.1410528E-001  0.1783538E+03  0.7546771E-02  0.1170347E+00
         21   -1    0    0  502  503  0.00000000000E+00  0.00000000000E+00  0.84933404991E+03  0.84933404991E+03  0.00000000000E+00 0. -1.
         21   -1    0    0  503  504 -0.00000000000E+00 -0.00000000000E+00 -0.52029418867E+02  0.52029418867E+02  0.00000000000E+00 0. -1.
         -6    2    1    2    0  504  0.24623391953E+02 -0.49430592418E+01  0.15673408272E+03  0.23743556511E+03  0.17657669616E+03 0.  0.
        -24    2    3    3    0    0 -0.13344665482E+02  0.36747028359E+02  0.15707480649E+03  0.18085073603E+03  0.80660211371E+02 0.  0.
          6    2    1    2  502    0 -0.24623391953E+02  0.49430592418E+01  0.64057054832E+03  0.66392790367E+03  0.17273936617E+03 0.  0.
         24    2    5    5    0    0 -0.88281115594E+01  0.62126426502E+02  0.26809862379E+03  0.28673186321E+03  0.80004130373E+02 0.  0.
          4    1    6    6  501    0 -0.43980628094E+02  0.29768770626E+02  0.15885048211E+03  0.16749313723E+03  0.00000000000E+00 0. -1.
         -3    1    6    6    0  501  0.35152516535E+02  0.32357655875E+02  0.10924814168E+03  0.11923872598E+03  0.00000000000E+00 0.  1.
          5    1    5    5  502    0 -0.15795280394E+02 -0.57183367260E+02  0.37247192453E+03  0.37719604046E+03  0.47000000000E+01 0. -1.
         13    1    4    4    0    0 -0.13776033865E+02  0.66829970417E+01 -0.49252027427E+01  0.16084128219E+02  0.00000000000E+00 0. -1.
        -14    1    4    4    0    0  0.43136838326E+00  0.30064031317E+02  0.16200000923E+03  0.16476660781E+03  0.00000000000E+00 0.  1.
         -5    1    3    3    0  504  0.37968057435E+02 -0.41690087601E+02 -0.34072376768E+00  0.56584829082E+02  0.47000000000E+01 0.  1.
<mgrwt>
<rscale>  2 0.17739655E+03</rscale>
<asrwt>0</asrwt>
<pdfrwt beam="1">  1       21 0.13066677E+00 0.17835379E+03</pdfrwt>
<pdfrwt beam="2">  1       21 0.80045267E-02 0.17835379E+03</pdfrwt>
<totfact> 0.51545313E+04</totfact>
</mgrwt>
</event>
<event>
12    1  0.1410528E-001  0.2043164E+03  0.7546771E-02  0.1146308E+00
         21   -1    0    0  502  503  0.00000000000E+00  0.00000000000E+00  0.14963957991E+04  0.14963957991E+04  0.00000000000E+00 0.  1.
         21   -1    0    0  503  504 -0.00000000000E+00 -0.00000000000E+00 -0.28210341344E+02  0.28210341344E+02  0.00000000000E+00 0.  1.
         -6    2    1    2    0  504 -0.10517897220E+03 -0.23019260028E+02  0.64252883521E+03  0.67423176752E+03  0.17364524102E+03 0.  0.
        -24    2    3    3    0    0 -0.90662660261E+02  0.39136715520E+02  0.52783777058E+03  0.54289167876E+03  0.79795127353E+02 0.  0.
          6    2    1    2  502    0  0.10517897220E+03  0.23019260028E+02  0.82565662257E+03  0.85037437295E+03  0.17272872735E+03 0.  0.
         24    2    5    5    0    0  0.12373191620E+02  0.56824396377E+02  0.31153894430E+03  0.32683375632E+03  0.79885433965E+02 0.  0.
          2    1    6    6  501    0  0.43816655006E+01  0.17659526751E+02  0.26441555316E+03  0.26504083200E+03  0.00000000000E+00 0. -1.
         -1    1    6    6    0  501  0.79915261199E+01  0.39164869627E+02  0.47123391138E+02  0.61792924311E+02  0.00000000000E+00 0.  1.
          5    1    5    5  502    0  0.92805780580E+02 -0.33805136349E+02  0.51411767827E+03  0.52354061663E+03  0.47000000000E+01 0. -1.
         13    1    4    4    0    0 -0.88458426513E+02  0.28831907747E+02  0.28451595801E+03  0.29934178206E+03  0.00000000000E+00 0. -1.
        -14    1    4    4    0    0 -0.22042337480E+01  0.10304807774E+02  0.24332181257E+03  0.24354989670E+03  0.00000000000E+00 0.  1.
         -5    1    3    3    0  504 -0.14516311939E+02 -0.62155975548E+02  0.11469106463E+03  0.13134008876E+03  0.47000000000E+01 0.  1.
<mgrwt>
<rscale>  2 0.20412149E+03</rscale>
<asrwt>0</asrwt>
<pdfrwt beam="1">  1       21 0.23021468E+00 0.20431635E+03</pdfrwt>
<pdfrwt beam="2">  1       21 0.43400537E-02 0.20431635E+03</pdfrwt>
<totfact> 0.29523166E+04</totfact>
</mgrwt>
</event>
<event>
12    1  0.1410528E-001  0.1822023E+03  0.7546771E-02  0.1166696E+00
         21   -1    0    0  502  503  0.00000000000E+00  0.00000000000E+00  0.30587883234E+03  0.30587883234E+03  0.00000000000E+00 0.  1.
         21   -1    0    0  503  504 -0.00000000000E+00 -0.00000000000E+00 -0.22183443782E+03  0.22183443782E+03  0.00000000000E+00 0.  1.
         -6    2    1    2    0  504  0.52992599521E+02  0.16404573425E+02 -0.14882240265E+03  0.23203674019E+03  0.16916150754E+03 0.  0.
        -24    2    3    3    0    0  0.81706176217E+02  0.67495935062E+01 -0.59575219355E+02  0.13767129180E+03  0.93181122445E+02 0.  0.
          6    2    1    2  502    0 -0.52992599521E+02 -0.16404573425E+02  0.23286679717E+03  0.29567652997E+03  0.17355212335E+03 0.  0.
         24    2    5    5    0    0 -0.79807370716E+01 -0.32152523192E+02  0.23372313725E+03  0.24775066011E+03  0.75209093784E+02 0.  0.
          4    1    6    6  501    0  0.92713520965E+01 -0.49468718140E+02  0.10157022758E+03  0.11335617837E+03  0.00000000000E+00 0. -1.
         -3    1    6    6    0  501 -0.17252089168E+02  0.17316194948E+02  0.13215290967E+03  0.13439448174E+03  0.00000000000E+00 0.  1.
          5    1    5    5  502    0 -0.45011862449E+02  0.15747949767E+02 -0.85634008679E+00  0.47925869855E+02  0.47000000000E+01 0. -1.
         11    1    4    4    0    0  0.56178962680E+02 -0.16993199591E+02  0.10292963266E+02  0.59588503698E+02  0.00000000000E+00 0. -1.
        -12    1    4    4    0    0  0.25527213537E+02  0.23742793097E+02 -0.69868182621E+02  0.78082788102E+02  0.00000000000E+00 0.  1.
         -5    1    3    3    0  504 -0.28713576697E+02  0.96549799191E+01 -0.89247183295E+02  0.94365448391E+02  0.47000000000E+01 0.  1.
<mgrwt>
<rscale>  2 0.18114888E+03</rscale>
<asrwt>0</asrwt>
<pdfrwt beam="1">  1       21 0.47058282E-01 0.18220226E+03</pdfrwt>
<pdfrwt beam="2">  1       21 0.34128375E-01 0.18220226E+03</pdfrwt>
<totfact> 0.35943181E+04</totfact>
</mgrwt>
</event>
<event>
12    1  0.1410528E-001  0.2212685E+03  0.7546771E-02  0.1132987E+00
         21   -1    0    0  502  503  0.00000000000E+00  0.00000000000E+00  0.15074617761E+03  0.15074617761E+03  0.00000000000E+00 0. -1.
         21   -1    0    0  503  504 -0.00000000000E+00 -0.00000000000E+00 -0.43370190213E+03  0.43370190213E+03  0.00000000000E+00 0. -1.
         -6    2    1    2    0  504  0.46971384983E+02 -0.12859649350E+03 -0.28822489459E+03  0.36336394125E+03  0.17382863627E+03 0.  0.
        -24    2    3    3    0    0  0.36231861062E+02 -0.28343500058E+02 -0.22792165645E+03  0.24578600710E+03  0.79664157910E+02 0.  0.
          6    2    1    2  502    0 -0.46971384983E+02  0.12859649350E+03  0.52691700791E+01  0.22108413849E+03  0.17351386973E+03 0.  0.
         24    2    5    5    0    0 -0.42104387793E+02  0.47119613261E+02  0.63373842000E+02  0.12078253045E+03  0.81111888078E+02 0.  0.
          4    1    6    6  501    0 -0.65527153585E+02  0.26675117658E+02  0.51474954591E+02  0.87493089494E+02  0.00000000000E+00 0. -1.
         -3    1    6    6    0  501  0.23422765792E+02  0.20444495603E+02  0.11898887409E+02  0.33289440960E+02  0.00000000000E+00 0.  1.
          5    1    5    5  502    0 -0.48669971899E+01  0.81476880243E+02 -0.58104671921E+02  0.10030160804E+03  0.47000000000E+01 0. -1.
         11    1    4    4    0    0  0.60597785482E+02 -0.24069882864E+02 -0.13979891480E+03  0.15425688784E+03  0.00000000000E+00 0. -1.
        -12    1    4    4    0    0 -0.24365924420E+02 -0.42736171943E+01 -0.88122741648E+02  0.91529119259E+02  0.00000000000E+00 0.  1.
         -5    1    3    3    0  504  0.10739523921E+02 -0.10025299345E+03 -0.60303238147E+02  0.11757793415E+03  0.47000000000E+01 0.  1.
<mgrwt>
<rscale>  2 0.22120671E+03</rscale>
<asrwt>0</asrwt>
<pdfrwt beam="1">  1       21 0.23191720E-01 0.22126853E+03</pdfrwt>
<pdfrwt beam="2">  1       21 0.66723369E-01 0.22126853E+03</pdfrwt>
<totfact> 0.35437706E+04</totfact>
</mgrwt>
</event>
<event>
12    1  0.1410528E-001  0.1968502E+03  0.7546771E-02  0.1155314E+00
         21   -1    0    0  502  503  0.00000000000E+00  0.00000000000E+00  0.22130266387E+03  0.22130266387E+03  0.00000000000E+00 0.  1.
         21   -1    0    0  503  504 -0.00000000000E+00 -0.00000000000E+00 -0.22908981321E+03  0.22908981321E+03  0.00000000000E+00 0. -1.
         -6    2    1    2    0  504  0.89276196024E+02  0.47183074489E+02 -0.12418250274E+03  0.23274725674E+03  0.16897783831E+03 0.  0.
        -24    2    3    3    0    0  0.18111819786E+02  0.38311535629E+02  0.39999009794E+01  0.85791851026E+02  0.74487789043E+02 0.  0.
          6    2    1    2  502    0 -0.89276196024E+02 -0.47183074489E+02  0.11639535340E+03  0.21764522033E+03  0.15370452806E+03 0.  0.
         24    2    5    5    0    0 -0.11103207040E+03 -0.64984356898E+02  0.81466707946E+02  0.17256413784E+03  0.81181708937E+02 0.  0.
          4    1    6    6  501    0 -0.10485759831E+03 -0.69608657053E+02  0.42499711319E+02  0.13284090681E+03  0.00000000000E+00 0. -1.
         -3    1    6    6    0  501 -0.61744720955E+01  0.46243001549E+01  0.38966996627E+02  0.39723231033E+02  0.00000000000E+00 0.  1.
          5    1    5    5  502    0  0.21755874377E+02  0.17801282409E+02  0.34928645452E+02  0.45081082489E+02  0.47000000000E+01 0. -1.
         11    1    4    4    0    0 -0.17273504503E+02  0.27281787153E+02 -0.23248616555E+02  0.39789044218E+02  0.00000000000E+00 0. -1.
        -12    1    4    4    0    0  0.35385324289E+02  0.11029748477E+02  0.27248517534E+02  0.46002806809E+02  0.00000000000E+00 0.  1.
         -5    1    3    3    0  504  0.71164376238E+02  0.88715388596E+01 -0.12818240372E+03  0.14695540572E+03  0.47000000000E+01 0.  1.
<mgrwt>
<rscale>  2 0.19353123E+03</rscale>
<asrwt>0</asrwt>
<pdfrwt beam="1">  1       21 0.34046564E-01 0.19685018E+03</pdfrwt>
<pdfrwt beam="2">  1       21 0.35244587E-01 0.19685018E+03</pdfrwt>
<totfact> 0.64390648E+04</totfact>
</mgrwt>
</event>
<event>
12    1  0.1410528E-001  0.1973511E+03  0.7546771E-02  0.1152083E+00
         21   -1    0    0  502  503  0.00000000000E+00  0.00000000000E+00  0.15619803046E+04  0.15619803046E+04  0.00000000000E+00 0. -1.
         21   -1    0    0  503  504 -0.00000000000E+00 -0.00000000000E+00 -0.29860341685E+02  0.29860341685E+02  0.00000000000E+00 0. -1.
         -6    2    1    2    0  504  0.68071720816E+02 -0.65690244521E+02  0.44039625445E+03  0.48242272552E+03  0.17272480357E+03 0.  0.
        -24    2    3    3    0    0  0.10758252846E+03 -0.23468951438E+02  0.35110678985E+03  0.37594061436E+03  0.77010230026E+02 0.  0.
          6    2    1    2  502    0 -0.68071720816E+02  0.65690244521E+02  0.10917237085E+04  0.11094179208E+04  0.17320075023E+03 0.  0.
         24    2    5    5    0    0 -0.29487597753E+01  0.54213254562E+02  0.31313786568E+03  0.32801487115E+03  0.81182883786E+02 0.  0.
          4    1    6    6  501    0  0.95280538987E+01 -0.10560086737E+02  0.16787319157E+03  0.16847464999E+03  0.00000000000E+00 0. -1.
         -3    1    6    6    0  501 -0.12476813674E+02  0.64773341299E+02  0.14526467411E+03  0.15954022116E+03  0.00000000000E+00 0.  1.
          5    1    5    5  502    0 -0.65122961040E+02  0.11476989959E+02  0.77858584278E+03  0.78140304961E+03  0.47000000000E+01 0. -1.
         11    1    4    4    0    0  0.72660585570E+02 -0.43372314402E+02  0.16377183400E+03  0.18434188879E+03  0.00000000000E+00 0. -1.
        -12    1    4    4    0    0  0.34921942895E+02  0.19903362964E+02  0.18733495585E+03  0.19159872556E+03  0.00000000000E+00 0.  1.
         -5    1    3    3    0  504 -0.39510807649E+02 -0.42221293083E+02  0.89289464593E+02  0.10648211116E+03  0.47000000000E+01 0.  1.
<mgrwt>
<rscale>  2 0.19724665E+03</rscale>
<asrwt>0</asrwt>
<pdfrwt beam="1">  1       21 0.24030460E+00 0.19735113E+03</pdfrwt>
<pdfrwt beam="2">  1       21 0.45938999E-02 0.19735113E+03</pdfrwt>
<totfact> 0.23461405E+04</totfact>
</mgrwt>
</event>
<event>
12    1  0.1410528E-001  0.1884862E+03  0.7546771E-02  0.1159972E+00
         21   -1    0    0  502  503  0.00000000000E+00  0.00000000000E+00  0.45754292346E+02  0.45754292346E+02  0.00000000000E+00 0. -1.
         21   -1    0    0  503  504 -0.00000000000E+00 -0.00000000000E+00 -0.77737859579E+03  0.77737859579E+03  0.00000000000E+00 0. -1.
         -6    2    1    2    0  504  0.67829207930E+02  0.28250423238E+02 -0.33920147186E+03  0.38805243245E+03  0.17357466391E+03 0.  0.
        -24    2    3    3    0    0  0.46610789089E+02 -0.47889986935E+02 -0.18226836117E+03  0.21227508865E+03  0.85865832968E+02 0.  0.
          6    2    1    2  502    0 -0.67829207930E+02 -0.28250423238E+02 -0.39242283158E+03  0.43508045568E+03  0.17291742628E+03 0.  0.
         24    2    5    5    0    0 -0.18183548815E+02  0.41915487335E+02 -0.26829719635E+03  0.28402679040E+03  0.81242123115E+02 0.  0.
          4    1    6    6  501    0 -0.45008009847E+02  0.25935038690E+02 -0.22326804854E+03  0.22923125590E+03  0.00000000000E+00 0. -1.
         -3    1    6    6    0  501  0.26824461032E+02  0.15980448645E+02 -0.45029147816E+02  0.54795534504E+02  0.00000000000E+00 0.  1.
          5    1    5    5  502    0 -0.49645659115E+02 -0.70165910573E+02 -0.12412563522E+03  0.15105366528E+03  0.47000000000E+01 0. -1.
         11    1    4    4    0    0  0.17562566422E+02 -0.46462831038E+02 -0.17552834465E+03  0.18242104643E+03  0.00000000000E+00 0. -1.
        -12    1    4    4    0    0  0.29048222667E+02 -0.14271558969E+01 -0.67400165201E+01  0.29854042218E+02  0.00000000000E+00 0.  1.
         -5    1    3    3    0  504  0.21218418841E+02  0.76140410173E+02 -0.15693311070E+03  0.17577734380E+03  0.47000000000E+01 0.  1.
<mgrwt>
<rscale>  2 0.18833476E+03</rscale>
<asrwt>0</asrwt>
<pdfrwt beam="1">  1       21 0.70391224E-02 0.18848621E+03</pdfrwt>
<pdfrwt beam="2">  1       21 0.11959670E+00 0.18848621E+03</pdfrwt>
<totfact> 0.79934179E+04</totfact>
</mgrwt>
</event>
<event>
12    1  0.1410528E-001  0.1909911E+03  0.7546771E-02  0.1158740E+00
         21   -1    0    0  502  503  0.00000000000E+00  0.00000000000E+00  0.12042264895E+03  0.12042264895E+03  0.00000000000E+00 0. -1.
         21   -1    0    0  503  504 -0.00000000000E+00 -0.00000000000E+00 -0.10000111333E+04  0.10000111333E+04  0.00000000000E+00 0. -1.
         -6    2    1    2    0  504 -0.59805564646E+02  0.48224539667E+02 -0.91199996926E+03  0.93178407359E+03  0.17485795398E+03 0.  0.
        -24    2    3    3    0    0 -0.95777762142E+02  0.14922194985E+02 -0.46184688595E+03  0.47894532351E+03  0.81792574413E+02 0.  0.
          6    2    1    2  502    0  0.59805564646E+02 -0.48224539667E+02  0.32411484898E+02  0.18864970867E+03  0.16922144202E+03 0.  0.
         24    2    5    5    0    0  0.16366039357E+02 -0.57275663205E+02  0.76641851209E+02  0.12582192422E+03  0.80055196070E+02 0.  0.
          4    1    6    6  501    0 -0.95012258117E+01  0.99287524534E+01  0.45205957117E+02  0.47248618774E+02  0.00000000000E+00 0. -1.
         -3    1    6    6    0  501  0.25867265169E+02 -0.67204415659E+02  0.31435894092E+02  0.78573305446E+02  0.00000000000E+00 0.  1.
          5    1    5    5  502    0  0.43439525290E+02  0.90511235381E+01 -0.44230366312E+02  0.62827784449E+02  0.47000000000E+01 0. -1.
         11    1    4    4    0    0 -0.57977231335E+02 -0.32141325098E+02 -0.22909724104E+03  0.23849522005E+03  0.00000000000E+00 0. -1.
        -12    1    4    4    0    0 -0.37800530807E+02  0.47063520083E+02 -0.23274964491E+03  0.24045010346E+03  0.00000000000E+00 0.  1.
         -5    1    3    3    0  504  0.35972197496E+02  0.33302344682E+02 -0.45015308331E+03  0.45283875008E+03  0.47000000000E+01 0.  1.
<mgrwt>
<rscale>  2 0.18969129E+03</rscale>
<asrwt>0</asrwt>
<pdfrwt beam="1">  1       21 0.18526562E-01 0.19099114E+03</pdfrwt>
<pdfrwt beam="2">  1       21 0.15384786E+00 0.19099114E+03</pdfrwt>
<totfact> 0.74509098E+03</totfact>
</mgrwt>
</event>
<event>
12    1  0.1410528E-001  0.1894655E+03  0.7546771E-02  0.1159039E+00
         21   -1    0    0  502  503  0.00000000000E+00  0.00000000000E+00  0.19536665307E+03  0.19536665307E+03  0.00000000000E+00 0.  1.
         21   -1    0    0  503  504 -0.00000000000E+00 -0.00000000000E+00 -0.24385618369E+03  0.24385618369E+03  0.00000000000E+00 0.  1.
         -6    2    1    2    0  504  0.19812904632E+02 -0.74661812337E+02  0.85137302365E+02  0.20771502906E+03  0.17300357116E+03 0.  0.
        -24    2    3    3    0    0 -0.54247982887E+02 -0.57229519581E+02  0.50613198201E+02  0.12403167552E+03  0.81265608608E+02 0.  0.
          6    2    1    2  502    0 -0.19812904632E+02  0.74661812337E+02 -0.13362683299E+03  0.23150780770E+03  0.17254795601E+03 0.  0.
         24    2    5    5    0    0 -0.37356925831E+02  0.41378895564E+02 -0.15751604144E+03  0.18669341817E+03  0.83278905911E+02 0.  0.
          4    1    6    6  501    0 -0.57933160934E+02  0.31400006715E+02 -0.14784306890E+03  0.16186347513E+03  0.00000000000E+00 0. -1.
         -3    1    6    6    0  501  0.20576235103E+02  0.99788888487E+01 -0.96729725401E+01  0.24829943041E+02  0.00000000000E+00 0.  1.
          5    1    5    5  502    0  0.17544021199E+02  0.33282916773E+02  0.23889208457E+02  0.44814389536E+02  0.47000000000E+01 0. -1.
         13    1    4    4    0    0 -0.24682363916E+02 -0.69366138147E+02  0.13155940944E+02  0.74792773662E+02  0.00000000000E+00 0. -1.
        -14    1    4    4    0    0 -0.29565618972E+02  0.12136618566E+02  0.37457257257E+02  0.49238901862E+02  0.00000000000E+00 0.  1.
         -5    1    3    3    0  504  0.74060887519E+02 -0.17432292755E+02  0.34524104164E+02  0.83683353537E+02  0.47000000000E+01 0.  1.
<mgrwt>
<rscale>  2 0.18936142E+03</rscale>
<asrwt>0</asrwt>
<pdfrwt beam="1">  1       21 0.30056408E-01 0.18946549E+03</pdfrwt>
<pdfrwt beam="2">  1       21 0.37516336E-01 0.18946549E+03</pdfrwt>
<totfact> 0.72850269E+04</totfact>
</mgrwt>
</event>
<event>
12    1  0.1410528E-001  0.1951799E+03  0.7546771E-02  0.1154062E+00
         21   -1    0    0  502  503  0.00000000000E+00  0.00000000000E+00  0.13191311952E+03  0.13191311952E+03  0.00000000000E+00 0.  1.
         21   -1    0    0  503  504 -0.00000000000E+00 -0.00000000000E+00 -0.34602050393E+03  0.34602050393E+03  0.00000000000E+00 0. -1.
         -6    2    1    2    0  504 -0.51400958246E+02 -0.73068746184E+02 -0.20513084936E+03  0.28254744162E+03  0.17254938781E+03 0.  0.
        -24    2    3    3    0    0 -0.20852630222E+02  0.23672364292E+02 -0.12946781953E+03  0.15590216187E+03  0.80921905340E+02 0.  0.
          6    2    1    2  502    0  0.51400958246E+02  0.73068746184E+02 -0.89765350546E+01  0.19538618183E+03  0.17353409375E+03 0.  0.
         24    2    5    5    0    0  0.37447251614E+02  0.94788728541E+02  0.44010364076E+02  0.13625780420E+03  0.79006818357E+02 0.  0.
          2    1    6    6  501    0  0.48934982412E+02  0.19692671632E+02  0.13996245054E+02  0.54574066142E+02  0.00000000000E+00 0. -1.
         -1    1    6    6    0  501 -0.11487730798E+02  0.75096056909E+02  0.30014119022E+02  0.81683738056E+02  0.00000000000E+00 0.  1.
          5    1    5    5  502    0  0.13953706632E+02 -0.21719982357E+02 -0.52986899130E+02  0.59128377636E+02  0.47000000000E+01 0. -1.
         13    1    4    4    0    0 -0.41613582912E+02  0.32287107420E+02 -0.47557681235E+02  0.70963938960E+02  0.00000000000E+00 0. -1.
        -14    1    4    4    0    0  0.20760952690E+02 -0.86147431280E+01 -0.81910138296E+02  0.84938222911E+02  0.00000000000E+00 0.  1.
         -5    1    3    3    0  504 -0.30548328024E+02 -0.96741110476E+02 -0.75663029825E+02  0.12664527975E+03  0.47000000000E+01 0.  1.
<mgrwt>
<rscale>  2 0.19496076E+03</rscale>
<asrwt>0</asrwt>
<pdfrwt beam="1">  1       21 0.20294326E-01 0.19517987E+03</pdfrwt>
<pdfrwt beam="2">  1       21 0.53233923E-01 0.19517987E+03</pdfrwt>
<totfact> 0.74975927E+04</totfact>
</mgrwt>
</event>
<event>
12    1  0.1410528E-001  0.4453744E+03  0.7546771E-02  0.1029600E+00
         21   -1    0    0  502  503  0.00000000000E+00  0.00000000000E+00  0.24226433366E+03  0.24226433366E+03  0.00000000000E+00 0. -1.
         21   -1    0    0  503  504 -0.00000000000E+00 -0.00000000000E+00 -0.88687028589E+03  0.88687028589E+03  0.00000000000E+00 0.  1.
         -6    2    1    2    0  504  0.32606908569E+03  0.23771322806E+03 -0.48959306419E+03  0.65755496854E+03  0.17276730223E+03 0.  0.
        -24    2    3    3    0    0  0.12841505376E+03  0.34129737632E+02 -0.17761234385E+03  0.23581166537E+03  0.80035815804E+02 0.  0.
          6    2    1    2  502    0 -0.32606908569E+03 -0.23771322806E+03 -0.15501288804E+03  0.47157965100E+03  0.18849335358E+03 0.  0.
         24    2    5    5    0    0 -0.19638915920E+03 -0.23199935918E+03 -0.12412860703E+03  0.33806762740E+03  0.80556843924E+02 0.  0.
          2    1    6    6  501    0 -0.51168099959E+02 -0.11739390583E+03 -0.66535642007E+02  0.14431387749E+03  0.00000000000E+00 0. -1.
         -1    1    6    6    0  501 -0.14522105924E+03 -0.11460545335E+03 -0.57592965026E+02  0.19375374991E+03  0.00000000000E+00 0.  1.
          5    1    5    5  502    0 -0.12967992649E+03 -0.57138688813E+01 -0.30884281004E+02  0.13351202360E+03  0.47000000000E+01 0. -1.
         11    1    4    4    0    0  0.73678080775E+02  0.11962265217E+02 -0.37017876335E+02  0.83317936509E+02  0.00000000000E+00 0. -1.
        -12    1    4    4    0    0  0.54736972989E+02  0.22167472415E+02 -0.14059446751E+03  0.15249372886E+03  0.00000000000E+00 0.  1.
         -5    1    3    3    0  504  0.19765403192E+03  0.20358349043E+03 -0.31198072034E+03  0.42174330318E+03  0.47000000000E+01 0.  1.
<mgrwt>
<rscale>  2 0.44375957E+03</rscale>
<asrwt>0</asrwt>
<pdfrwt beam="1">  1       21 0.37271436E-01 0.44537442E+03</pdfrwt>
<pdfrwt beam="2">  1       21 0.13644158E+00 0.44537442E+03</pdfrwt>
<totfact> 0.22885689E+03</totfact>
</mgrwt>
</event>
<event>
12    1  0.1410528E-001  0.1923515E+03  0.7546771E-02  0.1156420E+00
         21   -1    0    0  502  503  0.00000000000E+00  0.00000000000E+00  0.21832455440E+03  0.21832455440E+03  0.00000000000E+00 0. -1.
         21   -1    0    0  503  504 -0.00000000000E+00 -0.00000000000E+00 -0.32296462010E+03  0.32296462010E+03  0.00000000000E+00 0. -1.
         -6    2    1    2    0  504 -0.70958217912E+02 -0.44763410968E+02 -0.23903381811E+03  0.30663883323E+03  0.17277550810E+03 0.  0.
        -24    2    3    3    0    0 -0.40028002239E+02  0.38832317055E+02 -0.14766897043E+03  0.17891041284E+03  0.84217701134E+02 0.  0.
          6    2    1    2  502    0  0.70958217912E+02  0.44763410968E+02  0.13439375240E+03  0.23465034126E+03  0.17309035305E+03 0.  0.
         24    2    5    5    0    0 -0.28357288308E+02  0.24139463321E+02  0.51573351665E+02  0.10361513313E+03  0.81788970657E+02 0.  0.
          4    1    6    6  501    0  0.60238716185E+01 -0.16429237023E+02  0.47104568715E+02  0.50249848281E+02  0.00000000000E+00 0. -1.
         -3    1    6    6    0  501 -0.34381159926E+02  0.40568700344E+02  0.44687829495E+01  0.53365284845E+02  0.00000000000E+00 0.  1.
          5    1    5    5  502    0  0.99315506220E+02  0.20623947647E+02  0.82820400738E+02  0.13103520813E+03  0.47000000000E+01 0. -1.
         11    1    4    4    0    0 -0.54050163230E+02  0.45014434090E+02 -0.14769100876E+03  0.16358592082E+03  0.00000000000E+00 0. -1.
        -12    1    4    4    0    0  0.14022160991E+02 -0.61821170344E+01  0.22038337380E-01  0.15324492017E+02  0.00000000000E+00 0.  1.
         -5    1    3    3    0  504 -0.30930215673E+02 -0.83595728023E+02 -0.91364847681E+02  0.12772842040E+03  0.47000000000E+01 0.  1.
<mgrwt>
<rscale>  2 0.19228065E+03</rscale>
<asrwt>0</asrwt>
<pdfrwt beam="1">  1       21 0.33588393E-01 0.19235151E+03</pdfrwt>
<pdfrwt beam="2">  1       21 0.49686864E-01 0.19235151E+03</pdfrwt>
<totfact> 0.32968061E+04</totfact>
</mgrwt>
</event>
<event>
12    1  0.1410528E-001  0.2230863E+03  0.7546771E-02  0.1131622E+00
         21   -1    0    0  502  503  0.00000000000E+00  0.00000000000E+00  0.41487833228E+02  0.41487833228E+02  0.00000000000E+00 0.  1.
         21   -1    0    0  503  504 -0.00000000000E+00 -0.00000000000E+00 -0.12557130352E+04  0.12557130352E+04  0.00000000000E+00 0.  1.
         -6    2    1    2    0  504  0.16642081673E+02 -0.13935788079E+03 -0.74507447033E+03  0.77775541048E+03  0.17340684641E+03 0.  0.
        -24    2    3    3    0    0 -0.44734893932E+02 -0.11430308186E+03 -0.41516794610E+03  0.44122119111E+03  0.85119391182E+02 0.  0.
          6    2    1    2  502    0 -0.16642081673E+02  0.13935788079E+03 -0.46915073166E+03  0.51944545796E+03  0.17327318592E+03 0.  0.
         24    2    5    5    0    0 -0.53676316497E+02  0.89589774758E+02 -0.42087750398E+03  0.44070034105E+03  0.78558529463E+02 0.  0.
          4    1    6    6  501    0 -0.24857916870E+02  0.39160456203E+02 -0.32724348582E+03  0.33051438149E+03  0.00000000000E+00 0. -1.
         -3    1    6    6    0  501 -0.28818399627E+02  0.50429318555E+02 -0.93634018156E+02  0.11018595955E+03  0.00000000000E+00 0.  1.
          5    1    5    5  502    0  0.37034234824E+02  0.49768106030E+02 -0.48273227686E+02  0.78745116916E+02  0.47000000000E+01 0. -1.
         11    1    4    4    0    0 -0.57273967303E+02 -0.63061188669E+02 -0.33182439483E+03  0.34258495275E+03  0.00000000000E+00 0. -1.
        -12    1    4    4    0    0  0.12539073371E+02 -0.51241893188E+02 -0.83343551267E+02  0.98636238352E+02  0.00000000000E+00 0.  1.
         -5    1    3    3    0  504  0.61376975604E+02 -0.25054798931E+02 -0.32990652423E+03  0.33653421938E+03  0.47000000000E+01 0.  1.
<mgrwt>
<rscale>  2 0.22306036E+03</rscale>
<asrwt>0</asrwt>
<pdfrwt beam="1">  1       21 0.63827437E-02 0.22308633E+03</pdfrwt>
<pdfrwt beam="2">  1       21 0.19318662E+00 0.22308633E+03</pdfrwt>
<totfact> 0.25812074E+04</totfact>
</mgrwt>
</event>
<event>
12    1  0.1410528E-001  0.2097754E+03  0.7546771E-02  0.1141859E+00
         21   -1    0    0  502  503  0.00000000000E+00  0.00000000000E+00  0.88135390874E+02  0.88135390874E+02  0.00000000000E+00 0. -1.
         21   -1    0    0  503  504 -0.00000000000E+00 -0.00000000000E+00 -0.69390928942E+03  0.69390928942E+03  0.00000000000E+00 0. -1.
         -6    2    1    2    0  504  0.19831736543E+02  0.11708972380E+03 -0.51039580168E+03  0.55160448069E+03  0.17222173950E+03 0.  0.
        -24    2    3    3    0    0  0.31902208324E+02  0.13641333124E+03 -0.50312555975E+03  0.52723145233E+03  0.72189525694E+02 0.  0.
          6    2    1    2  502    0 -0.19831736543E+02 -0.11708972380E+03 -0.95378096872E+02  0.23044019960E+03  0.17292311308E+03 0.  0.
         24    2    5    5    0    0 -0.50296700060E+02 -0.11913522012E+03 -0.24943140876E+02  0.15352809988E+03  0.78903475640E+02 0.  0.
          2    1    6    6  501    0 -0.14366807223E+02 -0.11434081527E+03 -0.18894616436E+02  0.11677856703E+03  0.00000000000E+00 0. -1.
         -1    1    6    6    0  501 -0.35929892837E+02 -0.47944048428E+01 -0.60485244402E+01  0.36749532854E+02  0.00000000000E+00 0.  1.
          5    1    5    5  502    0  0.30464963517E+02  0.20454963217E+01 -0.70434955995E+02  0.76912099720E+02  0.47000000000E+01 0. -1.
         13    1    4    4    0    0  0.12034612430E+02  0.89673088799E+02 -0.19524292630E+03  0.21518804572E+03  0.00000000000E+00 0. -1.
        -14    1    4    4    0    0  0.19867595894E+02  0.46740242442E+02 -0.30788263345E+03  0.31204340661E+03  0.00000000000E+00 0.  1.
         -5    1    3    3    0  504 -0.12070471781E+02 -0.19323607445E+02 -0.72702419282E+01  0.24373028359E+02  0.47000000000E+01 0.  1.
<mgrwt>
<rscale>  2 0.20963077E+03</rscale>
<asrwt>0</asrwt>
<pdfrwt beam="1">  1       21 0.13559291E-01 0.20977537E+03</pdfrwt>
<pdfrwt beam="2">  1       21 0.10675528E+00 0.20977537E+03</pdfrwt>
<totfact> 0.32758573E+04</totfact>
</mgrwt>
</event>
<event>
12    1  0.1410528E-001  0.1865183E+03  0.7546771E-02  0.1161740E+00
         21   -1    0    0  502  503  0.00000000000E+00  0.00000000000E+00  0.96891477424E+03  0.96891477424E+03  0.00000000000E+00 0.  1.
         21   -1    0    0  503  504 -0.00000000000E+00 -0.00000000000E+00 -0.45803463675E+02  0.45803463675E+02  0.00000000000E+00 0.  1.
         -6    2    1    2    0  504  0.53502885736E+02 -0.42485075326E+02  0.22512907266E+03  0.29235627187E+03  0.17355561051E+03 0.  0.
        -24    2    3    3    0    0  0.68945587513E+01 -0.88050453274E+02  0.14679556480E+03  0.19034270285E+03  0.82951729455E+02 0.  0.
          6    2    1    2  502    0 -0.53502885736E+02  0.42485075326E+02  0.69798223791E+03  0.72236196605E+03  0.17308976038E+03 0.  0.
         24    2    5    5    0    0 -0.20295887438E+02  0.48084383849E+01  0.64279887499E+03  0.64759882506E+03  0.75886760405E+02 0.  0.
          2    1    6    6  501    0  0.65573938382E+01 -0.29123348670E+02  0.38844225252E+03  0.38958766971E+03  0.00000000000E+00 0. -1.
         -1    1    6    6    0  501 -0.26853281276E+02  0.33931787055E+02  0.25435662248E+03  0.25801115535E+03  0.00000000000E+00 0.  1.
          5    1    5    5  502    0 -0.33206998298E+02  0.37676636941E+02  0.55183362918E+02  0.74763140986E+02  0.47000000000E+01 0. -1.
         13    1    4    4    0    0 -0.21512956283E+02  0.64701042534E+01  0.27885079795E+02  0.35808479614E+02  0.00000000000E+00 0. -1.
        -14    1    4    4    0    0  0.28407515035E+02 -0.94520557528E+02  0.11891048500E+03  0.15453422323E+03  0.00000000000E+00 0.  1.
         -5    1    3    3    0  504  0.46608326985E+02  0.45565377948E+02  0.78333507860E+02  0.10201356903E+03  0.47000000000E+01 0.  1.
<mgrwt>
<rscale>  2 0.18640989E+03</rscale>
<asrwt>0</asrwt>
<pdfrwt beam="1">  1       21 0.14906380E+00 0.18651834E+03</pdfrwt>
<pdfrwt beam="2">  1       21 0.70466874E-02 0.18651834E+03</pdfrwt>
<totfact> 0.45597865E+04</totfact>
</mgrwt>
</event>
<event>
12    1  0.1410528E-001  0.2574506E+03  0.7546771E-02  0.1108700E+00
         21   -1    0    0  502  503  0.00000000000E+00  0.00000000000E+00  0.35499669178E+03  0.35499669178E+03  0.00000000000E+00 0.  1.
         21   -1    0    0  503  504 -0.00000000000E+00 -0.00000000000E+00 -0.19191373392E+03  0.19191373392E+03  0.00000000000E+00 0.  1.
         -6    2    1    2    0  504  0.51739303352E+02  0.18309841483E+03  0.12690322318E+03  0.28702827574E+03  0.17343245947E+03 0.  0.
        -24    2    3    3    0    0  0.10259302660E+02  0.19257326249E+02  0.71228314445E+02  0.10902187634E+03  0.79600243948E+02 0.  0.
          6    2    1    2  502    0 -0.51739303352E+02 -0.18309841483E+03  0.36179734678E+02  0.25988214997E+03  0.17328523782E+03 0.  0.
         24    2    5    5    0    0  0.16746816173E+02 -0.15181665072E+03  0.56625259975E+02  0.18172201410E+03  0.80546378288E+02 0.  0.
          4    1    6    6  501    0  0.21340523064E+02 -0.54537372576E+01  0.22245552002E+02  0.31305363097E+02  0.00000000000E+00 0. -1.
         -3    1    6    6    0  501 -0.45937068917E+01 -0.14636291346E+03  0.34379707973E+02  0.15041665101E+03  0.00000000000E+00 0.  1.
          5    1    5    5  502    0 -0.68486119524E+02 -0.31281764112E+02 -0.20445525297E+02  0.78160135863E+02  0.47000000000E+01 0. -1.
         11    1    4    4    0    0 -0.22696944310E+02  0.36921110458E+02  0.49434589133E+02  0.65742667129E+02  0.00000000000E+00 0. -1.
        -12    1    4    4    0    0  0.32956246970E+02 -0.17663784209E+02  0.21793725312E+02  0.43279209211E+02  0.00000000000E+00 0.  1.
         -5    1    3    3    0  504  0.41480000691E+02  0.16384108858E+03  0.55674908732E+02  0.17800639940E+03  0.47000000000E+01 0.  1.
<mgrwt>
<rscale>  2 0.25742579E+03</rscale>
<asrwt>0</asrwt>
<pdfrwt beam="1">  1       21 0.54614876E-01 0.25745058E+03</pdfrwt>
<pdfrwt beam="2">  1       21 0.29525190E-01 0.25745058E+03</pdfrwt>
<totfact> 0.33733282E+04</totfact>
</mgrwt>
</event>
<event>
12    1  0.1410528E-001  0.1774795E+03  0.7546771E-02  0.1170371E+00
         21   -1    0    0  502  503  0.00000000000E+00  0.00000000000E+00  0.36688184713E+03  0.36688184713E+03  0.00000000000E+00 0. -1.
         21   -1    0    0  503  504 -0.00000000000E+00 -0.00000000000E+00 -0.10705534613E+03  0.10705534613E+03  0.00000000000E+00 0. -1.
         -6    2    1    2    0  504  0.40217080439E+02  0.58588900023E+00  0.24074177804E+02  0.17910481256E+03  0.17286182638E+03 0.  0.
        -24    2    3    3    0    0  0.60962321880E+02  0.58521167936E+02  0.21083199934E+02  0.11731567487E+03  0.78596020673E+02 0.  0.
          6    2    1    2  502    0 -0.40217080439E+02 -0.58588900023E+00  0.23575232319E+03  0.29483238070E+03  0.17242162856E+03 0.  0.
         24    2    5    5    0    0 -0.21139065647E+02  0.51366748327E+01  0.25370830773E+03  0.26760691899E+03  0.82294059048E+02 0.  0.
          2    1    6    6  501    0  0.89374236174E+01 -0.26106981471E+02  0.34641313297E+02  0.44288515547E+02  0.00000000000E+00 0. -1.
         -1    1    6    6    0  501 -0.30076489265E+02  0.31243656304E+02  0.21906699443E+03  0.22331840344E+03  0.00000000000E+00 0.  1.
          5    1    5    5  502    0 -0.19078014792E+02 -0.57225638329E+01 -0.17955984532E+02  0.27225461718E+02  0.47000000000E+01 0. -1.
         11    1    4    4    0    0  0.27066835417E+01  0.30254270355E+02 -0.23750207641E+02  0.38558000123E+02  0.00000000000E+00 0. -1.
        -12    1    4    4    0    0  0.58255638338E+02  0.28266897581E+02  0.44833407575E+02  0.78757674749E+02  0.00000000000E+00 0.  1.
         -5    1    3    3    0  504 -0.20745241441E+02 -0.57935278936E+02  0.29909778702E+01  0.61789137689E+02  0.47000000000E+01 0.  1.
<mgrwt>
<rscale>  2 0.17737221E+03</rscale>
<asrwt>0</asrwt>
<pdfrwt beam="1">  1       21 0.56443360E-01 0.17747949E+03</pdfrwt>
<pdfrwt beam="2">  1       21 0.16470053E-01 0.17747949E+03</pdfrwt>
<totfact> 0.98200535E+04</totfact>
</mgrwt>
</event>
<event>
12    1  0.1410528E-001  0.1923278E+03  0.7546771E-02  0.1156445E+00
         21   -1    0    0  502  503  0.00000000000E+00  0.00000000000E+00  0.11035466777E+03  0.11035466777E+03  0.00000000000E+00 0. -1.
         21   -1    0    0  503  504 -0.00000000000E+00 -0.00000000000E+00 -0.47367511576E+03  0.47367511576E+03  0.00000000000E+00 0.  1.
         -6    2    1    2    0  504  0.24627686396E+02  0.79713619470E+02 -0.33975051408E+03  0.39026315297E+03  0.17295702554E+03 0.  0.
        -24    2    3    3    0    0  0.33212646570E+02  0.13991664899E+02 -0.70763780569E+02  0.11319090669E+03  0.80658676769E+02 0.  0.
          6    2    1    2  502    0 -0.24627686396E+02 -0.79713619470E+02 -0.23569933915E+02  0.19376663057E+03  0.17328929935E+03 0.  0.
         24    2    5    5    0    0 -0.66503780387E+01  0.12700000484E+02 -0.47806345905E+02  0.96437526826E+02  0.82518072755E+02 0.  0.
          2    1    6    6  501    0 -0.95388008216E+01  0.14290926597E+02  0.21236029918E+02  0.27316446892E+02  0.00000000000E+00 0. -1.
         -1    1    6    6    0  501  0.28884227829E+01 -0.15909261132E+01 -0.69042375823E+02  0.69121079935E+02  0.00000000000E+00 0.  1.
          5    1    5    5  502    0 -0.17977308357E+02 -0.92413619954E+02  0.24236411989E+02  0.97329103740E+02  0.47000000000E+01 0. -1.
         11    1    4    4    0    0  0.37491479483E+02  0.37927361867E+02 -0.71094351466E+02  0.88873520367E+02  0.00000000000E+00 0. -1.
        -12    1    4    4    0    0 -0.42788329131E+01 -0.23935696968E+02  0.33057089796E+00  0.24317386323E+02  0.00000000000E+00 0.  1.
         -5    1    3    3    0  504 -0.85849601741E+01  0.65721954571E+02 -0.26898673351E+03  0.27707224628E+03  0.47000000000E+01 0.  1.
<mgrwt>
<rscale>  2 0.19225288E+03</rscale>
<asrwt>0</asrwt>
<pdfrwt beam="1">  1       21 0.16977641E-01 0.19232775E+03</pdfrwt>
<pdfrwt beam="2">  1       21 0.72873095E-01 0.19232775E+03</pdfrwt>
<totfact> 0.53021596E+04</totfact>
</mgrwt>
</event>
<event>
12    1  0.1410528E-001  0.3178009E+03  0.7546771E-02  0.1076701E+00
         21   -1    0    0  502  503  0.00000000000E+00  0.00000000000E+00  0.47605712245E+03  0.47605712245E+03  0.00000000000E+00 0.  1.
         21   -1    0    0  503  504 -0.00000000000E+00 -0.00000000000E+00 -0.21346643308E+03  0.21346643308E+03  0.00000000000E+00 0. -1.
         -6    2    1    2    0  504 -0.25828309012E+03  0.64136540995E+02  0.10233661551E+03  0.33387157166E+03  0.17370605331E+03 0.  0.
        -24    2    3    3    0    0 -0.43488153726E+02  0.45878409537E+02  0.29909629377E+02  0.10641172381E+03  0.80204869290E+02 0.  0.
          6    2    1    2  502    0  0.25828309012E+03 -0.64136540995E+02  0.16025407385E+03  0.35565198386E+03  0.17315690835E+03 0.  0.
         24    2    5    5    0    0  0.15844116834E+03  0.20879035737E+02  0.12136680261E+03  0.21879305103E+03  0.87183487231E+02 0.  0.
          2    1    6    6  501    0  0.42432534314E+02  0.38627716193E+02  0.12525991869E+02  0.58732622102E+02  0.00000000000E+00 0. -1.
         -1    1    6    6    0  501  0.11600863403E+03 -0.17748680456E+02  0.10884081074E+03  0.16006042893E+03  0.00000000000E+00 0.  1.
          5    1    5    5  502    0  0.99841921778E+02 -0.85015576732E+02  0.38887271243E+02  0.13685893283E+03  0.47000000000E+01 0. -1.
         11    1    4    4    0    0 -0.52780300552E+02  0.59012707700E+02  0.38649201360E+02  0.88102330061E+02  0.00000000000E+00 0. -1.
        -12    1    4    4    0    0  0.92921468268E+01 -0.13134298162E+02 -0.87395719827E+01  0.18309393745E+02  0.00000000000E+00 0.  1.
         -5    1    3    3    0  504 -0.21479493639E+03  0.18258131457E+02  0.72426986137E+02  0.22745984785E+03  0.47000000000E+01 0.  1.
<mgrwt>
<rscale>  2 0.31772597E+03</rscale>
<asrwt>0</asrwt>
<pdfrwt beam="1">  1       21 0.73239557E-01 0.31780095E+03</pdfrwt>
<pdfrwt beam="2">  1       21 0.32840990E-01 0.31780095E+03</pdfrwt>
<totfact> 0.14028624E+04</totfact>
</mgrwt>
</event>
<event>
12    1  0.1410528E-001  0.1893421E+03  0.7546771E-02  0.1159883E+00
         21   -1    0    0  502  503  0.00000000000E+00  0.00000000000E+00  0.29520420231E+03  0.29520420231E+03  0.00000000000E+00 0. -1.
         21   -1    0    0  503  504 -0.00000000000E+00 -0.00000000000E+00 -0.12309238959E+03  0.12309238959E+03  0.00000000000E+00 0. -1.
         -6    2    1    2    0  504  0.49949868636E+02 -0.47238772701E+02  0.49366898779E+02  0.19567196392E+03  0.17641977141E+03 0.  0.
        -24    2    3    3    0    0  0.67629118216E+02 -0.33224762664E+02  0.95394565038E+02  0.14419784999E+03  0.77558458073E+02 0.  0.
          6    2    1    2  502    0 -0.49949868636E+02  0.47238772701E+02  0.12274491394E+03  0.22262462798E+03  0.17253672091E+03 0.  0.
         24    2    5    5    0    0 -0.29160814671E+01  0.70618979435E+02  0.23077706117E+02  0.10986624241E+03  0.80885517329E+02 0.  0.
          4    1    6    6  501    0  0.21688216069E+01  0.80148943367E+02 -0.44433549771E+01  0.80301309538E+02  0.00000000000E+00 0. -1.
         -3    1    6    6    0  501 -0.50849030740E+01 -0.95299639327E+01  0.27521061094E+02  0.29564932869E+02  0.00000000000E+00 0.  1.
          5    1    5    5  502    0 -0.47033787169E+02 -0.23380206733E+02  0.99667207822E+02  0.11275838557E+03  0.47000000000E+01 0. -1.
         11    1    4    4    0    0  0.78694065007E+01 -0.39604873870E+02  0.13416335282E+02  0.42549637429E+02  0.00000000000E+00 0. -1.
        -12    1    4    4    0    0  0.59759711716E+02  0.63801112056E+01  0.81978229756E+02  0.10164821256E+03  0.00000000000E+00 0.  1.
         -5    1    3    3    0  504 -0.17679249580E+02 -0.14014010037E+02 -0.46027666259E+02  0.51474113924E+02  0.47000000000E+01 0.  1.
<mgrwt>
<rscale>  2 0.18843238E+03</rscale>
<asrwt>0</asrwt>
<pdfrwt beam="1">  1       21 0.45416031E-01 0.18934209E+03</pdfrwt>
<pdfrwt beam="2">  1       21 0.18937291E-01 0.18934209E+03</pdfrwt>
<totfact> 0.11896878E+05</totfact>
</mgrwt>
</event>
<event>
12    1  0.1410528E-001  0.2187989E+03  0.7546771E-02  0.1135515E+00
         21   -1    0    0  502  503  0.00000000000E+00  0.00000000000E+00  0.50363404193E+03  0.50363404193E+03  0.00000000000E+00 0.  1.
         21   -1    0    0  503  504 -0.00000000000E+00 -0.00000000000E+00 -0.99721833074E+02  0.99721833074E+02  0.00000000000E+00 0. -1.
         -6    2    1    2    0  504 -0.95921001810E+02 -0.82165611460E+02  0.12758026182E+03  0.25327787408E+03  0.17866429973E+03 0.  0.
        -24    2    3    3    0    0 -0.31401065572E+02  0.17186642014E+02  0.96801417780E+02  0.13079065155E+03  0.80338486832E+02 0.  0.
          6    2    1    2  502    0  0.95921001810E+02  0.82165611460E+02  0.27633194704E+03  0.35007800092E+03  0.17390582360E+03 0.  0.
         24    2    5    5    0    0  0.18119631646E+02  0.35193006042E+02  0.23314924726E+03  0.24934908541E+03  0.79053944714E+02 0.  0.
          4    1    6    6  501    0 -0.27897371849E+02  0.19159089357E+00  0.10708362804E+03  0.11065804741E+03  0.00000000000E+00 0. -1.
         -3    1    6    6    0  501  0.46017003495E+02  0.35001415149E+02  0.12606561922E+03  0.13869103800E+03  0.00000000000E+00 0.  1.
          5    1    5    5  502    0  0.77801370165E+02  0.46972605417E+02  0.43182699782E+02  0.10072891551E+03  0.47000000000E+01 0. -1.
         11    1    4    4    0    0  0.11300908465E+02  0.36966531089E+02  0.29305577657E+02  0.48508265633E+02  0.00000000000E+00 0. -1.
        -12    1    4    4    0    0 -0.42701974038E+02 -0.19779889076E+02  0.67495840124E+02  0.82282385919E+02  0.00000000000E+00 0.  1.
         -5    1    3    3    0  504 -0.64519936238E+02 -0.99352253473E+02  0.30778844036E+02  0.12248722253E+03  0.47000000000E+01 0.  1.
<mgrwt>
<rscale>  2 0.21782540E+03</rscale>
<asrwt>0</asrwt>
<pdfrwt beam="1">  1       21 0.77482159E-01 0.21879890E+03</pdfrwt>
<pdfrwt beam="2">  1       21 0.15341821E-01 0.21879890E+03</pdfrwt>
<totfact> 0.54964950E+04</totfact>
</mgrwt>
</event>
<event>
12    1  0.1410528E-001  0.1918290E+03  0.7546771E-02  0.1157110E+00
         21   -1    0    0  502  503  0.00000000000E+00  0.00000000000E+00  0.93586448041E+02  0.93586448041E+02  0.00000000000E+00 0. -1.
         21   -1    0    0  503  504 -0.00000000000E+00 -0.00000000000E+00 -0.58158626408E+03  0.58158626408E+03  0.00000000000E+00 0. -1.
         -6    2    1    2    0  504 -0.43803702177E+02  0.68965338500E+02 -0.43802334815E+03  0.47818700024E+03  0.17356085802E+03 0.  0.
        -24    2    3    3    0    0 -0.78059923540E+02  0.50709294864E+02 -0.41392739251E+03  0.43225795812E+03  0.82742201113E+02 0.  0.
          6    2    1    2  502    0  0.43803702177E+02 -0.68965338500E+02 -0.49976467888E+02  0.19698571188E+03  0.17213582167E+03 0.  0.
         24    2    5    5    0    0 -0.40351067384E+02 -0.30658285474E+02 -0.42858030431E+02  0.10412981436E+03  0.80237574489E+02 0.  0.
          2    1    6    6  501    0 -0.12699225423E+02  0.24720681763E+02 -0.30028127220E+02  0.40915411002E+02  0.00000000000E+00 0. -1.
         -1    1    6    6    0  501 -0.27651841961E+02 -0.55378967236E+02 -0.12829903211E+02  0.63214403362E+02  0.00000000000E+00 0.  1.
          5    1    5    5  502    0  0.84154769561E+02 -0.38307053027E+02 -0.71184374571E+01  0.92855897515E+02  0.47000000000E+01 0. -1.
         13    1    4    4    0    0 -0.49381397289E+02 -0.11201385698E+02 -0.24292076265E+03  0.24814207698E+03  0.00000000000E+00 0. -1.
        -14    1    4    4    0    0 -0.28678526252E+02  0.61910680561E+02 -0.17100662985E+03  0.18411588114E+03  0.00000000000E+00 0.  1.
         -5    1    3    3    0  504  0.34256221363E+02  0.18256043637E+02 -0.24095955639E+02  0.45929042114E+02  0.47000000000E+01 0.  1.
<mgrwt>
<rscale>  2 0.19150607E+03</rscale>
<asrwt>0</asrwt>
<pdfrwt beam="1">  1       21 0.14397915E-01 0.19182897E+03</pdfrwt>
<pdfrwt beam="2">  1       21 0.89474810E-01 0.19182897E+03</pdfrwt>
<totfact> 0.45024854E+04</totfact>
</mgrwt>
</event>
<event>
12    1  0.1410528E-001  0.2311369E+03  0.7546771E-02  0.1127945E+00
         21   -1    0    0  502  503  0.00000000000E+00  0.00000000000E+00  0.26099618117E+03  0.26099618117E+03  0.00000000000E+00 0.  1.
         21   -1    0    0  503  504 -0.00000000000E+00 -0.00000000000E+00 -0.23338209525E+03  0.23338209525E+03  0.00000000000E+00 0.  1.
         -6    2    1    2    0  504 -0.12748863566E+03 -0.45001632790E+02 -0.87404946716E+02  0.23620461211E+03  0.17284239901E+03 0.  0.
        -24    2    3    3    0    0 -0.98131619389E+01 -0.60252174881E+02 -0.18281403818E+02  0.98799188884E+02  0.75501306435E+02 0.  0.
          6    2    1    2  502    0  0.12748863566E+03  0.45001632790E+02  0.11501903264E+03  0.25817366431E+03  0.18747203498E+03 0.  0.
         24    2    5    5    0    0  0.13872231435E+03  0.82712396700E+02  0.62830557573E+02  0.19264486010E+03  0.84137637784E+02 0.  0.
          4    1    6    6  501    0  0.89832010047E+02  0.95957639804E+02  0.44295448649E+02  0.13870740945E+03  0.00000000000E+00 0. -1.
         -3    1    6    6    0  501  0.48890304301E+02 -0.13245243104E+02  0.18535108924E+02  0.53937450648E+02  0.00000000000E+00 0.  1.
          5    1    5    5  502    0 -0.11233678690E+02 -0.37710763910E+02  0.52188475065E+02  0.65528804210E+02  0.47000000000E+01 0. -1.
         13    1    4    4    0    0 -0.21937577774E+02 -0.73829723041E+02 -0.22248056983E+02  0.80168955104E+02  0.00000000000E+00 0. -1.
        -14    1    4    4    0    0  0.12124415835E+02  0.13577548160E+02  0.39666531651E+01  0.18630233780E+02  0.00000000000E+00 0.  1.
         -5    1    3    3    0  504 -0.11767547372E+03  0.15250542091E+02 -0.69123542898E+02  0.13740542323E+03  0.47000000000E+01 0.  1.
<mgrwt>
<rscale>  2 0.22815493E+03</rscale>
<asrwt>0</asrwt>
<pdfrwt beam="1">  1       21 0.40153259E-01 0.23113689E+03</pdfrwt>
<pdfrwt beam="2">  1       21 0.35904938E-01 0.23113689E+03</pdfrwt>
<totfact> 0.43895738E+04</totfact>
</mgrwt>
</event>
<event>
12    1  0.1410528E-001  0.2068052E+03  0.7546771E-02  0.1144431E+00
         21   -1    0    0  502  503  0.00000000000E+00  0.00000000000E+00  0.49461907356E+02  0.49461907356E+02  0.00000000000E+00 0. -1.
         21   -1    0    0  503  504 -0.00000000000E+00 -0.00000000000E+00 -0.85841203857E+03  0.85841203857E+03  0.00000000000E+00 0. -1.
         -6    2    1    2    0  504  0.10878492658E+03  0.30488864405E+02 -0.40802124895E+03  0.45675052530E+03  0.17139419961E+03 0.  0.
        -24    2    3    3    0    0  0.73602533950E+02  0.87065557779E+02 -0.28384225976E+03  0.31574969430E+03  0.78317920502E+02 0.  0.
          6    2    1    2  502    0 -0.10878492658E+03 -0.30488864405E+02 -0.40092888226E+03  0.45112342062E+03  0.17321847737E+03 0.  0.
         24    2    5    5    0    0  0.99782644302E+01 -0.60870037354E+01 -0.20558400360E+03  0.22116286322E+03  0.80694560881E+02 0.  0.
          4    1    6    6  501    0 -0.25140022719E+02  0.18163387817E+02 -0.13634171357E+03  0.13982486281E+03  0.00000000000E+00 0. -1.
         -3    1    6    6    0  501  0.35118287149E+02 -0.24250391552E+02 -0.69242290025E+02  0.81338000410E+02  0.00000000000E+00 0.  1.
          5    1    5    5  502    0 -0.11876319101E+03 -0.24401860670E+02 -0.19534487866E+03  0.22996055740E+03  0.47000000000E+01 0. -1.
         13    1    4    4    0    0  0.47859350540E+02  0.29211544998E+02 -0.21509629707E+03  0.22228416230E+03  0.00000000000E+00 0. -1.
        -14    1    4    4    0    0  0.25743183411E+02  0.57854012781E+02 -0.68745962692E+02  0.93465532007E+02  0.00000000000E+00 0.  1.
         -5    1    3    3    0  504  0.35182392633E+02 -0.56576693374E+02 -0.12417898919E+03  0.14100083099E+03  0.47000000000E+01 0.  1.
<mgrwt>
<rscale>  2 0.20642270E+03</rscale>
<asrwt>0</asrwt>
<pdfrwt beam="1">  1       21 0.76095249E-02 0.20680515E+03</pdfrwt>
<pdfrwt beam="2">  1       21 0.13206338E+00 0.20680515E+03</pdfrwt>
<totfact> 0.53968104E+04</totfact>
</mgrwt>
</event>
<event>
12    1  0.1410528E-001  0.1769802E+03  0.7546771E-02  0.1172408E+00
         21   -1    0    0  502  503  0.00000000000E+00  0.00000000000E+00  0.27884987343E+03  0.27884987343E+03  0.00000000000E+00 0.  1.
         21   -1    0    0  503  504 -0.00000000000E+00 -0.00000000000E+00 -0.56242185355E+03  0.56242185355E+03  0.00000000000E+00 0.  1.
         -6    2    1    2    0  504  0.83213696473E+01 -0.35958759562E+02 -0.52029494674E+03  0.54957148895E+03  0.17308874106E+03 0.  0.
        -24    2    3    3    0    0 -0.33298211996E+02 -0.29711857691E+02 -0.48717845145E+03  0.49581271646E+03  0.80596779337E+02 0.  0.
          6    2    1    2  502    0 -0.83213696473E+01  0.35958759562E+02  0.23672296662E+03  0.29170023802E+03  0.16640008521E+03 0.  0.
         24    2    5    5    0    0  0.17249411872E+02  0.45197419543E+02  0.54539020077E+02  0.10743874427E+03  0.78919136560E+02 0.  0.
          2    1    6    6  501    0 -0.85785243054E+01  0.23513910596E+02 -0.15684108877E+02  0.29537879782E+02  0.00000000000E+00 0. -1.
         -1    1    6    6    0  501  0.25827936177E+02  0.21683508947E+02  0.70223128953E+02  0.77900864485E+02  0.00000000000E+00 0.  1.
          5    1    5    5  502    0 -0.25570781519E+02 -0.92386599810E+01  0.18218394654E+03  0.18426149376E+03  0.47000000000E+01 0. -1.
         13    1    4    4    0    0 -0.37969274403E+01  0.88431495735E+01 -0.43697519636E+01  0.10569422150E+02  0.00000000000E+00 0. -1.
        -14    1    4    4    0    0 -0.29501284555E+02 -0.38555007264E+02 -0.48280869948E+03  0.48524329431E+03  0.00000000000E+00 0.  1.
         -5    1    3    3    0  504  0.41619581643E+02 -0.62469018712E+01 -0.33116495292E+02  0.53758772489E+02  0.47000000000E+01 0.  1.
<mgrwt>
<rscale>  2 0.17532310E+03</rscale>
<asrwt>0</asrwt>
<pdfrwt beam="1">  1       21 0.42899980E-01 0.17698020E+03</pdfrwt>
<pdfrwt beam="2">  1       21 0.86526439E-01 0.17698020E+03</pdfrwt>
<totfact> 0.60849021E+03</totfact>
</mgrwt>
</event>
<event>
12    1  0.1410528E-001  0.2698751E+03  0.7546771E-02  0.1101465E+00
         21   -1    0    0  502  503  0.00000000000E+00  0.00000000000E+00  0.87636980477E+03  0.87636980477E+03  0.00000000000E+00 0.  1.
         21   -1    0    0  503  504 -0.00000000000E+00 -0.00000000000E+00 -0.90317339048E+02  0.90317339048E+02  0.00000000000E+00 0.  1.
         -6    2    1    2    0  504 -0.78449063954E+02  0.19068476469E+03  0.25469371548E+03  0.37108149864E+03  0.17411965658E+03 0.  0.
        -24    2    3    3    0    0 -0.61123859181E+02  0.33748988961E+02  0.14288478444E+03  0.17755546038E+03  0.78960493095E+02 0.  0.
          6    2    1    2  502    0  0.78449063954E+02 -0.19068476469E+03  0.53135875025E+03  0.59560564518E+03  0.17288443535E+03 0.  0.
         24    2    5    5    0    0  0.11360899766E+03 -0.17866096589E+03  0.42116778580E+03  0.47922295178E+03  0.86287824411E+02 0.  0.
          4    1    6    6  501    0  0.51838536044E+02 -0.14230666736E+03  0.23332909155E+03  0.27817420146E+03  0.00000000000E+00 0. -1.
         -3    1    6    6    0  501  0.61770461618E+02 -0.36354298522E+02  0.18783869424E+03  0.20104875032E+03  0.00000000000E+00 0.  1.
          5    1    5    5  502    0 -0.35159933708E+02 -0.12023798803E+02  0.11019096445E+03  0.11638269340E+03  0.47000000000E+01 0. -1.
         11    1    4    4    0    0 -0.48700286857E+02  0.51110375142E+02  0.13893771633E+03  0.15584504293E+03  0.00000000000E+00 0. -1.
        -12    1    4    4    0    0 -0.12423572324E+02 -0.17361386182E+02  0.39470681177E+01  0.21710417457E+02  0.00000000000E+00 0.  1.
         -5    1    3    3    0  504 -0.17325204773E+02  0.15693577573E+03  0.11180893103E+03  0.19352603826E+03  0.47000000000E+01 0.  1.
<mgrwt>
<rscale>  2 0.26967609E+03</rscale>
<asrwt>0</asrwt>
<pdfrwt beam="1">  1       21 0.13482612E+00 0.26987514E+03</pdfrwt>
<pdfrwt beam="2">  1       21 0.13894976E-01 0.26987514E+03</pdfrwt>
<totfact> 0.16979107E+04</totfact>
</mgrwt>
</event>
<event>
12    1  0.1410528E-001  0.1803159E+03  0.7546771E-02  0.1172455E+00
         21   -1    0    0  502  503  0.00000000000E+00  0.00000000000E+00  0.37457729297E+03  0.37457729297E+03  0.00000000000E+00 0.  1.
         21   -1    0    0  503  504 -0.00000000000E+00 -0.00000000000E+00 -0.79554977712E+02  0.79554977712E+02  0.00000000000E+00 0.  1.
         -6    2    1    2    0  504  0.45629323555E+02 -0.23139956570E+02  0.10515895757E+03  0.19228896796E+03  0.15264058466E+03 0.  0.
        -24    2    3    3    0    0  0.84033295180E+02 -0.31227697883E+02  0.90550879817E+02  0.15014917048E+03  0.79426366828E+02 0.  0.
          6    2    1    2  502    0 -0.45629323555E+02  0.23139956570E+02  0.18986335770E+03  0.26184330272E+03  0.17290554597E+03 0.  0.
         24    2    5    5    0    0  0.23838421048E+02 -0.61634059794E+01  0.38585072095E+02  0.92752604305E+02  0.80672051700E+02 0.  0.
          4    1    6    6  501    0  0.38653937831E+02  0.99583579633E+00  0.56476548850E+02  0.68445008355E+02  0.00000000000E+00 0. -1.
         -3    1    6    6    0  501 -0.14815516784E+02 -0.71592417757E+01 -0.17891476755E+02  0.24307595950E+02  0.00000000000E+00 0.  1.
          5    1    5    5  502    0 -0.69467744602E+02  0.29303362549E+02  0.15127828560E+03  0.16909069842E+03  0.47000000000E+01 0. -1.
         13    1    4    4    0    0 -0.10605690533E+02  0.76775482622E+01 -0.61026723926E+00  0.13107167700E+02  0.00000000000E+00 0. -1.
        -14    1    4    4    0    0  0.94638985713E+02 -0.38905246145E+02  0.91161147056E+02  0.13704200278E+03  0.00000000000E+00 0.  1.
         -5    1    3    3    0  504 -0.38403971625E+02  0.80877413128E+01  0.14608077749E+02  0.42139797480E+02  0.47000000000E+01 0.  1.
<mgrwt>
<rscale>  2 0.17527616E+03</rscale>
<asrwt>0</asrwt>
<pdfrwt beam="1">  1       21 0.57627275E-01 0.18031589E+03</pdfrwt>
<pdfrwt beam="2">  1       21 0.12239228E-01 0.18031589E+03</pdfrwt>
<totfact> 0.16064739E+05</totfact>
</mgrwt>
</event>
<event>
12    1  0.1410528E-001  0.1764151E+03  0.7546771E-02  0.1171459E+00
         21   -1    0    0  502  503  0.00000000000E+00  0.00000000000E+00  0.40458676392E+03  0.40458676392E+03  0.00000000000E+00 0.  1.
         21   -1    0    0  503  504 -0.00000000000E+00 -0.00000000000E+00 -0.83237369445E+02  0.83237369445E+02  0.00000000000E+00 0.  1.
         -6    2    1    2    0  504  0.33698993764E+02 -0.45926090090E+01  0.92438125785E+02  0.19916603889E+03  0.17310571830E+03 0.  0.
        -24    2    3    3    0    0  0.70482563584E+02  0.91418732135E+00  0.84220555363E+01  0.10716524609E+03  0.80279707540E+02 0.  0.
          6    2    1    2  502    0 -0.33698993764E+02  0.45926090090E+01  0.22891126868E+03  0.28865809448E+03  0.17252945353E+03 0.  0.
         24    2    5    5    0    0 -0.10965781182E+02 -0.48187520459E+02  0.20690725448E+03  0.22694255622E+03  0.79057108356E+02 0.  0.
          4    1    6    6  501    0  0.28846563334E+02 -0.12762197102E+02  0.12726065619E+03  0.13111167951E+03  0.00000000000E+00 0. -1.
         -3    1    6    6    0  501 -0.39812344517E+02 -0.35425323357E+02  0.79646598293E+02  0.95830876708E+02  0.00000000000E+00 0.  1.
          5    1    5    5  502    0 -0.22733212582E+02  0.52780129468E+02  0.22004014202E+02  0.61715538254E+02  0.47000000000E+01 0. -1.
         11    1    4    4    0    0  0.25343223904E+02 -0.37269529418E+02 -0.80660090593E+01  0.45785994835E+02  0.00000000000E+00 0. -1.
        -12    1    4    4    0    0  0.45139339681E+02  0.38183716739E+02  0.16488064596E+02  0.61379251258E+02  0.00000000000E+00 0.  1.
         -5    1    3    3    0  504 -0.36783569820E+02 -0.55067963304E+01  0.84016070249E+02  0.92000792793E+02  0.47000000000E+01 0.  1.
<mgrwt>
<rscale>  2 0.17627362E+03</rscale>
<asrwt>0</asrwt>
<pdfrwt beam="1">  1       21 0.62244116E-01 0.17641515E+03</pdfrwt>
<pdfrwt beam="2">  1       21 0.12805749E-01 0.17641515E+03</pdfrwt>
<totfact> 0.12576451E+05</totfact>
</mgrwt>
</event>
<event>
12    1  0.1410528E-001  0.2125065E+03  0.7546771E-02  0.1139675E+00
         21   -1    0    0  502  503  0.00000000000E+00  0.00000000000E+00  0.34361543916E+03  0.34361543916E+03  0.00000000000E+00 0. -1.
         21   -1    0    0  503  504 -0.00000000000E+00 -0.00000000000E+00 -0.18666942466E+03  0.18666942466E+03  0.00000000000E+00 0.  1.
         -6    2    1    2    0  504 -0.10849523234E+03 -0.54351363773E+02 -0.66147265197E+02  0.22217835532E+03  0.17396112984E+03 0.  0.
        -24    2    3    3    0    0 -0.37933091589E+02  0.33841117967E+02 -0.49586116530E+02  0.10792735450E+03  0.81273551626E+02 0.  0.
          6    2    1    2  502    0  0.10849523234E+03  0.54351363773E+02  0.22309327969E+03  0.30810650850E+03  0.17445263813E+03 0.  0.
         24    2    5    5    0    0  0.11956010006E+02 -0.17508583070E+02  0.13697316150E+03  0.16004423050E+03  0.80018823335E+02 0.  0.
          4    1    6    6  501    0 -0.59630097380E+01  0.62944022399E+01  0.12887919879E+03  0.12917052630E+03  0.00000000000E+00 0. -1.
         -3    1    6    6    0  501  0.17919019744E+02 -0.23802985310E+02  0.80939627070E+01  0.30873704192E+02  0.00000000000E+00 0.  1.
          5    1    5    5  502    0  0.96539222335E+02  0.71859946842E+02  0.86120118196E+02  0.14806227800E+03  0.47000000000E+01 0. -1.
         11    1    4    4    0    0 -0.44747974198E+02  0.78456402524E+00  0.36392955840E+01  0.44902574625E+02  0.00000000000E+00 0. -1.
        -12    1    4    4    0    0  0.68148826092E+01  0.33056553942E+02 -0.53225412114E+02  0.63024779875E+02  0.00000000000E+00 0.  1.
         -5    1    3    3    0  504 -0.70562140752E+02 -0.88192481740E+02 -0.16561148667E+02  0.11425100082E+03  0.47000000000E+01 0.  1.
<mgrwt>
<rscale>  2 0.21240559E+03</rscale>
<asrwt>0</asrwt>
<pdfrwt beam="1">  1       21 0.52863914E-01 0.21250649E+03</pdfrwt>
<pdfrwt beam="2">  1       21 0.28718373E-01 0.21250649E+03</pdfrwt>
<totfact> 0.38938318E+04</totfact>
</mgrwt>
</event>
<event>
12    1  0.1410528E-001  0.2595181E+03  0.7546771E-02  0.1107648E+00
         21   -1    0    0  502  503  0.00000000000E+00  0.00000000000E+00  0.17430933120E+03  0.17430933120E+03  0.00000000000E+00 0.  1.
         21   -1    0    0  503  504 -0.00000000000E+00 -0.00000000000E+00 -0.38599360378E+03  0.38599360378E+03  0.00000000000E+00 0.  1.
         -6    2    1    2    0  504 -0.38828366220E+02 -0.18663355631E+03 -0.12429295165E+03  0.28646558772E+03  0.17399445036E+03 0.  0.
        -24    2    3    3    0    0  0.46339047175E+02 -0.98672997863E+02 -0.59600838388E+02  0.14790979512E+03  0.80258206775E+02 0.  0.
          6    2    1    2  502    0  0.38828366220E+02  0.18663355631E+03 -0.87391320936E+02  0.27383734726E+03  0.17609634696E+03 0.  0.
         24    2    5    5    0    0  0.91312392396E+02  0.13698960586E+03 -0.40173930160E+02  0.18740432803E+03  0.80014576067E+02 0.  0.
          4    1    6    6  501    0  0.43766152564E+02  0.34358102738E+02 -0.48740758730E+02  0.73970378501E+02  0.00000000000E+00 0. -1.
         -3    1    6    6    0  501  0.47546239832E+02  0.10263150312E+03  0.85668285705E+01  0.11343394953E+03  0.00000000000E+00 0.  1.
          5    1    5    5  502    0 -0.52484026176E+02  0.49643950451E+02 -0.47217390776E+02  0.86433019221E+02  0.47000000000E+01 0. -1.
         11    1    4    4    0    0  0.18504963974E+02 -0.72497311187E+02 -0.75710163565E+02  0.10644398850E+03  0.00000000000E+00 0. -1.
        -12    1    4    4    0    0  0.27834083200E+02 -0.26175686676E+02  0.16109325178E+02  0.41465806615E+02  0.00000000000E+00 0.  1.
         -5    1    3    3    0  504 -0.85167413394E+02 -0.87960558446E+02 -0.64692113264E+02  0.13855579261E+03  0.47000000000E+01 0.  1.
<mgrwt>
<rscale>  2 0.25916197E+03</rscale>
<asrwt>0</asrwt>
<pdfrwt beam="1">  1       21 0.26816820E-01 0.25951811E+03</pdfrwt>
<pdfrwt beam="2">  1       21 0.59383631E-01 0.25951811E+03</pdfrwt>
<totfact> 0.33974584E+04</totfact>
</mgrwt>
</event>
<event>
12    1  0.1410528E-001  0.2309996E+03  0.7546771E-02  0.1127901E+00
         21   -1    0    0  502  503  0.00000000000E+00  0.00000000000E+00  0.32166657907E+03  0.32166657907E+03  0.00000000000E+00 0.  1.
         21   -1    0    0  503  504 -0.00000000000E+00 -0.00000000000E+00 -0.17075551942E+03  0.17075551942E+03  0.00000000000E+00 0.  1.
         -6    2    1    2    0  504  0.14994881131E+03  0.35545951863E+02  0.10221470095E+02  0.23122564089E+03  0.17208328753E+03 0.  0.
        -24    2    3    3    0    0  0.12265347147E+03  0.80592292883E+02  0.38033109819E+02  0.17147795708E+03  0.80119788982E+02 0.  0.
          6    2    1    2  502    0 -0.14994881131E+03 -0.35545951863E+02  0.14068958956E+03  0.26119645761E+03  0.15710464076E+03 0.  0.
         24    2    5    5    0    0 -0.73224583045E+02 -0.41788272225E+02  0.14193864695E+03  0.18406524531E+03  0.81396165601E+02 0.  0.
          2    1    6    6  501    0 -0.24862933945E+02  0.11711745506E+02  0.92833038240E+02  0.96815822343E+02  0.00000000000E+00 0. -1.
         -1    1    6    6    0  501 -0.48361649100E+02 -0.53500017731E+02  0.49105608713E+02  0.87249422967E+02  0.00000000000E+00 0.  1.
          5    1    5    5  502    0 -0.76724228261E+02  0.62423203619E+01 -0.12490573929E+01  0.77131212295E+02  0.47000000000E+01 0. -1.
         13    1    4    4    0    0  0.16479715705E+02  0.51646808486E+02  0.27881978572E+02  0.60962107784E+02  0.00000000000E+00 0. -1.
        -14    1    4    4    0    0  0.10617375576E+03  0.28945484398E+02  0.10151131248E+02  0.11051584930E+03  0.00000000000E+00 0.  1.
         -5    1    3    3    0  504  0.27295339837E+02 -0.45046341020E+02 -0.27811639724E+02  0.59747683807E+02  0.47000000000E+01 0.  1.
<mgrwt>
<rscale>  2 0.22821688E+03</rscale>
<asrwt>0</asrwt>
<pdfrwt beam="1">  1       21 0.49487166E-01 0.23099961E+03</pdfrwt>
<pdfrwt beam="2">  1       21 0.26270080E-01 0.23099961E+03</pdfrwt>
<totfact> 0.52699663E+04</totfact>
</mgrwt>
</event>
<event>
12    1  0.1410528E-001  0.3071256E+03  0.7546771E-02  0.1081833E+00
         21   -1    0    0  502  503  0.00000000000E+00  0.00000000000E+00  0.24948900495E+03  0.24948900495E+03  0.00000000000E+00 0.  1.
         21   -1    0    0  503  504 -0.00000000000E+00 -0.00000000000E+00 -0.40087979642E+03  0.40087979642E+03  0.00000000000E+00 0. -1.
         -6    2    1    2    0  504 -0.22647581800E+03  0.11151324896E+03 -0.15487177658E+03  0.34322343148E+03  0.17346629616E+03 0.  0.
        -24    2    3    3    0    0 -0.22185417664E+03  0.10409942459E+03 -0.18040050169E+03  0.31583492720E+03  0.84565917103E+02 0.  0.
          6    2    1    2  502    0  0.22647581800E+03 -0.11151324896E+03  0.34809851168E+01  0.30714536989E+03  0.17492758546E+03 0.  0.
         24    2    5    5    0    0  0.16861974871E+03 -0.10084339836E+03  0.63128756577E+02  0.22323400531E+03  0.85124441679E+02 0.  0.
          2    1    6    6  501    0  0.15538491260E+03 -0.53026655793E+02  0.43245478954E+02  0.16978359385E+03  0.00000000000E+00 0. -1.
         -1    1    6    6    0  501  0.13234836105E+02 -0.47816742565E+02  0.19883277623E+02  0.53450411460E+02  0.00000000000E+00 0.  1.
          5    1    5    5  502    0  0.57856069295E+02 -0.10669850605E+02 -0.59647771461E+02  0.83911364584E+02  0.47000000000E+01 0. -1.
         11    1    4    4    0    0 -0.70102281725E+02  0.10219167427E+01 -0.81209937768E+02  0.10728666371E+03  0.00000000000E+00 0. -1.
        -12    1    4    4    0    0 -0.15175189491E+03  0.10307750785E+03 -0.99190563926E+02  0.20854826349E+03  0.00000000000E+00 0.  1.
         -5    1    3    3    0  504 -0.46216413636E+01  0.74138243711E+01  0.25528725116E+02  0.27388504281E+02  0.47000000000E+01 0.  1.
<mgrwt>
<rscale>  2 0.30691795E+03</rscale>
<asrwt>0</asrwt>
<pdfrwt beam="1">  1       21 0.38382924E-01 0.30712564E+03</pdfrwt>
<pdfrwt beam="2">  1       21 0.61673814E-01 0.30712564E+03</pdfrwt>
<totfact> 0.15070823E+04</totfact>
</mgrwt>
</event>
<event>
12    1  0.1410528E-001  0.2100797E+03  0.7546771E-02  0.1141634E+00
         21   -1    0    0  502  503  0.00000000000E+00  0.00000000000E+00  0.88626951342E+03  0.88626951342E+03  0.00000000000E+00 0.  1.
         21   -1    0    0  503  504 -0.00000000000E+00 -0.00000000000E+00 -0.18541558305E+03  0.18541558305E+03  0.00000000000E+00 0.  1.
         -6    2    1    2    0  504  0.63639434876E+02 -0.99239527712E+02 -0.10825690484E+03  0.23574621491E+03  0.17308454254E+03 0.  0.
        -24    2    3    3    0    0  0.10002932238E+03 -0.29845255144E+02 -0.60309847312E+02  0.14376361164E+03  0.78320455571E+02 0.  0.
          6    2    1    2  502    0 -0.63639434876E+02  0.99239527712E+02  0.80911083521E+03  0.83593888156E+03  0.17388216852E+03 0.  0.
         24    2    5    5    0    0 -0.79244061004E+02  0.81373448564E+02  0.35990392171E+03  0.38608152386E+03  0.81405472013E+02 0.  0.
          4    1    6    6  501    0 -0.76311560782E+02  0.21247582974E+02  0.19122118831E+03  0.20697936359E+03  0.00000000000E+00 0. -1.
         -3    1    6    6    0  501 -0.29325002219E+01  0.60125865590E+02  0.16868273340E+03  0.17910216028E+03  0.00000000000E+00 0.  1.
          5    1    5    5  502    0  0.15604626128E+02  0.17866079148E+02  0.44920691350E+03  0.44985735770E+03  0.47000000000E+01 0. -1.
         11    1    4    4    0    0  0.24523017413E+02  0.24563732274E+02 -0.38821752890E+01  0.34926016252E+02  0.00000000000E+00 0. -1.
        -12    1    4    4    0    0  0.75506304962E+02 -0.54408987418E+02 -0.56427672023E+02  0.10883759539E+03  0.00000000000E+00 0.  1.
         -5    1    3    3    0  504 -0.36389887499E+02 -0.69394272569E+02 -0.47947057528E+02  0.91982603264E+02  0.47000000000E+01 0.  1.
<mgrwt>
<rscale>  2 0.20991455E+03</rscale>
<asrwt>0</asrwt>
<pdfrwt beam="1">  1       21 0.13634915E+00 0.21007968E+03</pdfrwt>
<pdfrwt beam="2">  1       21 0.28525475E-01 0.21007968E+03</pdfrwt>
<totfact> 0.44371982E+03</totfact>
</mgrwt>
</event>
<event>
12    1  0.1410528E-001  0.2376189E+03  0.7546771E-02  0.1121402E+00
         21   -1    0    0  502  503  0.00000000000E+00  0.00000000000E+00  0.12742145391E+03  0.12742145391E+03  0.00000000000E+00 0.  1.
         21   -1    0    0  503  504 -0.00000000000E+00 -0.00000000000E+00 -0.60900591481E+03  0.60900591481E+03  0.00000000000E+00 0. -1.
         -6    2    1    2    0  504 -0.20808163957E+02 -0.16207309148E+03 -0.48504865508E+02  0.24244287809E+03  0.17240986193E+03 0.  0.
        -24    2    3    3    0    0 -0.13144157617E+02 -0.11075681325E+03  0.37680082048E+02  0.14173521905E+03  0.78925554638E+02 0.  0.
          6    2    1    2  502    0  0.20808163957E+02  0.16207309148E+03 -0.43307959539E+03  0.49398449063E+03  0.17251688142E+03 0.  0.
         24    2    5    5    0    0  0.19921878047E+02  0.84305210030E+01 -0.13150837040E+03  0.15549650162E+03  0.80104654179E+02 0.  0.
          2    1    6    6  501    0  0.16429241179E+02 -0.35714063872E+01 -0.13959834709E+03  0.14060715992E+03  0.00000000000E+00 0. -1.
         -1    1    6    6    0  501  0.34926368676E+01  0.12001927390E+02  0.80899766933E+01  0.14889341700E+02  0.00000000000E+00 0.  1.
          5    1    5    5  502    0  0.88628591067E+00  0.15364257047E+03 -0.30157122499E+03  0.33848798901E+03  0.47000000000E+01 0. -1.
         13    1    4    4    0    0  0.56457155621E+01  0.96752385419E+01 -0.54279677691E+01  0.12447778081E+02  0.00000000000E+00 0. -1.
        -14    1    4    4    0    0 -0.18789873179E+02 -0.12043205179E+03  0.43108049817E+02  0.12928744097E+03  0.00000000000E+00 0.  1.
         -5    1    3    3    0  504 -0.76640063406E+01 -0.51316278226E+02 -0.86184947555E+02  0.10070765904E+03  0.47000000000E+01 0.  1.
<mgrwt>
<rscale>  2 0.23759947E+03</rscale>
<asrwt>0</asrwt>
<pdfrwt beam="1">  1       21 0.19603301E-01 0.23761890E+03</pdfrwt>
<pdfrwt beam="2">  1       21 0.93693218E-01 0.23761890E+03</pdfrwt>
<totfact> 0.22354362E+04</totfact>
</mgrwt>
</event>
<event>
12    1  0.1410528E-001  0.1777063E+03  0.7546771E-02  0.1170172E+00
         21   -1    0    0  502  503  0.00000000000E+00  0.00000000000E+00  0.78147910410E+02  0.78147910410E+02  0.00000000000E+00 0. -1.
         21   -1    0    0  503  504 -0.00000000000E+00 -0.00000000000E+00 -0.42687685599E+03  0.42687685599E+03  0.00000000000E+00 0. -1.
         -6    2    1    2    0  504  0.20229400647E+01  0.40554155872E+02 -0.23446316992E+03  0.29419807227E+03  0.17300519018E+03 0.  0.
        -24    2    3    3    0    0 -0.51028874815E+02  0.15577573724E+02 -0.68218350949E+02  0.11785251787E+03  0.79930380301E+02 0.  0.
          6    2    1    2  502    0 -0.20229400647E+01 -0.40554155872E+02 -0.11426577566E+03  0.21082669414E+03  0.17246012765E+03 0.  0.
         24    2    5    5    0    0 -0.57933407449E+02 -0.38949537462E+02 -0.30872818819E+02  0.11030291380E+03  0.79625722497E+02 0.  0.
          4    1    6    6  501    0 -0.18009948784E+02  0.62852227101E+01  0.22677010276E+02  0.29632905270E+02  0.00000000000E+00 0. -1.
         -3    1    6    6    0  501 -0.39923458665E+02 -0.45234760172E+02 -0.53549829095E+02  0.80670008526E+02  0.00000000000E+00 0.  1.
          5    1    5    5  502    0  0.55910467384E+02 -0.16046184100E+01 -0.83392956839E+02  0.10052378034E+03  0.47000000000E+01 0. -1.
         13    1    4    4    0    0 -0.10394778074E+02  0.10601596328E+02 -0.74913809450E+02  0.76370963738E+02  0.00000000000E+00 0. -1.
        -14    1    4    4    0    0 -0.40634096741E+02  0.49759773965E+01  0.66954585009E+01  0.41481554136E+02  0.00000000000E+00 0.  1.
         -5    1    3    3    0  504  0.53051814880E+02  0.24976582147E+02 -0.16624481898E+03  0.17634555439E+03  0.47000000000E+01 0.  1.
<mgrwt>
<rscale>  2 0.17757350E+03</rscale>
<asrwt>0</asrwt>
<pdfrwt beam="1">  1       21 0.12022755E-01 0.17770630E+03</pdfrwt>
<pdfrwt beam="2">  1       21 0.65673363E-01 0.17770630E+03</pdfrwt>
<totfact> 0.12530277E+05</totfact>
</mgrwt>
</event>
<event>
12    1  0.1410528E-001  0.2112402E+03  0.7546771E-02  0.1140694E+00
         21   -1    0    0  502  503  0.00000000000E+00  0.00000000000E+00  0.40221809656E+03  0.40221809656E+03  0.00000000000E+00 0. -1.
         21   -1    0    0  503  504 -0.00000000000E+00 -0.00000000000E+00 -0.11070482740E+03  0.11070482740E+03  0.00000000000E+00 0.  1.
         -6    2    1    2    0  504 -0.59541439766E+02 -0.10514699586E+03  0.14027598739E+03  0.25312463915E+03  0.17260839064E+03 0.  0.
        -24    2    3    3    0    0  0.50801295121E+01 -0.52470010430E+02  0.10910757942E+02  0.99149756139E+02  0.83262955708E+02 0.  0.
          6    2    1    2  502    0  0.59541439766E+02  0.10514699586E+03  0.15123728178E+03  0.25979828480E+03  0.17326672964E+03 0.  0.
         24    2    5    5    0    0 -0.19298659477E+02  0.10353754595E+03  0.88967362668E+02  0.15921009264E+03  0.79625374715E+02 0.  0.
          4    1    6    6  501    0  0.17597297961E+01  0.83772587579E+02  0.98011186453E+02  0.12894625139E+03  0.00000000000E+00 0. -1.
         -3    1    6    6    0  501 -0.21058389273E+02  0.19764958370E+02 -0.90438237843E+01  0.30263841243E+02  0.00000000000E+00 0.  1.
          5    1    5    5  502    0  0.78840099243E+02  0.16094499143E+01  0.62269919108E+02  0.10058819217E+03  0.47000000000E+01 0. -1.
         13    1    4    4    0    0 -0.87834848728E+01 -0.36679528976E+02  0.45240131162E+02  0.58899973854E+02  0.00000000000E+00 0. -1.
        -14    1    4    4    0    0  0.13863614385E+02 -0.15790481455E+02 -0.34329373220E+02  0.40249782286E+02  0.00000000000E+00 0.  1.
         -5    1    3    3    0  504 -0.64621569278E+02 -0.52676985433E+02  0.12936522944E+03  0.15397488301E+03  0.47000000000E+01 0.  1.
<mgrwt>
<rscale>  2 0.21110518E+03</rscale>
<asrwt>0</asrwt>
<pdfrwt beam="1">  1       21 0.61879706E-01 0.21124023E+03</pdfrwt>
<pdfrwt beam="2">  1       21 0.17031512E-01 0.21124023E+03</pdfrwt>
<totfact> 0.74773979E+04</totfact>
</mgrwt>
</event>
<event>
12    1  0.1410528E-001  0.2179654E+03  0.7546771E-02  0.1136008E+00
         21   -1    0    0  502  503  0.00000000000E+00  0.00000000000E+00  0.21191559174E+03  0.21191559174E+03  0.00000000000E+00 0. -1.
         21   -1    0    0  503  504 -0.00000000000E+00 -0.00000000000E+00 -0.31619228751E+03  0.31619228751E+03  0.00000000000E+00 0. -1.
         -6    2    1    2    0  504 -0.36764526243E+02  0.12664036298E+03 -0.19678427669E+03  0.29132410276E+03  0.16957673594E+03 0.  0.
        -24    2    3    3    0    0  0.27200606530E+02  0.96747128406E+02 -0.17187989137E+03  0.21630769061E+03  0.84536619935E+02 0.  0.
          6    2    1    2  502    0  0.36764526243E+02 -0.12664036298E+03  0.92507580926E+02  0.23678377648E+03  0.17354968266E+03 0.  0.
         24    2    5    5    0    0  0.80605790232E+02 -0.10594530103E+03  0.10313753909E+03  0.18692970917E+03  0.81139780449E+02 0.  0.
          4    1    6    6  501    0  0.51675976299E+02 -0.51790244398E+02  0.10199472956E+03  0.12552115678E+03  0.00000000000E+00 0. -1.
         -3    1    6    6    0  501  0.28929813932E+02 -0.54155056629E+02  0.11428095291E+01  0.61408552387E+02  0.00000000000E+00 0.  1.
          5    1    5    5  502    0 -0.43841263989E+02 -0.20695061953E+02 -0.10629958163E+02  0.49854067316E+02  0.47000000000E+01 0. -1.
         13    1    4    4    0    0 -0.18759456906E+02  0.76428382912E+02 -0.12421662037E+03  0.14704755596E+03  0.00000000000E+00 0. -1.
        -14    1    4    4    0    0  0.45960063436E+02  0.20318745494E+02 -0.47663271001E+02  0.69260134651E+02  0.00000000000E+00 0.  1.
         -5    1    3    3    0  504 -0.63965132773E+02  0.29893234574E+02 -0.24904385323E+02  0.75016412152E+02  0.47000000000E+01 0.  1.
<mgrwt>
<rscale>  2 0.21717359E+03</rscale>
<asrwt>0</asrwt>
<pdfrwt beam="1">  1       21 0.32602399E-01 0.21796537E+03</pdfrwt>
<pdfrwt beam="2">  1       21 0.48644967E-01 0.21796537E+03</pdfrwt>
<totfact> 0.36057381E+04</totfact>
</mgrwt>
</event>
<event>
12    1  0.1410528E-001  0.1820205E+03  0.7546771E-02  0.1166012E+00
         21   -1    0    0  502  503  0.00000000000E+00  0.00000000000E+00  0.18168282768E+04  0.18168282768E+04  0.00000000000E+00 0.  1.
         21   -1    0    0  503  504 -0.00000000000E+00 -0.00000000000E+00 -0.21260211404E+02  0.21260211404E+02  0.00000000000E+00 0.  1.
         -6    2    1    2    0  504  0.45011966967E+02 -0.33320110342E+02  0.12466816819E+04  0.12598085057E+04  0.17252810804E+03 0.  0.
        -24    2    3    3    0    0  0.29031956514E+01 -0.54921411614E+02  0.39283863193E+03  0.40464196703E+03  0.79925845294E+02 0.  0.
          6    2    1    2  502    0 -0.45011966967E+02  0.33320110342E+02  0.54888638346E+03  0.57827998249E+03  0.17319113511E+03 0.  0.
         24    2    5    5    0    0  0.91901698623E+01  0.38262432947E+02  0.13183601858E+03  0.15766686449E+03  0.77004099668E+02 0.  0.
          4    1    6    6  501    0  0.23249076390E+02  0.57965655123E+01  0.31031288106E+01  0.24160900917E+02  0.00000000000E+00 0. -1.
         -3    1    6    6    0  501 -0.14058906527E+02  0.32465867435E+02  0.12873288976E+03  0.13350596357E+03  0.00000000000E+00 0.  1.
          5    1    5    5  502    0 -0.54202136829E+02 -0.49423226048E+01  0.41705036488E+03  0.42061311801E+03  0.47000000000E+01 0. -1.
         11    1    4    4    0    0  0.10524437956E+02  0.16734624456E+02  0.41221228432E+02  0.45716530089E+02  0.00000000000E+00 0. -1.
        -12    1    4    4    0    0 -0.76212423046E+01 -0.71656036070E+02  0.35161740350E+03  0.35892543694E+03  0.00000000000E+00 0.  1.
         -5    1    3    3    0  504  0.42108771316E+02  0.21601301272E+02  0.85384305000E+03  0.85516653867E+03  0.47000000000E+01 0.  1.
<mgrwt>
<rscale>  2 0.18186264E+03</rscale>
<asrwt>0</asrwt>
<pdfrwt beam="1">  1       21 0.27951192E+00 0.18202054E+03</pdfrwt>
<pdfrwt beam="2">  1       21 0.32708032E-02 0.18202054E+03</pdfrwt>
<totfact> 0.24804844E+04</totfact>
</mgrwt>
</event>
<event>
12    1  0.1410528E-001  0.2467685E+03  0.7546771E-02  0.1115619E+00
         21   -1    0    0  502  503  0.00000000000E+00  0.00000000000E+00  0.26228649322E+03  0.26228649322E+03  0.00000000000E+00 0. -1.
         21   -1    0    0  503  504 -0.00000000000E+00 -0.00000000000E+00 -0.28063515959E+03  0.28063515959E+03  0.00000000000E+00 0. -1.
         -6    2    1    2    0  504 -0.33495158884E+02  0.17187890069E+03 -0.12367624568E+03  0.27461478184E+03  0.17161929521E+03 0.  0.
        -24    2    3    3    0    0 -0.82159784304E+02  0.14051344107E+03 -0.68661556107E+02  0.19461013264E+03  0.81636004075E+02 0.  0.
          6    2    1    2  502    0  0.33495158884E+02 -0.17187890069E+03  0.10532757932E+03  0.26830687097E+03  0.17386890428E+03 0.  0.
         24    2    5    5    0    0  0.53592148150E+02 -0.27039459928E+02  0.49306333488E+02  0.11164538061E+03  0.80189311964E+02 0.  0.
          4    1    6    6  501    0  0.57262567991E+02 -0.49063065067E+02  0.47771452329E+02  0.89265321959E+02  0.00000000000E+00 0. -1.
         -3    1    6    6    0  501 -0.36704198412E+01  0.22023605139E+02  0.15348811588E+01  0.22380058653E+02  0.00000000000E+00 0.  1.
          5    1    5    5  502    0 -0.20096989266E+02 -0.14483944076E+03  0.56021245832E+02  0.15666149036E+03  0.47000000000E+01 0. -1.
         11    1    4    4    0    0 -0.30155695632E+01  0.85848370432E+02 -0.33196820655E+02  0.92092699316E+02  0.00000000000E+00 0. -1.
        -12    1    4    4    0    0 -0.79144214740E+02  0.54665070634E+02 -0.35464735452E+02  0.10251743332E+03  0.00000000000E+00 0.  1.
         -5    1    3    3    0  504  0.48664625419E+02  0.31365459620E+02 -0.55014689577E+02  0.80004649200E+02  0.47000000000E+01 0.  1.
<mgrwt>
<rscale>  2 0.24637256E+03</rscale>
<asrwt>0</asrwt>
<pdfrwt beam="1">  1       21 0.40351768E-01 0.24676847E+03</pdfrwt>
<pdfrwt beam="2">  1       21 0.43174640E-01 0.24676847E+03</pdfrwt>
<totfact> 0.29702284E+04</totfact>
</mgrwt>
</event>
<event>
12    1  0.1410528E-001  0.1913133E+03  0.7546771E-02  0.1157398E+00
         21   -1    0    0  502  503  0.00000000000E+00  0.00000000000E+00  0.39896913190E+02  0.39896913190E+02  0.00000000000E+00 0.  1.
         21   -1    0    0  503  504 -0.00000000000E+00 -0.00000000000E+00 -0.10447306202E+04  0.10447306202E+04  0.00000000000E+00 0.  1.
         -6    2    1    2    0  504  0.69288507843E+02 -0.38632441935E+02 -0.69418629712E+03  0.72006625203E+03  0.17409029069E+03 0.  0.
        -24    2    3    3    0    0  0.11396772577E+03 -0.43059809702E+02 -0.54866618214E+03  0.56770474782E+03  0.80070665982E+02 0.  0.
          6    2    1    2  502    0 -0.69288507843E+02  0.38632441935E+02 -0.31064740992E+03  0.36456128139E+03  0.17352161741E+03 0.  0.
         24    2    5    5    0    0 -0.68156993414E+02  0.24979776596E+02 -0.32592403118E+03  0.34351037279E+03  0.80644510799E+02 0.  0.
          2    1    6    6  501    0 -0.33750991070E+02 -0.28090340574E+02 -0.10775715865E+03  0.11636065431E+03  0.00000000000E+00 0. -1.
         -1    1    6    6    0  501 -0.34406002345E+02  0.53070117170E+02 -0.21816687253E+03  0.22714971847E+03  0.00000000000E+00 0.  1.
          5    1    5    5  502    0 -0.11315144286E+01  0.13652665340E+02  0.15276621261E+02  0.21050908601E+02  0.47000000000E+01 0. -1.
         13    1    4    4    0    0 -0.54820330476E+01 -0.81159904524E+01 -0.14399647526E+03  0.14432916155E+03  0.00000000000E+00 0. -1.
        -14    1    4    4    0    0  0.11944975882E+03 -0.34943819250E+02 -0.40466970688E+03  0.42337558627E+03  0.00000000000E+00 0.  1.
         -5    1    3    3    0  504 -0.44679217925E+02  0.44273677670E+01 -0.14552011498E+03  0.15236150421E+03  0.47000000000E+01 0.  1.
<mgrwt>
<rscale>  2 0.19118387E+03</rscale>
<asrwt>0</asrwt>
<pdfrwt beam="1">  1       21 0.61379868E-02 0.19131334E+03</pdfrwt>
<pdfrwt beam="2">  1       21 0.16072778E+00 0.19131334E+03</pdfrwt>
<totfact> 0.47190161E+04</totfact>
</mgrwt>
</event>
<event>
12    1  0.1410528E-001  0.2107280E+03  0.7546771E-02  0.1141936E+00
         21   -1    0    0  502  503  0.00000000000E+00  0.00000000000E+00  0.88008087762E+02  0.88008087762E+02  0.00000000000E+00 0. -1.
         21   -1    0    0  503  504 -0.00000000000E+00 -0.00000000000E+00 -0.49772740075E+03  0.49772740075E+03  0.00000000000E+00 0.  1.
         -6    2    1    2    0  504 -0.30301892504E+02  0.11732298795E+03 -0.17951617715E+03  0.27682547235E+03  0.17240474498E+03 0.  0.
        -24    2    3    3    0    0 -0.62899777795E+02  0.26905467044E+02 -0.13494150774E+03  0.17077387469E+03  0.79209971370E+02 0.  0.
          6    2    1    2  502    0  0.30301892504E+02 -0.11732298795E+03 -0.23020313583E+03  0.30891001616E+03  0.16658038943E+03 0.  0.
         24    2    5    5    0    0  0.33140854679E+02 -0.91004265565E+02 -0.24687976036E+03  0.27727246474E+03  0.80933991774E+02 0.  0.
          4    1    6    6  501    0 -0.71630519948E+01 -0.73287069319E+02 -0.19920294023E+03  0.21237729454E+03  0.00000000000E+00 0. -1.
         -3    1    6    6    0  501  0.40303906674E+02 -0.17717196246E+02 -0.47676820138E+02  0.64895170194E+02  0.00000000000E+00 0.  1.
          5    1    5    5  502    0 -0.28389621745E+01 -0.26318722386E+02  0.16676624529E+02  0.31637551421E+02  0.47000000000E+01 0. -1.
         13    1    4    4    0    0  0.27685602409E+00  0.13122107378E+02  0.69437159670E+01  0.14848620904E+02  0.00000000000E+00 0. -1.
        -14    1    4    4    0    0 -0.63176633819E+02  0.13783359666E+02 -0.14188522370E+03  0.15592525379E+03  0.00000000000E+00 0.  1.
         -5    1    3    3    0  504  0.32597885291E+02  0.90417520907E+02 -0.44574669417E+02  0.10605159766E+03  0.47000000000E+01 0.  1.
<mgrwt>
<rscale>  2 0.20953339E+03</rscale>
<asrwt>0</asrwt>
<pdfrwt beam="1">  1       21 0.13539706E-01 0.21072799E+03</pdfrwt>
<pdfrwt beam="2">  1       21 0.76573445E-01 0.21072799E+03</pdfrwt>
<totfact> 0.71109613E+04</totfact>
</mgrwt>
</event>
<event>
12    1  0.1410528E-001  0.4107269E+03  0.7546771E-02  0.1040175E+00
         21   -1    0    0  502  503  0.00000000000E+00  0.00000000000E+00  0.55596512683E+03  0.55596512683E+03  0.00000000000E+00 0. -1.
         21   -1    0    0  503  504 -0.00000000000E+00 -0.00000000000E+00 -0.38384199832E+03  0.38384199832E+03  0.00000000000E+00 0. -1.
         -6    2    1    2    0  504  0.34746871128E+03 -0.13352457138E+03 -0.12962438350E+03  0.43015217664E+03  0.17223558804E+03 0.  0.
        -24    2    3    3    0    0  0.28167031463E+03 -0.16615226692E+03 -0.11123727006E+03  0.35429592140E+03  0.78785326831E+02 0.  0.
          6    2    1    2  502    0 -0.34746871128E+03  0.13352457138E+03  0.30174751201E+03  0.50965494852E+03  0.17358942670E+03 0.  0.
         24    2    5    5    0    0 -0.14896884708E+03  0.86150247693E+02  0.74422654484E+02  0.20413047571E+03  0.80727548194E+02 0.  0.
          4    1    6    6  501    0 -0.13473370902E+03  0.67009509900E+02  0.29607726516E+02  0.15336252551E+03  0.00000000000E+00 0. -1.
         -3    1    6    6    0  501 -0.14235138063E+02  0.19140737793E+02  0.44814927968E+02  0.50767950202E+02  0.00000000000E+00 0.  1.
          5    1    5    5  502    0 -0.19849986420E+03  0.47374323691E+02  0.22732485752E+03  0.30552447280E+03  0.47000000000E+01 0. -1.
         13    1    4    4    0    0  0.10941962850E+03 -0.91041392164E+02 -0.14882145398E+02  0.14311767340E+03  0.00000000000E+00 0. -1.
        -14    1    4    4    0    0  0.17225068613E+03 -0.75110874759E+02 -0.96355124665E+02  0.21117824800E+03  0.00000000000E+00 0.  1.
         -5    1    3    3    0  504  0.65798396649E+02  0.32627695540E+02 -0.18387113440E+02  0.75856255236E+02  0.47000000000E+01 0.  1.
<mgrwt>
<rscale>  2 0.41058426E+03</rscale>
<asrwt>0</asrwt>
<pdfrwt beam="1">  1       21 0.85533096E-01 0.41072692E+03</pdfrwt>
<pdfrwt beam="2">  1       21 0.59052615E-01 0.41072692E+03</pdfrwt>
<totfact> 0.27929282E+03</totfact>
</mgrwt>
</event>
<event>
12    1  0.1410528E-001  0.1864316E+03  0.7546771E-02  0.1162170E+00
         21   -1    0    0  502  503  0.00000000000E+00  0.00000000000E+00  0.37936742677E+03  0.37936742677E+03  0.00000000000E+00 0.  1.
         21   -1    0    0  503  504 -0.00000000000E+00 -0.00000000000E+00 -0.18677451833E+03  0.18677451833E+03  0.00000000000E+00 0.  1.
         -6    2    1    2    0  504 -0.67976987192E+02  0.26932390340E+01 -0.10651231244E+03  0.21471288376E+03  0.17357599323E+03 0.  0.
        -24    2    3    3    0    0  0.31692804658E+01  0.48464805392E+02 -0.31310337013E+02  0.10142451367E+03  0.83352942774E+02 0.  0.
          6    2    1    2  502    0  0.67976987192E+02 -0.26932390340E+01  0.29910522089E+03  0.35142906134E+03  0.17149439545E+03 0.  0.
         24    2    5    5    0    0  0.38096050761E+02  0.64262556999E+02  0.17938610947E+03  0.21096303477E+03  0.82128195228E+02 0.  0.
          4    1    6    6  501    0 -0.25007285442E+02  0.16982333109E+02  0.33434927724E+02  0.45073921006E+02  0.00000000000E+00 0. -1.
         -3    1    6    6    0  501  0.63103336202E+02  0.47280223891E+02  0.14595118175E+03  0.16588911376E+03  0.00000000000E+00 0.  1.
          5    1    5    5  502    0  0.29880936431E+02 -0.66955796033E+02  0.11971911141E+03  0.14046602658E+03  0.47000000000E+01 0. -1.
         11    1    4    4    0    0  0.38272861838E+02  0.26374692751E+02 -0.37198551811E+02  0.59532920539E+02  0.00000000000E+00 0. -1.
        -12    1    4    4    0    0 -0.35103581373E+02  0.22090112640E+02  0.58882147975E+01  0.41891593132E+02  0.00000000000E+00 0.  1.
         -5    1    3    3    0  504 -0.71146267658E+02 -0.45771566358E+02 -0.75201975427E+02  0.11328837009E+03  0.47000000000E+01 0.  1.
<mgrwt>
<rscale>  2 0.18594560E+03</rscale>
<asrwt>0</asrwt>
<pdfrwt beam="1">  1       21 0.58364219E-01 0.18643162E+03</pdfrwt>
<pdfrwt beam="2">  1       21 0.28734541E-01 0.18643162E+03</pdfrwt>
<totfact> 0.31962692E+04</totfact>
</mgrwt>
</event>
<event>
12    1  0.1410528E-001  0.1808638E+03  0.7546771E-02  0.1167231E+00
         21   -1    0    0  502  503  0.00000000000E+00  0.00000000000E+00  0.15939325085E+03  0.15939325085E+03  0.00000000000E+00 0.  1.
         21   -1    0    0  503  504 -0.00000000000E+00 -0.00000000000E+00 -0.21718001415E+03  0.21718001415E+03  0.00000000000E+00 0.  1.
         -6    2    1    2    0  504  0.53587087764E+02  0.13577368798E+02 -0.75359942299E+02  0.19593574836E+03  0.17220852378E+03 0.  0.
        -24    2    3    3    0    0  0.99867276609E+02  0.98804389006E+01 -0.75069937365E+02  0.14926994425E+03  0.81085909684E+02 0.  0.
          6    2    1    2  502    0 -0.53587087764E+02 -0.13577368798E+02  0.17573178998E+02  0.18063751664E+03  0.17107067218E+03 0.  0.
         24    2    5    5    0    0 -0.53990326139E+01  0.37249559861E+02  0.50671848132E+02  0.10302902977E+03  0.81428898553E+02 0.  0.
          4    1    6    6  501    0 -0.39900404808E+02  0.29386493299E+02  0.45485948390E+02  0.67264996790E+02  0.00000000000E+00 0. -1.
         -3    1    6    6    0  501  0.34501372194E+02  0.78630665623E+01  0.51858997417E+01  0.35764032982E+02  0.00000000000E+00 0.  1.
          5    1    5    5  502    0 -0.48188055150E+02 -0.50826928659E+02 -0.33098669133E+02  0.77608486871E+02  0.47000000000E+01 0. -1.
         11    1    4    4    0    0  0.92524823730E+02 -0.22120129487E+02 -0.47170034889E+02  0.10618453431E+03  0.00000000000E+00 0. -1.
        -12    1    4    4    0    0  0.73424528791E+01  0.32000568387E+02 -0.27899902476E+02  0.43085409938E+02  0.00000000000E+00 0.  1.
         -5    1    3    3    0  504 -0.46280188846E+02  0.36969298970E+01 -0.29000493489E+00  0.46665804109E+02  0.47000000000E+01 0.  1.
<mgrwt>
<rscale>  2 0.18059238E+03</rscale>
<asrwt>0</asrwt>
<pdfrwt beam="1">  1       21 0.24522039E-01 0.18086375E+03</pdfrwt>
<pdfrwt beam="2">  1       21 0.33412310E-01 0.18086375E+03</pdfrwt>
<totfact> 0.13610130E+05</totfact>
</mgrwt>
</event>
<event>
12    1  0.1410528E-001  0.2022942E+03  0.7546771E-02  0.1148707E+00
         21   -1    0    0  502  503  0.00000000000E+00  0.00000000000E+00  0.35955298023E+03  0.35955298023E+03  0.00000000000E+00 0.  1.
         21   -1    0    0  503  504 -0.00000000000E+00 -0.00000000000E+00 -0.16956494602E+03  0.16956494602E+03  0.00000000000E+00 0. -1.
         -6    2    1    2    0  504  0.26938333709E+02  0.93386351056E+02 -0.59223628493E+02  0.21078510752E+03  0.17741544182E+03 0.  0.
        -24    2    3    3    0    0 -0.16513760560E+01  0.95087445665E+02  0.21232719073E+02  0.12525394893E+03  0.78697992326E+02 0.  0.
          6    2    1    2  502    0 -0.26938333709E+02 -0.93386351056E+02  0.24921166271E+03  0.31833281873E+03  0.17257649394E+03 0.  0.
         24    2    5    5    0    0 -0.50625621748E+02 -0.12766031513E+03  0.22228413362E+03  0.26850336909E+03  0.61836182916E+02 0.  0.
          2    1    6    6  501    0 -0.24112456239E+02 -0.39419881736E+02  0.29473324299E+02  0.54808890403E+02  0.00000000000E+00 0. -1.
         -1    1    6    6    0  501 -0.26513165509E+02 -0.88240433396E+02  0.19281080932E+03  0.21369447869E+03  0.00000000000E+00 0.  1.
          5    1    5    5  502    0  0.23687288039E+02  0.34273964076E+02  0.26927529091E+02  0.49829449637E+02  0.47000000000E+01 0. -1.
         13    1    4    4    0    0 -0.11135453882E+02  0.87676689925E+02 -0.12664063804E+02  0.89283698408E+02  0.00000000000E+00 0. -1.
        -14    1    4    4    0    0  0.94840778265E+01  0.74107557403E+01  0.33896782877E+02  0.35970250517E+02  0.00000000000E+00 0.  1.
         -5    1    3    3    0  504  0.28589709765E+02 -0.17010946095E+01 -0.80456347567E+02  0.85531158598E+02  0.47000000000E+01 0.  1.
<mgrwt>
<rscale>  2 0.20122821E+03</rscale>
<asrwt>0</asrwt>
<pdfrwt beam="1">  1       21 0.55315843E-01 0.20229415E+03</pdfrwt>
<pdfrwt beam="2">  1       21 0.26086915E-01 0.20229415E+03</pdfrwt>
<totfact> 0.42815506E+04</totfact>
</mgrwt>
</event>
<event>
12    1  0.1410528E-001  0.1984423E+03  0.7546771E-02  0.1152309E+00
         21   -1    0    0  502  503  0.00000000000E+00  0.00000000000E+00  0.33281898574E+04  0.33281898574E+04  0.00000000000E+00 0.  1.
         21   -1    0    0  503  504 -0.00000000000E+00 -0.00000000000E+00 -0.12129756245E+02  0.12129756245E+02  0.00000000000E+00 0. -1.
         -6    2    1    2    0  504  0.78090181261E+02 -0.55019934924E+02  0.12978401162E+04  0.13129235759E+04  0.17393699848E+03 0.  0.
        -24    2    3    3    0    0  0.11230518164E+03 -0.72183040563E+01  0.98409926403E+03  0.99368843616E+03  0.79377509085E+02 0.  0.
          6    2    1    2  502    0 -0.78090181261E+02  0.55019934924E+02  0.20182199849E+04  0.20273960377E+04  0.16732458371E+03 0.  0.
         24    2    5    5    0    0 -0.70208117042E+02 -0.79673867952E+01  0.16898314090E+04  0.16928954002E+04  0.73293835820E+02 0.  0.
          4    1    6    6  501    0 -0.81166788407E+02 -0.38508999549E+01  0.11200350323E+04  0.11229787846E+04  0.00000000000E+00 0. -1.
         -3    1    6    6    0  501  0.10958671365E+02 -0.41164868403E+01  0.56979637666E+03  0.56991661566E+03  0.00000000000E+00 0.  1.
          5    1    5    5  502    0 -0.78820642194E+01  0.62987321719E+02  0.32838857596E+03  0.33450063745E+03  0.47000000000E+01 0. -1.
         13    1    4    4    0    0  0.30035449806E+02  0.16253524085E+02  0.10451018967E+03  0.10994855631E+03  0.00000000000E+00 0. -1.
        -14    1    4    4    0    0  0.82269731830E+02 -0.23471828141E+02  0.87958907436E+03  0.88373987985E+03  0.00000000000E+00 0.  1.
         -5    1    3    3    0  504 -0.34215000374E+02 -0.47801630867E+02  0.31374085215E+03  0.31923513978E+03  0.47000000000E+01 0.  1.
<mgrwt>
<rscale>  2 0.19698392E+03</rscale>
<asrwt>0</asrwt>
<pdfrwt beam="1">  1       21 0.51202848E+00 0.19844231E+03</pdfrwt>
<pdfrwt beam="2">  1       21 0.18661190E-02 0.19844231E+03</pdfrwt>
<totfact> 0.21242132E+03</totfact>
</mgrwt>
</event>
<event>
12    1  0.1410528E-001  0.1779615E+03  0.7546771E-02  0.1170453E+00
         21   -1    0    0  502  503  0.00000000000E+00  0.00000000000E+00  0.34842662140E+03  0.34842662140E+03  0.00000000000E+00 0.  1.
         21   -1    0    0  503  504 -0.00000000000E+00 -0.00000000000E+00 -0.90333643923E+02  0.90333643923E+02  0.00000000000E+00 0.  1.
         -6    2    1    2    0  504  0.28863579037E+02  0.19488722686E+01  0.10742639398E+03  0.20558501418E+03  0.17288106789E+03 0.  0.
        -24    2    3    3    0    0  0.39141068421E+02  0.88693220392E+01 -0.72519233607E+01  0.90143574992E+02  0.80390208417E+02 0.  0.
          6    2    1    2  502    0 -0.28863579037E+02 -0.19488722686E+01  0.15066658349E+03  0.23317525114E+03  0.17559434520E+03 0.  0.
         24    2    5    5    0    0 -0.75751199012E+02 -0.27463505164E+02  0.12686711534E+03  0.17454121595E+03  0.88751804729E+02 0.  0.
          4    1    6    6  501    0 -0.17323417593E+02  0.28528397778E+02  0.63579258945E+02  0.71807328629E+02  0.00000000000E+00 0. -1.
         -3    1    6    6    0  501 -0.58427781419E+02 -0.55991902943E+02  0.63287856391E+02  0.10273388732E+03  0.00000000000E+00 0.  1.
          5    1    5    5  502    0  0.46887619975E+02  0.25514632896E+02  0.23799468155E+02  0.58634035195E+02  0.47000000000E+01 0. -1.
         13    1    4    4    0    0 -0.15496525618E+02 -0.15424872416E+02 -0.19279343217E+02  0.29150678725E+02  0.00000000000E+00 0. -1.
        -14    1    4    4    0    0  0.54637594039E+02  0.24294194455E+02  0.12027419856E+02  0.60992896266E+02  0.00000000000E+00 0.  1.
         -5    1    3    3    0  504 -0.10277489384E+02 -0.69204497706E+01  0.11467831734E+03  0.11544143919E+03  0.47000000000E+01 0.  1.
<mgrwt>
<rscale>  2 0.17728849E+03</rscale>
<asrwt>0</asrwt>
<pdfrwt beam="1">  1       21 0.53604095E-01 0.17796145E+03</pdfrwt>
<pdfrwt beam="2">  1       21 0.13897484E-01 0.17796145E+03</pdfrwt>
<totfact> 0.14910799E+05</totfact>
</mgrwt>
</event>
<event>
12    1  0.1410528E-001  0.3926134E+03  0.7546771E-02  0.1046796E+00
         21   -1    0    0  502  503  0.00000000000E+00  0.00000000000E+00  0.17065202069E+03  0.17065202069E+03  0.00000000000E+00 0.  1.
         21   -1    0    0  503  504 -0.00000000000E+00 -0.00000000000E+00 -0.89556369524E+03  0.89556369524E+03  0.00000000000E+00 0. -1.
         -6    2    1    2    0  504 -0.10726296582E+02 -0.34685764059E+03 -0.39256651938E+03  0.55182425512E+03  0.17313653609E+03 0.  0.
        -24    2    3    3    0    0  0.89372211975E+01 -0.23942963970E+03 -0.35466493938E+03  0.43612616062E+03  0.83739969280E+02 0.  0.
          6    2    1    2  502    0  0.10726296582E+02  0.34685764059E+03 -0.33234515517E+03  0.51439146081E+03  0.18363005341E+03 0.  0.
         24    2    5    5    0    0  0.20710760213E+02  0.25662041350E+03 -0.14574098379E+03  0.30682062123E+03  0.81335644356E+02 0.  0.
          4    1    6    6  501    0 -0.28499651167E+02  0.12827408895E+03 -0.85310741967E+02  0.15666650793E+03  0.00000000000E+00 0. -1.
         -3    1    6    6    0  501  0.49210411380E+02  0.12834632455E+03 -0.60430241820E+02  0.15015411330E+03  0.00000000000E+00 0.  1.
          5    1    5    5  502    0 -0.99844636316E+01  0.90237227090E+02 -0.18660417139E+03  0.20757083959E+03  0.47000000000E+01 0. -1.
         13    1    4    4    0    0  0.25547524192E+02 -0.21930019205E+03 -0.27717993482E+03  0.35436417213E+03  0.00000000000E+00 0. -1.
        -14    1    4    4    0    0 -0.16610302994E+02 -0.20129447655E+02 -0.77485004566E+02  0.81761988485E+02  0.00000000000E+00 0.  1.
         -5    1    3    3    0  504 -0.19663517779E+02 -0.10742800089E+03 -0.37901579998E+02  0.11569809451E+03  0.47000000000E+01 0.  1.
<mgrwt>
<rscale>  2 0.39140860E+03</rscale>
<asrwt>0</asrwt>
<pdfrwt beam="1">  1       21 0.26254157E-01 0.39261339E+03</pdfrwt>
<pdfrwt beam="2">  1       21 0.13777903E+00 0.39261339E+03</pdfrwt>
<totfact> 0.45807824E+03</totfact>
</mgrwt>
</event>
<event>
12    1  0.1410528E-001  0.2348960E+03  0.7546771E-02  0.1123246E+00
         21   -1    0    0  502  503  0.00000000000E+00  0.00000000000E+00  0.10630244467E+04  0.10630244467E+04  0.00000000000E+00 0. -1.
         21   -1    0    0  503  504 -0.00000000000E+00 -0.00000000000E+00 -0.74387356327E+02  0.74387356327E+02  0.00000000000E+00 0. -1.
         -6    2    1    2    0  504  0.22379361857E+02 -0.15954856609E+03  0.18159939448E+03  0.29688459141E+03  0.17089628365E+03 0.  0.
        -24    2    3    3    0    0 -0.27374159385E+02 -0.14830640640E+03  0.17654292566E+03  0.24541171596E+03  0.79469308226E+02 0.  0.
          6    2    1    2  502    0 -0.22379361857E+02  0.15954856609E+03  0.80703769590E+03  0.84052721162E+03  0.17093732794E+03 0.  0.
         24    2    5    5    0    0 -0.18464066012E+02  0.17501707557E+03  0.54959933988E+03  0.58255201614E+03  0.79595971278E+02 0.  0.
          2    1    6    6  501    0 -0.33105582322E+02  0.11427400971E+03  0.44575600649E+03  0.46135988794E+03  0.00000000000E+00 0. -1.
         -1    1    6    6    0  501  0.14641516310E+02  0.60743065859E+02  0.10384333339E+03  0.12119212820E+03  0.00000000000E+00 0.  1.
          5    1    5    5  502    0 -0.39152958451E+01 -0.15468509478E+02  0.25743835603E+03  0.25797519548E+03  0.47000000000E+01 0. -1.
         13    1    4    4    0    0  0.98661449097E+01 -0.11497281216E+03  0.14862459876E+03  0.18816311995E+03  0.00000000000E+00 0. -1.
        -14    1    4    4    0    0 -0.37240304295E+02 -0.33333594241E+02  0.27918326898E+02  0.57248596016E+02  0.00000000000E+00 0.  1.
         -5    1    3    3    0  504  0.49753521242E+02 -0.11242159692E+02  0.50564688157E+01  0.51472875453E+02  0.47000000000E+01 0.  1.
<mgrwt>
<rscale>  2 0.23488858E+03</rscale>
<asrwt>0</asrwt>
<pdfrwt beam="1">  1       21 0.16354221E+00 0.23489604E+03</pdfrwt>
<pdfrwt beam="2">  1       21 0.11444209E-01 0.23489604E+03</pdfrwt>
<totfact> 0.14718162E+04</totfact>
</mgrwt>
</event>
<event>
12    1  0.1410528E-001  0.1948386E+03  0.7546771E-02  0.1154820E+00
         21   -1    0    0  502  503  0.00000000000E+00  0.00000000000E+00  0.21046648278E+04  0.21046648278E+04  0.00000000000E+00 0.  1.
         21   -1    0    0  503  504 -0.00000000000E+00 -0.00000000000E+00 -0.21351991086E+02  0.21351991086E+02  0.00000000000E+00 0.  1.
         -6    2    1    2    0  504  0.96317645866E+01 -0.82390097757E+02  0.61254017455E+03  0.64278109179E+03  0.17629851793E+03 0.  0.
        -24    2    3    3    0    0 -0.98908025062E+01 -0.80647269920E+02  0.61193399213E+03  0.62261613377E+03  0.81153121887E+02 0.  0.
          6    2    1    2  502    0 -0.96317645866E+01  0.82390097757E+02  0.14707726622E+04  0.14832357271E+04  0.17301762708E+03 0.  0.
         24    2    5    5    0    0 -0.70501232145E+02  0.68524035414E+02  0.10826219086E+04  0.10900685143E+04  0.80704408933E+02 0.  0.
          2    1    6    6  501    0 -0.52230885020E+02  0.33572945295E+02  0.29517906497E+03  0.30163867193E+03  0.00000000000E+00 0. -1.
         -1    1    6    6    0  501 -0.18270347125E+02  0.34951090119E+02  0.78744284366E+03  0.78842984235E+03  0.00000000000E+00 0.  1.
          5    1    5    5  502    0  0.60869467558E+02  0.13866062343E+02  0.38815075356E+03  0.39316721284E+03  0.47000000000E+01 0. -1.
         11    1    4    4    0    0 -0.27357825179E+02 -0.27045260893E+00  0.24791112044E+03  0.24941621315E+03  0.00000000000E+00 0. -1.
        -12    1    4    4    0    0  0.17467022673E+02 -0.80376817311E+02  0.36402287169E+03  0.37319992062E+03  0.00000000000E+00 0.  1.
         -5    1    3    3    0  504  0.19522567093E+02 -0.17428278369E+01  0.60618242629E+00  0.20164958019E+02  0.47000000000E+01 0.  1.
<mgrwt>
<rscale>  2 0.19409340E+03</rscale>
<asrwt>0</asrwt>
<pdfrwt beam="1">  1       21 0.32379443E+00 0.19483857E+03</pdfrwt>
<pdfrwt beam="2">  1       21 0.32849234E-02 0.19483857E+03</pdfrwt>
<totfact> 0.13511259E+04</totfact>
</mgrwt>
</event>
<event>
12    1  0.1410528E-001  0.3807807E+03  0.7546771E-02  0.1050692E+00
         21   -1    0    0  502  503  0.00000000000E+00  0.00000000000E+00  0.38076490579E+03  0.38076490579E+03  0.00000000000E+00 0.  1.
         21   -1    0    0  503  504 -0.00000000000E+00 -0.00000000000E+00 -0.44166799029E+03  0.44166799029E+03  0.00000000000E+00 0. -1.
         -6    2    1    2    0  504  0.32473497000E+03  0.96051167673E+02 -0.18373021403E+03  0.42233237294E+03  0.17300061889E+03 0.  0.
        -24    2    3    3    0    0  0.33062657655E+03  0.10126951499E+03 -0.19714643427E+03  0.40608346092E+03  0.80421470386E+02 0.  0.
          6    2    1    2  502    0 -0.32473497000E+03 -0.96051167673E+02  0.12282712953E+03  0.40010052314E+03  0.17411288670E+03 0.  0.
         24    2    5    5    0    0 -0.30818148609E+03 -0.10488408253E+03  0.14953879080E+03  0.36712111953E+03  0.80246914665E+02 0.  0.
          2    1    6    6  501    0 -0.11190530252E+03 -0.72360724314E+02  0.84557932456E+02  0.15782558442E+03  0.00000000000E+00 0. -1.
         -1    1    6    6    0  501 -0.19627618357E+03 -0.32523358217E+02  0.64980858344E+02  0.20929553511E+03  0.00000000000E+00 0.  1.
          5    1    5    5  502    0 -0.16553483909E+02  0.88329148569E+01 -0.26711661272E+02  0.32979403607E+02  0.47000000000E+01 0. -1.
         13    1    4    4    0    0  0.13923814351E+03  0.45521577363E+02 -0.12965149339E+03  0.19562460058E+03  0.00000000000E+00 0. -1.
        -14    1    4    4    0    0  0.19138843304E+03  0.55747937626E+02 -0.67494940878E+02  0.21045886034E+03  0.00000000000E+00 0.  1.
         -5    1    3    3    0  504 -0.58916065526E+01 -0.52183473152E+01  0.13416220237E+02  0.16248912023E+02  0.47000000000E+01 0.  1.
<mgrwt>
<rscale>  2 0.38065379E+03</rscale>
<asrwt>0</asrwt>
<pdfrwt beam="1">  1       21 0.58579216E-01 0.38078068E+03</pdfrwt>
<pdfrwt beam="2">  1       21 0.67948922E-01 0.38078068E+03</pdfrwt>
<totfact> 0.48636917E+03</totfact>
</mgrwt>
</event>
<event>
12    1  0.1410528E-001  0.1844838E+03  0.7546771E-02  0.1163723E+00
         21   -1    0    0  502  503  0.00000000000E+00  0.00000000000E+00  0.68066575285E+03  0.68066575285E+03  0.00000000000E+00 0.  1.
         21   -1    0    0  503  504 -0.00000000000E+00 -0.00000000000E+00 -0.49787283203E+02  0.49787283203E+02  0.00000000000E+00 0.  1.
         -6    2    1    2    0  504 -0.45754641029E+02  0.46027211150E+02  0.31835168192E+03  0.36753809548E+03  0.17182685153E+03 0.  0.
        -24    2    3    3    0    0 -0.37577631934E+02  0.96090532612E+02  0.20768566404E+03  0.24570929286E+03  0.81205003985E+02 0.  0.
          6    2    1    2  502    0  0.45754641029E+02 -0.46027211150E+02  0.31252678773E+03  0.36291494058E+03  0.17269125543E+03 0.  0.
         24    2    5    5    0    0  0.33292604815E+02  0.41237291852E+02  0.16780897089E+03  0.19339876925E+03  0.80214222308E+02 0.  0.
          2    1    6    6  501    0  0.17054085044E+02  0.28186653910E+02  0.10298408349E+02  0.34516466937E+02  0.00000000000E+00 0. -1.
         -1    1    6    6    0  501  0.16238519771E+02  0.13050637942E+02  0.15751056254E+03  0.15888230231E+03  0.00000000000E+00 0.  1.
          5    1    5    5  502    0  0.12462036214E+02 -0.87264503002E+02  0.14471781684E+03  0.16951617133E+03  0.47000000000E+01 0. -1.
         11    1    4    4    0    0  0.26182808769E+01  0.35339377586E+02  0.12838115447E+02  0.37690107603E+02  0.00000000000E+00 0. -1.
        -12    1    4    4    0    0 -0.40195912811E+02  0.60751155027E+02  0.19484754859E+03  0.20801918526E+03  0.00000000000E+00 0.  1.
         -5    1    3    3    0  504 -0.81770090951E+01 -0.50063321463E+02  0.11066601788E+03  0.12182880262E+03  0.47000000000E+01 0.  1.
<mgrwt>
<rscale>  2 0.18428121E+03</rscale>
<asrwt>0</asrwt>
<pdfrwt beam="1">  1       21 0.10471780E+00 0.18448377E+03</pdfrwt>
<pdfrwt beam="2">  1       21 0.76595825E-02 0.18448377E+03</pdfrwt>
<totfact> 0.95499734E+04</totfact>
</mgrwt>
</event>
<event>
12    1  0.1410528E-001  0.1837402E+03  0.7546771E-02  0.1164235E+00
         21   -1    0    0  502  503  0.00000000000E+00  0.00000000000E+00  0.12389388827E+03  0.12389388827E+03  0.00000000000E+00 0.  1.
         21   -1    0    0  503  504 -0.00000000000E+00 -0.00000000000E+00 -0.31572024091E+03  0.31572024091E+03  0.00000000000E+00 0.  1.
         -6    2    1    2    0  504  0.47980320316E+02  0.35021152172E+02 -0.17726768449E+03  0.25531216602E+03  0.17387316618E+03 0.  0.
        -24    2    3    3    0    0  0.83901859439E+02  0.64374363398E+02 -0.10177525885E+03  0.16658131281E+03  0.78788005332E+02 0.  0.
          6    2    1    2  502    0 -0.47980320316E+02 -0.35021152172E+02 -0.14558668153E+02  0.18430196317E+03  0.17385817948E+03 0.  0.
         24    2    5    5    0    0 -0.33890064292E+02 -0.77533360907E+02  0.31071195427E+02  0.12019269975E+03  0.79504134331E+02 0.  0.
          4    1    6    6  501    0 -0.55185246844E+02 -0.66784057157E+02  0.39064761039E+02  0.95034611141E+02  0.00000000000E+00 0. -1.
         -3    1    6    6    0  501  0.21295182553E+02 -0.10749303750E+02 -0.79935656122E+01  0.25158088605E+02  0.00000000000E+00 0.  1.
          5    1    5    5  502    0 -0.14090256024E+02  0.42512208735E+02 -0.45629863580E+02  0.64109263423E+02  0.47000000000E+01 0. -1.
         13    1    4    4    0    0  0.53826228921E+02  0.33278403540E+02 -0.86150561180E+01  0.63866534695E+02  0.00000000000E+00 0. -1.
        -14    1    4    4    0    0  0.30075630519E+02  0.31095959858E+02 -0.93160202735E+02  0.10271477812E+03  0.00000000000E+00 0.  1.
         -5    1    3    3    0  504 -0.35921539124E+02 -0.29353211226E+02 -0.75492425634E+02  0.88730853204E+02  0.47000000000E+01 0.  1.
<mgrwt>
<rscale>  2 0.18373668E+03</rscale>
<asrwt>0</asrwt>
<pdfrwt beam="1">  1       21 0.19060599E-01 0.18374022E+03</pdfrwt>
<pdfrwt beam="2">  1       21 0.48572344E-01 0.18374022E+03</pdfrwt>
<totfact> 0.10252489E+05</totfact>
</mgrwt>
</event>
<event>
12    1  0.1410528E-001  0.2279200E+03  0.7546771E-02  0.1128379E+00
         21   -1    0    0  502  503  0.00000000000E+00  0.00000000000E+00  0.80987757690E+03  0.80987757690E+03  0.00000000000E+00 0.  1.
         21   -1    0    0  503  504 -0.00000000000E+00 -0.00000000000E+00 -0.87044852994E+02  0.87044852994E+02  0.00000000000E+00 0. -1.
         -6    2    1    2    0  504 -0.14315974252E+03  0.30182542148E+02  0.12842133018E+03  0.26031231767E+03  0.17281425566E+03 0.  0.
        -24    2    3    3    0    0 -0.13907920844E+03  0.39167599384E+02  0.38607656499E+02  0.16983597827E+03  0.80477209899E+02 0.  0.
          6    2    1    2  502    0  0.14315974252E+03 -0.30182542148E+02  0.59441139373E+03  0.63661011223E+03  0.17476221634E+03 0.  0.
         24    2    5    5    0    0  0.87541796952E+02  0.50521504635E+02  0.30253155871E+03  0.32867760805E+03  0.79294623859E+02 0.  0.
          4    1    6    6  501    0  0.10281886544E+03  0.44740546285E+02  0.26366759714E+03  0.28652057055E+03  0.00000000000E+00 0. -1.
         -3    1    6    6    0  501 -0.15277068486E+02  0.57809583500E+01  0.38863961577E+02  0.42157037496E+02  0.00000000000E+00 0.  1.
          5    1    5    5  502    0  0.55617945564E+02 -0.80704046783E+02  0.29187983502E+03  0.30793250418E+03  0.47000000000E+01 0. -1.
         13    1    4    4    0    0 -0.11569618382E+03  0.58741939523E+02  0.13726055478E+02  0.13047845419E+03  0.00000000000E+00 0. -1.
        -14    1    4    4    0    0 -0.23383024621E+02 -0.19574340139E+02  0.24881601021E+02  0.39357524080E+02  0.00000000000E+00 0.  1.
         -5    1    3    3    0  504 -0.40805340749E+01 -0.89850572364E+01  0.89813673677E+02  0.90476339400E+02  0.47000000000E+01 0.  1.
<mgrwt>
<rscale>  2 0.22754654E+03</rscale>
<asrwt>0</asrwt>
<pdfrwt beam="1">  1       21 0.12459655E+00 0.22792001E+03</pdfrwt>
<pdfrwt beam="2">  1       21 0.13391516E-01 0.22792001E+03</pdfrwt>
<totfact> 0.22686733E+04</totfact>
</mgrwt>
</event>
<event>
12    1  0.1410528E-001  0.1973141E+03  0.7546771E-02  0.1152224E+00
         21   -1    0    0  502  503  0.00000000000E+00  0.00000000000E+00  0.99024542339E+03  0.99024542339E+03  0.00000000000E+00 0. -1.
         21   -1    0    0  503  504 -0.00000000000E+00 -0.00000000000E+00 -0.43695641883E+02  0.43695641883E+02  0.00000000000E+00 0. -1.
         -6    2    1    2    0  504  0.91109796089E+02  0.23160362496E+02  0.30521302570E+03  0.36293758102E+03  0.17242766403E+03 0.  0.
        -24    2    3    3    0    0  0.80205148966E+01  0.91779585347E+01  0.51816328642E+02  0.95858356159E+02  0.79720317044E+02 0.  0.
          6    2    1    2  502    0 -0.91109796089E+02 -0.23160362496E+02  0.64133675581E+03  0.67100348426E+03  0.17348038564E+03 0.  0.
         24    2    5    5    0    0 -0.30110906020E+02 -0.12618411965E+02  0.13032307277E+03  0.15623259196E+03  0.79741008968E+02 0.  0.
          4    1    6    6  501    0 -0.26667682710E+02 -0.45560696700E+02  0.74175892980E+02  0.91043975552E+02  0.00000000000E+00 0. -1.
         -3    1    6    6    0  501 -0.34432233102E+01  0.32942284735E+02  0.56147179793E+02  0.65188616407E+02  0.00000000000E+00 0.  1.
          5    1    5    5  502    0 -0.60998890070E+02 -0.10541950530E+02  0.51101368304E+03  0.51477089230E+03  0.47000000000E+01 0. -1.
         11    1    4    4    0    0  0.13912040145E+02  0.10826058436E+02 -0.18338578264E+02  0.25437213979E+02  0.00000000000E+00 0. -1.
        -12    1    4    4    0    0 -0.58915252482E+01 -0.16480999014E+01  0.70154906906E+02  0.70421142181E+02  0.00000000000E+00 0.  1.
         -5    1    3    3    0  504  0.83089281193E+02  0.13982403961E+02  0.25339669706E+03  0.26707922486E+03  0.47000000000E+01 0.  1.
<mgrwt>
<rscale>  2 0.19708243E+03</rscale>
<asrwt>0</asrwt>
<pdfrwt beam="1">  1       21 0.15234543E+00 0.19731407E+03</pdfrwt>
<pdfrwt beam="2">  1       21 0.67224072E-02 0.19731407E+03</pdfrwt>
<totfact> 0.46412772E+04</totfact>
</mgrwt>
</event>
<event>
12    1  0.1410528E-001  0.1818176E+03  0.7546771E-02  0.1166161E+00
         21   -1    0    0  502  503  0.00000000000E+00  0.00000000000E+00  0.75234210063E+03  0.75234210063E+03  0.00000000000E+00 0. -1.
         21   -1    0    0  503  504 -0.00000000000E+00 -0.00000000000E+00 -0.49505158480E+02  0.49505158480E+02  0.00000000000E+00 0. -1.
         -6    2    1    2    0  504  0.29416542095E+02  0.45448488853E+02  0.21609105077E+03  0.28240569232E+03  0.17357054687E+03 0.  0.
        -24    2    3    3    0    0  0.71101173757E+02 -0.41538454501E+01  0.17178301842E+03  0.20377178223E+03  0.83312078791E+02 0.  0.
          6    2    1    2  502    0 -0.29416542095E+02 -0.45448488853E+02  0.48674589138E+03  0.51944156679E+03  0.17311002412E+03 0.  0.
         24    2    5    5    0    0 -0.17772335784E+02 -0.52339302070E+02  0.13034781016E+03  0.16275577630E+03  0.80272240803E+02 0.  0.
          4    1    6    6  501    0 -0.32204612456E+02 -0.64473099774E+02  0.12292158433E+03  0.14249081918E+03  0.00000000000E+00 0. -1.
         -3    1    6    6    0  501  0.14432276672E+02  0.12133797704E+02  0.74262258343E+01  0.20264957113E+02  0.00000000000E+00 0.  1.
          5    1    5    5  502    0 -0.11644206310E+02  0.68908132170E+01  0.35639808121E+03  0.35668579049E+03  0.47000000000E+01 0. -1.
         11    1    4    4    0    0  0.51107028127E+02  0.15787933083E+00  0.27480686573E+02  0.58027074581E+02  0.00000000000E+00 0. -1.
        -12    1    4    4    0    0  0.19994145630E+02 -0.43117247809E+01  0.14430233185E+03  0.14574470765E+03  0.00000000000E+00 0.  1.
         -5    1    3    3    0  504 -0.41684631662E+02  0.49602334303E+02  0.44308032349E+02  0.78633910088E+02  0.47000000000E+01 0.  1.
<mgrwt>
<rscale>  2 0.18170759E+03</rscale>
<asrwt>0</asrwt>
<pdfrwt beam="1">  1       21 0.11574493E+00 0.18181758E+03</pdfrwt>
<pdfrwt beam="2">  1       21 0.76161788E-02 0.18181758E+03</pdfrwt>
<totfact> 0.75809800E+04</totfact>
</mgrwt>
</event>
<event>
12    1  0.1410528E-001  0.1804365E+03  0.7546771E-02  0.1168345E+00
         21   -1    0    0  502  503  0.00000000000E+00  0.00000000000E+00  0.13276503029E+04  0.13276503029E+04  0.00000000000E+00 0.  1.
         21   -1    0    0  503  504 -0.00000000000E+00 -0.00000000000E+00 -0.24832006661E+02  0.24832006661E+02  0.00000000000E+00 0.  1.
         -6    2    1    2    0  504 -0.41434658696E+01 -0.50827807855E+02  0.51985854350E+03  0.54900031613E+03  0.16896096442E+03 0.  0.
        -24    2    3    3    0    0  0.36901611757E+02 -0.18239029841E+02  0.15423386755E+03  0.17960862630E+03  0.82321209794E+02 0.  0.
          6    2    1    2  502    0  0.41434658696E+01  0.50827807855E+02  0.78295975273E+03  0.80348199343E+03  0.17308005374E+03 0.  0.
         24    2    5    5    0    0  0.33152895001E+02  0.54930371080E+02  0.26276333370E+03  0.28243997748E+03  0.81309970053E+02 0.  0.
          4    1    6    6  501    0  0.34351097014E+02  0.67397475306E+02  0.25829145299E+03  0.26914102666E+03  0.00000000000E+00 0. -1.
         -3    1    6    6    0  501 -0.11982020130E+01 -0.12467104227E+02  0.44718807051E+01  0.13298950820E+02  0.00000000000E+00 0.  1.
          5    1    5    5  502    0 -0.29009429132E+02 -0.41025632246E+01  0.52019641904E+03  0.52104201595E+03  0.47000000000E+01 0. -1.
         11    1    4    4    0    0  0.37835345645E+02  0.16479880245E+02  0.13216627704E+03  0.13845946923E+03  0.00000000000E+00 0. -1.
        -12    1    4    4    0    0 -0.93373388859E+00 -0.34718910087E+02  0.22067590511E+02  0.41149157070E+02  0.00000000000E+00 0.  1.
         -5    1    3    3    0  504 -0.41045077626E+02 -0.32588778014E+02  0.36562467595E+03  0.36939168983E+03  0.47000000000E+01 0.  1.
<mgrwt>
<rscale>  2 0.17944150E+03</rscale>
<asrwt>0</asrwt>
<pdfrwt beam="1">  1       21 0.20425384E+00 0.18043652E+03</pdfrwt>
<pdfrwt beam="2">  1       21 0.38203098E-02 0.18043652E+03</pdfrwt>
<totfact> 0.53811873E+04</totfact>
</mgrwt>
</event>
<event>
12    1  0.1410528E-001  0.3887484E+03  0.7546771E-02  0.1047762E+00
         21   -1    0    0  502  503  0.00000000000E+00  0.00000000000E+00  0.19315988598E+03  0.19315988598E+03  0.00000000000E+00 0. -1.
         21   -1    0    0  503  504 -0.00000000000E+00 -0.00000000000E+00 -0.81160026664E+03  0.81160026664E+03  0.00000000000E+00 0.  1.
         -6    2    1    2    0  504 -0.34269954079E+03  0.57853581587E+02 -0.40514832998E+03  0.56148953717E+03  0.17417037318E+03 0.  0.
        -24    2    3    3    0    0 -0.19111364942E+03  0.19056789056E+01 -0.14870963956E+03  0.25835368936E+03  0.90022293364E+02 0.  0.
          6    2    1    2  502    0  0.34269954079E+03 -0.57853581587E+02 -0.21329205067E+03  0.44327061546E+03  0.17379679942E+03 0.  0.
         24    2    5    5    0    0  0.28912313401E+03 -0.24261408160E+02 -0.10960090878E+03  0.32172717308E+03  0.85529013460E+02 0.  0.
          4    1    6    6  501    0  0.11742384669E+03 -0.51916660488E+02 -0.41041985101E+02  0.13478925755E+03  0.00000000000E+00 0. -1.
         -3    1    6    6    0  501  0.17169928732E+03  0.27655252329E+02 -0.68558923676E+02  0.18693791553E+03  0.00000000000E+00 0.  1.
          5    1    5    5  502    0  0.53576406778E+02 -0.33592173428E+02 -0.10369114190E+03  0.12154344238E+03  0.47000000000E+01 0. -1.
         13    1    4    4    0    0 -0.16547353239E+03  0.21762172887E+02 -0.15202084821E+03  0.22575522227E+03  0.00000000000E+00 0. -1.
        -14    1    4    4    0    0 -0.25640117023E+02 -0.19856493982E+02  0.33112086441E+01  0.32598467094E+02  0.00000000000E+00 0.  1.
         -5    1    3    3    0  504 -0.15158589138E+03  0.55947902682E+02 -0.25643869042E+03  0.30313584780E+03  0.47000000000E+01 0.  1.
<mgrwt>
<rscale>  2 0.38870660E+03</rscale>
<asrwt>0</asrwt>
<pdfrwt beam="1">  1       21 0.29716905E-01 0.38874842E+03</pdfrwt>
<pdfrwt beam="2">  1       21 0.12486158E+00 0.38874842E+03</pdfrwt>
<totfact> 0.46415341E+03</totfact>
</mgrwt>
</event>
<event>
12    1  0.1410528E-001  0.2088353E+03  0.7546771E-02  0.1143243E+00
         21   -1    0    0  502  503  0.00000000000E+00  0.00000000000E+00  0.13347865473E+03  0.13347865473E+03  0.00000000000E+00 0. -1.
         21   -1    0    0  503  504 -0.00000000000E+00 -0.00000000000E+00 -0.73147142061E+03  0.73147142061E+03  0.00000000000E+00 0. -1.
         -6    2    1    2    0  504 -0.10784658624E+03  0.12608568506E+02 -0.62417126797E+03  0.65818078353E+03  0.17838808783E+03 0.  0.
        -24    2    3    3    0    0 -0.50154739316E+02 -0.41652647944E+02 -0.50126984504E+03  0.51189517736E+03  0.80714150586E+02 0.  0.
          6    2    1    2  502    0  0.10784658624E+03 -0.12608568506E+02  0.26178502097E+02  0.20676929181E+03  0.17400679269E+03 0.  0.
         24    2    5    5    0    0  0.88580634889E+02  0.11374754615E+02  0.80106868164E+02  0.14450585683E+03  0.80553823068E+02 0.  0.
          2    1    6    6  501    0  0.54648123012E+02 -0.25740192894E+02  0.71305550841E+02  0.93452963889E+02  0.00000000000E+00 0. -1.
         -1    1    6    6    0  501  0.33932511877E+02  0.37114947509E+02  0.88013173234E+01  0.51052892940E+02  0.00000000000E+00 0.  1.
          5    1    5    5  502    0  0.19265951354E+02 -0.23983323121E+02 -0.53928366067E+02  0.62263434986E+02  0.47000000000E+01 0. -1.
         11    1    4    4    0    0  0.95346142627E+01  0.10495654831E+02 -0.19570087849E+03  0.19621391766E+03  0.00000000000E+00 0. -1.
        -12    1    4    4    0    0 -0.59689353579E+02 -0.52148302775E+02 -0.30556896654E+03  0.31568125970E+03  0.00000000000E+00 0.  1.
         -5    1    3    3    0  504 -0.57691846927E+02  0.54261216450E+02 -0.12290142294E+03  0.14628560617E+03  0.47000000000E+01 0.  1.
<mgrwt>
<rscale>  2 0.20789650E+03</rscale>
<asrwt>0</asrwt>
<pdfrwt beam="1">  1       21 0.20535178E-01 0.20883527E+03</pdfrwt>
<pdfrwt beam="2">  1       21 0.11253407E+00 0.20883527E+03</pdfrwt>
<totfact> 0.13431310E+04</totfact>
</mgrwt>
</event>
<event>
12    1  0.1410528E-001  0.2071717E+03  0.7546771E-02  0.1144533E+00
         21   -1    0    0  502  503  0.00000000000E+00  0.00000000000E+00  0.80104779583E+03  0.80104779583E+03  0.00000000000E+00 0. -1.
         21   -1    0    0  503  504 -0.00000000000E+00 -0.00000000000E+00 -0.85643579391E+02  0.85643579391E+02  0.00000000000E+00 0. -1.
         -6    2    1    2    0  504  0.42715467710E+02  0.10670308617E+03  0.80809020790E+02  0.21913526802E+03  0.16816660806E+03 0.  0.
        -24    2    3    3    0    0  0.86757727595E+02  0.85609933873E+02  0.27637369895E+02  0.14678918182E+03  0.76988801839E+02 0.  0.
          6    2    1    2  502    0 -0.42715467710E+02 -0.10670308617E+03  0.63459519565E+03  0.66755610721E+03  0.17236569887E+03 0.  0.
         24    2    5    5    0    0  0.31709010941E+02 -0.41350922947E+02  0.43040164583E+03  0.44056050361E+03  0.78311049110E+02 0.  0.
          2    1    6    6  501    0 -0.82308769918E+01 -0.40390685267E+02  0.10641163611E+03  0.11411656800E+03  0.00000000000E+00 0. -1.
         -1    1    6    6    0  501  0.39939887932E+02 -0.96023767936E+00  0.32399000972E+03  0.32644393562E+03  0.00000000000E+00 0.  1.
          5    1    5    5  502    0 -0.74424478651E+02 -0.65352163221E+02  0.20419354983E+03  0.22699560359E+03  0.47000000000E+01 0. -1.
         11    1    4    4    0    0  0.19865292027E+02  0.45864682281E+02  0.44786976794E+02  0.67112384836E+02  0.00000000000E+00 0. -1.
        -12    1    4    4    0    0  0.66892435568E+02  0.39745251592E+02 -0.17149606899E+02  0.79676796981E+02  0.00000000000E+00 0.  1.
         -5    1    3    3    0  504 -0.44042259885E+02  0.21093152294E+02  0.53171650894E+02  0.72346086199E+02  0.47000000000E+01 0.  1.
<mgrwt>
<rscale>  2 0.20629604E+03</rscale>
<asrwt>0</asrwt>
<pdfrwt beam="1">  1       21 0.12323812E+00 0.20717165E+03</pdfrwt>
<pdfrwt beam="2">  1       21 0.13175936E-01 0.20717165E+03</pdfrwt>
<totfact> 0.24304162E+04</totfact>
</mgrwt>
</event>
<event>
12    1  0.1410528E-001  0.1948928E+03  0.7546771E-02  0.1154165E+00
         21   -1    0    0  502  503  0.00000000000E+00  0.00000000000E+00  0.27935995099E+03  0.27935995099E+03  0.00000000000E+00 0.  1.
         21   -1    0    0  503  504 -0.00000000000E+00 -0.00000000000E+00 -0.15648373199E+03  0.15648373199E+03  0.00000000000E+00 0.  1.
         -6    2    1    2    0  504 -0.44365877631E+01 -0.87030577335E+02  0.14064776763E+03  0.24034347378E+03  0.17432494413E+03 0.  0.
        -24    2    3    3    0    0  0.47714799927E+02 -0.87998155508E+02  0.13433804553E+03  0.18759306109E+03  0.84404197691E+02 0.  0.
          6    2    1    2  502    0  0.44365877631E+01  0.87030577335E+02 -0.17771548625E+02  0.19550020921E+03  0.17409910729E+03 0.  0.
         24    2    5    5    0    0  0.49895801041E+02  0.10837177325E+03 -0.19480278698E+02  0.14503243262E+03  0.80130475206E+02 0.  0.
          2    1    6    6  501    0  0.29327380333E+02  0.11748923677E+03 -0.18619461132E+02  0.12251734705E+03  0.00000000000E+00 0. -1.
         -1    1    6    6    0  501  0.20568420709E+02 -0.91174635275E+01 -0.86081756630E+00  0.22515085576E+02  0.00000000000E+00 0.  1.
          5    1    5    5  502    0 -0.45459213278E+02 -0.21341195912E+02  0.17087300733E+01  0.50467776583E+02  0.47000000000E+01 0. -1.
         13    1    4    4    0    0  0.40332947508E+02 -0.10482319772E+03  0.11124361502E+03  0.15808159703E+03  0.00000000000E+00 0. -1.
        -14    1    4    4    0    0  0.73818524192E+01  0.16825042215E+02  0.23094430512E+02  0.29511464067E+02  0.00000000000E+00 0.  1.
         -5    1    3    3    0  504 -0.52151387690E+02  0.96757817317E+00  0.63097220941E+01  0.52750412685E+02  0.47000000000E+01 0.  1.
<mgrwt>
<rscale>  2 0.19484225E+03</rscale>
<asrwt>0</asrwt>
<pdfrwt beam="1">  1       21 0.42978454E-01 0.19489277E+03</pdfrwt>
<pdfrwt beam="2">  1       21 0.24074420E-01 0.19489277E+03</pdfrwt>
<totfact> 0.84657533E+04</totfact>
</mgrwt>
</event>
<event>
12    1  0.1410528E-001  0.2160804E+03  0.7546771E-02  0.1137555E+00
         21   -1    0    0  502  503  0.00000000000E+00  0.00000000000E+00  0.33996278267E+03  0.33996278267E+03  0.00000000000E+00 0. -1.
         21   -1    0    0  503  504 -0.00000000000E+00 -0.00000000000E+00 -0.74241080717E+03  0.74241080717E+03  0.00000000000E+00 0. -1.
         -6    2    1    2    0  504 -0.53492274551E+02 -0.12003345002E+03 -0.69042287086E+03  0.72234545979E+03  0.16682257077E+03 0.  0.
        -24    2    3    3    0    0 -0.87963139299E+02 -0.13071475751E+03 -0.57893297569E+03  0.60506623073E+03  0.78216951608E+02 0.  0.
          6    2    1    2  502    0  0.53492274551E+02  0.12003345002E+03  0.28797484635E+03  0.36002813005E+03  0.17152635289E+03 0.  0.
         24    2    5    5    0    0  0.57430979812E+02  0.30526610047E+01  0.14369405873E+03  0.17418127354E+03  0.79896791901E+02 0.  0.
          4    1    6    6  501    0  0.76565812062E+02 -0.65180463306E+01  0.10757760062E+03  0.13220343664E+03  0.00000000000E+00 0. -1.
         -3    1    6    6    0  501 -0.19134832250E+02  0.95707073353E+01  0.36116458116E+02  0.41977836902E+02  0.00000000000E+00 0.  1.
          5    1    5    5  502    0 -0.39387052613E+01  0.11698078902E+03  0.14428078762E+03  0.18584685651E+03  0.47000000000E+01 0. -1.
         11    1    4    4    0    0 -0.29564222830E+02  0.27050289836E+01 -0.11764053611E+03  0.12132871132E+03  0.00000000000E+00 0. -1.
        -12    1    4    4    0    0 -0.58398916470E+02 -0.13341978649E+03 -0.46129243958E+03  0.48373751941E+03  0.00000000000E+00 0.  1.
         -5    1    3    3    0  504  0.34470864749E+02  0.10681307481E+02 -0.11148989516E+03  0.11727922906E+03  0.47000000000E+01 0.  1.
<mgrwt>
<rscale>  2 0.21514570E+03</rscale>
<asrwt>0</asrwt>
<pdfrwt beam="1">  1       21 0.52301967E-01 0.21608041E+03</pdfrwt>
<pdfrwt beam="2">  1       21 0.11421705E+00 0.21608041E+03</pdfrwt>
<totfact> 0.20246453E+03</totfact>
</mgrwt>
</event>
<event>
12    1  0.1410528E-001  0.2786030E+03  0.7546771E-02  0.1096544E+00
         21   -1    0    0  502  503  0.00000000000E+00  0.00000000000E+00  0.21257212964E+04  0.21257212964E+04  0.00000000000E+00 0. -1.
         21   -1    0    0  503  504 -0.00000000000E+00 -0.00000000000E+00 -0.52992771244E+02  0.52992771244E+02  0.00000000000E+00 0. -1.
         -6    2    1    2    0  504  0.75917537657E+02  0.20421023183E+03  0.42816392032E+03  0.51082673375E+03  0.17364998689E+03 0.  0.
        -24    2    3    3    0    0 -0.19630753095E+02  0.14321041095E+03  0.25629685243E+03  0.30488782767E+03  0.79836850044E+02 0.  0.
          6    2    1    2  502    0 -0.75917537657E+02 -0.20421023183E+03  0.16445646049E+04  0.16678873339E+04  0.17259816851E+03 0.  0.
         24    2    5    5    0    0 -0.45541797374E+02 -0.17584446351E+03  0.15691657277E+04  0.15816644652E+04  0.79912883103E+02 0.  0.
          2    1    6    6  501    0 -0.45333891558E+02 -0.14894207708E+03  0.14887341534E+04  0.14968527929E+04  0.00000000000E+00 0. -1.
         -1    1    6    6    0  501 -0.20790581563E+00 -0.26902386428E+02  0.80431574293E+02  0.84811672331E+02  0.00000000000E+00 0.  1.
          5    1    5    5  502    0 -0.30375740283E+02 -0.28365768314E+02  0.75398877166E+02  0.86222868705E+02  0.47000000000E+01 0. -1.
         11    1    4    4    0    0 -0.25376812277E+01  0.61616950374E+02  0.41105533468E+02  0.74113111398E+02  0.00000000000E+00 0. -1.
        -12    1    4    4    0    0 -0.17093071868E+02  0.81593460580E+02  0.21519131896E+03  0.23077471628E+03  0.00000000000E+00 0.  1.
         -5    1    3    3    0  504  0.95548290752E+02  0.60999820872E+02  0.17186706789E+03  0.20593890608E+03  0.47000000000E+01 0.  1.
<mgrwt>
<rscale>  2 0.27843922E+03</rscale>
<asrwt>0</asrwt>
<pdfrwt beam="1">  1       21 0.32703398E+00 0.27860296E+03</pdfrwt>
<pdfrwt beam="2">  1       21 0.81527357E-02 0.27860296E+03</pdfrwt>
<totfact> 0.25219842E+03</totfact>
</mgrwt>
</event>
<event>
12    1  0.1410528E-001  0.2072700E+03  0.7546771E-02  0.1145063E+00
         21   -1    0    0  502  503  0.00000000000E+00  0.00000000000E+00  0.44121048460E+03  0.44121048460E+03  0.00000000000E+00 0. -1.
         21   -1    0    0  503  504 -0.00000000000E+00 -0.00000000000E+00 -0.14974419341E+03  0.14974419341E+03  0.00000000000E+00 0. -1.
         -6    2    1    2    0  504  0.10097011047E+03 -0.11147552540E+02 -0.32480557953E+02  0.20979953067E+03  0.18066993465E+03 0.  0.
        -24    2    3    3    0    0  0.14268633160E+03 -0.20708707696E+01 -0.21311742745E+02  0.16542091318E+03  0.80908654711E+02 0.  0.
          6    2    1    2  502    0 -0.10097011047E+03  0.11147552540E+02  0.32394684914E+03  0.38115514734E+03  0.17325834509E+03 0.  0.
         24    2    5    5    0    0 -0.18895117672E+02  0.59890701365E+02  0.13905649998E+03  0.17302362591E+03  0.81587642174E+02 0.  0.
          4    1    6    6  501    0 -0.36812237414E+02  0.52954287979E+02  0.49148244793E+02  0.81085432755E+02  0.00000000000E+00 0. -1.
         -3    1    6    6    0  501  0.17917119742E+02  0.69364133862E+01  0.89908255185E+02  0.91938193157E+02  0.00000000000E+00 0.  1.
          5    1    5    5  502    0 -0.82074992800E+02 -0.48743148825E+02  0.18489034916E+03  0.20813152143E+03  0.47000000000E+01 0. -1.
         11    1    4    4    0    0  0.71562104896E+02  0.28048010553E+02  0.17722588148E+02  0.78879121976E+02  0.00000000000E+00 0. -1.
        -12    1    4    4    0    0  0.71124226703E+02 -0.30118881323E+02 -0.39034330893E+02  0.86541791202E+02  0.00000000000E+00 0.  1.
         -5    1    3    3    0  504 -0.41716221127E+02 -0.90766817703E+01 -0.11168815208E+02  0.44378617489E+02  0.47000000000E+01 0.  1.
<mgrwt>
<rscale>  2 0.20564408E+03</rscale>
<asrwt>0</asrwt>
<pdfrwt beam="1">  1       21 0.67878536E-01 0.20727001E+03</pdfrwt>
<pdfrwt beam="2">  1       21 0.23037568E-01 0.20727001E+03</pdfrwt>
<totfact> 0.34807166E+04</totfact>
</mgrwt>
</event>
<event>
12    1  0.1410528E-001  0.1740745E+03  0.7546771E-02  0.1174479E+00
         21   -1    0    0  502  503  0.00000000000E+00  0.00000000000E+00  0.11064138218E+04  0.11064138218E+04  0.00000000000E+00 0.  1.
         21   -1    0    0  503  504 -0.00000000000E+00 -0.00000000000E+00 -0.28596064584E+02  0.28596064584E+02  0.00000000000E+00 0.  1.
         -6    2    1    2    0  504  0.16360563062E+02 -0.70430638471E+01  0.40489392162E+03  0.44072782632E+03  0.17316078182E+03 0.  0.
        -24    2    3    3    0    0  0.57966102016E+02  0.37287275971E+02  0.31791972787E+03  0.33450729969E+03  0.77921564695E+02 0.  0.
          6    2    1    2  502    0 -0.16360563062E+02  0.70430638471E+01  0.67292383558E+03  0.69428206004E+03  0.16995239814E+03 0.  0.
         24    2    5    5    0    0 -0.58410828769E+02  0.25553974506E+02  0.59330335325E+03  0.60223647424E+03  0.81333089187E+02 0.  0.
          4    1    6    6  501    0 -0.51433118221E+02 -0.21504104857E+02  0.31371920061E+03  0.31863384787E+03  0.00000000000E+00 0. -1.
         -3    1    6    6    0  501 -0.69777105477E+01  0.47058079363E+02  0.27958415264E+03  0.28360262637E+03  0.00000000000E+00 0.  1.
          5    1    5    5  502    0  0.42050265707E+02 -0.18510910659E+02  0.79620482331E+02  0.92045585804E+02  0.47000000000E+01 0. -1.
         11    1    4    4    0    0  0.14895759671E+02  0.33797230046E+02  0.25800784390E+03  0.26063803239E+03  0.00000000000E+00 0. -1.
        -12    1    4    4    0    0  0.43070342346E+02  0.34900459253E+01  0.59911883969E+02  0.73869267297E+02  0.00000000000E+00 0.  1.
         -5    1    3    3    0  504 -0.41605538955E+02 -0.44330339818E+02  0.86974193749E+02  0.10622052663E+03  0.47000000000E+01 0.  1.
<mgrwt>
<rscale>  2 0.17327114E+03</rscale>
<asrwt>0</asrwt>
<pdfrwt beam="1">  1       21 0.17021748E+00 0.17407449E+03</pdfrwt>
<pdfrwt beam="2">  1       21 0.43993954E-02 0.17407449E+03</pdfrwt>
<totfact> 0.71747940E+04</totfact>
</mgrwt>
</event>
<event>
12    1  0.1410528E-001  0.1829984E+03  0.7546771E-02  0.1165361E+00
         21   -1    0    0  502  503  0.00000000000E+00  0.00000000000E+00  0.41250553160E+03  0.41250553160E+03  0.00000000000E+00 0. -1.
         21   -1    0    0  503  504 -0.00000000000E+00 -0.00000000000E+00 -0.80801212365E+02  0.80801212365E+02  0.00000000000E+00 0. -1.
         -6    2    1    2    0  504  0.46641908045E+02 -0.45296559217E+02  0.14734241053E+03  0.23354198986E+03  0.16912962255E+03 0.  0.
        -24    2    3    3    0    0  0.38200166640E+02 -0.49248860566E+02  0.18179053997E+02  0.10395747553E+03  0.81190982967E+02 0.  0.
          6    2    1    2  502    0 -0.46641908045E+02  0.45296559217E+02  0.18436190871E+03  0.25976475411E+03  0.17105896127E+03 0.  0.
         24    2    5    5    0    0 -0.21770661787E+02 -0.19695032068E+02  0.16602982803E+03  0.18764928413E+03  0.82368040131E+02 0.  0.
          4    1    6    6  501    0 -0.37521694522E+02  0.20834934344E+02  0.96927315863E+02  0.10600413487E+03  0.00000000000E+00 0. -1.
         -3    1    6    6    0  501  0.15751032735E+02 -0.40529966412E+02  0.69102512172E+02  0.81645149263E+02  0.00000000000E+00 0.  1.
          5    1    5    5  502    0 -0.24871246258E+02  0.64991591285E+02  0.18332080671E+02  0.72115469976E+02  0.47000000000E+01 0. -1.
         11    1    4    4    0    0 -0.79541491995E+01 -0.37259404159E+02  0.36605938031E+02  0.52834897434E+02  0.00000000000E+00 0. -1.
        -12    1    4    4    0    0  0.46154315840E+02 -0.11989456407E+02 -0.18426884034E+02  0.51122578092E+02  0.00000000000E+00 0.  1.
         -5    1    3    3    0  504  0.84417414046E+01  0.39523013494E+01  0.12916335653E+03  0.12958451433E+03  0.47000000000E+01 0.  1.
<mgrwt>
<rscale>  2 0.18254618E+03</rscale>
<asrwt>0</asrwt>
<pdfrwt beam="1">  1       21 0.63462388E-01 0.18299840E+03</pdfrwt>
<pdfrwt beam="2">  1       21 0.12430956E-01 0.18299840E+03</pdfrwt>
<totfact> 0.12690242E+05</totfact>
</mgrwt>
</event>
<event>
12    1  0.1410528E-001  0.1990508E+03  0.7546771E-02  0.1150669E+00
         21   -1    0    0  502  503  0.00000000000E+00  0.00000000000E+00  0.75449246445E+02  0.75449246445E+02  0.00000000000E+00 0.  1.
         21   -1    0    0  503  504 -0.00000000000E+00 -0.00000000000E+00 -0.55281516710E+03  0.55281516710E+03  0.00000000000E+00 0. -1.
         -6    2    1    2    0  504 -0.50878120745E+02  0.81987842695E+02 -0.16608088885E+03  0.25877883522E+03  0.17341578474E+03 0.  0.
        -24    2    3    3    0    0  0.27112848394E+02  0.69979140549E+02 -0.13233916418E+03  0.17282888363E+03  0.81999890130E+02 0.  0.
          6    2    1    2  502    0  0.50878120745E+02 -0.81987842695E+02 -0.31128503181E+03  0.36948557833E+03  0.17409948892E+03 0.  0.
         24    2    5    5    0    0 -0.24539119798E+02 -0.56373768501E+02 -0.92775244695E+02  0.13686473224E+03  0.79652612816E+02 0.  0.
          4    1    6    6  501    0 -0.51746186424E+02 -0.46801963856E+02 -0.77307562923E+02  0.10413717355E+03  0.00000000000E+00 0. -1.
         -3    1    6    6    0  501  0.27207066626E+02 -0.95718046458E+01 -0.15467681772E+02  0.32727558693E+02  0.00000000000E+00 0.  1.
          5    1    5    5  502    0  0.75417240543E+02 -0.25614074194E+02 -0.21850978711E+03  0.23262084608E+03  0.47000000000E+01 0. -1.
         11    1    4    4    0    0  0.79216742407E+00  0.80743498930E+02 -0.82449473862E+02  0.11540388160E+03  0.00000000000E+00 0. -1.
        -12    1    4    4    0    0  0.26320680970E+02 -0.10764358381E+02 -0.49889690316E+02  0.57425002028E+02  0.00000000000E+00 0.  1.
         -5    1    3    3    0  504 -0.77990969139E+02  0.12008702147E+02 -0.33741724669E+02  0.85949951589E+02  0.47000000000E+01 0.  1.
<mgrwt>
<rscale>  2 0.19890120E+03</rscale>
<asrwt>0</asrwt>
<pdfrwt beam="1">  1       21 0.11607577E-01 0.19905080E+03</pdfrwt>
<pdfrwt beam="2">  1       21 0.85048486E-01 0.19905080E+03</pdfrwt>
<totfact> 0.74305887E+04</totfact>
</mgrwt>
</event>
<event>
12    1  0.1410528E-001  0.2690591E+03  0.7546771E-02  0.1101863E+00
         21   -1    0    0  502  503  0.00000000000E+00  0.00000000000E+00  0.76945581865E+03  0.76945581865E+03  0.00000000000E+00 0.  1.
         21   -1    0    0  503  504 -0.00000000000E+00 -0.00000000000E+00 -0.10481066855E+03  0.10481066855E+03  0.00000000000E+00 0. -1.
         -6    2    1    2    0  504 -0.19926754781E+03  0.51543411756E+02  0.47303492402E+03  0.54420109477E+03  0.17328737200E+03 0.  0.
        -24    2    3    3    0    0 -0.20743225059E+03  0.51246967057E+02  0.33128125035E+03  0.40213440531E+03  0.79438170213E+02 0.  0.
          6    2    1    2  502    0  0.19926754781E+03 -0.51543411756E+02  0.19161022608E+03  0.33006539244E+03  0.17281321028E+03 0.  0.
         24    2    5    5    0    0  0.20068779273E+03 -0.45441805670E+02  0.21339036006E+03  0.30691996247E+03  0.79522762410E+02 0.  0.
          2    1    6    6  501    0  0.16043801181E+03 -0.56015123228E+02  0.13082679119E+03  0.21446141601E+03  0.00000000000E+00 0. -1.
         -1    1    6    6    0  501  0.40249780917E+02  0.10573317559E+02  0.82563568872E+02  0.92458546457E+02  0.00000000000E+00 0.  1.
          5    1    5    5  502    0 -0.14202449214E+01 -0.61016060865E+01 -0.21780133984E+02  0.23145429977E+02  0.47000000000E+01 0. -1.
         13    1    4    4    0    0 -0.35355247336E+02  0.17878770852E+02  0.18809079409E+02  0.43856874371E+02  0.00000000000E+00 0. -1.
        -14    1    4    4    0    0 -0.17207700326E+03  0.33368196204E+02  0.31247217094E+03  0.35827753094E+03  0.00000000000E+00 0.  1.
         -5    1    3    3    0  504  0.81647027885E+01  0.29644469965E+00  0.14175367368E+03  0.14206668945E+03  0.47000000000E+01 0.  1.
<mgrwt>
<rscale>  2 0.26898277E+03</rscale>
<asrwt>0</asrwt>
<pdfrwt beam="1">  1       21 0.11837782E+00 0.26905909E+03</pdfrwt>
<pdfrwt beam="2">  1       21 0.16124719E-01 0.26905909E+03</pdfrwt>
<totfact> 0.17981639E+04</totfact>
</mgrwt>
</event>
<event>
12    1  0.1410528E-001  0.1908548E+03  0.7546771E-02  0.1157839E+00
         21   -1    0    0  502  503  0.00000000000E+00  0.00000000000E+00  0.16265598837E+04  0.16265598837E+04  0.00000000000E+00 0. -1.
         21   -1    0    0  503  504 -0.00000000000E+00 -0.00000000000E+00 -0.24626379286E+02  0.24626379286E+02  0.00000000000E+00 0.  1.
         -6    2    1    2    0  504 -0.76223386327E+02  0.25909553691E+02  0.54942935428E+03  0.58163406322E+03  0.17304409425E+03 0.  0.
        -24    2    3    3    0    0  0.22688756401E+02 -0.10889550511E+02  0.27304247362E+03  0.28574627393E+03  0.80407578542E+02 0.  0.
          6    2    1    2  502    0  0.76223386327E+02 -0.25909553691E+02  0.10525041501E+04  0.10695521998E+04  0.17232414916E+03 0.  0.
         24    2    5    5    0    0  0.81834540799E+02 -0.39822227560E+02  0.42992935459E+03  0.44677895564E+03  0.80557329851E+02 0.  0.
          2    1    6    6  501    0  0.56640472488E+02 -0.36823452771E+02  0.40703871890E+03  0.41260711152E+03  0.00000000000E+00 0. -1.
         -1    1    6    6    0  501  0.25194068311E+02 -0.29987747886E+01  0.22890635695E+02  0.34171844124E+02  0.00000000000E+00 0.  1.
          5    1    5    5  502    0 -0.56111544725E+01  0.13912673869E+02  0.62257479555E+03  0.62277324413E+03  0.47000000000E+01 0. -1.
         11    1    4    4    0    0 -0.11345408335E+02 -0.33387527032E+02  0.18974926538E+03  0.19299800249E+03  0.00000000000E+00 0. -1.
        -12    1    4    4    0    0  0.34034164736E+02  0.22497976521E+02  0.83293208241E+02  0.92748271445E+02  0.00000000000E+00 0.  1.
         -5    1    3    3    0  504 -0.98912142728E+02  0.36799104202E+02  0.27638688066E+03  0.29588778929E+03  0.47000000000E+01 0.  1.
<mgrwt>
<rscale>  2 0.19069150E+03</rscale>
<asrwt>0</asrwt>
<pdfrwt beam="1">  1       21 0.25023990E+00 0.19085484E+03</pdfrwt>
<pdfrwt beam="2">  1       21 0.37886750E-02 0.19085484E+03</pdfrwt>
<totfact> 0.28484722E+04</totfact>
</mgrwt>
</event>
<event>
12    1  0.1410528E-001  0.2559694E+03  0.7546771E-02  0.1109875E+00
         21   -1    0    0  502  503  0.00000000000E+00  0.00000000000E+00  0.21249501894E+03  0.21249501894E+03  0.00000000000E+00 0. -1.
         21   -1    0    0  503  504 -0.00000000000E+00 -0.00000000000E+00 -0.30873833998E+03  0.30873833998E+03  0.00000000000E+00 0. -1.
         -6    2    1    2    0  504  0.47011047707E+02 -0.18147962974E+03 -0.24231631102E+02  0.25711383306E+03  0.17428556047E+03 0.  0.
        -24    2    3    3    0    0  0.76157467887E+02 -0.19614969090E+03 -0.26017244052E+02  0.22409864084E+03  0.72585416450E+02 0.  0.
          6    2    1    2  502    0 -0.47011047707E+02  0.18147962974E+03 -0.72011689941E+02  0.26411952586E+03  0.17154750315E+03 0.  0.
         24    2    5    5    0    0  0.22522383256E+02  0.13910052980E+03 -0.11495589314E+02  0.16255587800E+03  0.80224994601E+02 0.  0.
          2    1    6    6  501    0  0.44702062159E+02  0.13093179382E+03 -0.72566927158E+01  0.13854265980E+03  0.00000000000E+00 0. -1.
         -1    1    6    6    0  501 -0.22179678903E+02  0.81687359762E+01 -0.42388965983E+01  0.24013218195E+02  0.00000000000E+00 0.  1.
          5    1    5    5  502    0 -0.69533430963E+02  0.42379099937E+02 -0.60516100627E+02  0.10156364787E+03  0.47000000000E+01 0. -1.
         13    1    4    4    0    0  0.83058170092E+02 -0.12160779604E+03 -0.24018951902E+02  0.14921134584E+03  0.00000000000E+00 0. -1.
        -14    1    4    4    0    0 -0.69007022051E+01 -0.74541894865E+02 -0.19982921496E+01  0.74887295000E+02  0.00000000000E+00 0.  1.
         -5    1    3    3    0  504 -0.29146420180E+02  0.14670061163E+02  0.17856129497E+01  0.33015192221E+02  0.47000000000E+01 0.  1.
<mgrwt>
<rscale>  2 0.25550407E+03</rscale>
<asrwt>0</asrwt>
<pdfrwt beam="1">  1       21 0.32691541E-01 0.25596943E+03</pdfrwt>
<pdfrwt beam="2">  1       21 0.47498206E-01 0.25596943E+03</pdfrwt>
<totfact> 0.37054623E+04</totfact>
</mgrwt>
</event>
<event>
12    1  0.1410528E-001  0.2624880E+03  0.7546771E-02  0.1105932E+00
         21   -1    0    0  502  503  0.00000000000E+00  0.00000000000E+00  0.12413366052E+03  0.12413366052E+03  0.00000000000E+00 0. -1.
         21   -1    0    0  503  504 -0.00000000000E+00 -0.00000000000E+00 -0.55120277654E+03  0.55120277654E+03  0.00000000000E+00 0. -1.
         -6    2    1    2    0  504 -0.42463807390E+02 -0.19236196228E+03 -0.20954162426E+03  0.33442856891E+03  0.17067066514E+03 0.  0.
        -24    2    3    3    0    0  0.25896926677E+02 -0.11255438464E+03 -0.65222453945E+02  0.15584370861E+03  0.81817801861E+02 0.  0.
          6    2    1    2  502    0  0.42463807390E+02  0.19236196228E+03 -0.21752749176E+03  0.34090786814E+03  0.17347525882E+03 0.  0.
         24    2    5    5    0    0  0.82365386704E+02  0.13961069344E+03 -0.10170870870E+03  0.20745033593E+03  0.80098550557E+02 0.  0.
          2    1    6    6  501    0  0.61254939364E+02  0.13816902595E+03 -0.63834371806E+02  0.16406606704E+03  0.00000000000E+00 0. -1.
         -1    1    6    6    0  501  0.21110447340E+02  0.14416674886E+01 -0.37874336894E+02  0.43384268891E+02  0.00000000000E+00 0.  1.
          5    1    5    5  502    0 -0.39901579314E+02  0.52751268836E+02 -0.11581878306E+03  0.13345753221E+03  0.47000000000E+01 0. -1.
         13    1    4    4    0    0  0.75615717859E+01 -0.40727445657E+02 -0.70238933127E+02  0.81543914086E+02  0.00000000000E+00 0. -1.
        -14    1    4    4    0    0  0.18335354891E+02 -0.71826938984E+02  0.50164791827E+01  0.74299794523E+02  0.00000000000E+00 0.  1.
         -5    1    3    3    0  504 -0.68360734068E+02 -0.79807577637E+02 -0.14431917031E+03  0.17858486031E+03  0.47000000000E+01 0.  1.
<mgrwt>
<rscale>  2 0.26202555E+03</rscale>
<asrwt>0</asrwt>
<pdfrwt beam="1">  1       21 0.19097486E-01 0.26248803E+03</pdfrwt>
<pdfrwt beam="2">  1       21 0.84800428E-01 0.26248803E+03</pdfrwt>
<totfact> 0.29265925E+04</totfact>
</mgrwt>
</event>
<event>
12    1  0.1410528E-001  0.1826964E+03  0.7546771E-02  0.1165554E+00
         21   -1    0    0  502  503  0.00000000000E+00  0.00000000000E+00  0.23834674454E+03  0.23834674454E+03  0.00000000000E+00 0.  1.
         21   -1    0    0  503  504 -0.00000000000E+00 -0.00000000000E+00 -0.15393234514E+03  0.15393234514E+03  0.00000000000E+00 0.  1.
         -6    2    1    2    0  504 -0.37641979914E+02  0.46268330387E+02 -0.18808614529E+02  0.18366206510E+03  0.17268559039E+03 0.  0.
        -24    2    3    3    0    0 -0.51331592357E+02 -0.33938587827E+02 -0.10718627872E+02  0.10175911581E+03  0.80332238545E+02 0.  0.
          6    2    1    2  502    0  0.37641979914E+02 -0.46268330387E+02  0.10322301394E+03  0.20861702458E+03  0.17119694883E+03 0.  0.
         24    2    5    5    0    0  0.70645444596E+02 -0.22899964144E+02  0.13360379542E+02  0.10996261625E+03  0.79988061810E+02 0.  0.
          4    1    6    6  501    0  0.67483492291E+02 -0.31620181079E+02 -0.18494432476E+02  0.76784774636E+02  0.00000000000E+00 0. -1.
         -3    1    6    6    0  501  0.31619523045E+01  0.87202169354E+01  0.31854812018E+02  0.33177841618E+02  0.00000000000E+00 0.  1.
          5    1    5    5  502    0 -0.33003464682E+02 -0.23368366243E+02  0.89862634395E+02  0.98654408327E+02  0.47000000000E+01 0. -1.
         11    1    4    4    0    0 -0.26904077865E+02  0.17665522993E+02  0.19019317562E+02  0.37384950835E+02  0.00000000000E+00 0. -1.
        -12    1    4    4    0    0 -0.24427514492E+02 -0.51604110820E+02 -0.29737945434E+02  0.64374164977E+02  0.00000000000E+00 0.  1.
         -5    1    3    3    0  504  0.13689612443E+02  0.80206918214E+02 -0.80899866572E+01  0.81902949290E+02  0.47000000000E+01 0.  1.
<mgrwt>
<rscale>  2 0.18234382E+03</rscale>
<asrwt>0</asrwt>
<pdfrwt beam="1">  1       21 0.36668730E-01 0.18269644E+03</pdfrwt>
<pdfrwt beam="2">  1       21 0.23681899E-01 0.18269644E+03</pdfrwt>
<totfact> 0.12086187E+05</totfact>
</mgrwt>
</event>
<event>
12    1  0.1410528E-001  0.2679464E+03  0.7546771E-02  0.1102551E+00
         21   -1    0    0  502  503  0.00000000000E+00  0.00000000000E+00  0.59832761805E+03  0.59832761805E+03  0.00000000000E+00 0.  1.
         21   -1    0    0  503  504 -0.00000000000E+00 -0.00000000000E+00 -0.12413699174E+03  0.12413699174E+03  0.00000000000E+00 0. -1.
         -6    2    1    2    0  504 -0.19917574563E+03 -0.48459104810E+02  0.16916916889E+03  0.31688089984E+03  0.17255733684E+03 0.  0.
        -24    2    3    3    0    0 -0.66150049721E+02 -0.81637371102E+02  0.76024128528E+02  0.15106557585E+03  0.77463866743E+02 0.  0.
          6    2    1    2  502    0  0.19917574563E+03  0.48459104810E+02  0.30502145742E+03  0.40558370996E+03  0.17158319793E+03 0.  0.
         24    2    5    5    0    0  0.13572882850E+03  0.60849747668E+02  0.29476026669E+03  0.33996038059E+03  0.81021224829E+02 0.  0.
          4    1    6    6  501    0  0.47912337825E+02  0.63853902969E+02  0.11659324057E+03  0.14130427023E+03  0.00000000000E+00 0. -1.
         -3    1    6    6    0  501  0.87816490679E+02 -0.30041553012E+01  0.17816702612E+03  0.19865611035E+03  0.00000000000E+00 0.  1.
          5    1    5    5  502    0  0.63446917121E+02 -0.12390642858E+02  0.10261190737E+02  0.65623329372E+02  0.47000000000E+01 0. -1.
         11    1    4    4    0    0 -0.71039584507E+02 -0.36034443704E+02  0.27433044254E+02  0.84247703927E+02  0.00000000000E+00 0. -1.
        -12    1    4    4    0    0  0.48895347864E+01 -0.45602927398E+02  0.48591084274E+02  0.66817871926E+02  0.00000000000E+00 0.  1.
         -5    1    3    3    0  504 -0.13302569590E+03  0.33178266293E+02  0.93145040361E+02  0.16581532399E+03  0.47000000000E+01 0.  1.
<mgrwt>
<rscale>  2 0.26778973E+03</rscale>
<asrwt>0</asrwt>
<pdfrwt beam="1">  1       21 0.92050401E-01 0.26794644E+03</pdfrwt>
<pdfrwt beam="2">  1       21 0.19097999E-01 0.26794644E+03</pdfrwt>
<totfact> 0.24121717E+04</totfact>
</mgrwt>
</event>
<event>
12    1  0.1410528E-001  0.2149458E+03  0.7546771E-02  0.1137755E+00
         21   -1    0    0  502  503  0.00000000000E+00  0.00000000000E+00  0.65706797674E+02  0.65706797674E+02  0.00000000000E+00 0. -1.
         21   -1    0    0  503  504 -0.00000000000E+00 -0.00000000000E+00 -0.79395018471E+03  0.79395018471E+03  0.00000000000E+00 0. -1.
         -6    2    1    2    0  504  0.11017430256E+03  0.63510815946E+02 -0.50993259850E+03  0.55328907587E+03  0.17299001639E+03 0.  0.
        -24    2    3    3    0    0  0.12215564115E+03  0.38566520017E+02 -0.50195431953E+03  0.52410837490E+03  0.79511462150E+02 0.  0.
          6    2    1    2  502    0 -0.11017430256E+03 -0.63510815946E+02 -0.21831078853E+03  0.30636790652E+03  0.17329077606E+03 0.  0.
         24    2    5    5    0    0 -0.12649364089E+03 -0.42486093351E+02 -0.99782639899E+02  0.18479746693E+03  0.79923834007E+02 0.  0.
          4    1    6    6  501    0 -0.71784352366E+02 -0.64253505978E+02 -0.56118990737E+02  0.11149371012E+03  0.00000000000E+00 0. -1.
         -3    1    6    6    0  501 -0.54709288528E+02  0.21767412627E+02 -0.43663649162E+02  0.73303756806E+02  0.00000000000E+00 0.  1.
          5    1    5    5  502    0  0.16319338335E+02 -0.21024722595E+02 -0.11852814863E+03  0.12157043959E+03  0.47000000000E+01 0. -1.
         13    1    4    4    0    0  0.38924692052E+02  0.16847534248E+02 -0.57749786093E+02  0.71651998265E+02  0.00000000000E+00 0. -1.
        -14    1    4    4    0    0  0.83230949094E+02  0.21718985769E+02 -0.44420453343E+03  0.45245637663E+03  0.00000000000E+00 0.  1.
         -5    1    3    3    0  504 -0.11981338586E+02  0.24944295929E+02 -0.79782789760E+01  0.29180700970E+02  0.47000000000E+01 0.  1.
<mgrwt>
<rscale>  2 0.21488517E+03</rscale>
<asrwt>0</asrwt>
<pdfrwt beam="1">  1       21 0.10108738E-01 0.21494579E+03</pdfrwt>
<pdfrwt beam="2">  1       21 0.12214618E+00 0.21494579E+03</pdfrwt>
<totfact> 0.39739828E+04</totfact>
</mgrwt>
</event>
<event>
12    1  0.1410528E-001  0.1924838E+03  0.7546771E-02  0.1159295E+00
         21   -1    0    0  502  503  0.00000000000E+00  0.00000000000E+00  0.26495676766E+03  0.26495676766E+03  0.00000000000E+00 0. -1.
         21   -1    0    0  503  504 -0.00000000000E+00 -0.00000000000E+00 -0.34702369538E+03  0.34702369538E+03  0.00000000000E+00 0. -1.
         -6    2    1    2    0  504  0.77767225228E+02  0.22216938279E+02 -0.28330377717E+03  0.34250700031E+03  0.17466734508E+03 0.  0.
        -24    2    3    3    0    0  0.62227899885E+02  0.22241117872E+02 -0.30103559513E+03  0.31846581513E+03  0.80193933827E+02 0.  0.
          6    2    1    2  502    0 -0.77767225228E+02 -0.22216938279E+02  0.20123684945E+03  0.26947346272E+03  0.15993231027E+03 0.  0.
         24    2    5    5    0    0 -0.37148217641E+01  0.32253440970E+02  0.10905297400E+03  0.13920167925E+03  0.80190223931E+02 0.  0.
          4    1    6    6  501    0  0.34132716331E+02  0.34707182989E+00  0.62679109056E+02  0.71371097056E+02  0.00000000000E+00 0. -1.
         -3    1    6    6    0  501 -0.37847538096E+02  0.31906369140E+02  0.46373864944E+02  0.67830582198E+02  0.00000000000E+00 0.  1.
          5    1    5    5  502    0 -0.74052403464E+02 -0.54470379249E+02  0.92183875454E+02  0.13027178347E+03  0.47000000000E+01 0. -1.
         13    1    4    4    0    0 -0.94803862482E+01  0.11812432058E+02 -0.15194849316E+03  0.15270152537E+03  0.00000000000E+00 0. -1.
        -14    1    4    4    0    0  0.71708286133E+02  0.10428685814E+02 -0.14908710197E+03  0.16576428976E+03  0.00000000000E+00 0.  1.
         -5    1    3    3    0  504  0.15539325343E+02 -0.24179592896E-01  0.17731817960E+02  0.24041185181E+02  0.47000000000E+01 0.  1.
<mgrwt>
<rscale>  2 0.18907845E+03</rscale>
<asrwt>0</asrwt>
<pdfrwt beam="1">  1       21 0.40762579E-01 0.19248380E+03</pdfrwt>
<pdfrwt beam="2">  1       21 0.53388261E-01 0.19248380E+03</pdfrwt>
<totfact> 0.19258923E+04</totfact>
</mgrwt>
</event>
<event>
12    1  0.1410528E-001  0.2789319E+03  0.7546771E-02  0.1096788E+00
         21   -1    0    0  502  503  0.00000000000E+00  0.00000000000E+00  0.40175836271E+03  0.40175836271E+03  0.00000000000E+00 0. -1.
         21   -1    0    0  503  504 -0.00000000000E+00 -0.00000000000E+00 -0.74591407830E+03  0.74591407830E+03  0.00000000000E+00 0.  1.
         -6    2    1    2    0  504  0.20165769692E+03  0.69291259310E+02 -0.66727777563E+03  0.72323068710E+03  0.17982183283E+03 0.  0.
        -24    2    3    3    0    0  0.49880424712E+02  0.10669562143E+02 -0.39306599857E+03  0.40434664482E+03  0.79958949598E+02 0.  0.
          6    2    1    2  502    0 -0.20165769692E+03 -0.69291259310E+02  0.32312206004E+03  0.42444175391E+03  0.17399951563E+03 0.  0.
         24    2    5    5    0    0 -0.12552405234E+03 -0.13005343633E+02  0.97527634542E+02  0.17973913653E+03  0.82879979620E+02 0.  0.
          2    1    6    6  501    0 -0.21963633767E+02 -0.35979071014E+02  0.13031842218E+02  0.44121691614E+02  0.00000000000E+00 0. -1.
         -1    1    6    6    0  501 -0.10356041858E+03  0.22973727380E+02  0.84495792323E+02  0.13561744492E+03  0.00000000000E+00 0.  1.
          5    1    5    5  502    0 -0.76133644580E+02 -0.56285915676E+02  0.22559442549E+03  0.24470261738E+03  0.47000000000E+01 0. -1.
         13    1    4    4    0    0  0.48810535125E+02  0.22422631560E+02 -0.12539186950E+03  0.13641247627E+03  0.00000000000E+00 0. -1.
        -14    1    4    4    0    0  0.10698895868E+01 -0.11753069417E+02 -0.26767412907E+03  0.26793416855E+03  0.00000000000E+00 0.  1.
         -5    1    3    3    0  504  0.15177727221E+03  0.58621697167E+02 -0.27421177706E+03  0.31888404227E+03  0.47000000000E+01 0.  1.
<mgrwt>
<rscale>  2 0.27799782E+03</rscale>
<asrwt>0</asrwt>
<pdfrwt beam="1">  1       21 0.61808979E-01 0.27893189E+03</pdfrwt>
<pdfrwt beam="2">  1       21 0.11475601E+00 0.27893189E+03</pdfrwt>
<totfact> 0.13347341E+03</totfact>
</mgrwt>
</event>
<event>
12    1  0.1410528E-001  0.1825684E+03  0.7546771E-02  0.1166786E+00
         21   -1    0    0  502  503  0.00000000000E+00  0.00000000000E+00  0.12296829570E+04  0.12296829570E+04  0.00000000000E+00 0.  1.
         21   -1    0    0  503  504 -0.00000000000E+00 -0.00000000000E+00 -0.27383300584E+02  0.27383300584E+02  0.00000000000E+00 0.  1.
         -6    2    1    2    0  504  0.18996099763E+01  0.37087123698E+02  0.46232702428E+03  0.49490437809E+03  0.17264125467E+03 0.  0.
        -24    2    3    3    0    0  0.32847776964E+02 -0.18084620122E+02  0.38671954563E+03  0.39621146455E+03  0.77624015180E+02 0.  0.
          6    2    1    2  502    0 -0.18996099763E+01 -0.37087123698E+02  0.73997263215E+03  0.76216187950E+03  0.17875170202E+03 0.  0.
         24    2    5    5    0    0  0.57682418947E+02  0.39991099315E+01  0.54335721679E+03  0.55259611817E+03  0.82353812589E+02 0.  0.
          4    1    6    6  501    0  0.26345170992E+02  0.31893978088E+02  0.11545993141E+03  0.12264701233E+03  0.00000000000E+00 0. -1.
         -3    1    6    6    0  501  0.31337247955E+02 -0.27894868157E+02  0.42789728537E+03  0.42994910584E+03  0.00000000000E+00 0.  1.
          5    1    5    5  502    0 -0.59582028924E+02 -0.41086233629E+02  0.19661541536E+03  0.20956576133E+03  0.47000000000E+01 0. -1.
         11    1    4    4    0    0  0.17863635739E+02 -0.59611055393E+01  0.15223329773E+02  0.24215574130E+02  0.00000000000E+00 0. -1.
        -12    1    4    4    0    0  0.14984141225E+02 -0.12123514582E+02  0.37149621585E+03  0.37199589042E+03  0.00000000000E+00 0.  1.
         -5    1    3    3    0  504 -0.30948166988E+02  0.55171743820E+02  0.75607478655E+02  0.98692913547E+02  0.47000000000E+01 0.  1.
<mgrwt>
<rscale>  2 0.18105514E+03</rscale>
<asrwt>0</asrwt>
<pdfrwt beam="1">  1       21 0.18918195E+00 0.18256844E+03</pdfrwt>
<pdfrwt beam="2">  1       21 0.42128164E-02 0.18256844E+03</pdfrwt>
<totfact> 0.57078832E+04</totfact>
</mgrwt>
</event>
<event>
12    1  0.1410528E-001  0.1834614E+03  0.7546771E-02  0.1164711E+00
         21   -1    0    0  502  503  0.00000000000E+00  0.00000000000E+00  0.70190087487E+03  0.70190087487E+03  0.00000000000E+00 0.  1.
         21   -1    0    0  503  504 -0.00000000000E+00 -0.00000000000E+00 -0.50372019965E+02  0.50372019965E+02  0.00000000000E+00 0.  1.
         -6    2    1    2    0  504  0.29604869681E+02 -0.52432287152E+02  0.23858564229E+03  0.30040986990E+03  0.17232930157E+03 0.  0.
        -24    2    3    3    0    0  0.21238497837E+02 -0.10028212467E+03  0.19546453425E+03  0.23528596425E+03  0.81520074249E+02 0.  0.
          6    2    1    2  502    0 -0.29604869681E+02  0.52432287152E+02  0.41294321262E+03  0.45186302494E+03  0.17329888464E+03 0.  0.
         24    2    5    5    0    0 -0.12545366211E+02  0.19939415541E+02  0.72868145207E+02  0.10978122940E+03  0.78658662826E+02 0.  0.
          2    1    6    6  501    0  0.21329737222E+02  0.32229460676E+02  0.14688289483E+02  0.41345394826E+02  0.00000000000E+00 0. -1.
         -1    1    6    6    0  501 -0.33875103433E+02 -0.12290045135E+02  0.58179855723E+02  0.68435834575E+02  0.00000000000E+00 0.  1.
          5    1    5    5  502    0 -0.17059503470E+02  0.32492871612E+02  0.34007506741E+03  0.34208179554E+03  0.47000000000E+01 0. -1.
         11    1    4    4    0    0  0.27588920106E+01 -0.62367770309E+01 -0.79189481593E+01  0.10450770919E+02  0.00000000000E+00 0. -1.
        -12    1    4    4    0    0  0.18479605826E+02 -0.94045347637E+02  0.20338348240E+03  0.22483519333E+03  0.00000000000E+00 0.  1.
         -5    1    3    3    0  504  0.83663718439E+01  0.47849837516E+02  0.43121108043E+02  0.65123905649E+02  0.47000000000E+01 0.  1.
<mgrwt>
<rscale>  2 0.18323210E+03</rscale>
<asrwt>0</asrwt>
<pdfrwt beam="1">  1       21 0.10798474E+00 0.18346143E+03</pdfrwt>
<pdfrwt beam="2">  1       21 0.77495420E-02 0.18346143E+03</pdfrwt>
<totfact> 0.86963479E+04</totfact>
</mgrwt>
</event>
<event>
12    1  0.1410528E-001  0.1900445E+03  0.7546771E-02  0.1158789E+00
         21   -1    0    0  502  503  0.00000000000E+00  0.00000000000E+00  0.12601719350E+03  0.12601719350E+03  0.00000000000E+00 0.  1.
         21   -1    0    0  503  504 -0.00000000000E+00 -0.00000000000E+00 -0.31350570494E+03  0.31350570494E+03  0.00000000000E+00 0. -1.
         -6    2    1    2    0  504  0.31846836925E+02 -0.72133175223E+02 -0.16134685564E+03  0.24929848393E+03  0.17291474858E+03 0.  0.
        -24    2    3    3    0    0  0.27678706174E+02  0.24013519418E+02 -0.47653989521E+02  0.10026923173E+03  0.80251207001E+02 0.  0.
          6    2    1    2  502    0 -0.31846836925E+02  0.72133175223E+02 -0.26141655807E+02  0.19022441451E+03  0.17112722085E+03 0.  0.
         24    2    5    5    0    0  0.17167861618E+02 -0.17336398492E+02 -0.16981375003E+02  0.87690293172E+02  0.82498086247E+02 0.  0.
          2    1    6    6  501    0  0.26990505650E+01 -0.33736477768E+02 -0.42339419071E+02  0.54203885593E+02  0.00000000000E+00 0. -1.
         -1    1    6    6    0  501  0.14468811053E+02  0.16400079277E+02  0.25358044068E+02  0.33486407578E+02  0.00000000000E+00 0.  1.
          5    1    5    5  502    0 -0.49014698543E+02  0.89469573715E+02 -0.91602808035E+01  0.10253412134E+03  0.47000000000E+01 0. -1.
         13    1    4    4    0    0  0.11321649717E+02  0.45105652340E+02 -0.99529202755E+00  0.46515483783E+02  0.00000000000E+00 0. -1.
        -14    1    4    4    0    0  0.16357056457E+02 -0.21092132922E+02 -0.46658697493E+02  0.53753747952E+02  0.00000000000E+00 0.  1.
         -5    1    3    3    0  504  0.41681307507E+01 -0.96146694641E+02 -0.11369286612E+03  0.14902925220E+03  0.47000000000E+01 0.  1.
<mgrwt>
<rscale>  2 0.18963699E+03</rscale>
<asrwt>0</asrwt>
<pdfrwt beam="1">  1       21 0.19387261E-01 0.19004454E+03</pdfrwt>
<pdfrwt beam="2">  1       21 0.48231647E-01 0.19004454E+03</pdfrwt>
<totfact> 0.10056143E+05</totfact>
</mgrwt>
</event>
<event>
12    1  0.1410528E-001  0.1813647E+03  0.7546771E-02  0.1167622E+00
         21   -1    0    0  502  503  0.00000000000E+00  0.00000000000E+00  0.36621094978E+02  0.36621094978E+02  0.00000000000E+00 0. -1.
         21   -1    0    0  503  504 -0.00000000000E+00 -0.00000000000E+00 -0.17016292050E+04  0.17016292050E+04  0.00000000000E+00 0. -1.
         -6    2    1    2    0  504 -0.18093730590E+02  0.54654816298E+02 -0.14325735308E+04  0.14434300258E+04  0.16705922937E+03 0.  0.
        -24    2    3    3    0    0  0.52742925822E+01 -0.20987495227E+02 -0.54322735951E+03  0.55055459986E+03  0.86868349777E+02 0.  0.
          6    2    1    2  502    0  0.18093730590E+02 -0.54654816298E+02 -0.23243457923E+03  0.29482027422E+03  0.17198438428E+03 0.  0.
         24    2    5    5    0    0 -0.24089836344E+02 -0.21848545590E+02 -0.22607530097E+03  0.24079958247E+03  0.76267411459E+02 0.  0.
          2    1    6    6  501    0 -0.16820046985E+02 -0.44346845248E+02 -0.20023090009E+03  0.20577164531E+03  0.00000000000E+00 0. -1.
         -1    1    6    6    0  501 -0.72697893583E+01  0.22498299657E+02 -0.25844400880E+02  0.35027937159E+02  0.00000000000E+00 0.  1.
          5    1    5    5  502    0  0.42183566934E+02 -0.32806270708E+02 -0.63592782675E+01  0.54020691750E+02  0.47000000000E+01 0. -1.
         11    1    4    4    0    0 -0.23083720187E+02  0.96259469690E+01 -0.53552545222E+02  0.59104924435E+02  0.00000000000E+00 0. -1.
        -12    1    4    4    0    0  0.28358012769E+02 -0.30613442196E+02 -0.48967481428E+03  0.49144967542E+03  0.00000000000E+00 0.  1.
         -5    1    3    3    0  504 -0.23368023172E+02  0.75642311525E+02 -0.88934617132E+03  0.89287542594E+03  0.47000000000E+01 0.  1.
<mgrwt>
<rscale>  2 0.18018743E+03</rscale>
<asrwt>0</asrwt>
<pdfrwt beam="1">  1       21 0.56340170E-02 0.18136472E+03</pdfrwt>
<pdfrwt beam="2">  1       21 0.26178900E+00 0.18136472E+03</pdfrwt>
<totfact> 0.12594848E+04</totfact>
</mgrwt>
</event>
<event>
12    1  0.1410528E-001  0.1863676E+03  0.7546771E-02  0.1165051E+00
         21   -1    0    0  502  503  0.00000000000E+00  0.00000000000E+00  0.69479608400E+03  0.69479608400E+03  0.00000000000E+00 0. -1.
         21   -1    0    0  503  504 -0.00000000000E+00 -0.00000000000E+00 -0.49152258187E+02  0.49152258187E+02  0.00000000000E+00 0. -1.
         -6    2    1    2    0  504 -0.12209979426E+02 -0.65743879453E+02  0.42213071071E+03  0.46144038044E+03  0.17395846198E+03 0.  0.
        -24    2    3    3    0    0  0.49767780522E+02 -0.84544089656E+01  0.15925624943E+03  0.18530925479E+03  0.80178911953E+02 0.  0.
          6    2    1    2  502    0  0.12209979426E+02  0.65743879453E+02  0.22351311511E+03  0.28250796175E+03  0.15931507946E+03 0.  0.
         24    2    5    5    0    0 -0.12095652205E+02  0.89246997086E+02  0.21496338650E+03  0.24731779087E+03  0.82737541972E+02 0.  0.
          2    1    6    6  501    0  0.21939691676E+02  0.46646536079E+02  0.16673724135E+03  0.17452380082E+03  0.00000000000E+00 0. -1.
         -1    1    6    6    0  501 -0.34035343881E+02  0.42600461007E+02  0.48226145157E+02  0.72793990053E+02  0.00000000000E+00 0.  1.
          5    1    5    5  502    0  0.24305631631E+02 -0.23503117633E+02  0.85497286037E+01  0.35190170881E+02  0.47000000000E+01 0. -1.
         13    1    4    4    0    0  0.59668080400E+01 -0.26694124230E+02  0.10719104648E+02  0.29378193802E+02  0.00000000000E+00 0. -1.
        -14    1    4    4    0    0  0.43800972482E+02  0.18239715264E+02  0.14853714478E+03  0.15593106099E+03  0.00000000000E+00 0.  1.
         -5    1    3    3    0  504 -0.61977759947E+02 -0.57289470487E+02  0.26287446128E+03  0.27613112565E+03  0.47000000000E+01 0.  1.
<mgrwt>
<rscale>  2 0.18287346E+03</rscale>
<asrwt>0</asrwt>
<pdfrwt beam="1">  1       21 0.10689170E+00 0.18636761E+03</pdfrwt>
<pdfrwt beam="2">  1       21 0.75618864E-02 0.18636761E+03</pdfrwt>
<totfact> 0.92874437E+04</totfact>
</mgrwt>
</event>
<event>
12    1  0.1410528E-001  0.1928409E+03  0.7546771E-02  0.1156255E+00
         21   -1    0    0  502  503  0.00000000000E+00  0.00000000000E+00  0.75814158241E+02  0.75814158241E+02  0.00000000000E+00 0.  1.
         21   -1    0    0  503  504 -0.00000000000E+00 -0.00000000000E+00 -0.91092386468E+03  0.91092386468E+03  0.00000000000E+00 0.  1.
         -6    2    1    2    0  504 -0.25824647163E+00  0.85624638941E+02 -0.75510216464E+03  0.77933746405E+03  0.17278876802E+03 0.  0.
        -24    2    3    3    0    0  0.28873717158E+02  0.20019836088E+01 -0.19657856003E+03  0.21381812160E+03  0.78976954734E+02 0.  0.
          6    2    1    2  502    0  0.25824647163E+00 -0.85624638941E+02 -0.80007541806E+02  0.20740055887E+03  0.17112024892E+03 0.  0.
         24    2    5    5    0    0 -0.52852565830E+02 -0.52779809199E+02 -0.92415834158E+02  0.14356015675E+03  0.80558861889E+02 0.  0.
          4    1    6    6  501    0 -0.69596530729E+02 -0.40245344317E+02 -0.92617601789E+02  0.12264332428E+03  0.00000000000E+00 0. -1.
         -3    1    6    6    0  501  0.16743964900E+02 -0.12534464882E+02  0.20176763138E+00  0.20916832471E+02  0.00000000000E+00 0.  1.
          5    1    5    5  502    0  0.53110812301E+02 -0.32844829742E+02  0.12408292352E+02  0.63840402123E+02  0.47000000000E+01 0. -1.
         11    1    4    4    0    0  0.49892635240E+01 -0.25834325535E+02 -0.15952691949E+03  0.16168222898E+03  0.00000000000E+00 0. -1.
        -12    1    4    4    0    0  0.23884453634E+02  0.27836309144E+02 -0.37051640540E+02  0.52135892616E+02  0.00000000000E+00 0.  1.
         -5    1    3    3    0  504 -0.29131963630E+02  0.83622655332E+02 -0.55852360460E+03  0.56551934245E+03  0.47000000000E+01 0.  1.
<mgrwt>
<rscale>  2 0.19246639E+03</rscale>
<asrwt>0</asrwt>
<pdfrwt beam="1">  1       21 0.11663716E-01 0.19284088E+03</pdfrwt>
<pdfrwt beam="2">  1       21 0.14014214E+00 0.19284088E+03</pdfrwt>
<totfact> 0.22033018E+04</totfact>
</mgrwt>
</event>
<event>
12    1  0.1410528E-001  0.2035542E+03  0.7546771E-02  0.1147105E+00
         21   -1    0    0  502  503  0.00000000000E+00  0.00000000000E+00  0.84897823410E+02  0.84897823410E+02  0.00000000000E+00 0. -1.
         21   -1    0    0  503  504 -0.00000000000E+00 -0.00000000000E+00 -0.48482392422E+03  0.48482392422E+03  0.00000000000E+00 0. -1.
         -6    2    1    2    0  504 -0.32401302811E+02  0.10006522789E+03 -0.19074962173E+03  0.27896186990E+03  0.17427395791E+03 0.  0.
        -24    2    3    3    0    0  0.68537950178E+01  0.82366689707E+02 -0.20248002154E+03  0.23408544803E+03  0.83466111546E+02 0.  0.
          6    2    1    2  502    0  0.32401302811E+02 -0.10006522789E+03 -0.20917647908E+03  0.29075987773E+03  0.17240537359E+03 0.  0.
         24    2    5    5    0    0  0.56443606140E+02 -0.67239246882E+02 -0.21730109131E+03  0.24900252266E+03  0.84115961680E+02 0.  0.
          2    1    6    6  501    0  0.65630612581E+02 -0.63328397437E+02 -0.11768827993E+03  0.14889054525E+03  0.00000000000E+00 0. -1.
         -1    1    6    6    0  501 -0.91870064413E+01 -0.39108494446E+01 -0.99612811379E+02  0.10011197741E+03  0.00000000000E+00 0.  1.
          5    1    5    5  502    0 -0.24042303329E+02 -0.32825981013E+02  0.81246122387E+01  0.41757355075E+02  0.47000000000E+01 0. -1.
         13    1    4    4    0    0 -0.59457604663E+01 -0.87036430549E+01 -0.81193733563E+02  0.81875074594E+02  0.00000000000E+00 0. -1.
        -14    1    4    4    0    0  0.12799555484E+02  0.91070332761E+02 -0.12128628798E+03  0.15221037344E+03  0.00000000000E+00 0.  1.
         -5    1    3    3    0  504 -0.39255097829E+02  0.17698538188E+02  0.11730399810E+02  0.44876421863E+02  0.47000000000E+01 0.  1.
<mgrwt>
<rscale>  2 0.20315363E+03</rscale>
<asrwt>0</asrwt>
<pdfrwt beam="1">  1       21 0.13061204E-01 0.20355419E+03</pdfrwt>
<pdfrwt beam="2">  1       21 0.74588294E-01 0.20355419E+03</pdfrwt>
<totfact> 0.80738464E+04</totfact>
</mgrwt>
</event>
<event>
12    1  0.1410528E-001  0.1928895E+03  0.7546771E-02  0.1157276E+00
         21   -1    0    0  502  503  0.00000000000E+00  0.00000000000E+00  0.19409263179E+03  0.19409263179E+03  0.00000000000E+00 0.  1.
         21   -1    0    0  503  504 -0.00000000000E+00 -0.00000000000E+00 -0.20686589757E+03  0.20686589757E+03  0.00000000000E+00 0.  1.
         -6    2    1    2    0  504 -0.59098202615E+02 -0.58753548850E+02 -0.70592900441E+02  0.19958951597E+03  0.16705699698E+03 0.  0.
        -24    2    3    3    0    0 -0.49994348518E+01 -0.14393379124E+02  0.20943893771E+02  0.84283071981E+02  0.80204899008E+02 0.  0.
          6    2    1    2  502    0  0.59098202615E+02  0.58753548850E+02  0.57819634655E+02  0.20136901339E+03  0.17395916862E+03 0.  0.
         24    2    5    5    0    0  0.10740932174E+03  0.49793334346E+02  0.47140147147E+02  0.15086761610E+03  0.80763268719E+02 0.  0.
          2    1    6    6  501    0  0.63673419947E+02  0.55104780469E+02 -0.28226040346E+01  0.84254426185E+02  0.00000000000E+00 0. -1.
         -1    1    6    6    0  501  0.43735901789E+02 -0.53114461232E+01  0.49962751181E+02  0.66613189916E+02  0.00000000000E+00 0.  1.
          5    1    5    5  502    0 -0.48311119120E+02  0.89602145043E+01  0.10679487508E+02  0.50501397288E+02  0.47000000000E+01 0. -1.
         11    1    4    4    0    0  0.33651271295E+02  0.10142089880E+02  0.36122766532E+01  0.35331552323E+02  0.00000000000E+00 0. -1.
        -12    1    4    4    0    0 -0.38650706147E+02 -0.24535469004E+02  0.17331617118E+02  0.48951519658E+02  0.00000000000E+00 0.  1.
         -5    1    3    3    0  504 -0.54098767764E+02 -0.44360169726E+02 -0.91536794212E+02  0.11530644399E+03  0.47000000000E+01 0.  1.
<mgrwt>
<rscale>  2 0.19132024E+03</rscale>
<asrwt>0</asrwt>
<pdfrwt beam="1">  1       21 0.29860405E-01 0.19288953E+03</pdfrwt>
<pdfrwt beam="2">  1       21 0.31825522E-01 0.19288953E+03</pdfrwt>
<totfact> 0.10208757E+05</totfact>
</mgrwt>
</event>
<event>
12    1  0.1410528E-001  0.1795184E+03  0.7546771E-02  0.1168387E+00
         21   -1    0    0  502  503  0.00000000000E+00  0.00000000000E+00  0.18422920618E+03  0.18422920618E+03  0.00000000000E+00 0. -1.
         21   -1    0    0  503  504 -0.00000000000E+00 -0.00000000000E+00 -0.25958868320E+03  0.25958868320E+03  0.00000000000E+00 0. -1.
         -6    2    1    2    0  504 -0.27137443830E+02 -0.41782932692E+02 -0.16472340148E+03  0.24328669265E+03  0.17196616383E+03 0.  0.
        -24    2    3    3    0    0  0.27320615884E+02 -0.70266045473E+02 -0.13570994850E+03  0.17516299313E+03  0.81124292558E+02 0.  0.
          6    2    1    2  502    0  0.27137443830E+02  0.41782932692E+02  0.89363924467E+02  0.20053119673E+03  0.17246621566E+03 0.  0.
         24    2    5    5    0    0  0.45083647670E+01  0.87322670430E+02  0.29276255019E+02  0.12167334390E+03  0.79383432682E+02 0.  0.
          4    1    6    6  501    0 -0.32232865740E+02  0.64907663328E+02  0.59363875419E+01  0.72713156235E+02  0.00000000000E+00 0. -1.
         -3    1    6    6    0  501  0.36741230507E+02  0.22415007102E+02  0.23339867477E+02  0.48960187667E+02  0.00000000000E+00 0.  1.
          5    1    5    5  502    0  0.22629079063E+02 -0.45539737738E+02  0.60087669449E+02  0.78857852826E+02  0.47000000000E+01 0. -1.
         11    1    4    4    0    0 -0.46420352665E+01  0.16311502040E+02 -0.11798847619E+02  0.20659777234E+02  0.00000000000E+00 0. -1.
        -12    1    4    4    0    0  0.31962651151E+02 -0.86577547513E+02 -0.12391110088E+03  0.15450321590E+03  0.00000000000E+00 0.  1.
         -5    1    3    3    0  504 -0.54458059714E+02  0.28483112781E+02 -0.29013452986E+02  0.68123699516E+02  0.47000000000E+01 0.  1.
<mgrwt>
<rscale>  2 0.17939817E+03</rscale>
<asrwt>0</asrwt>
<pdfrwt beam="1">  1       21 0.28342955E-01 0.17951838E+03</pdfrwt>
<pdfrwt beam="2">  1       21 0.39936721E-01 0.17951838E+03</pdfrwt>
<totfact> 0.72306386E+04</totfact>
</mgrwt>
</event>
<event>
12    1  0.1410528E-001  0.1787860E+03  0.7546771E-02  0.1171132E+00
         21   -1    0    0  502  503  0.00000000000E+00  0.00000000000E+00  0.22714791737E+04  0.22714791737E+04  0.00000000000E+00 0. -1.
         21   -1    0    0  503  504 -0.00000000000E+00 -0.00000000000E+00 -0.80317299525E+02  0.80317299525E+02  0.00000000000E+00 0. -1.
         -6    2    1    2    0  504 -0.88406241915E+01 -0.52333019627E+02  0.26837166396E+02  0.18078901647E+03  0.17072648710E+03 0.  0.
        -24    2    3    3    0    0 -0.57832716022E+02  0.80854051270E+01  0.54766711921E+01  0.99986962864E+02  0.80977787058E+02 0.  0.
          6    2    1    2  502    0  0.88406241915E+01  0.52333019627E+02  0.21643247078E+04  0.21710074568E+04  0.16172518356E+03 0.  0.
         24    2    5    5    0    0  0.76281611960E+01  0.93570655721E+02  0.13702905543E+04  0.13758883841E+04  0.80987567143E+02 0.  0.
          2    1    6    6  501    0  0.35605373484E+02  0.13501864292E+02  0.51350371945E+03  0.51491369456E+03  0.00000000000E+00 0. -1.
         -1    1    6    6    0  501 -0.27977212288E+02  0.80068791429E+02  0.85678683482E+03  0.86097468957E+03  0.00000000000E+00 0.  1.
          5    1    5    5  502    0  0.12124629956E+01 -0.41237636093E+02  0.79403415354E+03  0.79511907265E+03  0.47000000000E+01 0. -1.
         11    1    4    4    0    0 -0.49305634017E+02  0.15231897582E+02 -0.32116081434E+02  0.60782390019E+02  0.00000000000E+00 0. -1.
        -12    1    4    4    0    0 -0.85270820058E+01 -0.71464924549E+01  0.37592752626E+02  0.39204572845E+02  0.00000000000E+00 0.  1.
         -5    1    3    3    0  504  0.48992091831E+02 -0.60418424754E+02  0.21360495204E+02  0.80802053607E+02  0.47000000000E+01 0.  1.
<mgrwt>
<rscale>  2 0.17660270E+03</rscale>
<asrwt>0</asrwt>
<pdfrwt beam="1">  1       21 0.34945829E+00 0.17878600E+03</pdfrwt>
<pdfrwt beam="2">  1       21 0.12356509E-01 0.17878600E+03</pdfrwt>
<totfact> 0.10019411E+03</totfact>
</mgrwt>
</event>
<event>
12    1  0.1410528E-001  0.1814657E+03  0.7546771E-02  0.1171468E+00
         21   -1    0    0  502  503  0.00000000000E+00  0.00000000000E+00  0.19472467785E+03  0.19472467785E+03  0.00000000000E+00 0. -1.
         21   -1    0    0  503  504 -0.00000000000E+00 -0.00000000000E+00 -0.17943277534E+03  0.17943277534E+03  0.00000000000E+00 0. -1.
         -6    2    1    2    0  504 -0.45526054969E+02  0.26489736688E+02 -0.66281063478E+02  0.19319151838E+03  0.17365326247E+03 0.  0.
        -24    2    3    3    0    0 -0.29264686058E+02  0.66729616948E+02 -0.93030803526E+02  0.14199270321E+03  0.78726956831E+02 0.  0.
          6    2    1    2  502    0  0.45526054969E+02 -0.26489736688E+02  0.81572965993E+02  0.18096593481E+03  0.15270950511E+03 0.  0.
         24    2    5    5    0    0  0.66459744864E+02  0.13149568698E+02  0.27422820896E+02  0.11051153737E+03  0.82891374354E+02 0.  0.
          2    1    6    6  501    0  0.61340743753E+01 -0.19992034274E+02 -0.18374685176E+02  0.27837696711E+02  0.00000000000E+00 0. -1.
         -1    1    6    6    0  501  0.60325670489E+02  0.33141602972E+02  0.45797506072E+02  0.82673840662E+02  0.00000000000E+00 0.  1.
          5    1    5    5  502    0 -0.20933689894E+02 -0.39639305386E+02  0.54150145097E+02  0.70454397436E+02  0.47000000000E+01 0. -1.
         11    1    4    4    0    0 -0.19584896614E+02  0.88523688610E+01  0.97806004254E+01  0.23613402010E+02  0.00000000000E+00 0. -1.
        -12    1    4    4    0    0 -0.96797894445E+01  0.57877248087E+02 -0.10281140395E+03  0.11837930120E+03  0.00000000000E+00 0.  1.
         -5    1    3    3    0  504 -0.16261368911E+02 -0.40239880261E+02  0.26749740048E+02  0.51198815170E+02  0.47000000000E+01 0.  1.
<mgrwt>
<rscale>  2 0.17626435E+03</rscale>
<asrwt>0</asrwt>
<pdfrwt beam="1">  1       21 0.29957643E-01 0.18146565E+03</pdfrwt>
<pdfrwt beam="2">  1       21 0.27605042E-01 0.18146565E+03</pdfrwt>
<totfact> 0.13431320E+05</totfact>
</mgrwt>
</event>
<event>
12    1  0.1410528E-001  0.2056097E+03  0.7546771E-02  0.1145114E+00
         21   -1    0    0  502  503  0.00000000000E+00  0.00000000000E+00  0.95786604271E+03  0.95786604271E+03  0.00000000000E+00 0. -1.
         21   -1    0    0  503  504 -0.00000000000E+00 -0.00000000000E+00 -0.51814097711E+02  0.51814097711E+02  0.00000000000E+00 0. -1.
         -6    2    1    2    0  504  0.11125734586E+03  0.82804852125E+01  0.25847242089E+03  0.33027769493E+03  0.17270958273E+03 0.  0.
        -24    2    3    3    0    0  0.12895056207E+03 -0.35724251902E+02  0.21949662607E+03  0.26870928282E+03  0.78239633082E+02 0.  0.
          6    2    1    2  502    0 -0.11125734586E+03 -0.82804852125E+01  0.64757952411E+03  0.67940244549E+03  0.17257369280E+03 0.  0.
         24    2    5    5    0    0 -0.30889898076E+02 -0.69741992568E+01  0.13403223085E+03  0.15958175961E+03  0.80615593016E+02 0.  0.
          2    1    6    6  501    0 -0.25814374630E+02  0.34396549386E+02  0.51289177024E+02  0.66933431310E+02  0.00000000000E+00 0. -1.
         -1    1    6    6    0  501 -0.50755234465E+01 -0.41370748643E+02  0.82743053824E+02  0.92648328305E+02  0.00000000000E+00 0.  1.
          5    1    5    5  502    0 -0.80367447782E+02 -0.13062859557E+01  0.51354729326E+03  0.51982068588E+03  0.47000000000E+01 0. -1.
         11    1    4    4    0    0  0.42552051476E+02 -0.42899108610E+02  0.13378256227E+03  0.14679504274E+03  0.00000000000E+00 0. -1.
        -12    1    4    4    0    0  0.86398510593E+02  0.71748567078E+01  0.85714063794E+02  0.12191424008E+03  0.00000000000E+00 0.  1.
         -5    1    3    3    0  504 -0.17693216212E+02  0.44004737115E+02  0.38975794819E+02  0.61568412114E+02  0.47000000000E+01 0.  1.
<mgrwt>
<rscale>  2 0.20558120E+03</rscale>
<asrwt>0</asrwt>
<pdfrwt beam="1">  1       21 0.14736399E+00 0.20560974E+03</pdfrwt>
<pdfrwt beam="2">  1       21 0.79714003E-02 0.20560974E+03</pdfrwt>
<totfact> 0.37522593E+04</totfact>
</mgrwt>
</event>
<event>
12    1  0.1410528E-001  0.1869129E+03  0.7546771E-02  0.1161302E+00
         21   -1    0    0  502  503  0.00000000000E+00  0.00000000000E+00  0.71004798695E+02  0.71004798695E+02  0.00000000000E+00 0. -1.
         21   -1    0    0  503  504 -0.00000000000E+00 -0.00000000000E+00 -0.49178795474E+03  0.49178795474E+03  0.00000000000E+00 0. -1.
         -6    2    1    2    0  504  0.71213109971E+02 -0.58227198524E+01 -0.21337250217E+03  0.28358743651E+03  0.17259431731E+03 0.  0.
        -24    2    3    3    0    0  0.65001259643E+02  0.56761312628E+02 -0.10316834389E+03  0.15661344426E+03  0.80231249374E+02 0.  0.
          6    2    1    2  502    0 -0.71213109971E+02  0.58227198524E+01 -0.20741065388E+03  0.27920531692E+03  0.17271716347E+03 0.  0.
         24    2    5    5    0    0 -0.17966810967E+02 -0.43641173973E+01 -0.20042267642E+03  0.22434310917E+03  0.99089502941E+02 0.  0.
          2    1    6    6  501    0 -0.57566344063E+02  0.42335316693E+01 -0.14160815369E+03  0.15292048898E+03  0.00000000000E+00 0. -1.
         -1    1    6    6    0  501  0.39599533096E+02 -0.85976490666E+01 -0.58814522726E+02  0.71422620187E+02  0.00000000000E+00 0.  1.
          5    1    5    5  502    0 -0.53246299004E+02  0.10186837250E+02 -0.69879774619E+01  0.54862207755E+02  0.47000000000E+01 0. -1.
         11    1    4    4    0    0  0.48538963641E+02  0.45882360119E+02 -0.11544455588E+03  0.13337416333E+03  0.00000000000E+00 0. -1.
        -12    1    4    4    0    0  0.16462296002E+02  0.10878952509E+02  0.12276211991E+02  0.23239280931E+02  0.00000000000E+00 0.  1.
         -5    1    3    3    0  504  0.62118503280E+01 -0.62584032480E+02 -0.11020415828E+03  0.12697399225E+03  0.47000000000E+01 0.  1.
<mgrwt>
<rscale>  2 0.18688451E+03</rscale>
<asrwt>0</asrwt>
<pdfrwt beam="1">  1       21 0.10923816E-01 0.18691289E+03</pdfrwt>
<pdfrwt beam="2">  1       21 0.75659682E-01 0.18691289E+03</pdfrwt>
<totfact> 0.10841561E+05</totfact>
</mgrwt>
</event>
<event>
12    1  0.1410528E-001  0.2116968E+03  0.7546771E-02  0.1140284E+00
         21   -1    0    0  502  503  0.00000000000E+00  0.00000000000E+00  0.34033279496E+03  0.34033279496E+03  0.00000000000E+00 0. -1.
         21   -1    0    0  503  504 -0.00000000000E+00 -0.00000000000E+00 -0.15042006733E+03  0.15042006733E+03  0.00000000000E+00 0. -1.
         -6    2    1    2    0  504  0.70557281308E+02 -0.98897759389E+02  0.78950857668E+01  0.21156484624E+03  0.17302674657E+03 0.  0.
        -24    2    3    3    0    0 -0.44922560467E+01 -0.67494881004E+02 -0.45245900428E+02  0.11427852530E+03  0.80228738699E+02 0.  0.
          6    2    1    2  502    0 -0.70557281308E+02  0.98897759389E+02  0.18201764186E+03  0.27918801605E+03  0.17336790245E+03 0.  0.
         24    2    5    5    0    0 -0.38432801029E+02  0.10682797661E+03  0.53315060218E+02  0.14621690979E+03  0.75150464267E+02 0.  0.
          4    1    6    6  501    0 -0.25741036929E+02  0.65405199607E+02  0.70552953917E+02  0.99589961462E+02  0.00000000000E+00 0. -1.
         -3    1    6    6    0  501 -0.12691764100E+02  0.41422777008E+02 -0.17237893699E+02  0.46626948326E+02  0.00000000000E+00 0.  1.
          5    1    5    5  502    0 -0.32124480279E+02 -0.79302172259E+01  0.12870258164E+03  0.13297110626E+03  0.47000000000E+01 0. -1.
         13    1    4    4    0    0  0.11469690977E+02 -0.51895598399E+02  0.10549505228E+02  0.54184859553E+02  0.00000000000E+00 0. -1.
        -14    1    4    4    0    0 -0.15961947024E+02 -0.15599282605E+02 -0.55795405656E+02  0.60093665747E+02  0.00000000000E+00 0.  1.
         -5    1    3    3    0  504  0.75049537354E+02 -0.31402878385E+02  0.53140986195E+02  0.97286320939E+02  0.47000000000E+01 0.  1.
<mgrwt>
<rscale>  2 0.21162692E+03</rscale>
<asrwt>0</asrwt>
<pdfrwt beam="1">  1       21 0.52358891E-01 0.21169678E+03</pdfrwt>
<pdfrwt beam="2">  1       21 0.23141549E-01 0.21169678E+03</pdfrwt>
<totfact> 0.60170687E+04</totfact>
</mgrwt>
</event>
<event>
12    1  0.1410528E-001  0.1797117E+03  0.7546771E-02  0.1168526E+00
         21   -1    0    0  502  503  0.00000000000E+00  0.00000000000E+00  0.45619554438E+03  0.45619554438E+03  0.00000000000E+00 0.  1.
         21   -1    0    0  503  504 -0.00000000000E+00 -0.00000000000E+00 -0.71584208102E+02  0.71584208102E+02  0.00000000000E+00 0.  1.
         -6    2    1    2    0  504 -0.37318713167E+02 -0.46513338486E+01  0.15308818765E+03  0.23469401444E+03  0.17387054367E+03 0.  0.
        -24    2    3    3    0    0 -0.17069706785E+02 -0.68269463683E+02  0.66997507832E+02  0.12564822656E+03  0.79666280321E+02 0.  0.
          6    2    1    2  502    0  0.37318713167E+02  0.46513338486E+01  0.23152314863E+03  0.29308573804E+03  0.17573263850E+03 0.  0.
         24    2    5    5    0    0  0.78243153195E+02  0.31850471006E+02  0.20756962753E+03  0.23821804238E+03  0.80785159035E+02 0.  0.
          2    1    6    6  501    0  0.69573731711E+02  0.24141371935E+01  0.75778252954E+02  0.10290129165E+03  0.00000000000E+00 0. -1.
         -1    1    6    6    0  501  0.86694214838E+01  0.29436333812E+02  0.13179137457E+03  0.13531675073E+03  0.00000000000E+00 0.  1.
          5    1    5    5  502    0 -0.40924440028E+02 -0.27199137157E+02  0.23953521100E+02  0.54867695658E+02  0.47000000000E+01 0. -1.
         13    1    4    4    0    0  0.84602195423E+01  0.15625693145E+02  0.17547897512E+02  0.24973311916E+02  0.00000000000E+00 0. -1.
        -14    1    4    4    0    0 -0.25529926328E+02 -0.83895156828E+02  0.49449610320E+02  0.10067491464E+03  0.00000000000E+00 0.  1.
         -5    1    3    3    0  504 -0.20249006381E+02  0.63618129835E+02  0.86090679818E+02  0.10904578788E+03  0.47000000000E+01 0.  1.
<mgrwt>
<rscale>  2 0.17925481E+03</rscale>
<asrwt>0</asrwt>
<pdfrwt beam="1">  1       21 0.70183928E-01 0.17971166E+03</pdfrwt>
<pdfrwt beam="2">  1       21 0.11012955E-01 0.17971166E+03</pdfrwt>
<totfact> 0.12657412E+05</totfact>
</mgrwt>
</event>
<event>
12    1  0.1410528E-001  0.2045420E+03  0.7546771E-02  0.1145993E+00
         21   -1    0    0  502  503  0.00000000000E+00  0.00000000000E+00  0.38146599245E+03  0.38146599245E+03  0.00000000000E+00 0. -1.
         21   -1    0    0  503  504 -0.00000000000E+00 -0.00000000000E+00 -0.11228016745E+03  0.11228016745E+03  0.00000000000E+00 0.  1.
         -6    2    1    2    0  504  0.10897544025E+03 -0.15681551113E+02  0.96465678506E+02  0.22614832104E+03  0.17238294102E+03 0.  0.
        -24    2    3    3    0    0  0.44294486412E+02 -0.59875656412E+02  0.99550244210E+02  0.14760948174E+03  0.79568914909E+02 0.  0.
          6    2    1    2  502    0 -0.10897544025E+03  0.15681551113E+02  0.17272014650E+03  0.26759783887E+03  0.17220568148E+03 0.  0.
         24    2    5    5    0    0 -0.93402492577E+02  0.62752598497E+02  0.72755656189E+02  0.15591440444E+03  0.79711992622E+02 0.  0.
          4    1    6    6  501    0 -0.52418432099E+02 -0.50112620818E+01  0.72787871298E+01  0.53158118039E+02  0.00000000000E+00 0. -1.
         -3    1    6    6    0  501 -0.40984060478E+02  0.67763860579E+02  0.65476869060E+02  0.10275628640E+03  0.00000000000E+00 0.  1.
          5    1    5    5  502    0 -0.15572947674E+02 -0.47071047384E+02  0.99964490312E+02  0.11168343442E+03  0.47000000000E+01 0. -1.
         13    1    4    4    0    0 -0.15434612878E+02  0.76530008131E+01  0.26342174399E+02  0.31475480111E+02  0.00000000000E+00 0. -1.
        -14    1    4    4    0    0  0.59729099291E+02 -0.67528657225E+02  0.73208069810E+02  0.11613400163E+03  0.00000000000E+00 0.  1.
         -5    1    3    3    0  504  0.64680953838E+02  0.44194105298E+02 -0.30845657042E+01  0.78538839297E+02  0.47000000000E+01 0.  1.
<mgrwt>
<rscale>  2 0.20450466E+03</rscale>
<asrwt>0</asrwt>
<pdfrwt beam="1">  1       21 0.58687075E-01 0.20454202E+03</pdfrwt>
<pdfrwt beam="2">  1       21 0.17273872E-01 0.20454202E+03</pdfrwt>
<totfact> 0.81884696E+04</totfact>
</mgrwt>
</event>
<event>
12    1  0.1410528E-001  0.1873614E+03  0.7546771E-02  0.1160981E+00
         21   -1    0    0  502  503  0.00000000000E+00  0.00000000000E+00  0.14076534225E+04  0.14076534225E+04  0.00000000000E+00 0. -1.
         21   -1    0    0  503  504 -0.00000000000E+00 -0.00000000000E+00 -0.51264403928E+02  0.51264403928E+02  0.00000000000E+00 0.  1.
         -6    2    1    2    0  504  0.45546790583E+02 -0.54138724999E+02  0.15431917824E+03  0.24233399986E+03  0.17293307097E+03 0.  0.
        -24    2    3    3    0    0  0.18447108647E+02  0.20090989550E+01  0.67069742221E+01  0.82026720948E+02  0.79618258899E+02 0.  0.
          6    2    1    2  502    0 -0.45546790583E+02  0.54138724999E+02  0.12020698404E+04  0.12165838266E+04  0.17349004112E+03 0.  0.
         24    2    5    5    0    0  0.34043110013E+02  0.37505326172E+02  0.54690240929E+03  0.55637350029E+03  0.88789885164E+02 0.  0.
          2    1    6    6  501    0  0.25957895297E+01 -0.15076874317E+02  0.34596008497E+03  0.34629818171E+03  0.00000000000E+00 0. -1.
         -1    1    6    6    0  501  0.31447320483E+02  0.52582200490E+02  0.20094232432E+03  0.21007531858E+03  0.00000000000E+00 0.  1.
          5    1    5    5  502    0 -0.79589900596E+02  0.16633398827E+02  0.65516743108E+03  0.66021032632E+03  0.47000000000E+01 0. -1.
         13    1    4    4    0    0  0.53290642987E+01 -0.11545991208E+02  0.40978850389E+02  0.42906584792E+02  0.00000000000E+00 0. -1.
        -14    1    4    4    0    0  0.13118044348E+02  0.13555090163E+02 -0.34271876167E+02  0.39120136156E+02  0.00000000000E+00 0.  1.
         -5    1    3    3    0  504  0.27099681936E+02 -0.56147823954E+02  0.14761220402E+03  0.16030727891E+03  0.47000000000E+01 0.  1.
<mgrwt>
<rscale>  2 0.18723239E+03</rscale>
<asrwt>0</asrwt>
<pdfrwt beam="1">  1       21 0.21656204E+00 0.18736143E+03</pdfrwt>
<pdfrwt beam="2">  1       21 0.78868324E-02 0.18736143E+03</pdfrwt>
<totfact> 0.13051925E+04</totfact>
</mgrwt>
</event>
<event>
12    1  0.1410528E-001  0.2011387E+03  0.7546771E-02  0.1149188E+00
         21   -1    0    0  502  503  0.00000000000E+00  0.00000000000E+00  0.51856422340E+02  0.51856422340E+02  0.00000000000E+00 0.  1.
         21   -1    0    0  503  504 -0.00000000000E+00 -0.00000000000E+00 -0.20433131210E+04  0.20433131210E+04  0.00000000000E+00 0.  1.
         -6    2    1    2    0  504 -0.10112609769E+03 -0.70488620039E+01 -0.18236345968E+04  0.18346934127E+04  0.17372565080E+03 0.  0.
        -24    2    3    3    0    0  0.48961608683E+01  0.27637673365E+02 -0.59287499483E+03  0.59887984951E+03  0.79802890121E+02 0.  0.
          6    2    1    2  502    0  0.10112609769E+03  0.70488620039E+01 -0.16782210185E+03  0.26047613066E+03  0.17148580900E+03 0.  0.
         24    2    5    5    0    0  0.96469318078E+02 -0.30638204537E+02 -0.53511486258E+02  0.13993150234E+03  0.80450713348E+02 0.  0.
          2    1    6    6  501    0  0.43490731526E+02 -0.54438607542E+02 -0.39845321532E+02  0.80266153313E+02  0.00000000000E+00 0. -1.
         -1    1    6    6    0  501  0.52978586552E+02  0.23800403005E+02 -0.13666164727E+02  0.59665349027E+02  0.00000000000E+00 0.  1.
          5    1    5    5  502    0  0.46567796093E+01  0.37687066540E+02 -0.11431061559E+03  0.12054462832E+03  0.47000000000E+01 0. -1.
         11    1    4    4    0    0  0.35966441989E+02 -0.82728731723E+01 -0.23886747387E+03  0.24170166622E+03  0.00000000000E+00 0. -1.
        -12    1    4    4    0    0 -0.31070281121E+02  0.35910546537E+02 -0.35400752096E+03  0.35717818329E+03  0.00000000000E+00 0.  1.
         -5    1    3    3    0  504 -0.10602225856E+03 -0.34686535369E+02 -0.12307596020E+04  0.12358135632E+04  0.47000000000E+01 0.  1.
<mgrwt>
<rscale>  2 0.20065411E+03</rscale>
<asrwt>0</asrwt>
<pdfrwt beam="1">  1       21 0.79779112E-02 0.20113870E+03</pdfrwt>
<pdfrwt beam="2">  1       21 0.31435586E+00 0.20113870E+03</pdfrwt>
<totfact> 0.33672012E+03</totfact>
</mgrwt>
</event>
<event>
12    1  0.1410528E-001  0.1723833E+03  0.7546771E-02  0.1175392E+00
         21   -1    0    0  502  503  0.00000000000E+00  0.00000000000E+00  0.34518627154E+03  0.34518627154E+03  0.00000000000E+00 0. -1.
         21   -1    0    0  503  504 -0.00000000000E+00 -0.00000000000E+00 -0.22342068130E+03  0.22342068130E+03  0.00000000000E+00 0. -1.
         -6    2    1    2    0  504  0.15672148023E+02 -0.76205325974E+01 -0.16202936561E+03  0.23655937191E+03  0.17147341595E+03 0.  0.
        -24    2    3    3    0    0  0.31803838636E+02  0.29627366448E+02 -0.17184000147E+03  0.19453585467E+03  0.80162008768E+02 0.  0.
          6    2    1    2  502    0 -0.15672148023E+02  0.76205325974E+01  0.28379495585E+03  0.33204758094E+03  0.17150023410E+03 0.  0.
         24    2    5    5    0    0  0.26771299841E+02 -0.59848550395E+02  0.15229492742E+03  0.17820392360E+03  0.65301929429E+02 0.  0.
          2    1    6    6  501    0 -0.93220011442E+01 -0.16448616451E+02  0.98260955500E+02  0.10006334026E+03  0.00000000000E+00 0. -1.
         -1    1    6    6    0  501  0.36093300985E+02 -0.43399933944E+02  0.54033971925E+02  0.78140583337E+02  0.00000000000E+00 0.  1.
          5    1    5    5  502    0 -0.42443447864E+02  0.67469082992E+02  0.13150002843E+03  0.15384365734E+03  0.47000000000E+01 0. -1.
         11    1    4    4    0    0  0.19371984047E+02  0.35754358522E+02 -0.26502397016E+02  0.48538901583E+02  0.00000000000E+00 0. -1.
        -12    1    4    4    0    0  0.12431854588E+02 -0.61269920742E+01 -0.14533760446E+03  0.14599695308E+03  0.00000000000E+00 0.  1.
         -5    1    3    3    0  504 -0.16131690613E+02 -0.37247899045E+02  0.98106358625E+01  0.42023517241E+02  0.47000000000E+01 0.  1.
<mgrwt>
<rscale>  2 0.17237668E+03</rscale>
<asrwt>0</asrwt>
<pdfrwt beam="1">  1       21 0.53105580E-01 0.17238335E+03</pdfrwt>
<pdfrwt beam="2">  1       21 0.34372413E-01 0.17238335E+03</pdfrwt>
<totfact> 0.27709154E+04</totfact>
</mgrwt>
</event>
<event>
12    1  0.1410528E-001  0.1974034E+03  0.7546771E-02  0.1152124E+00
         21   -1    0    0  502  503  0.00000000000E+00  0.00000000000E+00  0.11413888160E+04  0.11413888160E+04  0.00000000000E+00 0. -1.
         21   -1    0    0  503  504 -0.00000000000E+00 -0.00000000000E+00 -0.46965469318E+02  0.46965469318E+02  0.00000000000E+00 0. -1.
         -6    2    1    2    0  504 -0.91137814725E+02  0.27729980714E+02  0.23584026034E+03  0.30755278918E+03  0.17289602838E+03 0.  0.
        -24    2    3    3    0    0 -0.71855517692E+02  0.39860041376E+01  0.25060520538E+03  0.27326464247E+03  0.81801541598E+02 0.  0.
          6    2    1    2  502    0  0.91137814725E+02 -0.27729980714E+02  0.85858308634E+03  0.88080149614E+03  0.17196309591E+03 0.  0.
         24    2    5    5    0    0  0.14455127783E+02 -0.68254112368E+02  0.55220106735E+03  0.56234510779E+03  0.80239808677E+02 0.  0.
          4    1    6    6  501    0  0.36196535328E+02 -0.54382856254E+02  0.49861206874E+03  0.50287342276E+03  0.00000000000E+00 0. -1.
         -3    1    6    6    0  501 -0.21741407545E+02 -0.13871256114E+02  0.53588998610E+02  0.59471685029E+02  0.00000000000E+00 0.  1.
          5    1    5    5  502    0  0.76682686942E+02  0.40524131654E+02  0.30638201899E+03  0.31845638835E+03  0.47000000000E+01 0. -1.
         13    1    4    4    0    0 -0.46224383569E+02 -0.37851261698E+02  0.14454214720E+03  0.15640282595E+03  0.00000000000E+00 0. -1.
        -14    1    4    4    0    0 -0.25631134124E+02  0.41837265835E+02  0.10606305818E+03  0.11686181652E+03  0.00000000000E+00 0.  1.
         -5    1    3    3    0  504 -0.19282297033E+02  0.23743976577E+02 -0.14764945039E+02  0.34288146706E+02  0.47000000000E+01 0.  1.
<mgrwt>
<rscale>  2 0.19719890E+03</rscale>
<asrwt>0</asrwt>
<pdfrwt beam="1">  1       21 0.17559826E+00 0.19740337E+03</pdfrwt>
<pdfrwt beam="2">  1       21 0.72254576E-02 0.19740337E+03</pdfrwt>
<totfact> 0.27842228E+04</totfact>
</mgrwt>
</event>
<event>
12    1  0.1410528E-001  0.2249103E+03  0.7546771E-02  0.1131143E+00
         21   -1    0    0  502  503  0.00000000000E+00  0.00000000000E+00  0.84335525388E+02  0.84335525388E+02  0.00000000000E+00 0. -1.
         21   -1    0    0  503  504 -0.00000000000E+00 -0.00000000000E+00 -0.59982796329E+03  0.59982796329E+03  0.00000000000E+00 0.  1.
         -6    2    1    2    0  504 -0.12946973913E+03 -0.64140021888E+02 -0.30463819816E+03  0.37587119435E+03  0.16612756305E+03 0.  0.
        -24    2    3    3    0    0 -0.53828925715E+02 -0.93908983032E+02 -0.21996301292E+03  0.25839906703E+03  0.81669458494E+02 0.  0.
          6    2    1    2  502    0  0.12946973913E+03  0.64140021888E+02 -0.21085423975E+03  0.30829229434E+03  0.17236087888E+03 0.  0.
         24    2    5    5    0    0  0.68145404918E+02  0.27838455330E+02 -0.21027921377E+03  0.23687172058E+03  0.80449291240E+02 0.  0.
          4    1    6    6  501    0  0.56540049391E+02 -0.17321047627E+02 -0.14549479339E+03  0.15705263698E+03  0.00000000000E+00 0. -1.
         -3    1    6    6    0  501  0.11605355527E+02  0.45159502958E+02 -0.64784420373E+02  0.79819083604E+02  0.00000000000E+00 0.  1.
          5    1    5    5  502    0  0.61324334210E+02  0.36301566557E+02 -0.57502598198E+00  0.71420573756E+02  0.47000000000E+01 0. -1.
         13    1    4    4    0    0 -0.43541343669E+02 -0.66739861603E+02 -0.71314857846E+02  0.10693861176E+03  0.00000000000E+00 0. -1.
        -14    1    4    4    0    0 -0.10287582046E+02 -0.27169121430E+02 -0.14864815508E+03  0.15146045527E+03  0.00000000000E+00 0.  1.
         -5    1    3    3    0  504 -0.75640813413E+02  0.29768961145E+02 -0.84675185232E+02  0.11747212731E+03  0.47000000000E+01 0.  1.
<mgrwt>
<rscale>  2 0.22371566E+03</rscale>
<asrwt>0</asrwt>
<pdfrwt beam="1">  1       21 0.12974697E-01 0.22491027E+03</pdfrwt>
<pdfrwt beam="2">  1       21 0.92281223E-01 0.22491027E+03</pdfrwt>
<totfact> 0.49775130E+04</totfact>
</mgrwt>
</event>
<event>
12    1  0.1410528E-001  0.4749442E+03  0.7546771E-02  0.1020535E+00
         21   -1    0    0  502  503  0.00000000000E+00  0.00000000000E+00  0.18430220647E+04  0.18430220647E+04  0.00000000000E+00 0.  1.
         21   -1    0    0  503  504 -0.00000000000E+00 -0.00000000000E+00 -0.13239752125E+03  0.13239752125E+03  0.00000000000E+00 0. -1.
         -6    2    1    2    0  504 -0.60318068969E+02 -0.43771495448E+03  0.58372177273E+03  0.75252065131E+03  0.17413664715E+03 0.  0.
        -24    2    3    3    0    0 -0.23368364388E+02 -0.15618781061E+03  0.14201290753E+03  0.22740006993E+03  0.81255235278E+02 0.  0.
          6    2    1    2  502    0  0.60318068969E+02  0.43771495448E+03  0.11269027708E+04  0.12228989347E+04  0.17418179836E+03 0.  0.
         24    2    5    5    0    0  0.50720650589E+02  0.44926416832E+03  0.10839842403E+04  0.11771869556E+04  0.79601619011E+02 0.  0.
          2    1    6    6  501    0  0.37021022674E+02  0.43977537731E+03  0.10268860220E+04  0.11177065093E+04  0.00000000000E+00 0. -1.
         -1    1    6    6    0  501  0.13699627915E+02  0.94887910071E+01  0.57098218301E+02  0.59480446307E+02  0.00000000000E+00 0.  1.
          5    1    5    5  502    0  0.95974183801E+01 -0.11549213843E+02  0.42918530430E+02  0.45711979110E+02  0.47000000000E+01 0. -1.
         13    1    4    4    0    0  0.45911426894E+01 -0.41064362821E+02  0.87959311742E+02  0.97181279098E+02  0.00000000000E+00 0. -1.
        -14    1    4    4    0    0 -0.27959507077E+02 -0.11512344779E+03  0.54053595787E+02  0.13021879083E+03  0.00000000000E+00 0.  1.
         -5    1    3    3    0  504 -0.36949704581E+02 -0.28152714386E+03  0.44170886520E+03  0.52512058139E+03  0.47000000000E+01 0.  1.
<mgrwt>
<rscale>  2 0.47494001E+03</rscale>
<asrwt>0</asrwt>
<pdfrwt beam="1">  1       21 0.28354184E+00 0.47494415E+03</pdfrwt>
<pdfrwt beam="2">  1       21 0.20368851E-01 0.47494415E+03</pdfrwt>
<totfact> 0.75533810E+02</totfact>
</mgrwt>
</event>
<event>
12    1  0.1410528E-001  0.1792571E+03  0.7546771E-02  0.1168749E+00
         21   -1    0    0  502  503  0.00000000000E+00  0.00000000000E+00  0.35359443249E+03  0.35359443249E+03  0.00000000000E+00 0.  1.
         21   -1    0    0  503  504 -0.00000000000E+00 -0.00000000000E+00 -0.98512894087E+02  0.98512894087E+02  0.00000000000E+00 0.  1.
         -6    2    1    2    0  504 -0.38564367556E+02 -0.27779682018E+02  0.63005098014E+02  0.19000728236E+03  0.17284155691E+03 0.  0.
        -24    2    3    3    0    0 -0.41482601010E+02 -0.74820622879E+02  0.82412110927E+02  0.13882048373E+03  0.71836194792E+02 0.  0.
          6    2    1    2  502    0  0.38564367556E+02  0.27779682018E+02  0.19207644039E+03  0.26210004422E+03  0.17188412680E+03 0.  0.
         24    2    5    5    0    0 -0.19124413675E+02  0.56931165102E+02  0.16215809812E+03  0.19072076396E+03  0.80450358983E+02 0.  0.
          2    1    6    6  501    0  0.13214189854E+02  0.48989044049E+02  0.14424466471E+03  0.15290868042E+03  0.00000000000E+00 0. -1.
         -1    1    6    6    0  501 -0.32338603528E+02  0.79421210528E+01  0.17913433410E+02  0.37812083539E+02  0.00000000000E+00 0.  1.
          5    1    5    5  502    0  0.57688781231E+02 -0.29151483084E+02  0.29918342269E+02  0.71379280257E+02  0.47000000000E+01 0. -1.
         11    1    4    4    0    0  0.92128342105E+01 -0.34680556763E+02  0.24249130102E+01  0.35965226744E+02  0.00000000000E+00 0. -1.
        -12    1    4    4    0    0 -0.50695435221E+02 -0.40140066115E+02  0.79987197917E+02  0.10285525699E+03  0.00000000000E+00 0.  1.
         -5    1    3    3    0  504  0.29182334545E+01  0.47040940861E+02 -0.19407012913E+02  0.51186798628E+02  0.47000000000E+01 0.  1.
<mgrwt>
<rscale>  2 0.17902595E+03</rscale>
<asrwt>0</asrwt>
<pdfrwt beam="1">  1       21 0.54399143E-01 0.17925715E+03</pdfrwt>
<pdfrwt beam="2">  1       21 0.15155830E-01 0.17925715E+03</pdfrwt>
<totfact> 0.12348175E+05</totfact>
</mgrwt>
</event>
<event>
12    1  0.1410528E-001  0.2209747E+03  0.7546771E-02  0.1133296E+00
         21   -1    0    0  502  503  0.00000000000E+00  0.00000000000E+00  0.34974615420E+03  0.34974615420E+03  0.00000000000E+00 0.  1.
         21   -1    0    0  503  504 -0.00000000000E+00 -0.00000000000E+00 -0.15276961225E+03  0.15276961225E+03  0.00000000000E+00 0. -1.
         -6    2    1    2    0  504 -0.40693535252E+02  0.12857736116E+03  0.23607058594E+02  0.22223214880E+03  0.17504780242E+03 0.  0.
        -24    2    3    3    0    0  0.19926347105E+02  0.16194501034E+02  0.31908683121E+02  0.94186514914E+02  0.84815177653E+02 0.  0.
          6    2    1    2  502    0  0.40693535252E+02 -0.12857736116E+03  0.17336948335E+03  0.28028361764E+03  0.17410866419E+03 0.  0.
         24    2    5    5    0    0  0.26236386393E+02 -0.12892881278E+03  0.19821458314E+03  0.25115456591E+03  0.80489802306E+02 0.  0.
          4    1    6    6  501    0 -0.18149719895E+02 -0.86998598195E+02  0.87491362157E+02  0.12471129408E+03  0.00000000000E+00 0. -1.
         -3    1    6    6    0  501  0.44386106288E+02 -0.41930214583E+02  0.11072322098E+03  0.12644327183E+03  0.00000000000E+00 0.  1.
          5    1    5    5  502    0  0.14457148859E+02  0.35145161434E+00 -0.24845099785E+02  0.29129051730E+02  0.47000000000E+01 0. -1.
         11    1    4    4    0    0 -0.39779853600E+01  0.41518715158E+01 -0.27992581897E+02  0.28577037038E+02  0.00000000000E+00 0. -1.
        -12    1    4    4    0    0  0.23904332465E+02  0.12042629518E+02  0.59901265018E+02  0.65609477876E+02  0.00000000000E+00 0.  1.
         -5    1    3    3    0  504 -0.60619882357E+02  0.11238286013E+03 -0.83016245267E+01  0.12804563389E+03  0.47000000000E+01 0.  1.
<mgrwt>
<rscale>  2 0.22078870E+03</rscale>
<asrwt>0</asrwt>
<pdfrwt beam="1">  1       21 0.53807100E-01 0.22097474E+03</pdfrwt>
<pdfrwt beam="2">  1       21 0.23503017E-01 0.22097474E+03</pdfrwt>
<totfact> 0.54929613E+04</totfact>
</mgrwt>
</event>
<event>
12    1  0.1410528E-001  0.2110588E+03  0.7546771E-02  0.1142652E+00
         21   -1    0    0  502  503  0.00000000000E+00  0.00000000000E+00  0.10354780833E+04  0.10354780833E+04  0.00000000000E+00 0. -1.
         21   -1    0    0  503  504 -0.00000000000E+00 -0.00000000000E+00 -0.41953619065E+02  0.41953619065E+02  0.00000000000E+00 0. -1.
         -6    2    1    2    0  504 -0.34821678294E+01 -0.10431936121E+03  0.40863637665E+03  0.45562794486E+03  0.17239049044E+03 0.  0.
        -24    2    3    3    0    0 -0.68676839668E+02 -0.48219713477E+02  0.22548907313E+03  0.25323589833E+03  0.79002841881E+02 0.  0.
          6    2    1    2  502    0  0.34821678294E+01  0.10431936121E+03  0.58488808759E+03  0.62180375752E+03  0.18344258840E+03 0.  0.
         24    2    5    5    0    0  0.14909338388E+02  0.10651736250E+02  0.11020496076E+03  0.13780957874E+03  0.80688281426E+02 0.  0.
          4    1    6    6  501    0  0.24384755279E+02  0.36638957655E+02  0.98285982946E+02  0.10769012931E+03  0.00000000000E+00 0. -1.
         -3    1    6    6    0  501 -0.94754168906E+01 -0.25987221404E+02  0.11918977818E+02  0.30119449427E+02  0.00000000000E+00 0.  1.
          5    1    5    5  502    0 -0.11427170559E+02  0.93667624963E+02  0.47468312683E+03  0.48399417878E+03  0.47000000000E+01 0. -1.
         13    1    4    4    0    0 -0.52288243268E+02 -0.35732867121E+02  0.62598924377E+02  0.89047872012E+02  0.00000000000E+00 0. -1.
        -14    1    4    4    0    0 -0.16388596400E+02 -0.12486846356E+02  0.16289014875E+03  0.16418802631E+03  0.00000000000E+00 0.  1.
         -5    1    3    3    0  504  0.65194671838E+02 -0.56099647736E+02  0.18314730352E+03  0.20239204653E+03  0.47000000000E+01 0.  1.
<mgrwt>
<rscale>  2 0.20863443E+03</rscale>
<asrwt>0</asrwt>
<pdfrwt beam="1">  1       21 0.15930430E+00 0.21105885E+03</pdfrwt>
<pdfrwt beam="2">  1       21 0.64544037E-02 0.21105885E+03</pdfrwt>
<totfact> 0.43826070E+04</totfact>
</mgrwt>
</event>
<event>
12    1  0.1410528E-001  0.1930724E+03  0.7546771E-02  0.1156906E+00
         21   -1    0    0  502  503  0.00000000000E+00  0.00000000000E+00  0.20420141180E+03  0.20420141180E+03  0.00000000000E+00 0.  1.
         21   -1    0    0  503  504 -0.00000000000E+00 -0.00000000000E+00 -0.21236565131E+03  0.21236565131E+03  0.00000000000E+00 0.  1.
         -6    2    1    2    0  504  0.37320353789E+02 -0.65980157774E+02 -0.88424900046E+02  0.21235803215E+03  0.17756908752E+03 0.  0.
        -24    2    3    3    0    0  0.20335757402E+01 -0.49046465787E+02  0.20216029099E+02  0.96786201176E+02  0.80927063885E+02 0.  0.
          6    2    1    2  502    0 -0.37320353789E+02  0.65980157774E+02  0.80260660534E+02  0.20420903095E+03  0.17179454202E+03 0.  0.
         24    2    5    5    0    0  0.25824412826E+02  0.85270146837E+02  0.67705689666E+02  0.13683631747E+03  0.78754168943E+02 0.  0.
          2    1    6    6  501    0 -0.91341571977E+01  0.56781969985E+02  0.25139172870E+01  0.57566871751E+02  0.00000000000E+00 0. -1.
         -1    1    6    6    0  501  0.34958570024E+02  0.28488176851E+02  0.65191772379E+02  0.79269445717E+02  0.00000000000E+00 0.  1.
          5    1    5    5  502    0 -0.63144766615E+02 -0.19289989063E+02  0.12554970868E+02  0.67372713485E+02  0.47000000000E+01 0. -1.
         13    1    4    4    0    0 -0.35584172788E+02 -0.38539194569E+02  0.23726262610E+02  0.57571159520E+02  0.00000000000E+00 0. -1.
        -14    1    4    4    0    0  0.37617748528E+02 -0.10507271218E+02 -0.35102335114E+01  0.39215041656E+02  0.00000000000E+00 0.  1.
         -5    1    3    3    0  504  0.35286778049E+02 -0.16933691987E+02 -0.10864092914E+03  0.11557183097E+03  0.47000000000E+01 0.  1.
<mgrwt>
<rscale>  2 0.19173431E+03</rscale>
<asrwt>0</asrwt>
<pdfrwt beam="1">  1       21 0.31415602E-01 0.19307245E+03</pdfrwt>
<pdfrwt beam="2">  1       21 0.32671638E-01 0.19307245E+03</pdfrwt>
<totfact> 0.87794559E+04</totfact>
</mgrwt>
</event>
<event>
12    1  0.1410528E-001  0.2109602E+03  0.7546771E-02  0.1141154E+00
         21   -1    0    0  502  503  0.00000000000E+00  0.00000000000E+00  0.65434453752E+03  0.65434453752E+03  0.00000000000E+00 0.  1.
         21   -1    0    0  503  504 -0.00000000000E+00 -0.00000000000E+00 -0.90843339760E+02  0.90843339760E+02  0.00000000000E+00 0.  1.
         -6    2    1    2    0  504  0.63422249053E+02  0.10157656381E+03  0.91807070098E+02  0.22846788829E+03  0.17154841261E+03 0.  0.
        -24    2    3    3    0    0  0.90889008411E+02  0.55100269259E+02  0.10914646313E+03  0.17157137367E+03  0.78910926537E+02 0.  0.
          6    2    1    2  502    0 -0.63422249053E+02 -0.10157656381E+03  0.47169412766E+03  0.51671998899E+03  0.17367791155E+03 0.  0.
         24    2    5    5    0    0 -0.10432914315E+03 -0.82970696498E+02  0.42135673015E+03  0.44907757721E+03  0.79752553070E+02 0.  0.
          2    1    6    6  501    0 -0.51342223229E+02 -0.85915645702E+02  0.30927713502E+03  0.32506902084E+03  0.00000000000E+00 0. -1.
         -1    1    6    6    0  501 -0.52986919923E+02  0.29449492033E+01  0.11207959513E+03  0.12400855637E+03  0.00000000000E+00 0.  1.
          5    1    5    5  502    0  0.40906894099E+02 -0.18605867315E+02  0.50337397511E+02  0.67642411781E+02  0.47000000000E+01 0. -1.
         11    1    4    4    0    0 -0.42155653873E+01 -0.21728471000E+01 -0.85495927833E+01  0.97769009822E+01  0.00000000000E+00 0. -1.
        -12    1    4    4    0    0  0.95104573798E+02  0.57273116359E+02  0.11769605591E+03  0.16179447269E+03  0.00000000000E+00 0.  1.
         -5    1    3    3    0  504 -0.27466759357E+02  0.46476294555E+02 -0.17339393031E+02  0.56896514620E+02  0.47000000000E+01 0.  1.
<mgrwt>
<rscale>  2 0.21052139E+03</rscale>
<asrwt>0</asrwt>
<pdfrwt beam="1">  1       21 0.10066839E+00 0.21096018E+03</pdfrwt>
<pdfrwt beam="2">  1       21 0.13975899E-01 0.21096018E+03</pdfrwt>
<totfact> 0.35683064E+04</totfact>
</mgrwt>
</event>
<event>
12    1  0.1410528E-001  0.1736650E+03  0.7546771E-02  0.1174919E+00
         21   -1    0    0  502  503  0.00000000000E+00  0.00000000000E+00  0.57053948150E+03  0.57053948150E+03  0.00000000000E+00 0.  1.
         21   -1    0    0  503  504 -0.00000000000E+00 -0.00000000000E+00 -0.52541055068E+02  0.52541055068E+02  0.00000000000E+00 0.  1.
         -6    2    1    2    0  504  0.80903278813E+01  0.19060732139E+02  0.22617151776E+03  0.28515447285E+03  0.17242607990E+03 0.  0.
        -24    2    3    3    0    0  0.14016109927E+02  0.59920899310E+02  0.22130990197E+03  0.24331676902E+03  0.80237222423E+02 0.  0.
          6    2    1    2  502    0 -0.80903278813E+01 -0.19060732139E+02  0.29182690867E+03  0.33792606371E+03  0.16912218954E+03 0.  0.
         24    2    5    5    0    0  0.12559205142E+02  0.27139328690E+02  0.26778197360E+03  0.28170242333E+03  0.82187548524E+02 0.  0.
          4    1    6    6  501    0  0.36585083573E+01 -0.28945143913E+02  0.11696814282E+03  0.12055186633E+03  0.00000000000E+00 0. -1.
         -3    1    6    6    0  501  0.89006967844E+01  0.56084472603E+02  0.15081383078E+03  0.16115055701E+03  0.00000000000E+00 0.  1.
          5    1    5    5  502    0 -0.20649533023E+02 -0.46200060829E+02  0.24044935075E+02  0.56223640379E+02  0.47000000000E+01 0. -1.
         11    1    4    4    0    0  0.18606364395E+02  0.35242479604E+01  0.15497393050E+03  0.15612666734E+03  0.00000000000E+00 0. -1.
        -12    1    4    4    0    0 -0.45902544679E+01  0.56396651350E+02  0.66335971475E+02  0.87190101680E+02  0.00000000000E+00 0.  1.
         -5    1    3    3    0  504 -0.59257820458E+01 -0.40860167171E+02  0.48616157820E+01  0.41837703834E+02  0.47000000000E+01 0.  1.
<mgrwt>
<rscale>  2 0.17283912E+03</rscale>
<asrwt>0</asrwt>
<pdfrwt beam="1">  1       21 0.87775300E-01 0.17366496E+03</pdfrwt>
<pdfrwt beam="2">  1       21 0.80832397E-02 0.17366496E+03</pdfrwt>
<totfact> 0.13210869E+05</totfact>
</mgrwt>
</event>
<event>
12    1  0.1410528E-001  0.1780667E+03  0.7546771E-02  0.1170258E+00
         21   -1    0    0  502  503  0.00000000000E+00  0.00000000000E+00  0.15777684308E+03  0.15777684308E+03  0.00000000000E+00 0.  1.
         21   -1    0    0  503  504 -0.00000000000E+00 -0.00000000000E+00 -0.30824013897E+03  0.30824013897E+03  0.00000000000E+00 0.  1.
         -6    2    1    2    0  504  0.37922725247E+02  0.56470174644E+01 -0.21402678074E+03  0.27694542215E+03  0.17152633057E+03 0.  0.
        -24    2    3    3    0    0  0.89619413754E+02  0.54268187212E+01 -0.11121563600E+03  0.16177243237E+03  0.75764850047E+02 0.  0.
          6    2    1    2  502    0 -0.37922725247E+02 -0.56470174644E+01  0.63563484856E+02  0.18907155990E+03  0.17388995445E+03 0.  0.
         24    2    5    5    0    0  0.31361857619E+02  0.17626245382E+02  0.74223355084E+02  0.11505993230E+03  0.80221137748E+02 0.  0.
          2    1    6    6  501    0  0.14995709551E+02 -0.18317184668E+02  0.71675738318E+02  0.75483786487E+02  0.00000000000E+00 0. -1.
         -1    1    6    6    0  501  0.16366148068E+02  0.35943430049E+02  0.25476167667E+01  0.39576145814E+02  0.00000000000E+00 0.  1.
          5    1    5    5  502    0 -0.69284582867E+02 -0.23273262846E+02 -0.10659870229E+02  0.74011627599E+02  0.47000000000E+01 0. -1.
         11    1    4    4    0    0  0.54593993361E+02 -0.66819452222E+01 -0.12604066061E+02  0.56427076694E+02  0.00000000000E+00 0. -1.
        -12    1    4    4    0    0  0.35025420394E+02  0.12108763943E+02 -0.98611569934E+02  0.10534535568E+03  0.00000000000E+00 0.  1.
         -5    1    3    3    0  504 -0.51696688507E+02  0.22019874314E+00 -0.10281114474E+03  0.11517298977E+03  0.47000000000E+01 0.  1.
<mgrwt>
<rscale>  2 0.17748698E+03</rscale>
<asrwt>0</asrwt>
<pdfrwt beam="1">  1       21 0.24273361E-01 0.17806667E+03</pdfrwt>
<pdfrwt beam="2">  1       21 0.47421559E-01 0.17806667E+03</pdfrwt>
<totfact> 0.68579623E+04</totfact>
</mgrwt>
</event>
<event>
12    1  0.1410528E-001  0.2167497E+03  0.7546771E-02  0.1136927E+00
         21   -1    0    0  502  503  0.00000000000E+00  0.00000000000E+00  0.58615374585E+03  0.58615374585E+03  0.00000000000E+00 0. -1.
         21   -1    0    0  503  504 -0.00000000000E+00 -0.00000000000E+00 -0.11348297416E+03  0.11348297416E+03  0.00000000000E+00 0.  1.
         -6    2    1    2    0  504  0.11977229033E+03 -0.52769019914E+02  0.44703267319E+02  0.22131153549E+03  0.17277280642E+03 0.  0.
        -24    2    3    3    0    0 -0.16761532661E+01 -0.37607881474E+02  0.44048288856E+02  0.98828460873E+02  0.80060294082E+02 0.  0.
          6    2    1    2  502    0 -0.11977229033E+03  0.52769019914E+02  0.42796750438E+03  0.47832518452E+03  0.16884556953E+03 0.  0.
         24    2    5    5    0    0 -0.34705314916E+02  0.21523622058E+02  0.34080307234E+03  0.35249834554E+03  0.80253500280E+02 0.  0.
          4    1    6    6  501    0 -0.15331302771E+02  0.24775000504E+02  0.32745289918E+03  0.32874648389E+03  0.00000000000E+00 0. -1.
         -3    1    6    6    0  501 -0.19374012145E+02 -0.32513784453E+01  0.13350173162E+02  0.23751861650E+02  0.00000000000E+00 0.  1.
          5    1    5    5  502    0 -0.85066975416E+02  0.31245397855E+02  0.87164432038E+02  0.12582683897E+03  0.47000000000E+01 0. -1.
         11    1    4    4    0    0 -0.36238050450E+01  0.24962150470E+02  0.18186130658E+02  0.31096242014E+02  0.00000000000E+00 0. -1.
        -12    1    4    4    0    0  0.19476517790E+01 -0.62570031944E+02  0.25862158198E+02  0.67732218859E+02  0.00000000000E+00 0.  1.
         -5    1    3    3    0  504  0.12144844360E+03 -0.15161138440E+02  0.65497846282E+00  0.12248307462E+03  0.47000000000E+01 0.  1.
<mgrwt>
<rscale>  2 0.21596610E+03</rscale>
<asrwt>0</asrwt>
<pdfrwt beam="1">  1       21 0.90177497E-01 0.21674966E+03</pdfrwt>
<pdfrwt beam="2">  1       21 0.17458920E-01 0.21674966E+03</pdfrwt>
<totfact> 0.30654466E+04</totfact>
</mgrwt>
</event>
<event>
12    1  0.1410528E-001  0.1802128E+03  0.7546771E-02  0.1167849E+00
         21   -1    0    0  502  503  0.00000000000E+00  0.00000000000E+00  0.16744676293E+04  0.16744676293E+04  0.00000000000E+00 0.  1.
         21   -1    0    0  503  504 -0.00000000000E+00 -0.00000000000E+00 -0.21690961492E+02  0.21690961492E+02  0.00000000000E+00 0.  1.
         -6    2    1    2    0  504  0.32968820106E+02 -0.35613804773E+02  0.54174654932E+03  0.57060780761E+03  0.17247799923E+03 0.  0.
        -24    2    3    3    0    0  0.67792376534E+02  0.19714684125E+01  0.47445051378E+03  0.48589547532E+03  0.79946418985E+02 0.  0.
          6    2    1    2  502    0 -0.32968820106E+02  0.35613804773E+02  0.11110301185E+04  0.11255507832E+04  0.17355504929E+03 0.  0.
         24    2    5    5    0    0 -0.89055072333E+02  0.25177526425E+02  0.75434256022E+03  0.76429922565E+03  0.80968477952E+02 0.  0.
          4    1    6    6  501    0 -0.74795485956E+01  0.64374201822E+01  0.65665970695E+01  0.11853447721E+02  0.00000000000E+00 0. -1.
         -3    1    6    6    0  501 -0.81575523737E+02  0.18740106243E+02  0.74777596315E+03  0.75244577793E+03  0.00000000000E+00 0.  1.
          5    1    5    5  502    0  0.56086252227E+02  0.10436278348E+02  0.35668755824E+03  0.36125155751E+03  0.47000000000E+01 0. -1.
         11    1    4    4    0    0 -0.59771206302E+01  0.25226666903E+02  0.86156085953E+02  0.89972117019E+02  0.00000000000E+00 0. -1.
        -12    1    4    4    0    0  0.73769497165E+02 -0.23255198491E+02  0.38829442783E+03  0.39592335830E+03  0.00000000000E+00 0.  1.
         -5    1    3    3    0  504 -0.34823556428E+02 -0.37585273185E+02  0.67296035535E+02  0.84712332286E+02  0.47000000000E+01 0.  1.
<mgrwt>
<rscale>  2 0.17995295E+03</rscale>
<asrwt>0</asrwt>
<pdfrwt beam="1">  1       21 0.25761030E+00 0.18021277E+03</pdfrwt>
<pdfrwt beam="2">  1       21 0.33370723E-02 0.18021277E+03</pdfrwt>
<totfact> 0.32160534E+04</totfact>
</mgrwt>
</event>
<event>
12    1  0.1410528E-001  0.3042894E+03  0.7546771E-02  0.1083135E+00
         21   -1    0    0  502  503  0.00000000000E+00  0.00000000000E+00  0.40229874175E+03  0.40229874175E+03  0.00000000000E+00 0.  1.
         21   -1    0    0  503  504 -0.00000000000E+00 -0.00000000000E+00 -0.27026309185E+03  0.27026309185E+03  0.00000000000E+00 0. -1.
         -6    2    1    2    0  504 -0.24873931169E+03 -0.23573062398E+02  0.19573174593E+03  0.36167727039E+03  0.17341452391E+03 0.  0.
        -24    2    3    3    0    0 -0.18914850333E+03  0.44566570001E+02  0.11323942288E+03  0.23911648014E+03  0.81179977258E+02 0.  0.
          6    2    1    2  502    0  0.24873931169E+03  0.23573062398E+02 -0.63696096027E+02  0.31088456321E+03  0.17368098498E+03 0.  0.
         24    2    5    5    0    0  0.11579319532E+03 -0.48288415648E+02 -0.42438548683E+01  0.14841794860E+03  0.79183596748E+02 0.  0.
          4    1    6    6  501    0  0.50942464554E+02 -0.37478400804E+02 -0.38746392244E+02  0.74169051049E+02  0.00000000000E+00 0. -1.
         -3    1    6    6    0  501  0.64850730771E+02 -0.10810014844E+02  0.34502537376E+02  0.74248897553E+02  0.00000000000E+00 0.  1.
          5    1    5    5  502    0  0.13294611636E+03  0.71861478046E+02 -0.59452241159E+02  0.16246661461E+03  0.47000000000E+01 0. -1.
         13    1    4    4    0    0 -0.41786029616E+02  0.41478096459E+02  0.11423876832E+02  0.59975075813E+02  0.00000000000E+00 0. -1.
        -14    1    4    4    0    0 -0.14736247371E+03  0.30884735418E+01  0.10181554604E+03  0.17914140433E+03  0.00000000000E+00 0.  1.
         -5    1    3    3    0  504 -0.59590808360E+02 -0.68139632398E+02  0.82492323056E+02  0.12256079025E+03  0.47000000000E+01 0.  1.
<mgrwt>
<rscale>  2 0.30425136E+03</rscale>
<asrwt>0</asrwt>
<pdfrwt beam="1">  1       21 0.61892115E-01 0.30428937E+03</pdfrwt>
<pdfrwt beam="2">  1       21 0.41578937E-01 0.30428937E+03</pdfrwt>
<totfact> 0.12716375E+04</totfact>
</mgrwt>
</event>
<event>
12    1  0.1410528E-001  0.1844283E+03  0.7546771E-02  0.1163944E+00
         21   -1    0    0  502  503  0.00000000000E+00  0.00000000000E+00  0.30369544505E+02  0.30369544505E+02  0.00000000000E+00 0.  1.
         21   -1    0    0  503  504 -0.00000000000E+00 -0.00000000000E+00 -0.15910469516E+04  0.15910469516E+04  0.00000000000E+00 0.  1.
         -6    2    1    2    0  504  0.15532628356E+02 -0.59404588448E+02 -0.12280304998E+04  0.12418021940E+04  0.17390690830E+03 0.  0.
        -24    2    3    3    0    0 -0.38665481562E+02 -0.27725609413E+02 -0.10229509991E+04  0.10272778726E+04  0.81285620665E+02 0.  0.
          6    2    1    2  502    0 -0.15532628356E+02  0.59404588448E+02 -0.33264690723E+03  0.37961430211E+03  0.17228721891E+03 0.  0.
         24    2    5    5    0    0 -0.51284206283E+02  0.78037785565E+02 -0.30760504281E+03  0.33192199316E+03  0.82652171114E+02 0.  0.
          4    1    6    6  501    0 -0.99964289533E+01  0.81792571993E+02 -0.18573063261E+03  0.20318912696E+03  0.00000000000E+00 0. -1.
         -3    1    6    6    0  501 -0.41287777330E+02 -0.37547864279E+01 -0.12187441020E+03  0.12873286620E+03  0.00000000000E+00 0.  1.
          5    1    5    5  502    0  0.35751577927E+02 -0.18633197117E+02 -0.25041864421E+02  0.47692308948E+02  0.47000000000E+01 0. -1.
         11    1    4    4    0    0  0.84965612908E+01 -0.54757635843E+01 -0.15666356338E+02  0.18644309092E+02  0.00000000000E+00 0. -1.
        -12    1    4    4    0    0 -0.47162042853E+02 -0.22249845828E+02 -0.10072846427E+04  0.10086335635E+04  0.00000000000E+00 0.  1.
         -5    1    3    3    0  504  0.54198109918E+02 -0.31678979035E+02 -0.20507950078E+03  0.21452432140E+03  0.47000000000E+01 0.  1.
<mgrwt>
<rscale>  2 0.18404544E+03</rscale>
<asrwt>0</asrwt>
<pdfrwt beam="1">  1       21 0.46722371E-02 0.18442825E+03</pdfrwt>
<pdfrwt beam="2">  1       21 0.24477648E+00 0.18442825E+03</pdfrwt>
<totfact> 0.21688796E+04</totfact>
</mgrwt>
</event>
<event>
12    1  0.1410528E-001  0.2447457E+03  0.7546771E-02  0.1116839E+00
         21   -1    0    0  502  503  0.00000000000E+00  0.00000000000E+00  0.25249680839E+03  0.25249680839E+03  0.00000000000E+00 0. -1.
         21   -1    0    0  503  504 -0.00000000000E+00 -0.00000000000E+00 -0.26584819931E+03  0.26584819931E+03  0.00000000000E+00 0. -1.
         -6    2    1    2    0  504 -0.11254812909E+03 -0.12927942822E+03 -0.93190427535E+02  0.26188723414E+03  0.17470035975E+03 0.  0.
        -24    2    3    3    0    0  0.13269549202E+02 -0.66894090697E+02 -0.39246488449E+02  0.11137458659E+03  0.78823292090E+02 0.  0.
          6    2    1    2  502    0  0.11254812909E+03  0.12927942822E+03  0.79839036611E+02  0.25645777356E+03  0.17325145289E+03 0.  0.
         24    2    5    5    0    0  0.23369625530E+02  0.67737527568E+01  0.16103075804E+01  0.85863898921E+02  0.82328566875E+02 0.  0.
          4    1    6    6  501    0  0.51899074824E+02  0.46746619243E+01 -0.13051588004E+02  0.53718808449E+02  0.00000000000E+00 0. -1.
         -3    1    6    6    0  501 -0.28529449294E+02  0.20990908325E+01  0.14661895585E+02  0.32145090472E+02  0.00000000000E+00 0.  1.
          5    1    5    5  502    0  0.89178503558E+02  0.12250567546E+03  0.78228729031E+02  0.17059387464E+03  0.47000000000E+01 0. -1.
         13    1    4    4    0    0 -0.23546454852E+02  0.42652945967E+01 -0.11831864844E+02  0.26694967687E+02  0.00000000000E+00 0. -1.
        -14    1    4    4    0    0  0.36816004054E+02 -0.71159385293E+02 -0.27414623605E+02  0.84679618901E+02  0.00000000000E+00 0.  1.
         -5    1    3    3    0  504 -0.12581767829E+03 -0.62385337524E+02 -0.53943939086E+02  0.15051264755E+03  0.47000000000E+01 0.  1.
<mgrwt>
<rscale>  2 0.24448728E+03</rscale>
<asrwt>0</asrwt>
<pdfrwt beam="1">  1       21 0.38845663E-01 0.24474572E+03</pdfrwt>
<pdfrwt beam="2">  1       21 0.40899723E-01 0.24474572E+03</pdfrwt>
<totfact> 0.35876289E+04</totfact>
</mgrwt>
</event>
<event>
12    1  0.1410528E-001  0.2410919E+03  0.7546771E-02  0.1119317E+00
         21   -1    0    0  502  503  0.00000000000E+00  0.00000000000E+00  0.16565883510E+03  0.16565883510E+03  0.00000000000E+00 0. -1.
         21   -1    0    0  503  504 -0.00000000000E+00 -0.00000000000E+00 -0.45050653283E+03  0.45050653283E+03  0.00000000000E+00 0.  1.
         -6    2    1    2    0  504  0.10621761081E+03  0.12659160594E+03 -0.28854089853E+03  0.37504518045E+03  0.17348032083E+03 0.  0.
        -24    2    3    3    0    0  0.21519745828E+02  0.27742871762E+02 -0.44219420017E+02  0.98169982133E+02  0.80307047582E+02 0.  0.
          6    2    1    2  502    0 -0.10621761081E+03 -0.12659160594E+03  0.36932008002E+01  0.24112018748E+03  0.17554967826E+03 0.  0.
         24    2    5    5    0    0 -0.43176314332E+01 -0.26868173486E+02  0.41300990181E+02  0.93591191687E+02  0.79454381150E+02 0.  0.
          4    1    6    6  501    0 -0.10876022374E+02 -0.14922574508E+02  0.64277543561E+02  0.66877303316E+02  0.00000000000E+00 0. -1.
         -3    1    6    6    0  501  0.65583909406E+01 -0.11945598978E+02 -0.22976553380E+02  0.26713888371E+02  0.00000000000E+00 0.  1.
          5    1    5    5  502    0 -0.10189997937E+03 -0.99723432455E+02 -0.37607789381E+02  0.14752899579E+03  0.47000000000E+01 0. -1.
         13    1    4    4    0    0 -0.29676236896E+01  0.52022751759E+02 -0.19061618838E+02  0.55484401444E+02  0.00000000000E+00 0. -1.
        -14    1    4    4    0    0  0.24487369518E+02 -0.24279879997E+02 -0.25157801180E+02  0.42685580689E+02  0.00000000000E+00 0.  1.
         -5    1    3    3    0  504  0.84697864977E+02  0.98848734179E+02 -0.24432147851E+03  0.27687519832E+03  0.47000000000E+01 0.  1.
<mgrwt>
<rscale>  2 0.24071537E+03</rscale>
<asrwt>0</asrwt>
<pdfrwt beam="1">  1       21 0.25485975E-01 0.24109190E+03</pdfrwt>
<pdfrwt beam="2">  1       21 0.69308697E-01 0.24109190E+03</pdfrwt>
<totfact> 0.26953143E+04</totfact>
</mgrwt>
</event>
<event>
12    1  0.1410528E-001  0.2590580E+03  0.7546771E-02  0.1108179E+00
         21   -1    0    0  502  503  0.00000000000E+00  0.00000000000E+00  0.21769635696E+03  0.21769635696E+03  0.00000000000E+00 0.  1.
         21   -1    0    0  503  504 -0.00000000000E+00 -0.00000000000E+00 -0.32748122260E+03  0.32748122260E+03  0.00000000000E+00 0.  1.
         -6    2    1    2    0  504  0.29759240651E+02 -0.19219976066E+03 -0.12721534090E+03  0.28860836832E+03  0.17112769180E+03 0.  0.
        -24    2    3    3    0    0  0.75395644992E+02 -0.17017529472E+03 -0.12201473612E+03  0.23745277438E+03  0.82777352050E+02 0.  0.
          6    2    1    2  502    0 -0.29759240651E+02  0.19219976066E+03  0.17430475253E+02  0.25656921125E+03  0.16642589430E+03 0.  0.
         24    2    5    5    0    0 -0.14410046245E+02  0.94340960339E+02  0.71541254698E+02  0.14360014902E+03  0.79968652885E+02 0.  0.
          2    1    6    6  501    0 -0.61380334886E+01  0.12219813634E+02  0.58454079376E+02  0.60032313766E+02  0.00000000000E+00 0. -1.
         -1    1    6    6    0  501 -0.82720127566E+01  0.82121146704E+02  0.13087175322E+02  0.83567835253E+02  0.00000000000E+00 0.  1.
          5    1    5    5  502    0 -0.15349194405E+02  0.97858800322E+02 -0.54110779445E+02  0.11296906223E+03  0.47000000000E+01 0. -1.
         11    1    4    4    0    0  0.37619045650E+02 -0.10673011614E+03 -0.25625374256E+02  0.11603090146E+03  0.00000000000E+00 0. -1.
        -12    1    4    4    0    0  0.37776599342E+02 -0.63445178575E+02 -0.96389361865E+02  0.12142187292E+03  0.00000000000E+00 0.  1.
         -5    1    3    3    0  504 -0.45636404341E+02 -0.22024465943E+02 -0.52006047750E+01  0.51155593939E+02  0.47000000000E+01 0.  1.
<mgrwt>
<rscale>  2 0.25828415E+03</rscale>
<asrwt>0</asrwt>
<pdfrwt beam="1">  1       21 0.33491747E-01 0.25905800E+03</pdfrwt>
<pdfrwt beam="2">  1       21 0.50381727E-01 0.25905800E+03</pdfrwt>
<totfact> 0.31178243E+04</totfact>
</mgrwt>
</event>
<event>
12    1  0.1410528E-001  0.2005329E+03  0.7546771E-02  0.1149508E+00
         21   -1    0    0  502  503  0.00000000000E+00  0.00000000000E+00  0.18763928054E+03  0.18763928054E+03  0.00000000000E+00 0.  1.
         21   -1    0    0  503  504 -0.00000000000E+00 -0.00000000000E+00 -0.50672999966E+03  0.50672999966E+03  0.00000000000E+00 0.  1.
         -6    2    1    2    0  504  0.70150214849E+02  0.71831635138E+02 -0.42395497824E+03  0.46898964012E+03  0.17358750678E+03 0.  0.
        -24    2    3    3    0    0  0.26823589836E+02  0.10554737789E+03 -0.35995467021E+03  0.38453801389E+03  0.80264348059E+02 0.  0.
          6    2    1    2  502    0 -0.70150214849E+02 -0.71831635138E+02  0.10486425912E+03  0.22537964009E+03  0.17239093038E+03 0.  0.
         24    2    5    5    0    0 -0.98121956165E+02 -0.18921914830E+02  0.10533717255E+03  0.16534489630E+03  0.79101565516E+02 0.  0.
          2    1    6    6  501    0 -0.97224753142E+02 -0.12927395014E+02  0.50769174845E+02  0.11044129336E+03  0.00000000000E+00 0. -1.
         -1    1    6    6    0  501 -0.89720302340E+00 -0.59945198154E+01  0.54567997708E+02  0.54903602932E+02  0.00000000000E+00 0.  1.
          5    1    5    5  502    0  0.27971741316E+02 -0.52909720309E+02 -0.47291343397E+00  0.60034743795E+02  0.47000000000E+01 0. -1.
         11    1    4    4    0    0 -0.82265503417E+00  0.92825010906E+02 -0.18529922688E+03  0.20725096596E+03  0.00000000000E+00 0. -1.
        -12    1    4    4    0    0  0.27646244870E+02  0.12722366984E+02 -0.17465544333E+03  0.17728704793E+03  0.00000000000E+00 0.  1.
         -5    1    3    3    0  504  0.43326625013E+02 -0.33715742752E+02 -0.64000308031E+02  0.84451626227E+02  0.47000000000E+01 0.  1.
<mgrwt>
<rscale>  2 0.20027371E+03</rscale>
<asrwt>0</asrwt>
<pdfrwt beam="1">  1       21 0.28867582E-01 0.20053294E+03</pdfrwt>
<pdfrwt beam="2">  1       21 0.77958459E-01 0.20053294E+03</pdfrwt>
<totfact> 0.16659572E+04</totfact>
</mgrwt>
</event>
<event>
12    1  0.1410528E-001  0.1757993E+03  0.7546771E-02  0.1172854E+00
         21   -1    0    0  502  503  0.00000000000E+00  0.00000000000E+00  0.93725439500E+03  0.93725439500E+03  0.00000000000E+00 0.  1.
         21   -1    0    0  503  504 -0.00000000000E+00 -0.00000000000E+00 -0.33310462879E+02  0.33310462879E+02  0.00000000000E+00 0.  1.
         -6    2    1    2    0  504 -0.12111788402E+02 -0.26054508141E+02  0.54141212886E+03  0.56923850554E+03  0.17343543496E+03 0.  0.
        -24    2    3    3    0    0  0.74667224096E+01  0.21951294474E+02  0.48608196753E+03  0.49326882788E+03  0.80627824791E+02 0.  0.
          6    2    1    2  502    0  0.12111788402E+02  0.26054508141E+02  0.36253180326E+03  0.40132635234E+03  0.16972919576E+03 0.  0.
         24    2    5    5    0    0 -0.53227699067E+02  0.16044828414E+02  0.14717831356E+03  0.17600733885E+03  0.78908192740E+02 0.  0.
          4    1    6    6  501    0 -0.62531705906E+02  0.37514449597E+01  0.14785183163E+03  0.16057537700E+03  0.00000000000E+00 0. -1.
         -3    1    6    6    0  501  0.93040068389E+01  0.12293383454E+02 -0.67351807160E+00  0.15431961852E+02  0.00000000000E+00 0.  1.
          5    1    5    5  502    0  0.65339487469E+02  0.10009679727E+02  0.21535348970E+03  0.22531901349E+03  0.47000000000E+01 0. -1.
         13    1    4    4    0    0  0.15813780577E+02 -0.26504883908E+02  0.26463452549E+03  0.26642825790E+03  0.00000000000E+00 0. -1.
        -14    1    4    4    0    0 -0.83470581677E+01  0.48456178382E+02  0.22144744204E+03  0.22684056999E+03  0.00000000000E+00 0.  1.
         -5    1    3    3    0  504 -0.19578510811E+02 -0.48005802615E+02  0.55330161325E+02  0.75969677652E+02  0.47000000000E+01 0.  1.
<mgrwt>
<rscale>  2 0.17487822E+03</rscale>
<asrwt>0</asrwt>
<pdfrwt beam="1">  1       21 0.14419296E+00 0.17579927E+03</pdfrwt>
<pdfrwt beam="2">  1       21 0.51246873E-02 0.17579927E+03</pdfrwt>
<totfact> 0.86217188E+04</totfact>
</mgrwt>
</event>
<event>
12    1  0.1410528E-001  0.1852913E+03  0.7546771E-02  0.1163002E+00
         21   -1    0    0  502  503  0.00000000000E+00  0.00000000000E+00  0.23031732386E+03  0.23031732386E+03  0.00000000000E+00 0. -1.
         21   -1    0    0  503  504 -0.00000000000E+00 -0.00000000000E+00 -0.15272875609E+03  0.15272875609E+03  0.00000000000E+00 0. -1.
         -6    2    1    2    0  504  0.24868340448E+02  0.58225858236E+02  0.60707554024E+01  0.18443173307E+03  0.17311708514E+03 0.  0.
        -24    2    3    3    0    0  0.63110299780E+02  0.62938448784E+02  0.46796970750E+02  0.12817010689E+03  0.79331340314E+02 0.  0.
          6    2    1    2  502    0 -0.24868340448E+02 -0.58225858236E+02  0.71517812368E+02  0.19861434689E+03  0.17413838285E+03 0.  0.
         24    2    5    5    0    0  0.83349115223E+01 -0.10044375931E+03  0.59383047882E+02  0.14334998566E+03  0.82851991395E+02 0.  0.
          2    1    6    6  501    0  0.10821605749E+02 -0.96990770152E+02  0.77574155495E+02  0.12466782362E+03  0.00000000000E+00 0. -1.
         -1    1    6    6    0  501 -0.24866942267E+01 -0.34529891620E+01 -0.18191107613E+02  0.18682162040E+02  0.00000000000E+00 0.  1.
          5    1    5    5  502    0 -0.33203251971E+02  0.42217901078E+02  0.12134764486E+02  0.55264361229E+02  0.47000000000E+01 0. -1.
         11    1    4    4    0    0  0.49355335911E+02  0.81647723335E+02  0.31975409368E+02  0.10062170100E+03  0.00000000000E+00 0. -1.
        -12    1    4    4    0    0  0.13754963869E+02 -0.18709274551E+02  0.14821561382E+02  0.27548405890E+02  0.00000000000E+00 0.  1.
         -5    1    3    3    0  504 -0.38241959332E+02 -0.47125905479E+01 -0.40726215348E+02  0.56261626174E+02  0.47000000000E+01 0.  1.
<mgrwt>
<rscale>  2 0.18505095E+03</rscale>
<asrwt>0</asrwt>
<pdfrwt beam="1">  1       21 0.35433435E-01 0.18529129E+03</pdfrwt>
<pdfrwt beam="2">  1       21 0.23496732E-01 0.18529129E+03</pdfrwt>
<totfact> 0.13121347E+05</totfact>
</mgrwt>
</event>
<event>
12    1  0.1410528E-001  0.3128975E+03  0.7546771E-02  0.1079605E+00
         21   -1    0    0  502  503  0.00000000000E+00  0.00000000000E+00  0.10137516834E+04  0.10137516834E+04  0.00000000000E+00 0.  1.
         21   -1    0    0  503  504 -0.00000000000E+00 -0.00000000000E+00 -0.95233331489E+02  0.95233331489E+02  0.00000000000E+00 0. -1.
         -6    2    1    2    0  504  0.25036019790E+03  0.69001413868E+02  0.43199218230E+03  0.53340614270E+03  0.17453780018E+03 0.  0.
        -24    2    3    3    0    0  0.86639819819E+02 -0.22899602726E+02  0.20974559178E+03  0.24243226750E+03  0.82154372198E+02 0.  0.
          6    2    1    2  502    0 -0.25036019790E+03 -0.69001413868E+02  0.48652616957E+03  0.57557887215E+03  0.16474799112E+03 0.  0.
         24    2    5    5    0    0 -0.10860892659E+03 -0.91751680684E+02  0.28253472556E+03  0.32608819740E+03  0.79330772663E+02 0.  0.
          2    1    6    6  501    0  0.12727173028E+02 -0.12584182437E+02  0.29012137896E+02  0.34088806465E+02  0.00000000000E+00 0. -1.
         -1    1    6    6    0  501 -0.12133609962E+03 -0.79167498248E+02  0.25352258766E+03  0.29199939093E+03  0.00000000000E+00 0.  1.
          5    1    5    5  502    0 -0.14175127131E+03  0.22750266816E+02  0.20399144401E+03  0.24949067475E+03  0.47000000000E+01 0. -1.
         13    1    4    4    0    0  0.40540863645E+02  0.30484642245E+02  0.79202069293E+02  0.94052340844E+02  0.00000000000E+00 0. -1.
        -14    1    4    4    0    0  0.46098956173E+02 -0.53384244971E+02  0.13054352249E+03  0.14837992666E+03  0.00000000000E+00 0.  1.
         -5    1    3    3    0  504  0.16372037808E+03  0.91901016594E+02  0.22224659052E+03  0.29097387520E+03  0.47000000000E+01 0.  1.
<mgrwt>
<rscale>  2 0.31155048E+03</rscale>
<asrwt>0</asrwt>
<pdfrwt beam="1">  1       21 0.15596179E+00 0.31289754E+03</pdfrwt>
<pdfrwt beam="2">  1       21 0.14651282E-01 0.31289754E+03</pdfrwt>
<totfact> 0.10261367E+04</totfact>
</mgrwt>
</event>
<event>
12    1  0.1410528E-001  0.1732564E+03  0.7546771E-02  0.1174502E+00
         21   -1    0    0  502  503  0.00000000000E+00  0.00000000000E+00  0.93826074939E+03  0.93826074939E+03  0.00000000000E+00 0.  1.
         21   -1    0    0  503  504 -0.00000000000E+00 -0.00000000000E+00 -0.94821958816E+02  0.94821958816E+02  0.00000000000E+00 0.  1.
         -6    2    1    2    0  504  0.23379689121E+01  0.32012513226E+01  0.12216550543E+01  0.17322954100E+03  0.17317986986E+03 0.  0.
        -24    2    3    3    0    0 -0.62144170294E+02  0.21493442881E+02 -0.10924003325E+02  0.10494954710E+03  0.81062985387E+02 0.  0.
          6    2    1    2  502    0 -0.23379689121E+01 -0.32012513226E+01  0.84221713552E+03  0.85985316721E+03  0.17321100338E+03 0.  0.
         24    2    5    5    0    0  0.65372136312E+02 -0.64747795526E+01  0.55895425829E+03  0.56855379894E+03  0.80672922697E+02 0.  0.
          2    1    6    6  501    0  0.15401054798E+02 -0.38965591954E+02  0.17163783513E+03  0.17667783193E+03  0.00000000000E+00 0. -1.
         -1    1    6    6    0  501  0.49971081514E+02  0.32490812402E+02  0.38731642316E+03  0.39187596702E+03  0.00000000000E+00 0.  1.
          5    1    5    5  502    0 -0.67710105224E+02  0.32735282300E+01  0.28326287723E+03  0.29129936827E+03  0.47000000000E+01 0. -1.
         13    1    4    4    0    0 -0.14986297124E+02 -0.30492324910E+02 -0.67298456621E+01  0.34636134347E+02  0.00000000000E+00 0. -1.
        -14    1    4    4    0    0 -0.47157873170E+02  0.51985767791E+02 -0.41941576630E+01  0.70313412755E+02  0.00000000000E+00 0.  1.
         -5    1    3    3    0  504  0.64482139206E+02 -0.18292191558E+02  0.12145658379E+02  0.68279993893E+02  0.47000000000E+01 0.  1.
<mgrwt>
<rscale>  2 0.17324858E+03</rscale>
<asrwt>0</asrwt>
<pdfrwt beam="1">  1       21 0.14434780E+00 0.17325636E+03</pdfrwt>
<pdfrwt beam="2">  1       21 0.14587994E-01 0.17325636E+03</pdfrwt>
<totfact> 0.13833883E+04</totfact>
</mgrwt>
</event>
<event>
12    1  0.1410528E-001  0.2027708E+03  0.7546771E-02  0.1147450E+00
         21   -1    0    0  502  503  0.00000000000E+00  0.00000000000E+00  0.70232467144E+03  0.70232467144E+03  0.00000000000E+00 0.  1.
         21   -1    0    0  503  504 -0.00000000000E+00 -0.00000000000E+00 -0.65186695022E+02  0.65186695022E+02  0.00000000000E+00 0.  1.
         -6    2    1    2    0  504 -0.81392744845E+02  0.65721746616E+02  0.19559390827E+03  0.28163365157E+03  0.17354080169E+03 0.  0.
        -24    2    3    3    0    0 -0.46885406554E+01 -0.23917398279E+02  0.69960721595E+02  0.10922570850E+03  0.80260379255E+02 0.  0.
          6    2    1    2  502    0  0.81392744845E+02 -0.65721746616E+02  0.44154406815E+03  0.48587771489E+03  0.17370049746E+03 0.  0.
         24    2    5    5    0    0  0.69769514457E+02 -0.95675167464E+02  0.42600355568E+03  0.44987904223E+03  0.83009640260E+02 0.  0.
          4    1    6    6  501    0  0.74981480208E+02 -0.36716815173E+02  0.28445392630E+03  0.29645300315E+03  0.00000000000E+00 0. -1.
         -3    1    6    6    0  501 -0.52119657507E+01 -0.58958352291E+02  0.14154962938E+03  0.15342603908E+03  0.00000000000E+00 0.  1.
          5    1    5    5  502    0  0.11623230388E+02  0.29953420848E+02  0.15540512472E+02  0.35998672657E+02  0.47000000000E+01 0. -1.
         13    1    4    4    0    0 -0.26248205106E+02 -0.23374925548E+02 -0.89656835152E+00  0.35159056450E+02  0.00000000000E+00 0. -1.
        -14    1    4    4    0    0  0.21559664451E+02 -0.54247273120E+00  0.70857289946E+02  0.74066652054E+02  0.00000000000E+00 0.  1.
         -5    1    3    3    0  504 -0.76704204190E+02  0.89639144895E+02  0.12563318667E+03  0.17240794306E+03  0.47000000000E+01 0.  1.
<mgrwt>
<rscale>  2 0.20273658E+03</rscale>
<asrwt>0</asrwt>
<pdfrwt beam="1">  1       21 0.10804994E+00 0.20277078E+03</pdfrwt>
<pdfrwt beam="2">  1       21 0.10028723E-01 0.20277078E+03</pdfrwt>
<totfact> 0.54774097E+04</totfact>
</mgrwt>
</event>
<event>
12    1  0.1410528E-001  0.2445688E+03  0.7546771E-02  0.1116808E+00
         21   -1    0    0  502  503  0.00000000000E+00  0.00000000000E+00  0.60232234205E+03  0.60232234205E+03  0.00000000000E+00 0.  1.
         21   -1    0    0  503  504 -0.00000000000E+00 -0.00000000000E+00 -0.13649129410E+03  0.13649129410E+03  0.00000000000E+00 0.  1.
         -6    2    1    2    0  504  0.50550921879E+02  0.16498378329E+03  0.39912737861E+02  0.24767178519E+03  0.17312782007E+03 0.  0.
        -24    2    3    3    0    0  0.18231201022E+02  0.38840607637E+02 -0.34520531904E+02  0.97608242752E+02  0.80589902828E+02 0.  0.
          6    2    1    2  502    0 -0.50550921879E+02 -0.16498378329E+03  0.42591831009E+03  0.49114185095E+03  0.17331724218E+03 0.  0.
         24    2    5    5    0    0 -0.85484617584E+02 -0.16111230488E+03  0.30118682234E+03  0.36146769981E+03  0.81734946144E+02 0.  0.
          2    1    6    6  501    0  0.53178696240E+01 -0.28722121319E+02  0.99443658247E+02  0.10364497651E+03  0.00000000000E+00 0. -1.
         -1    1    6    6    0  501 -0.90802487208E+02 -0.13239018357E+03  0.20174316410E+03  0.25782272329E+03  0.00000000000E+00 0.  1.
          5    1    5    5  502    0  0.34933695706E+02 -0.38714784079E+01  0.12473148775E+03  0.12967415115E+03  0.47000000000E+01 0. -1.
         13    1    4    4    0    0  0.23499335334E+02  0.14191472801E+02  0.22351620418E+02  0.35400728760E+02  0.00000000000E+00 0. -1.
        -14    1    4    4    0    0 -0.52681343119E+01  0.24649134836E+02 -0.56872152322E+02  0.62207513992E+02  0.00000000000E+00 0.  1.
         -5    1    3    3    0  504  0.32319720857E+02  0.12614317565E+03  0.74433269765E+02  0.15006354244E+03  0.47000000000E+01 0.  1.
<mgrwt>
<rscale>  2 0.24453527E+03</rscale>
<asrwt>0</asrwt>
<pdfrwt beam="1">  1       21 0.92664974E-01 0.24456883E+03</pdfrwt>
<pdfrwt beam="2">  1       21 0.20998661E-01 0.24456883E+03</pdfrwt>
<totfact> 0.20087929E+04</totfact>
</mgrwt>
</event>
<event>
12    1  0.1410528E-001  0.1815095E+03  0.7546771E-02  0.1166360E+00
         21   -1    0    0  502  503  0.00000000000E+00  0.00000000000E+00  0.15384443702E+03  0.15384443702E+03  0.00000000000E+00 0. -1.
         21   -1    0    0  503  504 -0.00000000000E+00 -0.00000000000E+00 -0.75800580522E+03  0.75800580522E+03  0.00000000000E+00 0. -1.
         -6    2    1    2    0  504 -0.42474850243E+02 -0.34364335769E+02 -0.68829749799E+03  0.71182802034E+03  0.17309149120E+03 0.  0.
        -24    2    3    3    0    0  0.29228452379E+02  0.89176645747E+01 -0.47509664176E+03  0.48271802436E+03  0.79787498145E+02 0.  0.
          6    2    1    2  502    0  0.42474850243E+02  0.34364335769E+02  0.84136129793E+02  0.20002222190E+03  0.17304618008E+03 0.  0.
         24    2    5    5    0    0  0.76450213191E+02 -0.17332663634E+02  0.25332182361E+02  0.11454181907E+03  0.79580478298E+02 0.  0.
          4    1    6    6  501    0  0.41011310288E+02 -0.96759868378E+01  0.53876282633E+02  0.68397413133E+02  0.00000000000E+00 0. -1.
         -3    1    6    6    0  501  0.35438902903E+02 -0.76566767958E+01 -0.28544100273E+02  0.46144405933E+02  0.00000000000E+00 0.  1.
          5    1    5    5  502    0 -0.33975362948E+02  0.51696999403E+02  0.58803947432E+02  0.85480402832E+02  0.47000000000E+01 0. -1.
         13    1    4    4    0    0 -0.45555226540E+01  0.30294796099E+02 -0.81018309190E+02  0.86616937612E+02  0.00000000000E+00 0. -1.
        -14    1    4    4    0    0  0.33783975033E+02 -0.21377131524E+02 -0.39407833257E+03  0.39610108675E+03  0.00000000000E+00 0.  1.
         -5    1    3    3    0  504 -0.71703302623E+02 -0.43282000344E+02 -0.21320085622E+03  0.22910999597E+03  0.47000000000E+01 0.  1.
<mgrwt>
<rscale>  2 0.18149866E+03</rscale>
<asrwt>0</asrwt>
<pdfrwt beam="1">  1       21 0.23668375E-01 0.18150946E+03</pdfrwt>
<pdfrwt beam="2">  1       21 0.11661628E+00 0.18150946E+03</pdfrwt>
<totfact> 0.96028399E+03</totfact>
</mgrwt>
</event>
<event>
12    1  0.1410528E-001  0.2069989E+03  0.7546771E-02  0.1144595E+00
         21   -1    0    0  502  503  0.00000000000E+00  0.00000000000E+00  0.26026685818E+03  0.26026685818E+03  0.00000000000E+00 0. -1.
         21   -1    0    0  503  504 -0.00000000000E+00 -0.00000000000E+00 -0.18707215220E+03  0.18707215220E+03  0.00000000000E+00 0.  1.
         -6    2    1    2    0  504  0.36450313794E+02  0.10169405930E+03 -0.45231814564E+02  0.20885763837E+03  0.17293145747E+03 0.  0.
        -24    2    3    3    0    0 -0.23268633770E+02 -0.30068471226E+01 -0.21746153890E+02  0.85966227920E+02  0.79792397424E+02 0.  0.
          6    2    1    2  502    0 -0.36450313794E+02 -0.10169405930E+03  0.11842652054E+03  0.23848137201E+03  0.17657354546E+03 0.  0.
         24    2    5    5    0    0 -0.74887820943E+02 -0.11635093216E+03  0.11330468512E+03  0.19676100438E+03  0.82043988412E+02 0.  0.
          4    1    6    6  501    0  0.17225897603E+02 -0.24950586168E+02  0.29399123334E+02  0.42232354317E+02  0.00000000000E+00 0. -1.
         -3    1    6    6    0  501 -0.92113718546E+02 -0.91400345987E+02  0.83905561784E+02  0.15452865006E+03  0.00000000000E+00 0.  1.
          5    1    5    5  502    0  0.38437507148E+02  0.14656872853E+02  0.51218354210E+01  0.41720367636E+02  0.47000000000E+01 0. -1.
         11    1    4    4    0    0  0.15908590907E+02  0.21146859931E+02  0.11839373404E+02  0.28990407245E+02  0.00000000000E+00 0. -1.
        -12    1    4    4    0    0 -0.39177224678E+02 -0.24153707054E+02 -0.33585527295E+02  0.56975820675E+02  0.00000000000E+00 0.  1.
         -5    1    3    3    0  504  0.59718947565E+02  0.10470090642E+03 -0.23485660674E+02  0.12289141045E+03  0.47000000000E+01 0.  1.
<mgrwt>
<rscale>  2 0.20621999E+03</rscale>
<asrwt>0</asrwt>
<pdfrwt beam="1">  1       21 0.40041055E-01 0.20699885E+03</pdfrwt>
<pdfrwt beam="2">  1       21 0.28780331E-01 0.20699885E+03</pdfrwt>
<totfact> 0.68995720E+04</totfact>
</mgrwt>
</event>
<event>
12    1  0.1410528E-001  0.1869944E+03  0.7546771E-02  0.1161639E+00
         21   -1    0    0  502  503  0.00000000000E+00  0.00000000000E+00  0.41492820899E+03  0.41492820899E+03  0.00000000000E+00 0. -1.
         21   -1    0    0  503  504 -0.00000000000E+00 -0.00000000000E+00 -0.83426829489E+02  0.83426829489E+02  0.00000000000E+00 0. -1.
         -6    2    1    2    0  504 -0.54801870532E+02  0.46703134423E+02  0.16714018446E+03  0.24939420175E+03  0.17052037657E+03 0.  0.
        -24    2    3    3    0    0 -0.10160936408E+03  0.18723034970E+02  0.10223111200E+03  0.16448775261E+03  0.77006529529E+02 0.  0.
          6    2    1    2  502    0  0.54801870532E+02 -0.46703134423E+02  0.16436119505E+03  0.24896083674E+03  0.17257597751E+03 0.  0.
         24    2    5    5    0    0  0.28989082919E+02  0.23615754293E+02  0.14416025235E+03  0.17123558858E+03  0.84506672281E+02 0.  0.
          2    1    6    6  501    0  0.39646206575E+02 -0.62787594037E+01  0.23591473758E+02  0.46559662257E+02  0.00000000000E+00 0. -1.
         -1    1    6    6    0  501 -0.10657123656E+02  0.29894513697E+02  0.12056877859E+03  0.12467592633E+03  0.00000000000E+00 0.  1.
          5    1    5    5  502    0  0.25812787613E+02 -0.70318888716E+02  0.20200942694E+02  0.77725248152E+02  0.47000000000E+01 0. -1.
         11    1    4    4    0    0 -0.79141360935E+02  0.27178216916E+02  0.30859538080E+02  0.89187003403E+02  0.00000000000E+00 0. -1.
        -12    1    4    4    0    0 -0.22468003145E+02 -0.84551819464E+01  0.71371573921E+02  0.75300749207E+02  0.00000000000E+00 0.  1.
         -5    1    3    3    0  504  0.46807493549E+02  0.27980099453E+02  0.64909072457E+02  0.84906449137E+02  0.47000000000E+01 0.  1.
<mgrwt>
<rscale>  2 0.18651871E+03</rscale>
<asrwt>0</asrwt>
<pdfrwt beam="1">  1       21 0.63835108E-01 0.18699437E+03</pdfrwt>
<pdfrwt beam="2">  1       21 0.12834897E-01 0.18699437E+03</pdfrwt>
<totfact> 0.11814865E+05</totfact>
</mgrwt>
</event>
<event>
12    1  0.1410528E-001  0.2189558E+03  0.7546771E-02  0.1135531E+00
         21   -1    0    0  502  503  0.00000000000E+00  0.00000000000E+00  0.36187639464E+03  0.36187639464E+03  0.00000000000E+00 0.  1.
         21   -1    0    0  503  504 -0.00000000000E+00 -0.00000000000E+00 -0.47196461958E+03  0.47196461958E+03  0.00000000000E+00 0.  1.
         -6    2    1    2    0  504 -0.13452431991E+03 -0.39232463028E+01 -0.41022539285E+03  0.46500161285E+03  0.17271202189E+03 0.  0.
        -24    2    3    3    0    0 -0.26047173578E+02  0.13632848955E+02 -0.81076456915E+02  0.11796181717E+03  0.80481604251E+02 0.  0.
          6    2    1    2  502    0  0.13452431991E+03  0.39232463028E+01  0.30013716791E+03  0.36883940137E+03  0.16687720014E+03 0.  0.
         24    2    5    5    0    0  0.85249892150E+02 -0.54989843408E+02  0.13814974201E+03  0.18950525091E+03  0.80842203792E+02 0.  0.
          4    1    6    6  501    0 -0.13904982100E+02 -0.20241081488E+02  0.29062004087E+02  0.38047995855E+02  0.00000000000E+00 0. -1.
         -3    1    6    6    0  501  0.99154874250E+02 -0.34748761920E+02  0.10908773792E+03  0.15145725505E+03  0.00000000000E+00 0.  1.
          5    1    5    5  502    0  0.49274427764E+02  0.58913089711E+02  0.16198742590E+03  0.17933415046E+03  0.47000000000E+01 0. -1.
         13    1    4    4    0    0  0.12776242113E+01  0.40649607156E+02 -0.64189651597E+02  0.75989040379E+02  0.00000000000E+00 0. -1.
        -14    1    4    4    0    0 -0.27324797790E+02 -0.27016758201E+02 -0.16886805317E+02  0.41972776794E+02  0.00000000000E+00 0.  1.
         -5    1    3    3    0  504 -0.10847714634E+03 -0.17556095258E+02 -0.32914893594E+03  0.34703979568E+03  0.47000000000E+01 0.  1.
<mgrwt>
<rscale>  2 0.21780358E+03</rscale>
<asrwt>0</asrwt>
<pdfrwt beam="1">  1       21 0.55673291E-01 0.21895576E+03</pdfrwt>
<pdfrwt beam="2">  1       21 0.72609941E-01 0.21895576E+03</pdfrwt>
<totfact> 0.50926739E+03</totfact>
</mgrwt>
</event>
<event>
12    1  0.1410528E-001  0.2663539E+03  0.7546771E-02  0.1103419E+00
         21   -1    0    0  502  503  0.00000000000E+00  0.00000000000E+00  0.14274527730E+03  0.14274527730E+03  0.00000000000E+00 0.  1.
         21   -1    0    0  503  504 -0.00000000000E+00 -0.00000000000E+00 -0.49899229426E+03  0.49899229426E+03  0.00000000000E+00 0. -1.
         -6    2    1    2    0  504  0.20265317684E+03 -0.11031354842E+02 -0.20059349050E+03  0.33343983675E+03  0.17249456638E+03 0.  0.
        -24    2    3    3    0    0  0.52083042065E+02 -0.12676233134E+02 -0.13761272094E+03  0.17015254868E+03  0.84506205112E+02 0.  0.
          6    2    1    2  502    0 -0.20265317684E+03  0.11031354842E+02 -0.15565352645E+03  0.30829773481E+03  0.17213213563E+03 0.  0.
         24    2    5    5    0    0 -0.18756911817E+03  0.53777594099E+02 -0.97215490055E+02  0.23419062385E+03  0.85558126877E+02 0.  0.
          4    1    6    6  501    0 -0.14870429270E+03  0.16525740909E+02 -0.10052619526E+03  0.18025421691E+03  0.00000000000E+00 0. -1.
         -3    1    6    6    0  501 -0.38864825465E+02  0.37251853190E+02  0.33107052030E+01  0.53936406939E+02  0.00000000000E+00 0.  1.
          5    1    5    5  502    0 -0.15084058674E+02 -0.42746239257E+02 -0.58438036397E+02  0.74107110959E+02  0.47000000000E+01 0. -1.
         11    1    4    4    0    0  0.61519519876E+02  0.91656711928E+01 -0.13168033677E+03  0.14563094433E+03  0.00000000000E+00 0. -1.
        -12    1    4    4    0    0 -0.94364778109E+01 -0.21841904326E+02 -0.59323841630E+01  0.24521604351E+02  0.00000000000E+00 0.  1.
         -5    1    3    3    0  504  0.15057013477E+03  0.16448782913E+01 -0.62980769568E+02  0.16328728807E+03  0.47000000000E+01 0.  1.
<mgrwt>
<rscale>  2 0.26629519E+03</rscale>
<asrwt>0</asrwt>
<pdfrwt beam="1">  1       21 0.21960812E-01 0.26635386E+03</pdfrwt>
<pdfrwt beam="2">  1       21 0.76768046E-01 0.26635386E+03</pdfrwt>
<totfact> 0.28177388E+04</totfact>
</mgrwt>
</event>
<event>
12    1  0.1410528E-001  0.2609118E+03  0.7546771E-02  0.1106938E+00
         21   -1    0    0  502  503  0.00000000000E+00  0.00000000000E+00  0.25394939978E+03  0.25394939978E+03  0.00000000000E+00 0.  1.
         21   -1    0    0  503  504 -0.00000000000E+00 -0.00000000000E+00 -0.26736684912E+03  0.26736684912E+03  0.00000000000E+00 0. -1.
         -6    2    1    2    0  504 -0.69026138873E+02 -0.18033488594E+03  0.13685593886E+02  0.25900050773E+03  0.17207175419E+03 0.  0.
        -24    2    3    3    0    0 -0.84194294772E+02 -0.20111591438E+03  0.10919963539E+02  0.23270102470E+03  0.80586791742E+02 0.  0.
          6    2    1    2  502    0  0.69026138873E+02  0.18033488594E+03 -0.27103043222E+02  0.26231574117E+03  0.17546992386E+03 0.  0.
         24    2    5    5    0    0  0.88714472290E+02  0.18835789486E+03  0.47133398115E+01  0.22376225398E+03  0.81843610526E+02 0.  0.
          2    1    6    6  501    0  0.43567270933E+02  0.16735871063E+03 -0.51035173029E+01  0.17301182332E+03  0.00000000000E+00 0. -1.
         -1    1    6    6    0  501  0.45147201357E+02  0.20999184237E+02  0.98168571144E+01  0.50750430664E+02  0.00000000000E+00 0.  1.
          5    1    5    5  502    0 -0.19688333416E+02 -0.80230089229E+01 -0.31816383033E+02  0.38553487186E+02  0.47000000000E+01 0. -1.
         11    1    4    4    0    0 -0.50424592366E+02 -0.13838304354E+03 -0.30332872645E+02  0.15037482973E+03  0.00000000000E+00 0. -1.
        -12    1    4    4    0    0 -0.33769702406E+02 -0.62732870848E+02  0.41252836184E+02  0.82326194973E+02  0.00000000000E+00 0.  1.
         -5    1    3    3    0  504  0.15168155899E+02  0.20781028443E+02  0.27656303471E+01  0.26299483032E+02  0.47000000000E+01 0.  1.
<mgrwt>
<rscale>  2 0.26034166E+03</rscale>
<asrwt>0</asrwt>
<pdfrwt beam="1">  1       21 0.39069139E-01 0.26091181E+03</pdfrwt>
<pdfrwt beam="2">  1       21 0.41133361E-01 0.26091181E+03</pdfrwt>
<totfact> 0.34814398E+04</totfact>
</mgrwt>
</event>
<event>
12    1  0.1410528E-001  0.1847455E+03  0.7546771E-02  0.1163876E+00
         21   -1    0    0  502  503  0.00000000000E+00  0.00000000000E+00  0.21171736857E+03  0.21171736857E+03  0.00000000000E+00 0. -1.
         21   -1    0    0  503  504 -0.00000000000E+00 -0.00000000000E+00 -0.17195981771E+03  0.17195981771E+03  0.00000000000E+00 0. -1.
         -6    2    1    2    0  504 -0.82033718812E+01 -0.56867099434E+02 -0.32585486573E+02  0.18759719787E+03  0.17558397537E+03 0.  0.
        -24    2    3    3    0    0 -0.38213094143E+02 -0.23592329419E+02 -0.79917081412E+02  0.12225070891E+03  0.80880512835E+02 0.  0.
          6    2    1    2  502    0  0.82033718812E+01  0.56867099434E+02  0.72343037428E+02  0.19607998840E+03  0.17295283889E+03 0.  0.
         24    2    5    5    0    0  0.20381166457E+02 -0.28957959425E+02  0.74145148918E+01  0.87673150759E+02  0.79860196423E+02 0.  0.
          2    1    6    6  501    0  0.49368514329E+02 -0.23639358243E+02 -0.64287459273E+01  0.55112596014E+02  0.00000000000E+00 0. -1.
         -1    1    6    6    0  501 -0.28987347872E+02 -0.53186011815E+01  0.13843260819E+02  0.32560554745E+02  0.00000000000E+00 0.  1.
          5    1    5    5  502    0 -0.12177794576E+02  0.85825058858E+02  0.64928522537E+02  0.10840683764E+03  0.47000000000E+01 0. -1.
         11    1    4    4    0    0 -0.65393111495E+01  0.15541478277E+02 -0.68609309993E+02  0.70650814257E+02  0.00000000000E+00 0. -1.
        -12    1    4    4    0    0 -0.31673782994E+02 -0.39133807696E+02 -0.11307771418E+02  0.51599894654E+02  0.00000000000E+00 0.  1.
         -5    1    3    3    0  504  0.30009722262E+02 -0.33274770015E+02  0.47331594839E+02  0.65346488963E+02  0.47000000000E+01 0.  1.
<mgrwt>
<rscale>  2 0.18411759E+03</rscale>
<asrwt>0</asrwt>
<pdfrwt beam="1">  1       21 0.32571903E-01 0.18474549E+03</pdfrwt>
<pdfrwt beam="2">  1       21 0.26455357E-01 0.18474549E+03</pdfrwt>
<totfact> 0.12362357E+05</totfact>
</mgrwt>
</event>
<event>
12    1  0.1410528E-001  0.2668943E+03  0.7546771E-02  0.1103089E+00
         21   -1    0    0  502  503  0.00000000000E+00  0.00000000000E+00  0.69639189352E+03  0.69639189352E+03  0.00000000000E+00 0.  1.
         21   -1    0    0  503  504 -0.00000000000E+00 -0.00000000000E+00 -0.14299110913E+03  0.14299110913E+03  0.00000000000E+00 0.  1.
         -6    2    1    2    0  504  0.12238217665E+03 -0.16133886586E+03  0.52599651973E+02  0.27190229427E+03  0.17365629112E+03 0.  0.
        -24    2    3    3    0    0  0.10235808311E+03 -0.10453558318E+03  0.10105423952E+03  0.19445867414E+03  0.78723257622E+02 0.  0.
          6    2    1    2  502    0 -0.12238217665E+03  0.16133886586E+03  0.50080113242E+03  0.56748070837E+03  0.17385325231E+03 0.  0.
         24    2    5    5    0    0 -0.32642465009E+02  0.12051886585E+03  0.18934878127E+03  0.24076348311E+03  0.80769835224E+02 0.  0.
          2    1    6    6  501    0  0.14343329422E+02  0.92756189752E+02  0.12668870008E+03  0.15766885731E+03  0.00000000000E+00 0. -1.
         -1    1    6    6    0  501 -0.46985794431E+02  0.27762676099E+02  0.62660081185E+02  0.83094625799E+02  0.00000000000E+00 0.  1.
          5    1    5    5  502    0 -0.89739711637E+02  0.40820000012E+02  0.31145235115E+03  0.32671722526E+03  0.47000000000E+01 0. -1.
         13    1    4    4    0    0 -0.33618457530E+01 -0.10741164373E+02  0.38125533275E+02  0.39752118264E+02  0.00000000000E+00 0. -1.
        -14    1    4    4    0    0  0.10571992887E+03 -0.93794418807E+02  0.62928706249E+02  0.15470655587E+03  0.00000000000E+00 0.  1.
         -5    1    3    3    0  504  0.20024093531E+02 -0.56803282682E+02 -0.48454587552E+02  0.77443620138E+02  0.47000000000E+01 0.  1.
<mgrwt>
<rscale>  2 0.26686225E+03</rscale>
<asrwt>0</asrwt>
<pdfrwt beam="1">  1       21 0.10713721E+00 0.26689432E+03</pdfrwt>
<pdfrwt beam="2">  1       21 0.21998633E-01 0.26689432E+03</pdfrwt>
<totfact> 0.12857418E+04</totfact>
</mgrwt>
</event>
<event>
12    1  0.1410528E-001  0.1819771E+03  0.7546771E-02  0.1167074E+00
         21   -1    0    0  502  503  0.00000000000E+00  0.00000000000E+00  0.35252238813E+03  0.35252238813E+03  0.00000000000E+00 0. -1.
         21   -1    0    0  503  504 -0.00000000000E+00 -0.00000000000E+00 -0.95878448172E+02  0.95878448172E+02  0.00000000000E+00 0. -1.
         -6    2    1    2    0  504 -0.33124448430E+02 -0.35410426072E+02  0.81832862755E+02  0.19953015243E+03  0.17539822389E+03 0.  0.
        -24    2    3    3    0    0 -0.73308323364E+02 -0.36925654115E+02  0.75304026473E+01  0.11491345609E+03  0.80067354278E+02 0.  0.
          6    2    1    2  502    0  0.33124448430E+02  0.35410426072E+02  0.17481107720E+03  0.24887068387E+03  0.17037187919E+03 0.  0.
         24    2    5    5    0    0  0.16120801893E+02  0.43051091716E+02  0.19797836872E+03  0.21876558193E+03  0.80930022885E+02 0.  0.
          4    1    6    6  501    0  0.19874220413E+02  0.32599777664E+02  0.20301349363E+03  0.20657252657E+03  0.00000000000E+00 0. -1.
         -3    1    6    6    0  501 -0.37534185202E+01  0.10451314052E+02 -0.50351249088E+01  0.12193055353E+02  0.00000000000E+00 0.  1.
          5    1    5    5  502    0  0.17003646537E+02 -0.76406656436E+01 -0.23167291515E+02  0.30105101946E+02  0.47000000000E+01 0. -1.
         13    1    4    4    0    0  0.88327231223E+01 -0.28016730827E+02  0.12969813633E+02  0.32111840023E+02  0.00000000000E+00 0. -1.
        -14    1    4    4    0    0 -0.82141046486E+02 -0.89089232881E+01 -0.54394109862E+01  0.82801616070E+02  0.00000000000E+00 0.  1.
         -5    1    3    3    0  504  0.40183874934E+02  0.15152280426E+01  0.74302460108E+02  0.84616696336E+02  0.47000000000E+01 0.  1.
<mgrwt>
<rscale>  2 0.18075495E+03</rscale>
<asrwt>0</asrwt>
<pdfrwt beam="1">  1       21 0.54234213E-01 0.18197710E+03</pdfrwt>
<pdfrwt beam="2">  1       21 0.14750531E-01 0.18197710E+03</pdfrwt>
<totfact> 0.13042486E+05</totfact>
</mgrwt>
</event>
<event>
12    1  0.1410528E-001  0.2327576E+03  0.7546771E-02  0.1124737E+00
         21   -1    0    0  502  503  0.00000000000E+00  0.00000000000E+00  0.13897760541E+04  0.13897760541E+04  0.00000000000E+00 0. -1.
         21   -1    0    0  503  504 -0.00000000000E+00 -0.00000000000E+00 -0.38964623325E+02  0.38964623325E+02  0.00000000000E+00 0. -1.
         -6    2    1    2    0  504  0.81909532386E+02  0.13312034568E+03  0.66679411234E+03  0.70620638335E+03  0.17228717217E+03 0.  0.
        -24    2    3    3    0    0  0.91821848119E+02  0.16086537766E+03  0.60070342072E+03  0.63369355468E+03  0.80087452529E+02 0.  0.
          6    2    1    2  502    0 -0.81909532386E+02 -0.13312034568E+03  0.68401731842E+03  0.72253429407E+03  0.17247004457E+03 0.  0.
         24    2    5    5    0    0 -0.86704351837E+02 -0.47230920685E+02  0.25380188945E+03  0.28377765429E+03  0.79786925575E+02 0.  0.
          4    1    6    6  501    0 -0.24631111304E+02 -0.58252209761E+02  0.14147050714E+03  0.15496424096E+03  0.00000000000E+00 0. -1.
         -3    1    6    6    0  501 -0.62073240533E+02  0.11021289076E+02  0.11233138231E+03  0.12881341334E+03  0.00000000000E+00 0.  1.
          5    1    5    5  502    0  0.47948194514E+01 -0.85889424997E+02  0.43021542897E+03  0.43875663978E+03  0.47000000000E+01 0. -1.
         13    1    4    4    0    0  0.80726456749E+02  0.75911206167E+02  0.40843416513E+03  0.42319940842E+03  0.00000000000E+00 0. -1.
        -14    1    4    4    0    0  0.11095391371E+02  0.84954171492E+02  0.19226925559E+03  0.21049414626E+03  0.00000000000E+00 0.  1.
         -5    1    3    3    0  504 -0.99123157338E+01 -0.27745031976E+02  0.66090691625E+02  0.72512828672E+02  0.47000000000E+01 0.  1.
<mgrwt>
<rscale>  2 0.23272375E+03</rscale>
<asrwt>0</asrwt>
<pdfrwt beam="1">  1       21 0.21381166E+00 0.23275763E+03</pdfrwt>
<pdfrwt beam="2">  1       21 0.59945585E-02 0.23275763E+03</pdfrwt>
<totfact> 0.21062723E+04</totfact>
</mgrwt>
</event>
<event>
12    1  0.1410528E-001  0.1943144E+03  0.7546771E-02  0.1154641E+00
         21   -1    0    0  502  503  0.00000000000E+00  0.00000000000E+00  0.17198753895E+03  0.17198753895E+03  0.00000000000E+00 0.  1.
         21   -1    0    0  503  504 -0.00000000000E+00 -0.00000000000E+00 -0.30473899776E+03  0.30473899776E+03  0.00000000000E+00 0. -1.
         -6    2    1    2    0  504  0.87021456296E+02 -0.93522107831E+01 -0.19245933885E+03  0.27344563745E+03  0.17341200024E+03 0.  0.
        -24    2    3    3    0    0  0.64133435394E+02  0.51220888249E+02 -0.16604509936E+03  0.20335452621E+03  0.83936948832E+02 0.  0.
          6    2    1    2  502    0 -0.87021456296E+02  0.93522107831E+01  0.59707880040E+02  0.20328089925E+03  0.17348745015E+03 0.  0.
         24    2    5    5    0    0 -0.22226091406E+02  0.59626758181E+02 -0.41676275091E+01  0.99222550757E+02  0.76015761717E+02 0.  0.
          2    1    6    6  501    0 -0.35882215414E+00  0.73149176202E+02 -0.63169430568E+01  0.73422302484E+02  0.00000000000E+00 0. -1.
         -1    1    6    6    0  501 -0.21867269252E+02 -0.13522418021E+02  0.21493155477E+01  0.25800248274E+02  0.00000000000E+00 0.  1.
          5    1    5    5  502    0 -0.64795364890E+02 -0.50274547398E+02  0.63875507549E+02  0.10405834850E+03  0.47000000000E+01 0. -1.
         11    1    4    4    0    0 -0.11938802277E+02  0.28562886033E+02 -0.19195361866E+02  0.36425751544E+02  0.00000000000E+00 0. -1.
        -12    1    4    4    0    0  0.76072237671E+02  0.22658002215E+02 -0.14684973750E+03  0.16692877467E+03  0.00000000000E+00 0.  1.
         -5    1    3    3    0  504  0.22888020902E+02 -0.60573099032E+02 -0.26414239485E+02  0.70091111239E+02  0.47000000000E+01 0.  1.
<mgrwt>
<rscale>  2 0.19429758E+03</rscale>
<asrwt>0</asrwt>
<pdfrwt beam="1">  1       21 0.26459621E-01 0.19431442E+03</pdfrwt>
<pdfrwt beam="2">  1       21 0.46882923E-01 0.19431442E+03</pdfrwt>
<totfact> 0.59130185E+04</totfact>
</mgrwt>
</event>
<event>
12    1  0.1410528E-001  0.1956745E+03  0.7546771E-02  0.1155599E+00
         21   -1    0    0  502  503  0.00000000000E+00  0.00000000000E+00  0.21344887390E+03  0.21344887390E+03  0.00000000000E+00 0.  1.
         21   -1    0    0  503  504 -0.00000000000E+00 -0.00000000000E+00 -0.28979914885E+03  0.28979914885E+03  0.00000000000E+00 0.  1.
         -6    2    1    2    0  504 -0.67120275911E+02  0.20337468600E+02 -0.20007841568E+03  0.27985688759E+03  0.18267391998E+03 0.  0.
        -24    2    3    3    0    0 -0.92939614328E+02  0.26023354924E+02 -0.21521754433E+03  0.24903075004E+03  0.79892028158E+02 0.  0.
          6    2    1    2  502    0  0.67120275911E+02 -0.20337468600E+02  0.12372814073E+03  0.22339113517E+03  0.17226782170E+03 0.  0.
         24    2    5    5    0    0  0.85604577597E+01  0.35314391506E+02  0.22150040254E+02  0.93519728261E+02  0.83276212728E+02 0.  0.
          2    1    6    6  501    0 -0.54033524651E+01  0.29112860081E+02 -0.28207566158E+02  0.40895251907E+02  0.00000000000E+00 0. -1.
         -1    1    6    6    0  501  0.13963810225E+02  0.62015314252E+01  0.50357606412E+02  0.52624476354E+02  0.00000000000E+00 0.  1.
          5    1    5    5  502    0  0.58559818151E+02 -0.55651860106E+02  0.10157810047E+03  0.12987140690E+03  0.47000000000E+01 0. -1.
         11    1    4    4    0    0 -0.26099232382E+02 -0.28329440801E+02 -0.55449014975E+02  0.67515334619E+02  0.00000000000E+00 0. -1.
        -12    1    4    4    0    0 -0.66840381946E+02  0.54352795724E+02 -0.15976852936E+03  0.18151541542E+03  0.00000000000E+00 0.  1.
         -5    1    3    3    0  504  0.25819338417E+02 -0.56858863240E+01  0.15139128655E+02  0.30826137546E+02  0.47000000000E+01 0.  1.
<mgrwt>
<rscale>  2 0.19320895E+03</rscale>
<asrwt>0</asrwt>
<pdfrwt beam="1">  1       21 0.32838289E-01 0.19567449E+03</pdfrwt>
<pdfrwt beam="2">  1       21 0.44584484E-01 0.19567449E+03</pdfrwt>
<totfact> 0.43048558E+04</totfact>
</mgrwt>
</event>
<event>
12    1  0.1410528E-001  0.1887627E+03  0.7546771E-02  0.1159736E+00
         21   -1    0    0  502  503  0.00000000000E+00  0.00000000000E+00  0.13700291711E+03  0.13700291711E+03  0.00000000000E+00 0. -1.
         21   -1    0    0  503  504 -0.00000000000E+00 -0.00000000000E+00 -0.29482547178E+03  0.29482547178E+03  0.00000000000E+00 0. -1.
         -6    2    1    2    0  504  0.76706866653E+02 -0.63711425919E+01 -0.15389541806E+03  0.24302479641E+03  0.17161793939E+03 0.  0.
        -24    2    3    3    0    0  0.71583030729E+02  0.58996175192E+02 -0.98640855745E+02  0.15715107176E+03  0.79760654195E+02 0.  0.
          6    2    1    2  502    0 -0.76706866653E+02  0.63711425919E+01 -0.39271366104E+01  0.18880359248E+03  0.17235672102E+03 0.  0.
         24    2    5    5    0    0  0.18143933743E+01  0.53690596381E+02  0.50546256814E+01  0.96567585206E+02  0.80086060639E+02 0.  0.
          2    1    6    6  501    0 -0.31839880470E+02  0.33131666971E+02  0.25066959746E+02  0.52343460103E+02  0.00000000000E+00 0. -1.
         -1    1    6    6    0  501  0.33654273844E+02  0.20558929410E+02 -0.20012334064E+02  0.44224125103E+02  0.00000000000E+00 0.  1.
          5    1    5    5  502    0 -0.78521260027E+02 -0.47319453789E+02 -0.89817622918E+01  0.92236007269E+02  0.47000000000E+01 0. -1.
         11    1    4    4    0    0  0.25508469440E+02  0.30939585685E+02 -0.94961849676E+02  0.10308100150E+03  0.00000000000E+00 0. -1.
        -12    1    4    4    0    0  0.46074561289E+02  0.28056589508E+02 -0.36790060690E+01  0.54070070264E+02  0.00000000000E+00 0.  1.
         -5    1    3    3    0  504  0.51238359235E+01 -0.65367317784E+02 -0.55254562312E+02  0.85873724650E+02  0.47000000000E+01 0.  1.
<mgrwt>
<rscale>  2 0.18859394E+03</rscale>
<asrwt>0</asrwt>
<pdfrwt beam="1">  1       21 0.21077372E-01 0.18876275E+03</pdfrwt>
<pdfrwt beam="2">  1       21 0.45357765E-01 0.18876275E+03</pdfrwt>
<totfact> 0.97692559E+04</totfact>
</mgrwt>
</event>
<event>
12    1  0.1410528E-001  0.2187543E+03  0.7546771E-02  0.1135066E+00
         21   -1    0    0  502  503  0.00000000000E+00  0.00000000000E+00  0.11092261821E+03  0.11092261821E+03  0.00000000000E+00 0.  1.
         21   -1    0    0  503  504 -0.00000000000E+00 -0.00000000000E+00 -0.42946998659E+03  0.42946998659E+03  0.00000000000E+00 0.  1.
         -6    2    1    2    0  504 -0.13163989173E+03 -0.77406688709E+00 -0.16950141133E+03  0.27568876526E+03  0.17304307722E+03 0.  0.
        -24    2    3    3    0    0 -0.44676931559E+02 -0.78809512842E+01 -0.10589063541E+02  0.94337480381E+02  0.82032276156E+02 0.  0.
          6    2    1    2  502    0  0.13163989173E+03  0.77406688709E+00 -0.14904595705E+03  0.26470383954E+03  0.17471051794E+03 0.  0.
         24    2    5    5    0    0  0.61714657011E+02 -0.10882000145E+02 -0.23973538290E+01  0.10175199028E+03  0.80128667799E+02 0.  0.
          2    1    6    6  501    0  0.52118428592E+02  0.29276414751E+02  0.42592394824E+01  0.59929793764E+02  0.00000000000E+00 0. -1.
         -1    1    6    6    0  501  0.95962284180E+01 -0.40158414896E+02 -0.66565933114E+01  0.41822196515E+02  0.00000000000E+00 0.  1.
          5    1    5    5  502    0  0.69925234715E+02  0.11656067032E+02 -0.14664860323E+03  0.16295184926E+03  0.47000000000E+01 0. -1.
         11    1    4    4    0    0 -0.14060825500E+01  0.32413823195E+02  0.58499540573E+01  0.32967483446E+02  0.00000000000E+00 0. -1.
        -12    1    4    4    0    0 -0.43270849009E+02 -0.40294774479E+02 -0.16439017598E+02  0.61369996936E+02  0.00000000000E+00 0.  1.
         -5    1    3    3    0  504 -0.86962960167E+02  0.71068843971E+01 -0.15891234779E+03  0.18135128488E+03  0.47000000000E+01 0.  1.
<mgrwt>
<rscale>  2 0.21842115E+03</rscale>
<asrwt>0</asrwt>
<pdfrwt beam="1">  1       21 0.17065018E-01 0.21875426E+03</pdfrwt>
<pdfrwt beam="2">  1       21 0.66072304E-01 0.21875426E+03</pdfrwt>
<totfact> 0.64389364E+04</totfact>
</mgrwt>
</event>
<event>
12    1  0.1410528E-001  0.1771101E+03  0.7546771E-02  0.1170853E+00
         21   -1    0    0  502  503  0.00000000000E+00  0.00000000000E+00  0.26430725038E+03  0.26430725038E+03  0.00000000000E+00 0.  1.
         21   -1    0    0  503  504 -0.00000000000E+00 -0.00000000000E+00 -0.23107246026E+03  0.23107246026E+03  0.00000000000E+00 0.  1.
         -6    2    1    2    0  504 -0.34319445072E+02 -0.41179817954E+00 -0.15661004394E+03  0.23574719930E+03  0.17283530377E+03 0.  0.
        -24    2    3    3    0    0 -0.32933128231E+02  0.25009928017E+02 -0.18054293292E+03  0.20049015445E+03  0.76749358118E+02 0.  0.
          6    2    1    2  502    0  0.34319445072E+02  0.41179817954E+00  0.18984483406E+03  0.25963251134E+03  0.17375265764E+03 0.  0.
         24    2    5    5    0    0  0.38001013677E+01 -0.12314745740E+02  0.20636356669E+03  0.22237189153E+03  0.81836683424E+02 0.  0.
          2    1    6    6  501    0  0.25129377021E+02  0.16875397046E+02  0.16358903129E+03  0.16636596939E+03  0.00000000000E+00 0. -1.
         -1    1    6    6    0  501 -0.21329275654E+02 -0.29190142786E+02  0.42774535406E+02  0.56005922142E+02  0.00000000000E+00 0.  1.
          5    1    5    5  502    0  0.30519343704E+02  0.12726543919E+02 -0.16518732636E+02  0.37260619803E+02  0.47000000000E+01 0. -1.
         11    1    4    4    0    0 -0.26674295223E+01 -0.20466326005E+02 -0.13304197616E+02  0.24555800834E+02  0.00000000000E+00 0. -1.
        -12    1    4    4    0    0 -0.30265698708E+02  0.45476254021E+02 -0.16723873530E+03  0.17593435362E+03  0.00000000000E+00 0.  1.
         -5    1    3    3    0  504 -0.13863168410E+01 -0.25421726197E+02  0.23932888974E+02  0.35257044854E+02  0.47000000000E+01 0.  1.
<mgrwt>
<rscale>  2 0.17688468E+03</rscale>
<asrwt>0</asrwt>
<pdfrwt beam="1">  1       21 0.40662654E-01 0.17711008E+03</pdfrwt>
<pdfrwt beam="2">  1       21 0.35549609E-01 0.17711008E+03</pdfrwt>
<totfact> 0.44792377E+04</totfact>
</mgrwt>
</event>
<event>
12    1  0.1410528E-001  0.1896127E+03  0.7546771E-02  0.1158967E+00
         21   -1    0    0  502  503  0.00000000000E+00  0.00000000000E+00  0.15661864251E+04  0.15661864251E+04  0.00000000000E+00 0.  1.
         21   -1    0    0  503  504 -0.00000000000E+00 -0.00000000000E+00 -0.26628789234E+02  0.26628789234E+02  0.00000000000E+00 0.  1.
         -6    2    1    2    0  504  0.27381232995E+02 -0.68799780589E+02  0.46946700503E+03  0.50605537393E+03  0.17380917971E+03 0.  0.
        -24    2    3    3    0    0 -0.15919686874E+02 -0.50932830600E+02  0.43957223700E+03  0.45028813697E+03  0.81780591156E+02 0.  0.
          6    2    1    2  502    0 -0.27381232995E+02  0.68799780589E+02  0.10700906308E+04  0.10867598404E+04  0.17455615361E+03 0.  0.
         24    2    5    5    0    0  0.40629878557E+02  0.75036847038E+02  0.56274547609E+03  0.57481686668E+03  0.80315900759E+02 0.  0.
          2    1    6    6  501    0  0.11043702447E+02 -0.16351522017E+02  0.13381607437E+03  0.13526299344E+03  0.00000000000E+00 0. -1.
         -1    1    6    6    0  501  0.29586176111E+02  0.91388369055E+02  0.42892940172E+03  0.43955387324E+03  0.00000000000E+00 0.  1.
          5    1    5    5  502    0 -0.68011111552E+02 -0.62370664491E+01  0.50734515476E+03  0.51194297373E+03  0.47000000000E+01 0. -1.
         13    1    4    4    0    0  0.21787807777E+02  0.11557482711E+02  0.11217738916E+03  0.11485665245E+03  0.00000000000E+00 0. -1.
        -14    1    4    4    0    0 -0.37707494651E+02 -0.62490313311E+02  0.32739484785E+03  0.33543148452E+03  0.00000000000E+00 0.  1.
         -5    1    3    3    0  504  0.43300919869E+02 -0.17866949989E+02  0.29894768024E+02  0.55767236964E+02  0.47000000000E+01 0.  1.
<mgrwt>
<rscale>  2 0.18944065E+03</rscale>
<asrwt>0</asrwt>
<pdfrwt beam="1">  1       21 0.24095169E+00 0.18961274E+03</pdfrwt>
<pdfrwt beam="2">  1       21 0.40967380E-02 0.18961274E+03</pdfrwt>
<totfact> 0.28380536E+04</totfact>
</mgrwt>
</event>
<event>
12    1  0.1410528E-001  0.2397416E+03  0.7546771E-02  0.1120151E+00
         21   -1    0    0  502  503  0.00000000000E+00  0.00000000000E+00  0.18793127606E+03  0.18793127606E+03  0.00000000000E+00 0.  1.
         21   -1    0    0  503  504 -0.00000000000E+00 -0.00000000000E+00 -0.34860658766E+03  0.34860658766E+03  0.00000000000E+00 0.  1.
         -6    2    1    2    0  504 -0.14001197985E+03 -0.88274853583E+02 -0.17600917703E+03  0.29741426705E+03  0.17343647704E+03 0.  0.
        -24    2    3    3    0    0 -0.60590231304E+02 -0.24143697870E+02 -0.11511286819E+02  0.10375925121E+03  0.79871009831E+02 0.  0.
          6    2    1    2  502    0  0.14001197985E+03  0.88274853583E+02  0.15333865423E+02  0.23912359667E+03  0.17189869917E+03 0.  0.
         24    2    5    5    0    0  0.12734503469E+03  0.68654977086E+02 -0.50661121853E+02  0.16896079029E+03  0.71069934908E+02 0.  0.
          4    1    6    6  501    0  0.99730840386E+01  0.38017484479E+02 -0.63348647291E+01  0.39811079394E+02  0.00000000000E+00 0. -1.
         -3    1    6    6    0  501  0.11737195065E+03  0.30637492606E+02 -0.44326257123E+02  0.12914971089E+03  0.00000000000E+00 0.  1.
          5    1    5    5  502    0  0.12666945162E+02  0.19619876498E+02  0.65994987276E+02  0.70162806380E+02  0.47000000000E+01 0. -1.
         13    1    4    4    0    0  0.17843781302E+02  0.57374105697E+01  0.15855413497E+01  0.18810432014E+02  0.00000000000E+00 0. -1.
        -14    1    4    4    0    0 -0.78434012605E+02 -0.29881108440E+02 -0.13096828168E+02  0.84948819197E+02  0.00000000000E+00 0.  1.
         -5    1    3    3    0  504 -0.79421748550E+02 -0.64131155713E+02 -0.16449789021E+03  0.19365501584E+03  0.47000000000E+01 0.  1.
<mgrwt>
<rscale>  2 0.23946355E+03</rscale>
<asrwt>0</asrwt>
<pdfrwt beam="1">  1       21 0.28912504E-01 0.23974156E+03</pdfrwt>
<pdfrwt beam="2">  1       21 0.53631782E-01 0.23974156E+03</pdfrwt>
<totfact> 0.36806066E+04</totfact>
</mgrwt>
</event>
<event>
12    1  0.1410528E-001  0.2323535E+03  0.7546771E-02  0.1125007E+00
         21   -1    0    0  502  503  0.00000000000E+00  0.00000000000E+00  0.11723991115E+04  0.11723991115E+04  0.00000000000E+00 0.  1.
         21   -1    0    0  503  504 -0.00000000000E+00 -0.00000000000E+00 -0.47767407238E+02  0.47767407238E+02  0.00000000000E+00 0. -1.
         -6    2    1    2    0  504 -0.10318764897E+03  0.11557032299E+03  0.67860568539E+03  0.71728225753E+03  0.17315880072E+03 0.  0.
        -24    2    3    3    0    0 -0.29496816534E+02 -0.71925008002E+01  0.26915700098E+03  0.28349502298E+03  0.83678806315E+02 0.  0.
          6    2    1    2  502    0  0.10318764897E+03 -0.11557032299E+03  0.44602601883E+03  0.50288426117E+03  0.17305831446E+03 0.  0.
         24    2    5    5    0    0  0.28892887242E+02 -0.32820605360E+02  0.77481456763E+02  0.11789801256E+03  0.77360029437E+02 0.  0.
          2    1    6    6  501    0  0.98322804569E+01 -0.54013854351E+02  0.30120374362E+02  0.62621139821E+02  0.00000000000E+00 0. -1.
         -1    1    6    6    0  501  0.19060606785E+02  0.21193248991E+02  0.47361082401E+02  0.55276872741E+02  0.00000000000E+00 0.  1.
          5    1    5    5  502    0  0.74294761725E+02 -0.82749717625E+02  0.36854456207E+03  0.38498624861E+03  0.47000000000E+01 0. -1.
         11    1    4    4    0    0  0.22942231245E+02  0.19294146287E+02  0.80383443081E+02  0.85791071662E+02  0.00000000000E+00 0. -1.
        -12    1    4    4    0    0 -0.52439047779E+02 -0.26486647088E+02  0.18877355790E+03  0.19770395132E+03  0.00000000000E+00 0.  1.
         -5    1    3    3    0  504 -0.73690832433E+02  0.12276282379E+03  0.40944868441E+03  0.43378723454E+03  0.47000000000E+01 0.  1.
<mgrwt>
<rscale>  2 0.23233480E+03</rscale>
<asrwt>0</asrwt>
<pdfrwt beam="1">  1       21 0.18036907E+00 0.23235353E+03</pdfrwt>
<pdfrwt beam="2">  1       21 0.73488328E-02 0.23235353E+03</pdfrwt>
<totfact> 0.24506670E+04</totfact>
</mgrwt>
</event>
<event>
12    1  0.1410528E-001  0.2107587E+03  0.7546771E-02  0.1141536E+00
         21   -1    0    0  502  503  0.00000000000E+00  0.00000000000E+00  0.41155712694E+03  0.41155712694E+03  0.00000000000E+00 0.  1.
         21   -1    0    0  503  504 -0.00000000000E+00 -0.00000000000E+00 -0.11043176273E+03  0.11043176273E+03  0.00000000000E+00 0.  1.
         -6    2    1    2    0  504  0.74437266806E+02  0.88732025752E+02  0.20101047903E+03  0.29124638022E+03  0.17608225983E+03 0.  0.
        -24    2    3    3    0    0  0.59890986021E+02 -0.17713339216E+02  0.90516400001E+02  0.13706064317E+03  0.81802864528E+02 0.  0.
          6    2    1    2  502    0 -0.74437266806E+02 -0.88732025752E+02  0.10011488518E+03  0.23074250946E+03  0.17264077257E+03 0.  0.
         24    2    5    5    0    0  0.23110994520E+02 -0.52635910060E+02  0.66525661813E+02  0.12133995564E+03  0.83624542210E+02 0.  0.
          2    1    6    6  501    0  0.50944997215E+01 -0.10070839340E+02 -0.20158526644E+02  0.23102855426E+02  0.00000000000E+00 0. -1.
         -1    1    6    6    0  501  0.18016494799E+02 -0.42565070721E+02  0.86684188456E+02  0.98237100215E+02  0.00000000000E+00 0.  1.
          5    1    5    5  502    0 -0.97548261326E+02 -0.36096115691E+02  0.33589223367E+02  0.10940255382E+03  0.47000000000E+01 0. -1.
         13    1    4    4    0    0  0.66586195022E+02  0.92214549329E+01  0.36892546000E+02  0.76679961848E+02  0.00000000000E+00 0. -1.
        -14    1    4    4    0    0 -0.66952090005E+01 -0.26934794149E+02  0.53623854001E+02  0.60380681325E+02  0.00000000000E+00 0.  1.
         -5    1    3    3    0  504  0.14546280784E+02  0.10644536497E+03  0.11049407903E+03  0.15418573704E+03  0.47000000000E+01 0.  1.
<mgrwt>
<rscale>  2 0.21003838E+03</rscale>
<asrwt>0</asrwt>
<pdfrwt beam="1">  1       21 0.63316480E-01 0.21075873E+03</pdfrwt>
<pdfrwt beam="2">  1       21 0.16989502E-01 0.21075873E+03</pdfrwt>
<totfact> 0.71484236E+04</totfact>
</mgrwt>
</event>
<event>
12    1  0.1410528E-001  0.2180020E+03  0.7546771E-02  0.1135635E+00
         21   -1    0    0  502  503  0.00000000000E+00  0.00000000000E+00  0.18919428413E+04  0.18919428413E+04  0.00000000000E+00 0. -1.
         21   -1    0    0  503  504 -0.00000000000E+00 -0.00000000000E+00 -0.25080071176E+02  0.25080071176E+02  0.00000000000E+00 0. -1.
         -6    2    1    2    0  504 -0.77948451841E+01  0.13053149865E+03  0.10010708908E+04  0.10245329692E+04  0.17442948405E+03 0.  0.
        -24    2    3    3    0    0  0.56477891737E+02  0.98089148881E+02  0.77483398775E+03  0.78706988354E+03  0.79372914890E+02 0.  0.
          6    2    1    2  502    0  0.77948451841E+01 -0.13053149865E+03  0.86579187933E+03  0.89248994324E+03  0.17275268079E+03 0.  0.
         24    2    5    5    0    0 -0.54042655166E+00 -0.44426519567E+02  0.19593284589E+03  0.21705174558E+03  0.82144826124E+02 0.  0.
          2    1    6    6  501    0 -0.10598282161E+02 -0.25807400524E+02  0.95749924963E+01  0.29496202940E+02  0.00000000000E+00 0. -1.
         -1    1    6    6    0  501  0.10057855609E+02 -0.18619119043E+02  0.18635785340E+03  0.18755554264E+03  0.00000000000E+00 0.  1.
          5    1    5    5  502    0  0.83352717357E+01 -0.86104979081E+02  0.66985903344E+03  0.67543819766E+03  0.47000000000E+01 0. -1.
         13    1    4    4    0    0  0.14583412781E+01  0.49872478841E+02  0.50618621327E+03  0.50863923699E+03  0.00000000000E+00 0. -1.
        -14    1    4    4    0    0  0.55019550459E+02  0.48216670040E+02  0.26864777448E+03  0.27843064655E+03  0.00000000000E+00 0.  1.
         -5    1    3    3    0  504 -0.64272736921E+02  0.32442349767E+02  0.22623690305E+03  0.23746308571E+03  0.47000000000E+01 0.  1.
<mgrwt>
<rscale>  2 0.21766641E+03</rscale>
<asrwt>0</asrwt>
<pdfrwt beam="1">  1       21 0.29106802E+00 0.21800201E+03</pdfrwt>
<pdfrwt beam="2">  1       21 0.38584740E-02 0.21800201E+03</pdfrwt>
<totfact> 0.15609699E+04</totfact>
</mgrwt>
</event>
<event>
12    1  0.1410528E-001  0.2210878E+03  0.7546771E-02  0.1133178E+00
         21   -1    0    0  502  503  0.00000000000E+00  0.00000000000E+00  0.18711759109E+03  0.18711759109E+03  0.00000000000E+00 0. -1.
         21   -1    0    0  503  504 -0.00000000000E+00 -0.00000000000E+00 -0.29864439397E+03  0.29864439397E+03  0.00000000000E+00 0.  1.
         -6    2    1    2    0  504  0.86833937609E+02  0.10615061155E+03 -0.14254897716E+03  0.26305899549E+03  0.17341205023E+03 0.  0.
        -24    2    3    3    0    0  0.11406215517E+03  0.10553484550E+03 -0.15418099801E+03  0.23307318370E+03  0.80022184150E+02 0.  0.
          6    2    1    2  502    0 -0.86833937609E+02 -0.10615061155E+03  0.31022174280E+02  0.22270298957E+03  0.17270252232E+03 0.  0.
         24    2    5    5    0    0 -0.43490360716E+02  0.12640530815E+02  0.33701324329E+02  0.96135738644E+02  0.77814564759E+02 0.  0.
          2    1    6    6  501    0 -0.24944826437E+02  0.19573882899E+02  0.57204573860E+02  0.65404468718E+02  0.00000000000E+00 0. -1.
         -1    1    6    6    0  501 -0.18545534279E+02 -0.69333520836E+01 -0.23503249531E+02  0.30731269927E+02  0.00000000000E+00 0.  1.
          5    1    5    5  502    0 -0.43343576893E+02 -0.11879114237E+03 -0.26791500490E+01  0.12656725093E+03  0.47000000000E+01 0. -1.
         13    1    4    4    0    0  0.33133638539E+01  0.29723547145E+02 -0.17230114609E+01  0.29957242921E+02  0.00000000000E+00 0. -1.
        -14    1    4    4    0    0  0.11074879132E+03  0.75811298354E+02 -0.15245798655E+03  0.20311594078E+03  0.00000000000E+00 0.  1.
         -5    1    3    3    0  504 -0.27228217561E+02  0.61576605233E+00  0.11632020854E+02  0.29985811787E+02  0.47000000000E+01 0.  1.
<mgrwt>
<rscale>  2 0.22094867E+03</rscale>
<asrwt>0</asrwt>
<pdfrwt beam="1">  1       21 0.28787322E-01 0.22108782E+03</pdfrwt>
<pdfrwt beam="2">  1       21 0.45945291E-01 0.22108782E+03</pdfrwt>
<totfact> 0.51730252E+04</totfact>
</mgrwt>
</event>
<event>
12    1  0.1410528E-001  0.1749441E+03  0.7546771E-02  0.1172965E+00
         21   -1    0    0  502  503  0.00000000000E+00  0.00000000000E+00  0.69018917790E+03  0.69018917790E+03  0.00000000000E+00 0. -1.
         21   -1    0    0  503  504 -0.00000000000E+00 -0.00000000000E+00 -0.75811023892E+02  0.75811023892E+02  0.00000000000E+00 0. -1.
         -6    2    1    2    0  504  0.37961847306E+01  0.25368819067E+02  0.59377900217E+02  0.18408034627E+03  0.17234224917E+03 0.  0.
        -24    2    3    3    0    0  0.49946531004E+02  0.22486036052E+02 -0.12260969967E+02  0.98684897797E+02  0.81167110901E+02 0.  0.
          6    2    1    2  502    0 -0.37961847306E+01 -0.25368819067E+02  0.55500025380E+03  0.58191985552E+03  0.17305331127E+03 0.  0.
         24    2    5    5    0    0 -0.53629857190E+01  0.51090036580E+02  0.26327457373E+03  0.28030027081E+03  0.81337489457E+02 0.  0.
          4    1    6    6  501    0 -0.14735377838E+01  0.27137333343E+02  0.15393121428E+02  0.31233865625E+02  0.00000000000E+00 0. -1.
         -3    1    6    6    0  501 -0.38894479352E+01  0.23952703237E+02  0.24788145230E+03  0.24906640519E+03  0.00000000000E+00 0.  1.
          5    1    5    5  502    0  0.15668009883E+01 -0.76458855646E+02  0.29172568006E+03  0.30161958471E+03  0.47000000000E+01 0. -1.
         11    1    4    4    0    0  0.28716800671E+02  0.51516565478E+02  0.42058119185E+01  0.59129518967E+02  0.00000000000E+00 0. -1.
        -12    1    4    4    0    0  0.21229730333E+02 -0.29030529425E+02 -0.16466781886E+02  0.39555378830E+02  0.00000000000E+00 0.  1.
         -5    1    3    3    0  504 -0.46150346274E+02  0.28827830142E+01  0.71638870184E+02  0.85395448475E+02  0.47000000000E+01 0.  1.
<mgrwt>
<rscale>  2 0.17476799E+03</rscale>
<asrwt>0</asrwt>
<pdfrwt beam="1">  1       21 0.10618295E+00 0.17494410E+03</pdfrwt>
<pdfrwt beam="2">  1       21 0.11663235E-01 0.17494410E+03</pdfrwt>
<totfact> 0.44324248E+04</totfact>
</mgrwt>
</event>
<event>
12    1  0.1410528E-001  0.1927900E+03  0.7546771E-02  0.1158223E+00
         21   -1    0    0  502  503  0.00000000000E+00  0.00000000000E+00  0.18779307008E+03  0.18779307008E+03  0.00000000000E+00 0.  1.
         21   -1    0    0  503  504 -0.00000000000E+00 -0.00000000000E+00 -0.24675966134E+03  0.24675966134E+03  0.00000000000E+00 0.  1.
         -6    2    1    2    0  504 -0.57116845730E+02  0.44327363884E+01 -0.13618213317E+03  0.23603715854E+03  0.18408145914E+03 0.  0.
        -24    2    3    3    0    0  0.31669444198E+02  0.13789819003E+02 -0.18385001864E+02  0.88156076525E+02  0.78996029842E+02 0.  0.
          6    2    1    2  502    0  0.57116845730E+02 -0.44327363884E+01  0.77215541906E+02  0.19851557288E+03  0.17367846598E+03 0.  0.
         24    2    5    5    0    0  0.82866139689E+02 -0.40420492814E+02  0.90505811249E+02  0.15207350131E+03  0.80214927445E+02 0.  0.
          2    1    6    6  501    0  0.86477809573E+02 -0.57627265412E+01  0.57005761835E+02  0.10373657719E+03  0.00000000000E+00 0. -1.
         -1    1    6    6    0  501 -0.36116698834E+01 -0.34657766273E+02  0.33500049414E+02  0.48336924117E+02  0.00000000000E+00 0.  1.
          5    1    5    5  502    0 -0.25749293959E+02  0.35987756426E+02 -0.13290269343E+02  0.46442071564E+02  0.47000000000E+01 0. -1.
         11    1    4    4    0    0 -0.12850611433E+01  0.41401599826E+02 -0.62809517004E-01  0.41421586104E+02  0.00000000000E+00 0. -1.
        -12    1    4    4    0    0  0.32954505341E+02 -0.27611780824E+02 -0.18322192347E+02  0.46734490421E+02  0.00000000000E+00 0.  1.
         -5    1    3    3    0  504 -0.88786289928E+02 -0.93570826145E+01 -0.11779713130E+03  0.14788108201E+03  0.47000000000E+01 0.  1.
<mgrwt>
<rscale>  2 0.19026401E+03</rscale>
<asrwt>0</asrwt>
<pdfrwt beam="1">  1       21 0.28891241E-01 0.19278996E+03</pdfrwt>
<pdfrwt beam="2">  1       21 0.37963025E-01 0.19278996E+03</pdfrwt>
<totfact> 0.76726982E+04</totfact>
</mgrwt>
</event>
<event>
12    1  0.1410528E-001  0.2217644E+03  0.7546771E-02  0.1132784E+00
         21   -1    0    0  502  503  0.00000000000E+00  0.00000000000E+00  0.94262524355E+03  0.94262524355E+03  0.00000000000E+00 0. -1.
         21   -1    0    0  503  504 -0.00000000000E+00 -0.00000000000E+00 -0.95364320401E+02  0.95364320401E+02  0.00000000000E+00 0. -1.
         -6    2    1    2    0  504 -0.11663389747E+03 -0.72800569680E+02  0.72688616224E+02  0.23229625345E+03  0.17255296421E+03 0.  0.
        -24    2    3    3    0    0 -0.19580713133E+02 -0.83264016266E+02  0.33635074951E+02  0.12705332785E+03  0.87720745091E+02 0.  0.
          6    2    1    2  502    0  0.11663389747E+03  0.72800569680E+02  0.77457230692E+03  0.80569331049E+03  0.17400018086E+03 0.  0.
         24    2    5    5    0    0  0.13243127086E+03  0.30488768979E+02  0.42984056214E+03  0.45798378899E+03  0.80738067737E+02 0.  0.
          2    1    6    6  501    0  0.14365266986E+03  0.26923385299E+02  0.39234992462E+03  0.41868773756E+03  0.00000000000E+00 0. -1.
         -1    1    6    6    0  501 -0.11221399002E+02  0.35653836801E+01  0.37490637520E+02  0.39296051430E+02  0.00000000000E+00 0.  1.
          5    1    5    5  502    0 -0.15797373389E+02  0.42311800701E+02  0.34473174478E+03  0.34770952150E+03  0.47000000000E+01 0. -1.
         13    1    4    4    0    0 -0.54545064125E+02 -0.55469197414E+02  0.23271360465E+02  0.81200690268E+02  0.00000000000E+00 0. -1.
        -14    1    4    4    0    0  0.34964350992E+02 -0.27794818852E+02  0.10363714487E+02  0.45852637582E+02  0.00000000000E+00 0.  1.
         -5    1    3    3    0  504 -0.97053184334E+02  0.10463446585E+02  0.39053541272E+02  0.10524292560E+03  0.47000000000E+01 0.  1.
<mgrwt>
<rscale>  2 0.22148044E+03</rscale>
<asrwt>0</asrwt>
<pdfrwt beam="1">  1       21 0.14501926E+00 0.22176441E+03</pdfrwt>
<pdfrwt beam="2">  1       21 0.14671435E-01 0.22176441E+03</pdfrwt>
<totfact> 0.13070926E+04</totfact>
</mgrwt>
</event>
<event>
12    1  0.1410528E-001  0.2067451E+03  0.7546771E-02  0.1144499E+00
         21   -1    0    0  502  503  0.00000000000E+00  0.00000000000E+00  0.31940038010E+02  0.31940038010E+02  0.00000000000E+00 0.  1.
         21   -1    0    0  503  504 -0.00000000000E+00 -0.00000000000E+00 -0.13739877119E+04  0.13739877119E+04  0.00000000000E+00 0.  1.
         -6    2    1    2    0  504  0.80540897668E+02 -0.71551266920E+02 -0.54462711989E+03  0.58254803895E+03  0.17645707117E+03 0.  0.
        -24    2    3    3    0    0 -0.90458924291E+01 -0.57710652076E+02 -0.39758221425E+03  0.40974280218E+03  0.80032489143E+02 0.  0.
          6    2    1    2  502    0 -0.80540897668E+02  0.71551266920E+02 -0.79742055403E+03  0.82337971099E+03  0.17455139211E+03 0.  0.
         24    2    5    5    0    0  0.65797501408E+01  0.37272932877E+02 -0.21098295076E+03  0.22949742974E+03  0.81992073441E+02 0.  0.
          2    1    6    6  501    0  0.16990413340E+02 -0.11236012206E+02 -0.14763391835E+03  0.14903253324E+03  0.00000000000E+00 0. -1.
         -1    1    6    6    0  501 -0.10410663199E+02  0.48508945083E+02 -0.63349032408E+02  0.80464896497E+02  0.00000000000E+00 0.  1.
          5    1    5    5  502    0 -0.87120647809E+02  0.34278334043E+02 -0.58643760327E+03  0.59388228125E+03  0.47000000000E+01 0. -1.
         11    1    4    4    0    0 -0.66850696753E+01 -0.26655512007E+02 -0.29393147846E+02  0.40238832205E+02  0.00000000000E+00 0. -1.
        -12    1    4    4    0    0 -0.23608227538E+01 -0.31055140069E+02 -0.36818906640E+03  0.36950396998E+03  0.00000000000E+00 0.  1.
         -5    1    3    3    0  504  0.89586790097E+02 -0.13840614844E+02 -0.14704490564E+03  0.17280523676E+03  0.47000000000E+01 0.  1.
<mgrwt>
<rscale>  2 0.20633783E+03</rscale>
<asrwt>0</asrwt>
<pdfrwt beam="1">  1       21 0.49138529E-02 0.20674506E+03</pdfrwt>
<pdfrwt beam="2">  1       21 0.21138269E+00 0.20674506E+03</pdfrwt>
<totfact> 0.31192444E+04</totfact>
</mgrwt>
</event>
<event>
12    1  0.1410528E-001  0.1812255E+03  0.7546771E-02  0.1167240E+00
         21   -1    0    0  502  503  0.00000000000E+00  0.00000000000E+00  0.32998222804E+03  0.32998222804E+03  0.00000000000E+00 0. -1.
         21   -1    0    0  503  504 -0.00000000000E+00 -0.00000000000E+00 -0.10975114073E+03  0.10975114073E+03  0.00000000000E+00 0. -1.
         -6    2    1    2    0  504 -0.35655245629E+02 -0.41637082307E+02  0.37872219705E+02  0.18263917094E+03  0.17005239949E+03 0.  0.
        -24    2    3    3    0    0  0.43791470547E+01 -0.80147486865E+02 -0.18056076942E+01  0.11421239370E+03  0.81230622772E+02 0.  0.
          6    2    1    2  502    0  0.35655245629E+02  0.41637082307E+02  0.18235886761E+03  0.25709419783E+03  0.17273600319E+03 0.  0.
         24    2    5    5    0    0  0.53858010709E+01  0.77751988804E+02  0.63423348604E+02  0.12907750585E+03  0.81019150522E+02 0.  0.
          4    1    6    6  501    0  0.68356449721E+01  0.73072752576E+02  0.81894115843E+02  0.10996817458E+03  0.00000000000E+00 0. -1.
         -3    1    6    6    0  501 -0.14498439012E+01  0.46792362278E+01 -0.18470767239E+02  0.19109331265E+02  0.00000000000E+00 0.  1.
          5    1    5    5  502    0  0.30269444559E+02 -0.36114906498E+02  0.11893551900E+03  0.12801669198E+03  0.47000000000E+01 0. -1.
         11    1    4    4    0    0  0.39097551189E+02 -0.38667437131E+02 -0.17811702228E+02  0.57801781456E+02  0.00000000000E+00 0. -1.
        -12    1    4    4    0    0 -0.34718404134E+02 -0.41480049735E+02  0.16006094533E+02  0.56410612245E+02  0.00000000000E+00 0.  1.
         -5    1    3    3    0  504 -0.40034392684E+02  0.38510404558E+02  0.39677827399E+02  0.68426777244E+02  0.47000000000E+01 0.  1.
<mgrwt>
<rscale>  2 0.18058305E+03</rscale>
<asrwt>0</asrwt>
<pdfrwt beam="1">  1       21 0.50766496E-01 0.18122547E+03</pdfrwt>
<pdfrwt beam="2">  1       21 0.16884791E-01 0.18122547E+03</pdfrwt>
<totfact> 0.11708487E+05</totfact>
</mgrwt>
</event>
<event>
12    1  0.1410528E-001  0.1959118E+03  0.7546771E-02  0.1153475E+00
         21   -1    0    0  502  503  0.00000000000E+00  0.00000000000E+00  0.15405353462E+03  0.15405353462E+03  0.00000000000E+00 0. -1.
         21   -1    0    0  503  504 -0.00000000000E+00 -0.00000000000E+00 -0.26713689082E+03  0.26713689082E+03  0.00000000000E+00 0.  1.
         -6    2    1    2    0  504 -0.57707462826E+02 -0.72180056448E+02 -0.11343404380E+03  0.22638183143E+03  0.17274646015E+03 0.  0.
        -24    2    3    3    0    0 -0.45054343086E+02 -0.47711272231E+02  0.97105945329E+00  0.10861324271E+03  0.86542672749E+02 0.  0.
          6    2    1    2  502    0  0.57707462826E+02  0.72180056448E+02  0.35068759206E+00  0.19480859401E+03  0.17149388766E+03 0.  0.
         24    2    5    5    0    0  0.20800803706E+02 -0.19472626721E+02  0.34018623759E+02  0.90319667586E+02  0.78667140307E+02 0.  0.
          2    1    6    6  501    0  0.20340316103E+02 -0.48096842635E+02  0.10491420996E+02  0.53264478268E+02  0.00000000000E+00 0. -1.
         -1    1    6    6    0  501  0.46048760249E+00  0.28624215914E+02  0.23527202764E+02  0.37055189318E+02  0.00000000000E+00 0.  1.
          5    1    5    5  502    0  0.36906659121E+02  0.91652683169E+02 -0.33667936167E+02  0.10448892642E+03  0.47000000000E+01 0. -1.
         13    1    4    4    0    0 -0.30433186889E+02 -0.71363744626E+02 -0.10964830705E+02  0.78352986055E+02  0.00000000000E+00 0. -1.
        -14    1    4    4    0    0 -0.14621156196E+02  0.23652472395E+02  0.11935890158E+02  0.30260256654E+02  0.00000000000E+00 0.  1.
         -5    1    3    3    0  504 -0.12653119741E+02 -0.24468784217E+02 -0.11440510325E+03  0.11776858872E+03  0.47000000000E+01 0.  1.
<mgrwt>
<rscale>  2 0.19563537E+03</rscale>
<asrwt>0</asrwt>
<pdfrwt beam="1">  1       21 0.23700544E-01 0.19591185E+03</pdfrwt>
<pdfrwt beam="2">  1       21 0.41097983E-01 0.19591185E+03</pdfrwt>
<totfact> 0.95485302E+04</totfact>
</mgrwt>
</event>
<event>
12    1  0.1410528E-001  0.1830889E+03  0.7546771E-02  0.1165097E+00
         21   -1    0    0  502  503  0.00000000000E+00  0.00000000000E+00  0.60647347882E+03  0.60647347882E+03  0.00000000000E+00 0. -1.
         21   -1    0    0  503  504 -0.00000000000E+00 -0.00000000000E+00 -0.79770555203E+02  0.79770555203E+02  0.00000000000E+00 0. -1.
         -6    2    1    2    0  504  0.32985559165E+02 -0.49232825765E+02  0.72498534037E+02  0.19692020040E+03  0.17323281919E+03 0.  0.
        -24    2    3    3    0    0 -0.79736418598E+01  0.21857166994E+02 -0.32626423588E+01  0.85146817758E+02  0.81841438316E+02 0.  0.
          6    2    1    2  502    0 -0.32985559165E+02  0.49232825765E+02  0.45420438958E+03  0.48932383362E+03  0.17211701946E+03 0.  0.
         24    2    5    5    0    0  0.35669325195E+02  0.32661797017E+02  0.35680100522E+03  0.36891784778E+03  0.80338828370E+02 0.  0.
          4    1    6    6  501    0 -0.14876615213E+02  0.29349935926E+02  0.66107300500E+02  0.73843805416E+02  0.00000000000E+00 0. -1.
         -3    1    6    6    0  501  0.50545940408E+02  0.33118610911E+01  0.29069370472E+03  0.29507404236E+03  0.00000000000E+00 0.  1.
          5    1    5    5  502    0 -0.68654884361E+02  0.16571028748E+02  0.97403384368E+02  0.12040598584E+03  0.47000000000E+01 0. -1.
         11    1    4    4    0    0 -0.22644026897E+02 -0.16294953383E+02 -0.26203240231E+02  0.38273845619E+02  0.00000000000E+00 0. -1.
        -12    1    4    4    0    0  0.14670385037E+02  0.38152120377E+02  0.22940597872E+02  0.46872972139E+02  0.00000000000E+00 0.  1.
         -5    1    3    3    0  504  0.40959201025E+02 -0.71089992759E+02  0.75761176396E+02  0.11177338265E+03  0.47000000000E+01 0.  1.
<mgrwt>
<rscale>  2 0.18282444E+03</rscale>
<asrwt>0</asrwt>
<pdfrwt beam="1">  1       21 0.93303609E-01 0.18308885E+03</pdfrwt>
<pdfrwt beam="2">  1       21 0.12272394E-01 0.18308885E+03</pdfrwt>
<totfact> 0.54714431E+04</totfact>
</mgrwt>
</event>
<event>
12    1  0.1410528E-001  0.1893939E+03  0.7546771E-02  0.1159116E+00
         21   -1    0    0  502  503  0.00000000000E+00  0.00000000000E+00  0.78440974634E+02  0.78440974634E+02  0.00000000000E+00 0.  1.
         21   -1    0    0  503  504 -0.00000000000E+00 -0.00000000000E+00 -0.45634228642E+03  0.45634228642E+03  0.00000000000E+00 0.  1.
         -6    2    1    2    0  504 -0.52453092614E+02  0.45253286298E+02 -0.18364651037E+03  0.26381072073E+03  0.17626930747E+03 0.  0.
        -24    2    3    3    0    0 -0.27876535744E+02 -0.22527648913E+02 -0.16724111878E+03  0.18971963356E+03  0.82093552340E+02 0.  0.
          6    2    1    2  502    0  0.52453092614E+02 -0.45253286298E+02 -0.19425480141E+03  0.27097254032E+03  0.17576120986E+03 0.  0.
         24    2    5    5    0    0  0.83275006938E+01 -0.94256523265E+02 -0.12473531107E+03  0.17503800727E+03  0.78267277409E+02 0.  0.
          4    1    6    6  501    0 -0.34037663924E+02 -0.40020443089E+02 -0.67437391393E+02  0.85486842194E+02  0.00000000000E+00 0. -1.
         -3    1    6    6    0  501  0.42365164618E+02 -0.54236080176E+02 -0.57297919681E+02  0.89551165072E+02  0.00000000000E+00 0.  1.
          5    1    5    5  502    0  0.44125591920E+02  0.49003236967E+02 -0.69519490336E+02  0.95934533053E+02  0.47000000000E+01 0. -1.
         13    1    4    4    0    0  0.26003765350E+02  0.25234258365E+01 -0.80061370392E+02  0.84216307918E+02  0.00000000000E+00 0. -1.
        -14    1    4    4    0    0 -0.53880301093E+02 -0.25051074749E+02 -0.87179748389E+02  0.10550332564E+03  0.00000000000E+00 0.  1.
         -5    1    3    3    0  504 -0.24576556870E+02  0.67780935210E+02 -0.16405391594E+02  0.74091087176E+02  0.47000000000E+01 0.  1.
<mgrwt>
<rscale>  2 0.18927561E+03</rscale>
<asrwt>0</asrwt>
<pdfrwt beam="1">  1       21 0.12067842E-01 0.18939392E+03</pdfrwt>
<pdfrwt beam="2">  1       21 0.70206505E-01 0.18939392E+03</pdfrwt>
<totfact> 0.10707791E+05</totfact>
</mgrwt>
</event>
<event>
12    1  0.1410528E-001  0.2471086E+03  0.7546771E-02  0.1115197E+00
         21   -1    0    0  502  503  0.00000000000E+00  0.00000000000E+00  0.15843342416E+03  0.15843342416E+03  0.00000000000E+00 0.  1.
         21   -1    0    0  503  504 -0.00000000000E+00 -0.00000000000E+00 -0.38560830150E+03  0.38560830150E+03  0.00000000000E+00 0. -1.
         -6    2    1    2    0  504 -0.23683334076E+02 -0.17501214923E+03 -0.12513320416E+03  0.27698555787E+03  0.17283670847E+03 0.  0.
        -24    2    3    3    0    0  0.49085175705E+02 -0.62737706151E+02 -0.70150570579E+02  0.13225827440E+03  0.78903576270E+02 0.  0.
          6    2    1    2  502    0  0.23683334076E+02  0.17501214923E+03 -0.10204167318E+03  0.26705616779E+03  0.17238428292E+03 0.  0.
         24    2    5    5    0    0 -0.68827099201E+01  0.13399051452E+03 -0.48954356120E+01  0.15716286029E+03  0.81702935615E+02 0.  0.
          4    1    6    6  501    0 -0.42319308166E+02  0.74269768584E+02 -0.15622181127E+02  0.86896345794E+02  0.00000000000E+00 0. -1.
         -3    1    6    6    0  501  0.35436598246E+02  0.59720745933E+02  0.10726745515E+02  0.70266514495E+02  0.00000000000E+00 0.  1.
          5    1    5    5  502    0  0.30566043996E+02  0.41021634715E+02 -0.97146237567E+02  0.10989330750E+03  0.47000000000E+01 0. -1.
         11    1    4    4    0    0  0.70711373280E+02 -0.51375291162E+02 -0.58640179847E+02  0.10525297880E+03  0.00000000000E+00 0. -1.
        -12    1    4    4    0    0 -0.21626197575E+02 -0.11362414989E+02 -0.11510390731E+02  0.27005295605E+02  0.00000000000E+00 0.  1.
         -5    1    3    3    0  504 -0.72768509782E+02 -0.11227444308E+03 -0.54982633582E+02  0.14472728347E+03  0.47000000000E+01 0.  1.
<mgrwt>
<rscale>  2 0.24702955E+03</rscale>
<asrwt>0</asrwt>
<pdfrwt beam="1">  1       21 0.24374373E-01 0.24710864E+03</pdfrwt>
<pdfrwt beam="2">  1       21 0.59324354E-01 0.24710864E+03</pdfrwt>
<totfact> 0.41135716E+04</totfact>
</mgrwt>
</event>
<event>
12    1  0.1410528E-001  0.2824490E+03  0.7546771E-02  0.1094590E+00
         21   -1    0    0  502  503  0.00000000000E+00  0.00000000000E+00  0.70218282439E+02  0.70218282439E+02  0.00000000000E+00 0.  1.
         21   -1    0    0  503  504 -0.00000000000E+00 -0.00000000000E+00 -0.12903193715E+04  0.12903193715E+04  0.00000000000E+00 0.  1.
         -6    2    1    2    0  504  0.91156251458E+02  0.20254239017E+03 -0.36810705261E+03  0.46294573436E+03  0.17170634464E+03 0.  0.
        -24    2    3    3    0    0  0.39522596819E+02  0.20360535179E+03 -0.33879616537E+03  0.40337743500E+03  0.70095209941E+02 0.  0.
          6    2    1    2  502    0 -0.91156251458E+02 -0.20254239017E+03 -0.85199403647E+03  0.89759191960E+03  0.17448362086E+03 0.  0.
         24    2    5    5    0    0 -0.47942468329E+02 -0.32934888742E+02 -0.40482339882E+03  0.41736509323E+03  0.83237309199E+02 0.  0.
          2    1    6    6  501    0  0.81706531092E+01 -0.34782774689E+02 -0.25267264786E+03  0.25518633969E+03  0.00000000000E+00 0. -1.
         -1    1    6    6    0  501 -0.56113121438E+02  0.18478859472E+01 -0.15215075096E+03  0.16217875353E+03  0.00000000000E+00 0.  1.
          5    1    5    5  502    0 -0.43213783129E+02 -0.16960750142E+03 -0.44717063764E+03  0.48022682637E+03  0.47000000000E+01 0. -1.
         13    1    4    4    0    0  0.45142427399E+02  0.16892768547E+03 -0.31702356675E+03  0.36204743273E+03  0.00000000000E+00 0. -1.
        -14    1    4    4    0    0 -0.56198305799E+01  0.34677666314E+02 -0.21772598628E+02  0.41330002272E+02  0.00000000000E+00 0.  1.
         -5    1    3    3    0  504  0.51633654639E+02 -0.10629616213E+01 -0.29310887236E+02  0.59568299366E+02  0.47000000000E+01 0.  1.
<mgrwt>
<rscale>  2 0.28202120E+03</rscale>
<asrwt>0</asrwt>
<pdfrwt beam="1">  1       21 0.10802812E-01 0.28244896E+03</pdfrwt>
<pdfrwt beam="2">  1       21 0.19851069E+00 0.28244896E+03</pdfrwt>
<totfact> 0.91104935E+03</totfact>
</mgrwt>
</event>
<event>
12    1  0.1410528E-001  0.4005024E+03  0.7546771E-02  0.1043691E+00
         21   -1    0    0  502  503  0.00000000000E+00  0.00000000000E+00  0.40982132649E+03  0.40982132649E+03  0.00000000000E+00 0.  1.
         21   -1    0    0  503  504 -0.00000000000E+00 -0.00000000000E+00 -0.39272839528E+03  0.39272839528E+03  0.00000000000E+00 0. -1.
         -6    2    1    2    0  504 -0.22073573376E+03 -0.28578080197E+03 -0.22107403421E+02  0.40013351387E+03  0.17094783036E+03 0.  0.
        -24    2    3    3    0    0 -0.11831651445E+03 -0.11643720392E+03 -0.72442135043E+02  0.19587234309E+03  0.74576751114E+02 0.  0.
          6    2    1    2  502    0  0.22073573376E+03  0.28578080197E+03  0.39200334626E+02  0.40241620789E+03  0.17322588492E+03 0.  0.
         24    2    5    5    0    0  0.74764532597E+02  0.17232979359E+03  0.67931652031E+02  0.21526305811E+03  0.80225817215E+02 0.  0.
          4    1    6    6  501    0  0.88583721289E+02  0.12395454219E+03  0.62443684787E+02  0.16465423765E+03  0.00000000000E+00 0. -1.
         -3    1    6    6    0  501 -0.13819188692E+02  0.48375251401E+02  0.54879672444E+01  0.50608820463E+02  0.00000000000E+00 0.  1.
          5    1    5    5  502    0  0.14597120117E+03  0.11345100838E+03 -0.28731317405E+02  0.18715314978E+03  0.47000000000E+01 0. -1.
         13    1    4    4    0    0 -0.94042453054E+02 -0.11113728890E+03 -0.84417748910E+02  0.16829092754E+03  0.00000000000E+00 0. -1.
        -14    1    4    4    0    0 -0.24274061399E+02 -0.52999150182E+01  0.11975613867E+02  0.27581415546E+02  0.00000000000E+00 0.  1.
         -5    1    3    3    0  504 -0.10241921931E+03 -0.16934359805E+03  0.50334731622E+02  0.20426117079E+03  0.47000000000E+01 0.  1.
<mgrwt>
<rscale>  2 0.40025713E+03</rscale>
<asrwt>0</asrwt>
<pdfrwt beam="1">  1       21 0.63049435E-01 0.40050236E+03</pdfrwt>
<pdfrwt beam="2">  1       21 0.60419753E-01 0.40050236E+03</pdfrwt>
<totfact> 0.53266513E+03</totfact>
</mgrwt>
</event>
<event>
12    1  0.1410528E-001  0.2995064E+03  0.7546771E-02  0.1085543E+00
         21   -1    0    0  502  503  0.00000000000E+00  0.00000000000E+00  0.22228595075E+03  0.22228595075E+03  0.00000000000E+00 0. -1.
         21   -1    0    0  503  504 -0.00000000000E+00 -0.00000000000E+00 -0.42432225595E+03  0.42432225595E+03  0.00000000000E+00 0.  1.
         -6    2    1    2    0  504 -0.13343709308E+03  0.20444145961E+03 -0.28403832247E+02  0.30041122649E+03  0.17273783344E+03 0.  0.
        -24    2    3    3    0    0 -0.10524642347E+03  0.88052240324E+02  0.36250299615E+02  0.16423703296E+03  0.82642072176E+02 0.  0.
          6    2    1    2  502    0  0.13343709308E+03 -0.20444145961E+03 -0.17363247296E+03  0.34619698020E+03  0.17350027441E+03 0.  0.
         24    2    5    5    0    0  0.14307567316E+03 -0.18858695979E+03 -0.98657957625E+02  0.26881781414E+03  0.80584954835E+02 0.  0.
          4    1    6    6  501    0  0.82714354278E+02 -0.15172991991E+03 -0.41097942762E+02  0.17763072341E+03  0.00000000000E+00 0. -1.
         -3    1    6    6    0  501  0.60361318884E+02 -0.36857039880E+02 -0.57560014863E+02  0.91187090738E+02  0.00000000000E+00 0.  1.
          5    1    5    5  502    0 -0.96385800833E+01 -0.15854499822E+02 -0.74974515330E+02  0.77379166057E+02  0.47000000000E+01 0. -1.
         13    1    4    4    0    0 -0.50550755122E+02  0.81172937955E+02 -0.44244923839E+01  0.95728787899E+02  0.00000000000E+00 0. -1.
        -14    1    4    4    0    0 -0.54695668346E+02  0.68793023692E+01  0.40674791999E+02  0.68508245059E+02  0.00000000000E+00 0.  1.
         -5    1    3    3    0  504 -0.28190669610E+02  0.11638921928E+03 -0.64654131862E+02  0.13617419354E+03  0.47000000000E+01 0.  1.
<mgrwt>
<rscale>  2 0.29939613E+03</rscale>
<asrwt>0</asrwt>
<pdfrwt beam="1">  1       21 0.34197839E-01 0.29950645E+03</pdfrwt>
<pdfrwt beam="2">  1       21 0.65280346E-01 0.29950645E+03</pdfrwt>
<totfact> 0.16842816E+04</totfact>
</mgrwt>
</event>
<event>
12    1  0.1410528E-001  0.2244413E+03  0.7546771E-02  0.1130754E+00
         21   -1    0    0  502  503  0.00000000000E+00  0.00000000000E+00  0.36603766148E+02  0.36603766148E+02  0.00000000000E+00 0.  1.
         21   -1    0    0  503  504 -0.00000000000E+00 -0.00000000000E+00 -0.15423335499E+04  0.15423335499E+04  0.00000000000E+00 0.  1.
         -6    2    1    2    0  504 -0.14435827823E+02 -0.14209447757E+03 -0.10167669461E+04  0.10412439339E+04  0.17313195419E+03 0.  0.
        -24    2    3    3    0    0 -0.31332289096E+02 -0.14025959954E+03 -0.10083519612E+04  0.10217052760E+04  0.80333839662E+02 0.  0.
          6    2    1    2  502    0  0.14435827823E+02  0.14209447757E+03 -0.48896283769E+03  0.53769338217E+03  0.17213449075E+03 0.  0.
         24    2    5    5    0    0 -0.27791763307E+02  0.14677319449E+03 -0.42724712537E+03  0.46262022457E+03  0.95721540492E+02 0.  0.
          2    1    6    6  501    0  0.27319716942E+02  0.22367238171E+02 -0.47166232737E+02  0.58917856273E+02  0.00000000000E+00 0. -1.
         -1    1    6    6    0  501 -0.55111480248E+02  0.12440595632E+03 -0.38008089263E+03  0.40370236830E+03  0.00000000000E+00 0.  1.
          5    1    5    5  502    0  0.42227591129E+02 -0.46787169244E+01 -0.61715712323E+02  0.75073157601E+02  0.47000000000E+01 0. -1.
         11    1    4    4    0    0  0.49206406044E+01 -0.38744340314E+02 -0.52634454852E+03  0.52779155011E+03  0.00000000000E+00 0. -1.
        -12    1    4    4    0    0 -0.36252929700E+02 -0.10151525923E+03 -0.48200741270E+03  0.49391372593E+03  0.00000000000E+00 0.  1.
         -5    1    3    3    0  504  0.16896461273E+02 -0.18348780265E+01 -0.84149848741E+01  0.19538657870E+02  0.47000000000E+01 0.  1.
<mgrwt>
<rscale>  2 0.22424894E+03</rscale>
<asrwt>0</asrwt>
<pdfrwt beam="1">  1       21 0.56313494E-02 0.22444132E+03</pdfrwt>
<pdfrwt beam="2">  1       21 0.23728205E+00 0.22444132E+03</pdfrwt>
<totfact> 0.16930544E+04</totfact>
</mgrwt>
</event>
<event>
12    1  0.1410528E-001  0.1739801E+03  0.7546771E-02  0.1173792E+00
         21   -1    0    0  502  503  0.00000000000E+00  0.00000000000E+00  0.87700067162E+02  0.87700067162E+02  0.00000000000E+00 0.  1.
         21   -1    0    0  503  504 -0.00000000000E+00 -0.00000000000E+00 -0.71070793669E+03  0.71070793669E+03  0.00000000000E+00 0.  1.
         -6    2    1    2    0  504  0.10815534805E+02  0.15826709627E+02 -0.59796687390E+03  0.62276275191E+03  0.17292079791E+03 0.  0.
        -24    2    3    3    0    0  0.47287733633E+02  0.62529818719E+02 -0.33592972501E+03  0.35406783368E+03  0.79806908941E+02 0.  0.
          6    2    1    2  502    0 -0.10815534805E+02 -0.15826709627E+02 -0.25040995630E+02  0.17564525195E+03  0.17279103721E+03 0.  0.
         24    2    5    5    0    0 -0.39723648368E+02  0.59160743117E+01  0.43121795232E+02  0.98336237331E+02  0.78724571599E+02 0.  0.
          4    1    6    6  501    0 -0.54896486969E+02  0.27799594559E+02  0.26913454715E+02  0.67162309251E+02  0.00000000000E+00 0. -1.
         -3    1    6    6    0  501  0.15172838601E+02 -0.21883520247E+02  0.16208340516E+02  0.31173928080E+02  0.00000000000E+00 0.  1.
          5    1    5    5  502    0  0.28908113564E+02 -0.21742783939E+02 -0.68162790861E+02  0.77309014618E+02  0.47000000000E+01 0. -1.
         11    1    4    4    0    0 -0.13821726388E+02  0.31334044989E+02 -0.18677803521E+03  0.18989180322E+03  0.00000000000E+00 0. -1.
        -12    1    4    4    0    0  0.61109460022E+02  0.31195773730E+02 -0.14915168980E+03  0.16417603045E+03  0.00000000000E+00 0.  1.
         -5    1    3    3    0  504 -0.36472198829E+02 -0.46703109092E+02 -0.26203714889E+03  0.26869491823E+03  0.47000000000E+01 0.  1.
<mgrwt>
<rscale>  2 0.17394781E+03</rscale>
<asrwt>0</asrwt>
<pdfrwt beam="1">  1       21 0.13492318E-01 0.17398006E+03</pdfrwt>
<pdfrwt beam="2">  1       21 0.10933968E+00 0.17398006E+03</pdfrwt>
<totfact> 0.31840774E+04</totfact>
</mgrwt>
</event>
<event>
12    1  0.1410528E-001  0.1986689E+03  0.7546771E-02  0.1151094E+00
         21   -1    0    0  502  503  0.00000000000E+00  0.00000000000E+00  0.14959002507E+04  0.14959002507E+04  0.00000000000E+00 0. -1.
         21   -1    0    0  503  504 -0.00000000000E+00 -0.00000000000E+00 -0.27854233270E+02  0.27854233270E+02  0.00000000000E+00 0. -1.
         -6    2    1    2    0  504 -0.91060489649E+01 -0.95154618600E+02  0.55269233539E+03  0.58731435210E+03  0.17416087109E+03 0.  0.
        -24    2    3    3    0    0  0.40714924533E+02 -0.21702662383E+02  0.39874334191E+03  0.40955130233E+03  0.81285336232E+02 0.  0.
          6    2    1    2  502    0  0.91060489649E+01  0.95154618600E+02  0.91535368209E+03  0.93644013191E+03  0.17294633785E+03 0.  0.
         24    2    5    5    0    0 -0.78680643682E+01  0.36697129196E+02  0.19491305262E+03  0.21341717987E+03  0.78404137993E+02 0.  0.
          4    1    6    6  501    0 -0.18411205464E+02  0.23919955732E+02  0.19451895327E+03  0.19684704709E+03  0.00000000000E+00 0. -1.
         -3    1    6    6    0  501  0.10543141096E+02  0.12777173464E+02  0.39409934934E+00  0.16570132775E+02  0.00000000000E+00 0.  1.
          5    1    5    5  502    0  0.16974113333E+02  0.58457489405E+02  0.72044062947E+03  0.72302295204E+03  0.47000000000E+01 0. -1.
         13    1    4    4    0    0 -0.18802781412E+02 -0.18922545476E+02  0.60785009004E+02  0.66380905656E+02  0.00000000000E+00 0. -1.
        -14    1    4    4    0    0  0.59517705945E+02 -0.27801169063E+01  0.33795833291E+03  0.34317039667E+03  0.00000000000E+00 0.  1.
         -5    1    3    3    0  504 -0.49820973498E+02 -0.73451956218E+02  0.15394899348E+03  0.17776304977E+03  0.47000000000E+01 0.  1.
<mgrwt>
<rscale>  2 0.19840240E+03</rscale>
<asrwt>0</asrwt>
<pdfrwt beam="1">  1       21 0.23013844E+00 0.19866890E+03</pdfrwt>
<pdfrwt beam="2">  1       21 0.42852678E-02 0.19866890E+03</pdfrwt>
<totfact> 0.30324689E+04</totfact>
</mgrwt>
</event>
<event>
12    1  0.1410528E-001  0.2177876E+03  0.7546771E-02  0.1135684E+00
         21   -1    0    0  502  503  0.00000000000E+00  0.00000000000E+00  0.46035033950E+03  0.46035033950E+03  0.00000000000E+00 0.  1.
         21   -1    0    0  503  504 -0.00000000000E+00 -0.00000000000E+00 -0.10280329562E+03  0.10280329562E+03  0.00000000000E+00 0. -1.
         -6    2    1    2    0  504  0.77398083313E+02  0.10562220893E+03  0.18819518371E+03  0.28727052564E+03  0.17309076639E+03 0.  0.
        -24    2    3    3    0    0  0.66819176293E+02  0.76051750958E+02  0.28607640647E+02  0.12455421066E+03  0.66683454818E+02 0.  0.
          6    2    1    2  502    0 -0.77398083313E+02 -0.10562220893E+03  0.16935186017E+03  0.27588310948E+03  0.17402563958E+03 0.  0.
         24    2    5    5    0    0 -0.43748556098E+02 -0.11926557280E+03  0.18312032535E+03  0.23676671020E+03  0.79920013058E+02 0.  0.
          4    1    6    6  501    0 -0.41293349650E+02 -0.27320640828E+02  0.10500850076E+03  0.11609626770E+03  0.00000000000E+00 0. -1.
         -3    1    6    6    0  501 -0.24552064484E+01 -0.91944931970E+02  0.78111824586E+02  0.12067044250E+03  0.00000000000E+00 0.  1.
          5    1    5    5  502    0 -0.33649527214E+02  0.13643363863E+02 -0.13768465174E+02  0.39116399279E+02  0.47000000000E+01 0. -1.
         13    1    4    4    0    0  0.18071661220E+02 -0.10208565775E+02 -0.20023291438E+01  0.20852076070E+02  0.00000000000E+00 0. -1.
        -14    1    4    4    0    0  0.48747515073E+02  0.86260316734E+02  0.30609969790E+02  0.10370213459E+03  0.00000000000E+00 0.  1.
         -5    1    3    3    0  504  0.10578907019E+02  0.29570457977E+02  0.15958754307E+03  0.16271631498E+03  0.47000000000E+01 0.  1.
<mgrwt>
<rscale>  2 0.21760078E+03</rscale>
<asrwt>0</asrwt>
<pdfrwt beam="1">  1       21 0.70823128E-01 0.21778760E+03</pdfrwt>
<pdfrwt beam="2">  1       21 0.15815892E-01 0.21778760E+03</pdfrwt>
<totfact> 0.63576928E+04</totfact>
</mgrwt>
</event>
<event>
12    1  0.1410528E-001  0.2726096E+03  0.7546771E-02  0.1099904E+00
         21   -1    0    0  502  503  0.00000000000E+00  0.00000000000E+00  0.16709548885E+03  0.16709548885E+03  0.00000000000E+00 0.  1.
         21   -1    0    0  503  504 -0.00000000000E+00 -0.00000000000E+00 -0.47211931934E+03  0.47211931934E+03  0.00000000000E+00 0. -1.
         -6    2    1    2    0  504 -0.14832371049E+03  0.14877386082E+03 -0.23141188057E+03  0.35758560700E+03  0.17373089278E+03 0.  0.
        -24    2    3    3    0    0 -0.70709141198E+02  0.11052436146E+03 -0.49252895737E+02  0.15586542625E+03  0.68211188486E+02 0.  0.
          6    2    1    2  502    0  0.14832371049E+03 -0.14877386082E+03 -0.73611949924E+02  0.28162920119E+03  0.17251870342E+03 0.  0.
         24    2    5    5    0    0  0.12475855850E+03 -0.17077833552E+03 -0.91779488318E+02  0.24432420492E+03  0.80875860623E+02 0.  0.
          2    1    6    6  501    0  0.30848438982E+02 -0.33559257161E+01 -0.28688799243E+02  0.42260331601E+02  0.00000000000E+00 0. -1.
         -1    1    6    6    0  501  0.93910119523E+02 -0.16742240980E+03 -0.63090689075E+02  0.20206387332E+03  0.00000000000E+00 0.  1.
          5    1    5    5  502    0  0.23565151990E+02  0.22004474697E+02  0.18167538394E+02  0.37304996264E+02  0.47000000000E+01 0. -1.
         11    1    4    4    0    0 -0.56982735151E+02  0.45831931852E+02  0.46463683379E+00  0.73128749271E+02  0.00000000000E+00 0. -1.
        -12    1    4    4    0    0 -0.13726406047E+02  0.64692429612E+02 -0.49717532571E+02  0.82736676976E+02  0.00000000000E+00 0.  1.
         -5    1    3    3    0  504 -0.77614569297E+02  0.38249499358E+02 -0.18215898483E+03  0.20172018075E+03  0.47000000000E+01 0.  1.
<mgrwt>
<rscale>  2 0.27241669E+03</rscale>
<asrwt>0</asrwt>
<pdfrwt beam="1">  1       21 0.25706999E-01 0.27260963E+03</pdfrwt>
<pdfrwt beam="2">  1       21 0.72633740E-01 0.27260963E+03</pdfrwt>
<totfact> 0.23544850E+04</totfact>
</mgrwt>
</event>
<event>
12    1  0.1410528E-001  0.2003780E+03  0.7546771E-02  0.1149440E+00
         21   -1    0    0  502  503  0.00000000000E+00  0.00000000000E+00  0.13163780322E+03  0.13163780322E+03  0.00000000000E+00 0.  1.
         21   -1    0    0  503  504 -0.00000000000E+00 -0.00000000000E+00 -0.47383392905E+03  0.47383392905E+03  0.00000000000E+00 0.  1.
         -6    2    1    2    0  504  0.50343317690E+02 -0.86234199414E+02  0.97034711749E+01  0.20052150358E+03  0.17362007159E+03 0.  0.
        -24    2    3    3    0    0  0.72349224430E+02 -0.32861086210E+02 -0.43527780629E+02  0.12185381444E+03  0.81482655489E+02 0.  0.
          6    2    1    2  502    0 -0.50343317690E+02  0.86234199414E+02 -0.35189959700E+03  0.40495022869E+03  0.17372557256E+03 0.  0.
         24    2    5    5    0    0  0.75531039875E+01  0.10194475090E+03 -0.29525704527E+03  0.32231073609E+03  0.79105664790E+02 0.  0.
          2    1    6    6  501    0  0.26018500691E+02  0.43736240026E+02 -0.21785129657E+03  0.22371635722E+03  0.00000000000E+00 0. -1.
         -1    1    6    6    0  501 -0.18465396703E+02  0.58208510870E+02 -0.77405748698E+02  0.98594378869E+02  0.00000000000E+00 0.  1.
          5    1    5    5  502    0 -0.57896421677E+02 -0.15710551481E+02 -0.56642551731E+02  0.82639492602E+02  0.47000000000E+01 0. -1.
         11    1    4    4    0    0  0.99774874765E+01 -0.29794795524E+02  0.16278550481E+02  0.35387445548E+02  0.00000000000E+00 0. -1.
        -12    1    4    4    0    0  0.62371736954E+02 -0.30662906860E+01 -0.59806331111E+02  0.86466368896E+02  0.00000000000E+00 0.  1.
         -5    1    3    3    0  504 -0.22005906740E+02 -0.53373113204E+02  0.53231251804E+02  0.78667689131E+02  0.47000000000E+01 0.  1.
<mgrwt>
<rscale>  2 0.20035518E+03</rscale>
<asrwt>0</asrwt>
<pdfrwt beam="1">  1       21 0.20251970E-01 0.20037805E+03</pdfrwt>
<pdfrwt beam="2">  1       21 0.72897528E-01 0.20037805E+03</pdfrwt>
<totfact> 0.38039005E+04</totfact>
</mgrwt>
</event>
<event>
12    1  0.1410528E-001  0.1847449E+03  0.7546771E-02  0.1165343E+00
         21   -1    0    0  502  503  0.00000000000E+00  0.00000000000E+00  0.42341514794E+03  0.42341514794E+03  0.00000000000E+00 0. -1.
         21   -1    0    0  503  504 -0.00000000000E+00 -0.00000000000E+00 -0.96508689671E+02  0.96508689671E+02  0.00000000000E+00 0. -1.
         -6    2    1    2    0  504  0.34699423301E+02 -0.52011144614E+02  0.43254078975E+02  0.18141334904E+03  0.16471392995E+03 0.  0.
        -24    2    3    3    0    0  0.33796497588E+02 -0.94782604138E+02  0.29623263254E+02  0.13626800418E+03  0.86979801921E+02 0.  0.
          6    2    1    2  502    0 -0.34699423301E+02  0.52011144614E+02  0.28365237930E+03  0.33851048858E+03  0.17384323241E+03 0.  0.
         24    2    5    5    0    0  0.34217731657E+02  0.18078063884E+02  0.22582957100E+03  0.24224733168E+03  0.78658152905E+02 0.  0.
          4    1    6    6  501    0 -0.20930078856E+02  0.21390792071E+02  0.53793270708E+02  0.61557697811E+02  0.00000000000E+00 0. -1.
         -3    1    6    6    0  501  0.55147810513E+02 -0.33127281864E+01  0.17203630029E+03  0.18068963387E+03  0.00000000000E+00 0.  1.
          5    1    5    5  502    0 -0.68917154957E+02  0.33933080730E+02  0.57822808299E+02  0.96263156892E+02  0.47000000000E+01 0. -1.
         13    1    4    4    0    0  0.18278808706E+02 -0.38367509132E+01 -0.23334811577E+02  0.29888943384E+02  0.00000000000E+00 0. -1.
        -14    1    4    4    0    0  0.15517688882E+02 -0.90945853225E+02  0.52958074831E+02  0.10637906080E+03  0.00000000000E+00 0.  1.
         -5    1    3    3    0  504  0.90292571313E+00  0.42771459524E+02  0.13630815722E+02  0.45145344853E+02  0.47000000000E+01 0.  1.
<mgrwt>
<rscale>  2 0.18256577E+03</rscale>
<asrwt>0</asrwt>
<pdfrwt beam="1">  1       21 0.65140791E-01 0.18474490E+03</pdfrwt>
<pdfrwt beam="2">  1       21 0.14847491E-01 0.18474490E+03</pdfrwt>
<totfact> 0.86969382E+04</totfact>
</mgrwt>
</event>
<event>
12    1  0.1410528E-001  0.1775195E+03  0.7546771E-02  0.1170269E+00
         21   -1    0    0  502  503  0.00000000000E+00  0.00000000000E+00  0.17234161178E+03  0.17234161178E+03  0.00000000000E+00 0.  1.
         21   -1    0    0  503  504 -0.00000000000E+00 -0.00000000000E+00 -0.28637665980E+03  0.28637665980E+03  0.00000000000E+00 0.  1.
         -6    2    1    2    0  504  0.26149182469E+02  0.27924816985E+02 -0.19502236204E+03  0.26359744971E+03  0.17316558161E+03 0.  0.
        -24    2    3    3    0    0  0.32659866417E+02 -0.78799920044E+01 -0.12420238364E+02  0.77344935844E+02  0.68550825169E+02 0.  0.
          6    2    1    2  502    0 -0.26149182469E+02 -0.27924816985E+02  0.80987314023E+02  0.19512082186E+03  0.17334824760E+03 0.  0.
         24    2    5    5    0    0 -0.58058645995E+02 -0.49833975235E+02  0.10241998884E+03  0.15062728719E+03  0.79652332481E+02 0.  0.
          2    1    6    6  501    0 -0.37062991589E+02  0.35699060853E+01  0.81406740260E+02  0.89517969899E+02  0.00000000000E+00 0. -1.
         -1    1    6    6    0  501 -0.20995654406E+02 -0.53403881320E+02  0.21013248582E+02  0.61109317293E+02  0.00000000000E+00 0.  1.
          5    1    5    5  502    0  0.31909463526E+02  0.21909158249E+02 -0.21432674818E+02  0.44493534672E+02  0.47000000000E+01 0. -1.
         13    1    4    4    0    0 -0.81639654402E+01 -0.19800067978E+02 -0.25072228586E+02  0.32974378992E+02  0.00000000000E+00 0. -1.
        -14    1    4    4    0    0  0.40823831857E+02  0.11920075974E+02  0.12651990222E+02  0.44370556851E+02  0.00000000000E+00 0.  1.
         -5    1    3    3    0  504 -0.65106839479E+01  0.35804808990E+02 -0.18260212368E+03  0.18625251387E+03  0.47000000000E+01 0.  1.
<mgrwt>
<rscale>  2 0.17747494E+03</rscale>
<asrwt>0</asrwt>
<pdfrwt beam="1">  1       21 0.26514094E-01 0.17751955E+03</pdfrwt>
<pdfrwt beam="2">  1       21 0.44057947E-01 0.17751955E+03</pdfrwt>
<totfact> 0.67414179E+04</totfact>
</mgrwt>
</event>
<event>
12    1  0.1410528E-001  0.1935954E+03  0.7546771E-02  0.1155342E+00
         21   -1    0    0  502  503  0.00000000000E+00  0.00000000000E+00  0.18230525313E+03  0.18230525313E+03  0.00000000000E+00 0. -1.
         21   -1    0    0  503  504 -0.00000000000E+00 -0.00000000000E+00 -0.74804096536E+03  0.74804096536E+03  0.00000000000E+00 0. -1.
         -6    2    1    2    0  504  0.69069923352E+02  0.52595720875E+02 -0.67921931467E+03  0.70627053265E+03  0.17303821457E+03 0.  0.
        -24    2    3    3    0    0  0.54398750100E+02 -0.35410431673E+02 -0.38677015287E+03  0.40047823640E+03  0.81108223944E+02 0.  0.
          6    2    1    2  502    0 -0.69069923352E+02 -0.52595720875E+02  0.11348360244E+03  0.22407568584E+03  0.17261060453E+03 0.  0.
         24    2    5    5    0    0 -0.42002640776E+02 -0.13282167540E+02  0.14148168214E+03  0.16854033017E+03  0.80300303290E+02 0.  0.
          2    1    6    6  501    0  0.14728877794E+02 -0.14326292569E+02  0.88688675993E+02  0.91037705097E+02  0.00000000000E+00 0. -1.
         -1    1    6    6    0  501 -0.56731518570E+02  0.10441250294E+01  0.52793006143E+02  0.77502625078E+02  0.00000000000E+00 0.  1.
          5    1    5    5  502    0 -0.27067282576E+02 -0.39313553335E+02 -0.27998079700E+02  0.55535355665E+02  0.47000000000E+01 0. -1.
         11    1    4    4    0    0 -0.14728054047E+02 -0.18897332198E+02 -0.18524296915E+03  0.18678592656E+03  0.00000000000E+00 0. -1.
        -12    1    4    4    0    0  0.69126804147E+02 -0.16513099475E+02 -0.20152718372E+03  0.21369230984E+03  0.00000000000E+00 0.  1.
         -5    1    3    3    0  504  0.14671173252E+02  0.88006152548E+02 -0.29244916180E+03  0.30579229626E+03  0.47000000000E+01 0.  1.
<mgrwt>
<rscale>  2 0.19349983E+03</rscale>
<asrwt>0</asrwt>
<pdfrwt beam="1">  1       21 0.28046962E-01 0.19359542E+03</pdfrwt>
<pdfrwt beam="2">  1       21 0.11508323E+00 0.19359542E+03</pdfrwt>
<totfact> 0.71023515E+03</totfact>
</mgrwt>
</event>
<event>
12    1  0.1410528E-001  0.3086764E+03  0.7546771E-02  0.1081302E+00
         21   -1    0    0  502  503  0.00000000000E+00  0.00000000000E+00  0.36375768482E+03  0.36375768482E+03  0.00000000000E+00 0.  1.
         21   -1    0    0  503  504 -0.00000000000E+00 -0.00000000000E+00 -0.40457236754E+03  0.40457236754E+03  0.00000000000E+00 0. -1.
         -6    2    1    2    0  504  0.64161528347E+02 -0.24355300765E+03 -0.25023557330E+03  0.39531766803E+03  0.17384892076E+03 0.  0.
        -24    2    3    3    0    0  0.62271566332E+02 -0.26053879070E+03 -0.25352480611E+03  0.37728997170E+03  0.79464998583E+02 0.  0.
          6    2    1    2  502    0 -0.64161528347E+02  0.24355300765E+03  0.20942089058E+03  0.37301238433E+03  0.17845548520E+03 0.  0.
         24    2    5    5    0    0  0.15610918676E+02  0.14783223518E+03  0.62528567334E+02  0.18033245747E+03  0.80696362642E+02 0.  0.
          2    1    6    6  501    0  0.18213422094E+02  0.29509521307E+02  0.50653826516E+02  0.61386893820E+02  0.00000000000E+00 0. -1.
         -1    1    6    6    0  501 -0.26025034179E+01  0.11832271387E+03  0.11874740818E+02  0.11894556365E+03  0.00000000000E+00 0.  1.
          5    1    5    5  502    0 -0.79772447023E+02  0.95720772470E+02  0.14689232325E+03  0.19267992686E+03  0.47000000000E+01 0. -1.
         13    1    4    4    0    0  0.60747217319E+02 -0.11408102231E+03 -0.14960591035E+03  0.19770339520E+03  0.00000000000E+00 0. -1.
        -14    1    4    4    0    0  0.15243490132E+01 -0.14645776839E+03 -0.10391889576E+03  0.17958657650E+03  0.00000000000E+00 0.  1.
         -5    1    3    3    0  504  0.18899620148E+01  0.16985783049E+02  0.32892328092E+01  0.18027696322E+02  0.47000000000E+01 0.  1.
<mgrwt>
<rscale>  2 0.30801426E+03</rscale>
<asrwt>0</asrwt>
<pdfrwt beam="1">  1       21 0.55962721E-01 0.30867642E+03</pdfrwt>
<pdfrwt beam="2">  1       21 0.62241902E-01 0.30867642E+03</pdfrwt>
<totfact> 0.67206957E+03</totfact>
</mgrwt>
</event>
<event>
12    1  0.1410528E-001  0.2131510E+03  0.7546771E-02  0.1139653E+00
         21   -1    0    0  502  503  0.00000000000E+00  0.00000000000E+00  0.16258648586E+04  0.16258648586E+04  0.00000000000E+00 0. -1.
         21   -1    0    0  503  504 -0.00000000000E+00 -0.00000000000E+00 -0.30078945274E+02  0.30078945274E+02  0.00000000000E+00 0. -1.
         -6    2    1    2    0  504 -0.11157083603E+03 -0.56645871046E+02  0.10320231722E+04  0.10532317735E+04  0.16902228998E+03 0.  0.
        -24    2    3    3    0    0 -0.46156420022E+02 -0.71805262239E+02  0.87155376370E+03  0.87921633154E+03  0.78287826843E+02 0.  0.
          6    2    1    2  502    0  0.11157083603E+03  0.56645871046E+02  0.56376274112E+03  0.60271203041E+03  0.17255885130E+03 0.  0.
         24    2    5    5    0    0  0.13678602638E+02 -0.13025208348E+02  0.12890620502E+03  0.15153662588E+03  0.77393662968E+02 0.  0.
          4    1    6    6  501    0  0.27908282197E+02 -0.42131579743E+01  0.78043471739E+01  0.29283625973E+02  0.00000000000E+00 0. -1.
         -3    1    6    6    0  501 -0.14229679560E+02 -0.88120503733E+01  0.12110185785E+03  0.12225299991E+03  0.00000000000E+00 0.  1.
          5    1    5    5  502    0  0.97892233391E+02  0.69671079394E+02  0.43485653610E+03  0.45117540453E+03  0.47000000000E+01 0. -1.
         13    1    4    4    0    0 -0.64790566879E+02 -0.33008370878E+02  0.56219732150E+03  0.56688023286E+03  0.00000000000E+00 0. -1.
        -14    1    4    4    0    0  0.18634146857E+02 -0.38796891362E+02  0.30935644220E+03  0.31233609868E+03  0.00000000000E+00 0.  1.
         -5    1    3    3    0  504 -0.65414416006E+02  0.15159391193E+02  0.16046940851E+03  0.17401544193E+03  0.47000000000E+01 0.  1.
<mgrwt>
<rscale>  2 0.21243422E+03</rscale>
<asrwt>0</asrwt>
<pdfrwt beam="1">  1       21 0.25013299E+00 0.21315103E+03</pdfrwt>
<pdfrwt beam="2">  1       21 0.46275313E-02 0.21315103E+03</pdfrwt>
<totfact> 0.20002307E+04</totfact>
</mgrwt>
</event>
<event>
12    1  0.1410528E-001  0.2650773E+03  0.7546771E-02  0.1104221E+00
         21   -1    0    0  502  503  0.00000000000E+00  0.00000000000E+00  0.16747850772E+04  0.16747850772E+04  0.00000000000E+00 0.  1.
         21   -1    0    0  503  504 -0.00000000000E+00 -0.00000000000E+00 -0.51228265567E+02  0.51228265567E+02  0.00000000000E+00 0. -1.
         -6    2    1    2    0  504 -0.74408225780E+02 -0.18780165827E+03  0.44345046851E+03  0.51663747193E+03  0.17163890138E+03 0.  0.
        -24    2    3    3    0    0  0.23877239688E+02 -0.79718026790E+02  0.23702606297E+03  0.26370422121E+03  0.80208948298E+02 0.  0.
          6    2    1    2  502    0  0.74408225780E+02  0.18780165827E+03  0.11801063431E+04  0.12093758708E+04  0.17068382750E+03 0.  0.
         24    2    5    5    0    0  0.22285458238E+02  0.18348827159E+03  0.79255645768E+03  0.81828458750E+03  0.85319048630E+02 0.  0.
          2    1    6    6  501    0  0.97751754022E+01  0.16267424199E+03  0.52706176287E+03  0.55168157930E+03  0.00000000000E+00 0. -1.
         -1    1    6    6    0  501  0.12510282836E+02  0.20814029602E+02  0.26549469481E+03  0.26660300820E+03  0.00000000000E+00 0.  1.
          5    1    5    5  502    0  0.52122767542E+02  0.43133866817E+01  0.38754988539E+03  0.39109128330E+03  0.47000000000E+01 0. -1.
         13    1    4    4    0    0 -0.92078679440E+01 -0.46989461082E+02  0.43602560943E+02  0.64760926535E+02  0.00000000000E+00 0. -1.
        -14    1    4    4    0    0  0.33085107632E+02 -0.32728565708E+02  0.19342350202E+03  0.19894329467E+03  0.00000000000E+00 0.  1.
         -5    1    3    3    0  504 -0.98285465468E+02 -0.10808363148E+03  0.20642440554E+03  0.25293325072E+03  0.47000000000E+01 0.  1.
<mgrwt>
<rscale>  2 0.26492278E+03</rscale>
<asrwt>0</asrwt>
<pdfrwt beam="1">  1       21 0.25765920E+00 0.26507727E+03</pdfrwt>
<pdfrwt beam="2">  1       21 0.78812729E-02 0.26507727E+03</pdfrwt>
<totfact> 0.69323387E+03</totfact>
</mgrwt>
</event>
<event>
12    1  0.1410528E-001  0.1752698E+03  0.7546771E-02  0.1175004E+00
         21   -1    0    0  502  503  0.00000000000E+00  0.00000000000E+00  0.23236694989E+04  0.23236694989E+04  0.00000000000E+00 0. -1.
         21   -1    0    0  503  504 -0.00000000000E+00 -0.00000000000E+00 -0.44487791644E+02  0.44487791644E+02  0.00000000000E+00 0. -1.
         -6    2    1    2    0  504 -0.27786323753E+02  0.92904234417E+01  0.14472387399E+03  0.22729829500E+03  0.17280371364E+03 0.  0.
        -24    2    3    3    0    0  0.13714773607E+02  0.66173915731E+02  0.83219076421E+02  0.13368738270E+03  0.79873772127E+02 0.  0.
          6    2    1    2  502    0  0.27786323753E+02 -0.92904234417E+01  0.21344578332E+04  0.21408589955E+04  0.16281463411E+03 0.  0.
         24    2    5    5    0    0  0.60021873500E+02 -0.59426374906E+01  0.84822764181E+03  0.85421198344E+03  0.80932317999E+02 0.  0.
          4    1    6    6  501    0  0.22384155325E+02 -0.56056201807E+01  0.49677095820E+02  0.54774877785E+02  0.00000000000E+00 0. -1.
         -3    1    6    6    0  501  0.37637718175E+02 -0.33701730995E+00  0.79855054599E+03  0.79943710566E+03  0.00000000000E+00 0.  1.
          5    1    5    5  502    0 -0.32235549747E+02 -0.33477859511E+01  0.12862301914E+04  0.12866470121E+04  0.47000000000E+01 0. -1.
         13    1    4    4    0    0  0.24028928416E+02 -0.90036987440E+01  0.80906492667E+01  0.26905661067E+02  0.00000000000E+00 0. -1.
        -14    1    4    4    0    0 -0.10314154810E+02  0.75177614475E+02  0.75128427154E+02  0.10678172163E+03  0.00000000000E+00 0.  1.
         -5    1    3    3    0  504 -0.41501097360E+02 -0.56883492289E+02  0.61504797572E+02  0.93610912299E+02  0.47000000000E+01 0.  1.
<mgrwt>
<rscale>  2 0.17275625E+03</rscale>
<asrwt>0</asrwt>
<pdfrwt beam="1">  1       21 0.35748752E+00 0.17526984E+03</pdfrwt>
<pdfrwt beam="2">  1       21 0.68442774E-02 0.17526984E+03</pdfrwt>
<totfact> 0.25459023E+03</totfact>
</mgrwt>
</event>
<event>
12    1  0.1410528E-001  0.2274769E+03  0.7546771E-02  0.1128693E+00
         21   -1    0    0  502  503  0.00000000000E+00  0.00000000000E+00  0.37470073153E+02  0.37470073153E+02  0.00000000000E+00 0.  1.
         21   -1    0    0  503  504 -0.00000000000E+00 -0.00000000000E+00 -0.16145828215E+04  0.16145828215E+04  0.00000000000E+00 0. -1.
         -6    2    1    2    0  504  0.14107350592E+03  0.30395163948E+02 -0.11065242956E+04  0.11293682540E+04  0.17392825068E+03 0.  0.
        -24    2    3    3    0    0  0.50239071468E+02 -0.39345753037E+02 -0.36636560062E+03  0.38038783122E+03  0.79994351318E+02 0.  0.
          6    2    1    2  502    0 -0.14107350592E+03 -0.30395163948E+02 -0.47058845272E+03  0.52268464060E+03  0.17584123982E+03 0.  0.
         24    2    5    5    0    0 -0.45603356155E+02 -0.75388053267E+02 -0.28904238961E+03  0.31263709213E+03  0.80208626210E+02 0.  0.
          4    1    6    6  501    0 -0.21529358561E+02 -0.87429860477E+02 -0.24497971087E+03  0.26100297416E+03  0.00000000000E+00 0. -1.
         -3    1    6    6    0  501 -0.24073997594E+02  0.12041807210E+02 -0.44062678738E+02  0.51634117970E+02  0.00000000000E+00 0.  1.
          5    1    5    5  502    0 -0.95470149766E+02  0.44992889319E+02 -0.18154606311E+03  0.21004754846E+03  0.47000000000E+01 0. -1.
         11    1    4    4    0    0 -0.10134142484E+02 -0.20668693764E+02 -0.21680511261E+03  0.21802374321E+03  0.00000000000E+00 0. -1.
        -12    1    4    4    0    0  0.60373213952E+02 -0.18677059273E+02 -0.14956048800E+03  0.16236408802E+03  0.00000000000E+00 0.  1.
         -5    1    3    3    0  504  0.90834434453E+02  0.69740916985E+02 -0.74015869497E+03  0.74898042280E+03  0.47000000000E+01 0.  1.
<mgrwt>
<rscale>  2 0.22710713E+03</rscale>
<asrwt>0</asrwt>
<pdfrwt beam="1">  1       21 0.57646265E-02 0.22747690E+03</pdfrwt>
<pdfrwt beam="2">  1       21 0.24839736E+00 0.22747690E+03</pdfrwt>
<totfact> 0.13924657E+04</totfact>
</mgrwt>
</event>
<event>
12    1  0.1410528E-001  0.2197404E+03  0.7546771E-02  0.1134203E+00
         21   -1    0    0  502  503  0.00000000000E+00  0.00000000000E+00  0.22491938058E+03  0.22491938058E+03  0.00000000000E+00 0. -1.
         21   -1    0    0  503  504 -0.00000000000E+00 -0.00000000000E+00 -0.28872094043E+03  0.28872094043E+03  0.00000000000E+00 0.  1.
         -6    2    1    2    0  504  0.66610060203E+02 -0.11770372865E+03 -0.16257086877E+03  0.27334064944E+03  0.17318994026E+03 0.  0.
        -24    2    3    3    0    0 -0.10552494290E+02 -0.55019487995E+02 -0.20711653140E+02  0.10005042785E+03  0.80265910210E+02 0.  0.
          6    2    1    2  502    0 -0.66610060203E+02  0.11770372865E+03  0.98769308911E+02  0.24029967156E+03  0.17232959093E+03 0.  0.
         24    2    5    5    0    0 -0.66820978212E+02  0.12947245415E+03  0.12695277995E+03  0.20939748027E+03  0.80635828842E+02 0.  0.
          2    1    6    6  501    0  0.16211842683E+02  0.10918046133E+02  0.27678436728E+02  0.33883970167E+02  0.00000000000E+00 0. -1.
         -1    1    6    6    0  501 -0.83032820896E+02  0.11855440802E+03  0.99274343225E+02  0.17551351011E+03  0.00000000000E+00 0.  1.
          5    1    5    5  502    0  0.21091800899E+00 -0.11768725501E+02 -0.28183471042E+02  0.30902191287E+02  0.47000000000E+01 0. -1.
         13    1    4    4    0    0 -0.17935728479E+02  0.22576302158E+01  0.21814431047E+02  0.28331195742E+02  0.00000000000E+00 0. -1.
        -14    1    4    4    0    0  0.73832341892E+01 -0.57277118210E+02 -0.42526084187E+02  0.71719232106E+02  0.00000000000E+00 0.  1.
         -5    1    3    3    0  504  0.77162554493E+02 -0.62684240659E+02 -0.14185921563E+03  0.17329022160E+03  0.47000000000E+01 0.  1.
<mgrwt>
<rscale>  2 0.21957080E+03</rscale>
<asrwt>0</asrwt>
<pdfrwt beam="1">  1       21 0.34602981E-01 0.21974035E+03</pdfrwt>
<pdfrwt beam="2">  1       21 0.44418606E-01 0.21974035E+03</pdfrwt>
<totfact> 0.38643867E+04</totfact>
</mgrwt>
</event>
<event>
12    1  0.1410528E-001  0.3854046E+03  0.7546771E-02  0.1048996E+00
         21   -1    0    0  502  503  0.00000000000E+00  0.00000000000E+00  0.30456670500E+03  0.30456670500E+03  0.00000000000E+00 0. -1.
         21   -1    0    0  503  504 -0.00000000000E+00 -0.00000000000E+00 -0.63049430967E+03  0.63049430967E+03  0.00000000000E+00 0.  1.
         -6    2    1    2    0  504 -0.34020330609E+03 -0.52478962432E+02 -0.38583886479E+03  0.54502763892E+03  0.17231124929E+03 0.  0.
        -24    2    3    3    0    0 -0.21957154913E+03  0.16691428413E+02 -0.17014837957E+03  0.28835461897E+03  0.75548965846E+02 0.  0.
          6    2    1    2  502    0  0.34020330609E+03  0.52478962432E+02  0.59911260120E+02  0.39003337575E+03  0.17333304399E+03 0.  0.
         24    2    5    5    0    0  0.12894778147E+03  0.72698315959E+02 -0.28330445875E+02  0.16014991046E+03  0.54155370617E+02 0.  0.
          2    1    6    6  501    0  0.74182945246E+02  0.11099288242E+02 -0.95527769840E+01  0.75614542999E+02  0.00000000000E+00 0. -1.
         -1    1    6    6    0  501  0.54764836224E+02  0.61599027716E+02 -0.18777668891E+02  0.84535367458E+02  0.00000000000E+00 0.  1.
          5    1    5    5  502    0  0.21125552462E+03 -0.20219353527E+02  0.88241705995E+02  0.22988346529E+03  0.47000000000E+01 0. -1.
         13    1    4    4    0    0 -0.11605531146E+03  0.34318300053E+02 -0.56309091570E+02  0.13348144002E+03  0.00000000000E+00 0. -1.
        -14    1    4    4    0    0 -0.10351623767E+03 -0.17626871640E+02 -0.11383928800E+03  0.15487317895E+03  0.00000000000E+00 0.  1.
         -5    1    3    3    0  504 -0.12063175696E+03 -0.69170390845E+02 -0.21569048522E+03  0.25667301995E+03  0.47000000000E+01 0.  1.
<mgrwt>
<rscale>  2 0.38528989E+03</rscale>
<asrwt>0</asrwt>
<pdfrwt beam="1">  1       21 0.46856416E-01 0.38540456E+03</pdfrwt>
<pdfrwt beam="2">  1       21 0.96999124E-01 0.38540456E+03</pdfrwt>
<totfact> 0.34362194E+03</totfact>
</mgrwt>
</event>
<event>
12    1  0.1410528E-001  0.2161878E+03  0.7546771E-02  0.1136963E+00
         21   -1    0    0  502  503  0.00000000000E+00  0.00000000000E+00  0.78888794652E+03  0.78888794652E+03  0.00000000000E+00 0.  1.
         21   -1    0    0  503  504 -0.00000000000E+00 -0.00000000000E+00 -0.81200604593E+02  0.81200604593E+02  0.00000000000E+00 0.  1.
         -6    2    1    2    0  504 -0.28334709509E+02 -0.12634846673E+03  0.12546782361E+03  0.24902756567E+03  0.17177241599E+03 0.  0.
        -24    2    3    3    0    0 -0.73200986929E+02 -0.40718868285E+02  0.83008664945E+02  0.14333801494E+03  0.81479674451E+02 0.  0.
          6    2    1    2  502    0  0.28334709509E+02  0.12634846673E+03  0.58221951832E+03  0.62106098544E+03  0.17311958099E+03 0.  0.
         24    2    5    5    0    0  0.16470278127E+02 -0.30378008529E+01  0.28671615654E+03  0.29822062583E+03  0.80304974661E+02 0.  0.
          4    1    6    6  501    0  0.32598701706E+02 -0.25268320877E+02  0.24382967874E+03  0.24729350098E+03  0.00000000000E+00 0. -1.
         -3    1    6    6    0  501 -0.16128423579E+02  0.22230520024E+02  0.42886477806E+02  0.50927124857E+02  0.00000000000E+00 0.  1.
          5    1    5    5  502    0  0.11864431382E+02  0.12938626758E+03  0.29550336177E+03  0.32284035961E+03  0.47000000000E+01 0. -1.
         13    1    4    4    0    0 -0.88706957087E+02 -0.35508504460E+02  0.53266463084E+02  0.10939421472E+03  0.00000000000E+00 0. -1.
        -14    1    4    4    0    0  0.15505970158E+02 -0.52103638247E+01  0.29742201861E+02  0.33943800218E+02  0.00000000000E+00 0.  1.
         -5    1    3    3    0  504  0.44866277420E+02 -0.85629598444E+02  0.42459158663E+02  0.10568955073E+03  0.47000000000E+01 0.  1.
<mgrwt>
<rscale>  2 0.21591801E+03</rscale>
<asrwt>0</asrwt>
<pdfrwt beam="1">  1       21 0.12136737E+00 0.21618784E+03</pdfrwt>
<pdfrwt beam="2">  1       21 0.12492401E-01 0.21618784E+03</pdfrwt>
<totfact> 0.27650299E+04</totfact>
</mgrwt>
</event>
<event>
12    1  0.1410528E-001  0.2067278E+03  0.7546771E-02  0.1144227E+00
         21   -1    0    0  502  503  0.00000000000E+00  0.00000000000E+00  0.31102807349E+03  0.31102807349E+03  0.00000000000E+00 0.  1.
         21   -1    0    0  503  504 -0.00000000000E+00 -0.00000000000E+00 -0.38068447134E+03  0.38068447134E+03  0.00000000000E+00 0.  1.
         -6    2    1    2    0  504 -0.80700065104E+02  0.79001128493E+02 -0.31139677835E+03  0.37377044910E+03  0.17315517966E+03 0.  0.
        -24    2    3    3    0    0 -0.36341352823E+02  0.73594173044E+02 -0.30811155695E+03  0.32871700082E+03  0.79908315372E+02 0.  0.
          6    2    1    2  502    0  0.80700065104E+02 -0.79001128493E+02  0.24174038050E+03  0.31794209574E+03  0.17290195449E+03 0.  0.
         24    2    5    5    0    0  0.97915967403E+02 -0.10848518202E+03  0.17325104986E+03  0.24127022921E+03  0.82697193661E+02 0.  0.
          4    1    6    6  501    0  0.12741400657E+02  0.13441479467E+02  0.12952570821E+02  0.22600569724E+02  0.00000000000E+00 0. -1.
         -3    1    6    6    0  501  0.85174566746E+02 -0.12192666148E+03  0.16029847903E+03  0.21866965949E+03  0.00000000000E+00 0.  1.
          5    1    5    5  502    0 -0.17215902299E+02  0.29484053525E+02  0.68489330645E+02  0.76671866525E+02  0.47000000000E+01 0. -1.
         13    1    4    4    0    0 -0.37901956181E+02  0.68752220040E+01 -0.56334013500E+02  0.68244765638E+02  0.00000000000E+00 0. -1.
        -14    1    4    4    0    0  0.15606033584E+01  0.66718951040E+02 -0.25177754345E+03  0.26047223518E+03  0.00000000000E+00 0.  1.
         -5    1    3    3    0  504 -0.44358712281E+02  0.54069554489E+01 -0.32852213954E+01  0.45053448282E+02  0.47000000000E+01 0.  1.
<mgrwt>
<rscale>  2 0.20667479E+03</rscale>
<asrwt>0</asrwt>
<pdfrwt beam="1">  1       21 0.47850473E-01 0.20672783E+03</pdfrwt>
<pdfrwt beam="2">  1       21 0.58566841E-01 0.20672783E+03</pdfrwt>
<totfact> 0.11286163E+04</totfact>
</mgrwt>
</event>
<event>
12    1  0.1410528E-001  0.2204150E+03  0.7546771E-02  0.1133701E+00
         21   -1    0    0  502  503  0.00000000000E+00  0.00000000000E+00  0.77475927654E+02  0.77475927654E+02  0.00000000000E+00 0. -1.
         21   -1    0    0  503  504 -0.00000000000E+00 -0.00000000000E+00 -0.62532761684E+03  0.62532761684E+03  0.00000000000E+00 0. -1.
         -6    2    1    2    0  504  0.70380697244E+02  0.11642214398E+03 -0.27962174455E+03  0.35562912870E+03  0.17255781351E+03 0.  0.
        -24    2    3    3    0    0  0.42657643593E+02  0.13777002895E+02 -0.59128242664E+02  0.11079435367E+03  0.82278547378E+02 0.  0.
          6    2    1    2  502    0 -0.70380697244E+02 -0.11642214398E+03 -0.26822994464E+03  0.34717441579E+03  0.17342206788E+03 0.  0.
         24    2    5    5    0    0 -0.30704946470E+02  0.10247621339E+02 -0.89111295611E+02  0.12418344047E+03  0.80205338981E+02 0.  0.
          4    1    6    6  501    0 -0.56786246072E+02  0.17494494816E+02 -0.61580941131E+02  0.85574221600E+02  0.00000000000E+00 0. -1.
         -3    1    6    6    0  501  0.26081299602E+02 -0.72468734766E+01 -0.27530354480E+02  0.38609218872E+02  0.00000000000E+00 0.  1.
          5    1    5    5  502    0 -0.39675750774E+02 -0.12666976532E+03 -0.17911864903E+03  0.22299097532E+03  0.47000000000E+01 0. -1.
         11    1    4    4    0    0  0.52935474655E+02  0.36891355019E+02 -0.55753956711E+02  0.85273913015E+02  0.00000000000E+00 0. -1.
        -12    1    4    4    0    0 -0.10277831062E+02 -0.23114352124E+02 -0.33742859535E+01  0.25520440653E+02  0.00000000000E+00 0.  1.
         -5    1    3    3    0  504  0.27723053651E+02  0.10264514108E+03 -0.22049350188E+03  0.24483477503E+03  0.47000000000E+01 0.  1.
<mgrwt>
<rscale>  2 0.22024497E+03</rscale>
<asrwt>0</asrwt>
<pdfrwt beam="1">  1       21 0.11919373E-01 0.22041500E+03</pdfrwt>
<pdfrwt beam="2">  1       21 0.96204253E-01 0.22041500E+03</pdfrwt>
<totfact> 0.52697444E+04</totfact>
</mgrwt>
</event>
<event>
12    1  0.1410528E-001  0.1983012E+03  0.7546771E-02  0.1151199E+00
         21   -1    0    0  502  503  0.00000000000E+00  0.00000000000E+00  0.26757189474E+04  0.26757189474E+04  0.00000000000E+00 0. -1.
         21   -1    0    0  503  504 -0.00000000000E+00 -0.00000000000E+00 -0.21328695383E+02  0.21328695383E+02  0.00000000000E+00 0. -1.
         -6    2    1    2    0  504 -0.11835259673E+02 -0.97417852479E+02  0.57464336427E+03  0.60786826628E+03  0.17221649660E+03 0.  0.
        -24    2    3    3    0    0  0.15417025537E+01 -0.61769112377E+02  0.15699816350E+03  0.18846466650E+03  0.83980397021E+02 0.  0.
          6    2    1    2  502    0  0.11835259673E+02  0.97417852479E+02  0.20797468877E+04  0.20891793765E+04  0.17231668157E+03 0.  0.
         24    2    5    5    0    0  0.99960461447E+01  0.68851738112E+02  0.61721429371E+03  0.62635912637E+03  0.80819478079E+02 0.  0.
          4    1    6    6  501    0 -0.28333909958E+02  0.61134036084E+01  0.10625906761E+03  0.11014160706E+03  0.00000000000E+00 0. -1.
         -3    1    6    6    0  501  0.38329956103E+02  0.62738334504E+02  0.51095522611E+03  0.51621751931E+03  0.00000000000E+00 0.  1.
          5    1    5    5  502    0  0.18392135280E+01  0.28566114366E+02  0.14625325940E+04  0.14628202501E+04  0.47000000000E+01 0. -1.
         13    1    4    4    0    0  0.35470257531E+02 -0.13838560054E+02  0.98383194113E+02  0.10549359126E+03  0.00000000000E+00 0. -1.
        -14    1    4    4    0    0 -0.33928554978E+02 -0.47930552323E+02  0.58614969388E+02  0.82971075233E+02  0.00000000000E+00 0.  1.
         -5    1    3    3    0  504 -0.13376962226E+02 -0.35648740102E+02  0.41764520077E+03  0.41940359978E+03  0.47000000000E+01 0.  1.
<mgrwt>
<rscale>  2 0.19827939E+03</rscale>
<asrwt>0</asrwt>
<pdfrwt beam="1">  1       21 0.41164880E+00 0.19830116E+03</pdfrwt>
<pdfrwt beam="2">  1       21 0.32813399E-02 0.19830116E+03</pdfrwt>
<totfact> 0.39850103E+03</totfact>
</mgrwt>
</event>
<event>
12    1  0.1410528E-001  0.2116815E+03  0.7546771E-02  0.1140489E+00
         21   -1    0    0  502  503  0.00000000000E+00  0.00000000000E+00  0.90514075973E+03  0.90514075973E+03  0.00000000000E+00 0. -1.
         21   -1    0    0  503  504 -0.00000000000E+00 -0.00000000000E+00 -0.58892301750E+02  0.58892301750E+02  0.00000000000E+00 0.  1.
         -6    2    1    2    0  504 -0.55771418525E+02 -0.10652928335E+03  0.22662736380E+03  0.30925115551E+03  0.17267708541E+03 0.  0.
        -24    2    3    3    0    0 -0.48417503871E+02 -0.12126118640E+03  0.10386119493E+03  0.18529660236E+03  0.80617324588E+02 0.  0.
          6    2    1    2  502    0  0.55771418525E+02  0.10652928335E+03  0.61962109418E+03  0.65478190597E+03  0.17421281440E+03 0.  0.
         24    2    5    5    0    0 -0.32383463036E+02  0.35358942247E+02  0.22930317371E+03  0.24832567262E+03  0.82381737849E+02 0.  0.
          4    1    6    6  501    0  0.10287865954E+02  0.24687607321E+02  0.17404147402E+02  0.31909598680E+02  0.00000000000E+00 0. -1.
         -3    1    6    6    0  501 -0.42671328990E+02  0.10671334926E+02  0.21189902631E+03  0.21641607394E+03  0.00000000000E+00 0.  1.
          5    1    5    5  502    0  0.88154881560E+02  0.71170341103E+02  0.39031792047E+03  0.40645623336E+03  0.47000000000E+01 0. -1.
         11    1    4    4    0    0  0.59476630477E+01 -0.18572184689E+01  0.37977708951E+02  0.38485456128E+02  0.00000000000E+00 0. -1.
        -12    1    4    4    0    0 -0.54365166918E+02 -0.11940396793E+03  0.65883485980E+02  0.14681114623E+03  0.00000000000E+00 0.  1.
         -5    1    3    3    0  504 -0.73539146539E+01  0.14731903050E+02  0.12276616887E+03  0.12395455315E+03  0.47000000000E+01 0.  1.
<mgrwt>
<rscale>  2 0.21136524E+03</rscale>
<asrwt>0</asrwt>
<pdfrwt beam="1">  1       21 0.13925241E+00 0.21168147E+03</pdfrwt>
<pdfrwt beam="2">  1       21 0.90603548E-02 0.21168147E+03</pdfrwt>
<totfact> 0.34637856E+04</totfact>
</mgrwt>
</event>
<event>
12    1  0.1410528E-001  0.1951135E+03  0.7546771E-02  0.1156684E+00
         21   -1    0    0  502  503  0.00000000000E+00  0.00000000000E+00  0.54830433391E+02  0.54830433391E+02  0.00000000000E+00 0. -1.
         21   -1    0    0  503  504 -0.00000000000E+00 -0.00000000000E+00 -0.95013999883E+03  0.95013999883E+03  0.00000000000E+00 0. -1.
         -6    2    1    2    0  504 -0.43481952192E+02 -0.41918534613E+02 -0.73918852009E+03  0.76450570006E+03  0.18553019561E+03 0.  0.
        -24    2    3    3    0    0  0.86393756607E+01 -0.22578488407E+02 -0.67289834970E+03  0.67786190689E+03  0.78231380136E+02 0.  0.
          6    2    1    2  502    0  0.43481952192E+02  0.41918534613E+02 -0.15612104535E+03  0.24046473216E+03  0.17263158141E+03 0.  0.
         24    2    5    5    0    0 -0.24112385848E+02  0.70375534886E+02 -0.90097233129E+02  0.14167187219E+03  0.80120439914E+02 0.  0.
          4    1    6    6  501    0  0.29880467936E+01  0.54452497146E+02 -0.97551502602E+01  0.55400052579E+02  0.00000000000E+00 0. -1.
         -3    1    6    6    0  501 -0.27100432642E+02  0.15923037739E+02 -0.80342082868E+02  0.86271819616E+02  0.00000000000E+00 0.  1.
          5    1    5    5  502    0  0.67594338040E+02 -0.28457000273E+02 -0.66023812221E+02  0.98792859964E+02  0.47000000000E+01 0. -1.
         13    1    4    4    0    0  0.33426168462E+02  0.10366484888E+02 -0.43604259151E+03  0.43744475578E+03  0.00000000000E+00 0. -1.
        -14    1    4    4    0    0 -0.24786792801E+02 -0.32944973296E+02 -0.23685575819E+03  0.24041715112E+03  0.00000000000E+00 0.  1.
         -5    1    3    3    0  504 -0.52121327853E+02 -0.19340046205E+02 -0.66290170391E+02  0.86643793169E+02  0.47000000000E+01 0.  1.
<mgrwt>
<rscale>  2 0.19198367E+03</rscale>
<asrwt>0</asrwt>
<pdfrwt beam="1">  1       21 0.84354518E-02 0.19511355E+03</pdfrwt>
<pdfrwt beam="2">  1       21 0.14617538E+00 0.19511355E+03</pdfrwt>
<totfact> 0.34943700E+04</totfact>
</mgrwt>
</event>
<event>
12    1  0.1410528E-001  0.1952512E+03  0.7546771E-02  0.1153966E+00
         21   -1    0    0  502  503  0.00000000000E+00  0.00000000000E+00  0.70264857752E+02  0.70264857752E+02  0.00000000000E+00 0. -1.
         21   -1    0    0  503  504 -0.00000000000E+00 -0.00000000000E+00 -0.54709674103E+03  0.54709674103E+03  0.00000000000E+00 0. -1.
         -6    2    1    2    0  504 -0.22374514364E+02  0.87227985337E+02 -0.27173440221E+03  0.33418675076E+03  0.17242928614E+03 0.  0.
        -24    2    3    3    0    0 -0.12788691331E+02  0.73820715873E+02 -0.28954357471E+03  0.30947036949E+03  0.79519678161E+02 0.  0.
          6    2    1    2  502    0  0.22374514364E+02 -0.87227985337E+02 -0.20509748107E+03  0.28317484803E+03  0.17324455979E+03 0.  0.
         24    2    5    5    0    0 -0.13432735827E+01  0.18316237715E+02 -0.58520708832E+02  0.10094160012E+03  0.80170096195E+02 0.  0.
          4    1    6    6  501    0  0.26506754285E+02 -0.14543901426E+02 -0.47789313391E+02  0.56550433825E+02  0.00000000000E+00 0. -1.
         -3    1    6    6    0  501 -0.27850027868E+02  0.32860139141E+02 -0.10731395441E+02  0.44391166292E+02  0.00000000000E+00 0.  1.
          5    1    5    5  502    0  0.23717787947E+02 -0.10554422305E+03 -0.14657677224E+03  0.18223324791E+03  0.47000000000E+01 0. -1.
         11    1    4    4    0    0 -0.16685981450E+02  0.20511532674E+02 -0.22086818901E+03  0.22244527836E+03  0.00000000000E+00 0. -1.
        -12    1    4    4    0    0  0.38972901197E+01  0.53309183199E+02 -0.68675385703E+02  0.87025091124E+02  0.00000000000E+00 0.  1.
         -5    1    3    3    0  504 -0.95858230335E+01  0.13407269463E+02  0.17809172504E+02  0.24716381268E+02  0.47000000000E+01 0.  1.
<mgrwt>
<rscale>  2 0.19507016E+03</rscale>
<asrwt>0</asrwt>
<pdfrwt beam="1">  1       21 0.10809978E-01 0.19525117E+03</pdfrwt>
<pdfrwt beam="2">  1       21 0.84168732E-01 0.19525117E+03</pdfrwt>
<totfact> 0.86531917E+04</totfact>
</mgrwt>
</event>
<event>
12    1  0.1410528E-001  0.2899915E+03  0.7546771E-02  0.1090440E+00
         21   -1    0    0  502  503  0.00000000000E+00  0.00000000000E+00  0.63979516409E+02  0.63979516409E+02  0.00000000000E+00 0. -1.
         21   -1    0    0  503  504 -0.00000000000E+00 -0.00000000000E+00 -0.13782277327E+04  0.13782277327E+04  0.00000000000E+00 0. -1.
         -6    2    1    2    0  504  0.20683773566E+03  0.10733818436E+03 -0.49907022634E+03  0.57720547064E+03  0.17260280940E+03 0.  0.
        -24    2    3    3    0    0  0.21476890872E+03  0.11414565961E+03 -0.38524189156E+03  0.46280169001E+03  0.81358303237E+02 0.  0.
          6    2    1    2  502    0 -0.20683773566E+03 -0.10733818436E+03 -0.81517799000E+03  0.86500177851E+03  0.17149223518E+03 0.  0.
         24    2    5    5    0    0 -0.14145489009E+03 -0.39759497453E+01 -0.38615000512E+03  0.41885632033E+03  0.79394562301E+02 0.  0.
          4    1    6    6  501    0 -0.14495654026E+03  0.11507311239E+02 -0.36008951797E+03  0.38834170228E+03  0.00000000000E+00 0. -1.
         -3    1    6    6    0  501  0.35016501692E+01 -0.15483260985E+02 -0.26060487145E+02  0.30514618052E+02  0.00000000000E+00 0.  1.
          5    1    5    5  502    0 -0.65382845569E+02 -0.10336223462E+03 -0.42902798488E+03  0.44614545818E+03  0.47000000000E+01 0. -1.
         13    1    4    4    0    0  0.12562667711E+03  0.96375495229E+02 -0.18919829643E+03  0.24671095122E+03  0.00000000000E+00 0. -1.
        -14    1    4    4    0    0  0.89142231611E+02  0.17770164381E+02 -0.19604359513E+03  0.21609073879E+03  0.00000000000E+00 0.  1.
         -5    1    3    3    0  504 -0.79311730585E+01 -0.68074752495E+01 -0.11382833478E+03  0.11440378063E+03  0.47000000000E+01 0.  1.
<mgrwt>
<rscale>  2 0.28982644E+03</rscale>
<asrwt>0</asrwt>
<pdfrwt beam="1">  1       21 0.98430024E-02 0.28999149E+03</pdfrwt>
<pdfrwt beam="2">  1       21 0.21203504E+00 0.28999149E+03</pdfrwt>
<totfact> 0.87595241E+03</totfact>
</mgrwt>
</event>
<event>
12    1  0.1410528E-001  0.1820686E+03  0.7546771E-02  0.1167823E+00
         21   -1    0    0  502  503  0.00000000000E+00  0.00000000000E+00  0.52551749163E+03  0.52551749163E+03  0.00000000000E+00 0.  1.
         21   -1    0    0  503  504 -0.00000000000E+00 -0.00000000000E+00 -0.75798211928E+02  0.75798211928E+02  0.00000000000E+00 0.  1.
         -6    2    1    2    0  504 -0.51381427022E+02 -0.20336434850E+02  0.35680992026E+03  0.39691140991E+03  0.16483848608E+03 0.  0.
        -24    2    3    3    0    0 -0.60470823770E+02  0.32873041042E+02  0.29944749706E+03  0.31800384973E+03  0.81977360244E+02 0.  0.
          6    2    1    2  502    0  0.51381427022E+02  0.20336434850E+02  0.92909359435E+02  0.20440429364E+03  0.17348009847E+03 0.  0.
         24    2    5    5    0    0  0.28702604986E+02 -0.28870354012E+02 -0.69867480477E+01  0.90663538726E+02  0.80707655971E+02 0.  0.
          4    1    6    6  501    0  0.53523550725E+02 -0.12625438430E+02 -0.19665892511E+02  0.58403077881E+02  0.00000000000E+00 0. -1.
         -3    1    6    6    0  501 -0.24820945739E+02 -0.16244915581E+02  0.12679144464E+02  0.32260460845E+02  0.00000000000E+00 0.  1.
          5    1    5    5  502    0  0.22678822036E+02  0.49206788861E+02  0.99896107483E+02  0.11374075492E+03  0.47000000000E+01 0. -1.
         11    1    4    4    0    0  0.34219585725E+00  0.14084273453E+02  0.24963231218E+01  0.14307881948E+02  0.00000000000E+00 0. -1.
        -12    1    4    4    0    0 -0.60813019628E+02  0.18788767589E+02  0.29695117394E+03  0.30369596778E+03  0.00000000000E+00 0.  1.
         -5    1    3    3    0  504  0.90893967479E+01 -0.53209475891E+02  0.57362423200E+02  0.78907560178E+02  0.47000000000E+01 0.  1.
<mgrwt>
<rscale>  2 0.17997934E+03</rscale>
<asrwt>0</asrwt>
<pdfrwt beam="1">  1       21 0.80848843E-01 0.18206858E+03</pdfrwt>
<pdfrwt beam="2">  1       21 0.11661264E-01 0.18206858E+03</pdfrwt>
<totfact> 0.83308725E+04</totfact>
</mgrwt>
</event>
<event>
12    1  0.1410528E-001  0.2386475E+03  0.7546771E-02  0.1120762E+00
         21   -1    0    0  502  503  0.00000000000E+00  0.00000000000E+00  0.76023496895E+03  0.76023496895E+03  0.00000000000E+00 0. -1.
         21   -1    0    0  503  504 -0.00000000000E+00 -0.00000000000E+00 -0.74963014552E+02  0.74963014552E+02  0.00000000000E+00 0.  1.
         -6    2    1    2    0  504  0.77797677854E+02  0.14530636192E+03  0.36273614771E+03  0.43420058665E+03  0.17258684509E+03 0.  0.
        -24    2    3    3    0    0  0.32280542796E+02  0.16400239392E+03  0.31563172812E+03  0.36591978744E+03  0.79593243354E+02 0.  0.
          6    2    1    2  502    0 -0.77797677854E+02 -0.14530636192E+03  0.32253580669E+03  0.40099739685E+03  0.17205565434E+03 0.  0.
         24    2    5    5    0    0 -0.97635178479E+02 -0.57827483978E+02  0.24848005577E+03  0.28458251480E+03  0.79801150596E+02 0.  0.
          2    1    6    6  501    0 -0.10937874923E+03 -0.41049875866E+02  0.22424841396E+03  0.25285599510E+03  0.00000000000E+00 0. -1.
         -1    1    6    6    0  501  0.11743570752E+02 -0.16777608112E+02  0.24231641806E+02  0.31726519705E+02  0.00000000000E+00 0.  1.
          5    1    5    5  502    0  0.19837500625E+02 -0.87478877945E+02  0.74055750917E+02  0.11641488204E+03  0.47000000000E+01 0. -1.
         11    1    4    4    0    0  0.43278817833E+02  0.36318556721E+02  0.84787794577E+02  0.10188750534E+03  0.00000000000E+00 0. -1.
        -12    1    4    4    0    0 -0.10998275037E+02  0.12768383720E+03  0.23084393355E+03  0.26403228210E+03  0.00000000000E+00 0.  1.
         -5    1    3    3    0  504  0.45517135058E+02 -0.18696031999E+02  0.47104419584E+02  0.68280799209E+02  0.47000000000E+01 0.  1.
<mgrwt>
<rscale>  2 0.23855149E+03</rscale>
<asrwt>0</asrwt>
<pdfrwt beam="1">  1       21 0.11695922E+00 0.23864752E+03</pdfrwt>
<pdfrwt beam="2">  1       21 0.11532772E-01 0.23864752E+03</pdfrwt>
<totfact> 0.34582079E+04</totfact>
</mgrwt>
</event>
<event>
12    1  0.1410528E-001  0.1966375E+03  0.7546771E-02  0.1153522E+00
         21   -1    0    0  502  503  0.00000000000E+00  0.00000000000E+00  0.25994220816E+03  0.25994220816E+03  0.00000000000E+00 0.  1.
         21   -1    0    0  503  504 -0.00000000000E+00 -0.00000000000E+00 -0.14717187102E+03  0.14717187102E+03  0.00000000000E+00 0.  1.
         -6    2    1    2    0  504  0.47339934950E+02 -0.67760748869E+02  0.34714047006E+02  0.19555067557E+03  0.17378841483E+03 0.  0.
        -24    2    3    3    0    0  0.65142294249E+02 -0.44527234010E+02  0.81711839018E+02  0.13998447484E+03  0.81808529461E+02 0.  0.
          6    2    1    2  502    0 -0.47339934950E+02  0.67760748869E+02  0.78056290134E+02  0.21156340361E+03  0.17842001230E+03 0.  0.
         24    2    5    5    0    0 -0.95084007751E+02  0.55635393417E+02  0.24433883080E+02  0.13859784138E+03  0.80474104300E+02 0.  0.
          2    1    6    6  501    0 -0.33252739575E+02  0.27233273976E+02  0.49978348791E+02  0.65918368067E+02  0.00000000000E+00 0. -1.
         -1    1    6    6    0  501 -0.61831268176E+02  0.28402119441E+02 -0.25544465711E+02  0.72679473316E+02  0.00000000000E+00 0.  1.
          5    1    5    5  502    0  0.47744072802E+02  0.12125355452E+02  0.53622407054E+02  0.72965562225E+02  0.47000000000E+01 0. -1.
         13    1    4    4    0    0  0.76431445059E+01 -0.32402711829E+02 -0.65693466083E+01  0.33933902025E+02  0.00000000000E+00 0. -1.
        -14    1    4    4    0    0  0.57499149744E+02 -0.12124522181E+02  0.88281185626E+02  0.10605057282E+03  0.00000000000E+00 0.  1.
         -5    1    3    3    0  504 -0.17802359300E+02 -0.23233514859E+02 -0.46997792012E+02  0.55566200728E+02  0.47000000000E+01 0.  1.
<mgrwt>
<rscale>  2 0.19558081E+03</rscale>
<asrwt>0</asrwt>
<pdfrwt beam="1">  1       21 0.39991109E-01 0.19663746E+03</pdfrwt>
<pdfrwt beam="2">  1       21 0.22641826E-01 0.19663746E+03</pdfrwt>
<totfact> 0.11001091E+05</totfact>
</mgrwt>
</event>
<event>
12    1  0.1410528E-001  0.1854933E+03  0.7546771E-02  0.1162834E+00
         21   -1    0    0  502  503  0.00000000000E+00  0.00000000000E+00  0.18389672705E+03  0.18389672705E+03  0.00000000000E+00 0.  1.
         21   -1    0    0  503  504 -0.00000000000E+00 -0.00000000000E+00 -0.22294195332E+03  0.22294195332E+03  0.00000000000E+00 0. -1.
         -6    2    1    2    0  504  0.21947691033E+02 -0.59431120506E+02  0.63178241925E+02  0.19595732303E+03  0.17433881659E+03 0.  0.
        -24    2    3    3    0    0 -0.70847632049E+01 -0.65775447177E+01 -0.28458440253E+02  0.86158619058E+02  0.80746311694E+02 0.  0.
          6    2    1    2  502    0 -0.21947691033E+02  0.59431120506E+02 -0.10222346820E+03  0.21088135734E+03  0.17322687492E+03 0.  0.
         24    2    5    5    0    0 -0.32272176697E+02 -0.30779650188E+02 -0.48896031560E+02  0.10547507834E+03  0.82129714441E+02 0.  0.
          2    1    6    6  501    0 -0.36166759608E+02  0.83406996796E+00 -0.61392733909E+02  0.71258669298E+02  0.00000000000E+00 0. -1.
         -1    1    6    6    0  501  0.38945829111E+01 -0.31613720156E+02  0.12496702349E+02  0.34216409043E+02  0.00000000000E+00 0.  1.
          5    1    5    5  502    0  0.10324485664E+02  0.90210770694E+02 -0.53327436639E+02  0.10540627900E+03  0.47000000000E+01 0. -1.
         11    1    4    4    0    0  0.17107069952E+02 -0.37747784120E+02 -0.18961857161E+02  0.45575202417E+02  0.00000000000E+00 0. -1.
        -12    1    4    4    0    0 -0.24191833157E+02  0.31170239402E+02 -0.94965830919E+01  0.40583416642E+02  0.00000000000E+00 0.  1.
         -5    1    3    3    0  504  0.29032454238E+02 -0.52853575788E+02  0.91636682178E+02  0.10979870397E+03  0.47000000000E+01 0.  1.
<mgrwt>
<rscale>  2 0.18523162E+03</rscale>
<asrwt>0</asrwt>
<pdfrwt beam="1">  1       21 0.28291804E-01 0.18549335E+03</pdfrwt>
<pdfrwt beam="2">  1       21 0.34298762E-01 0.18549335E+03</pdfrwt>
<totfact> 0.98083484E+04</totfact>
</mgrwt>
</event>
<event>
12    1  0.1410528E-001  0.1824499E+03  0.7546771E-02  0.1165827E+00
         21   -1    0    0  502  503  0.00000000000E+00  0.00000000000E+00  0.26062303505E+03  0.26062303505E+03  0.00000000000E+00 0.  1.
         21   -1    0    0  503  504 -0.00000000000E+00 -0.00000000000E+00 -0.13270436091E+03  0.13270436091E+03  0.00000000000E+00 0. -1.
         -6    2    1    2    0  504 -0.30578701855E+02  0.49928503095E+02  0.22152420701E+02  0.18378982103E+03  0.17280062541E+03 0.  0.
        -24    2    3    3    0    0  0.44774181728E+02  0.52794764970E+02  0.22117271078E+02  0.10823610665E+03  0.80211386626E+02 0.  0.
          6    2    1    2  502    0  0.30578701855E+02 -0.49928503095E+02  0.10576625344E+03  0.20953757494E+03  0.17114783818E+03 0.  0.
         24    2    5    5    0    0 -0.20117928690E+01  0.12975147384E+02  0.11699125219E+01  0.83119640592E+02  0.82067680585E+02 0.  0.
          2    1    6    6  501    0 -0.81320268322E+01  0.29261334694E+02 -0.32955287324E+02  0.44815248868E+02  0.00000000000E+00 0. -1.
         -1    1    6    6    0  501  0.61202339631E+01 -0.16286187309E+02  0.34125199846E+02  0.38304391724E+02  0.00000000000E+00 0.  1.
          5    1    5    5  502    0  0.32590494724E+02 -0.62903650479E+02  0.10459634092E+03  0.12641793434E+03  0.47000000000E+01 0. -1.
         13    1    4    4    0    0  0.22677060306E+01 -0.13279514822E+02 -0.15996312937E+02  0.20913393606E+02  0.00000000000E+00 0. -1.
        -14    1    4    4    0    0  0.42506475698E+02  0.66074279792E+02  0.38113584015E+02  0.87322713040E+02  0.00000000000E+00 0.  1.
         -5    1    3    3    0  504 -0.75352883583E+02 -0.28662618752E+01  0.35149622979E-01  0.75553714382E+02  0.47000000000E+01 0.  1.
<mgrwt>
<rscale>  2 0.18205749E+03</rscale>
<asrwt>0</asrwt>
<pdfrwt beam="1">  1       21 0.40095851E-01 0.18244991E+03</pdfrwt>
<pdfrwt beam="2">  1       21 0.20416056E-01 0.18244991E+03</pdfrwt>
<totfact> 0.13360298E+05</totfact>
</mgrwt>
</event>
<event>
12    1  0.1410528E-001  0.1816522E+03  0.7546771E-02  0.1166995E+00
         21   -1    0    0  502  503  0.00000000000E+00  0.00000000000E+00  0.10286507014E+03  0.10286507014E+03  0.00000000000E+00 0.  1.
         21   -1    0    0  503  504 -0.00000000000E+00 -0.00000000000E+00 -0.32692594821E+03  0.32692594821E+03  0.00000000000E+00 0.  1.
         -6    2    1    2    0  504 -0.18032331929E+02  0.36552687482E+02 -0.70179095863E+02  0.19172144893E+03  0.17369727841E+03 0.  0.
        -24    2    3    3    0    0 -0.62920460522E+02 -0.23166867654E+02 -0.53734191101E+02  0.11508011382E+03  0.76553126618E+02 0.  0.
          6    2    1    2  502    0  0.18032331929E+02 -0.36552687482E+02 -0.15388178222E+03  0.23806956942E+03  0.17702048760E+03 0.  0.
         24    2    5    5    0    0  0.60637884940E+02  0.22536173818E+02 -0.11371591150E+03  0.15475022085E+03  0.82652828760E+02 0.  0.
          4    1    6    6  501    0  0.74981404933E+02  0.26355466154E+02 -0.11506521381E+03  0.13984571896E+03  0.00000000000E+00 0. -1.
         -3    1    6    6    0  501 -0.14343519994E+02 -0.38192923356E+01  0.13493023067E+01  0.14904501886E+02  0.00000000000E+00 0.  1.
          5    1    5    5  502    0 -0.42605553011E+02 -0.59088861300E+02 -0.40165870711E+02  0.83319348576E+02  0.47000000000E+01 0. -1.
         11    1    4    4    0    0 -0.10755319883E+02  0.14761627724E+02  0.12887661604E+02  0.22353397515E+02  0.00000000000E+00 0. -1.
        -12    1    4    4    0    0 -0.52165140639E+02 -0.37928495378E+02 -0.66621852705E+02  0.92726716308E+02  0.00000000000E+00 0.  1.
         -5    1    3    3    0  504  0.44888128593E+02  0.59719555136E+02 -0.16444904762E+02  0.76641335106E+02  0.47000000000E+01 0.  1.
<mgrwt>
<rscale>  2 0.18083749E+03</rscale>
<asrwt>0</asrwt>
<pdfrwt beam="1">  1       21 0.15825395E-01 0.18165219E+03</pdfrwt>
<pdfrwt beam="2">  1       21 0.50296300E-01 0.18165219E+03</pdfrwt>
<totfact> 0.13439702E+05</totfact>
</mgrwt>
</event>
<event>
12    1  0.1410528E-001  0.1890160E+03  0.7546771E-02  0.1160507E+00
         21   -1    0    0  502  503  0.00000000000E+00  0.00000000000E+00  0.97352241948E+03  0.97352241948E+03  0.00000000000E+00 0. -1.
         21   -1    0    0  503  504 -0.00000000000E+00 -0.00000000000E+00 -0.37449102823E+02  0.37449102823E+02  0.00000000000E+00 0. -1.
         -6    2    1    2    0  504  0.64718277765E+02 -0.26363179967E+02  0.35379836750E+03  0.39878596994E+03  0.17021601639E+03 0.  0.
        -24    2    3    3    0    0  0.78468822334E+02  0.26760624018E+02  0.15956773560E+03  0.19689777217E+03  0.80208374665E+02 0.  0.
          6    2    1    2  502    0 -0.64718277765E+02  0.26363179967E+02  0.58227494915E+03  0.61218555237E+03  0.17562335089E+03 0.  0.
         24    2    5    5    0    0 -0.84643842321E+02 -0.28789374746E+02  0.28481054082E+03  0.30895956958E+03  0.79659044239E+02 0.  0.
          2    1    6    6  501    0 -0.58763544328E+02 -0.49509149349E+02  0.24698501782E+03  0.25866176571E+03  0.00000000000E+00 0. -1.
         -1    1    6    6    0  501 -0.25880297992E+02  0.20719774603E+02  0.37825523003E+02  0.50297803871E+02  0.00000000000E+00 0.  1.
          5    1    5    5  502    0  0.19925564556E+02  0.55152554714E+02  0.29746440833E+03  0.30322598279E+03  0.47000000000E+01 0. -1.
         13    1    4    4    0    0  0.79683123418E+02 -0.70084567846E+00  0.80852745844E+02  0.11352117799E+03  0.00000000000E+00 0. -1.
        -14    1    4    4    0    0 -0.12143010846E+01  0.27461469697E+02  0.78714989754E+02  0.83376594180E+02  0.00000000000E+00 0.  1.
         -5    1    3    3    0  504 -0.13750544569E+02 -0.53123803986E+02  0.19423063191E+03  0.20188819776E+03  0.47000000000E+01 0.  1.
<mgrwt>
<rscale>  2 0.18774997E+03</rscale>
<asrwt>0</asrwt>
<pdfrwt beam="1">  1       21 0.14977266E+00 0.18901596E+03</pdfrwt>
<pdfrwt beam="2">  1       21 0.57614012E-02 0.18901596E+03</pdfrwt>
<totfact> 0.63546099E+04</totfact>
</mgrwt>
</event>
<event>
12    1  0.1410528E-001  0.3048073E+03  0.7546771E-02  0.1082911E+00
         21   -1    0    0  502  503  0.00000000000E+00  0.00000000000E+00  0.17297478006E+03  0.17297478006E+03  0.00000000000E+00 0.  1.
         21   -1    0    0  503  504 -0.00000000000E+00 -0.00000000000E+00 -0.59141107298E+03  0.59141107298E+03  0.00000000000E+00 0.  1.
         -6    2    1    2    0  504 -0.16682035367E+02  0.25026150768E+03 -0.32564039537E+03  0.44576605511E+03  0.17250100366E+03 0.  0.
        -24    2    3    3    0    0 -0.48404784428E+02  0.89792092995E+02 -0.20240171428E+03  0.24090847440E+03  0.81638201699E+02 0.  0.
          6    2    1    2  502    0  0.16682035367E+02 -0.25026150768E+03 -0.92795897551E+02  0.31861979792E+03  0.17320041714E+03 0.  0.
         24    2    5    5    0    0  0.18079437118E+02 -0.41493416187E+02 -0.51255179167E+02  0.10570246645E+03  0.80606131213E+02 0.  0.
          2    1    6    6  501    0 -0.21350064016E+02 -0.92749084416E+01 -0.49561300012E+02  0.54755562447E+02  0.00000000000E+00 0. -1.
         -1    1    6    6    0  501  0.39429501133E+02 -0.32218507745E+02 -0.16938791551E+01  0.50946904004E+02  0.00000000000E+00 0.  1.
          5    1    5    5  502    0 -0.13974017510E+01 -0.20876809149E+03 -0.41540718384E+02  0.21291733147E+03  0.47000000000E+01 0. -1.
         11    1    4    4    0    0  0.49730358088E+00  0.33168845304E+02 -0.13880551088E+03  0.14271436319E+03  0.00000000000E+00 0. -1.
        -12    1    4    4    0    0 -0.48902088009E+02  0.56623247691E+02 -0.63596203400E+02  0.98194111217E+02  0.00000000000E+00 0.  1.
         -5    1    3    3    0  504  0.31722749062E+02  0.16046941469E+03 -0.12323868109E+03  0.20485758071E+03  0.47000000000E+01 0.  1.
<mgrwt>
<rscale>  2 0.30470804E+03</rscale>
<asrwt>0</asrwt>
<pdfrwt beam="1">  1       21 0.26611504E-01 0.30480731E+03</pdfrwt>
<pdfrwt beam="2">  1       21 0.90986320E-01 0.30480731E+03</pdfrwt>
<totfact> 0.12955461E+04</totfact>
</mgrwt>
</event>
<event>
12    1  0.1410528E-001  0.1782060E+03  0.7546771E-02  0.1169642E+00
         21   -1    0    0  502  503  0.00000000000E+00  0.00000000000E+00  0.84527054453E+02  0.84527054453E+02  0.00000000000E+00 0. -1.
         21   -1    0    0  503  504 -0.00000000000E+00 -0.00000000000E+00 -0.54181433535E+03  0.54181433535E+03  0.00000000000E+00 0. -1.
         -6    2    1    2    0  504 -0.41205720580E+02 -0.35446450607E+01 -0.54999232491E+02  0.18650011205E+03  0.17334041740E+03 0.  0.
        -24    2    3    3    0    0 -0.60951737546E+02  0.31574519005E+02 -0.85496216098E+02  0.13575154676E+03  0.80042581912E+02 0.  0.
          6    2    1    2  502    0  0.41205720580E+02  0.35446450607E+01 -0.40228804840E+03  0.43984127775E+03  0.17295721958E+03 0.  0.
         24    2    5    5    0    0  0.47347210385E+01  0.26549701596E+02 -0.89119380206E+02  0.12368297693E+03  0.81411980793E+02 0.  0.
          2    1    6    6  501    0 -0.23759213251E+02  0.43286605943E+02 -0.69488532697E+02  0.85246035947E+02  0.00000000000E+00 0. -1.
         -1    1    6    6    0  501  0.28493934289E+02 -0.16736904347E+02 -0.19630847510E+02  0.38436940986E+02  0.00000000000E+00 0.  1.
          5    1    5    5  502    0  0.36470999542E+02 -0.23005056535E+02 -0.31316866820E+03  0.31615830082E+03  0.47000000000E+01 0. -1.
         13    1    4    4    0    0  0.11339080124E+02  0.19462098609E+02  0.78595203297E+00  0.22538095326E+02  0.00000000000E+00 0. -1.
        -14    1    4    4    0    0 -0.72290817669E+02  0.12112420396E+02 -0.86282168131E+02  0.11321345143E+03  0.00000000000E+00 0.  1.
         -5    1    3    3    0  504  0.19746016965E+02 -0.35119164066E+02  0.30496983607E+02  0.50748565298E+02  0.47000000000E+01 0.  1.
<mgrwt>
<rscale>  2 0.17811274E+03</rscale>
<asrwt>0</asrwt>
<pdfrwt beam="1">  1       21 0.13004162E-01 0.17820599E+03</pdfrwt>
<pdfrwt beam="2">  1       21 0.83356052E-01 0.17820599E+03</pdfrwt>
<totfact> 0.64069323E+04</totfact>
</mgrwt>
</event>
<event>
12    1  0.1410528E-001  0.2376497E+03  0.7546771E-02  0.1121447E+00
         21   -1    0    0  502  503  0.00000000000E+00  0.00000000000E+00  0.19271017459E+03  0.19271017459E+03  0.00000000000E+00 0.  1.
         21   -1    0    0  503  504 -0.00000000000E+00 -0.00000000000E+00 -0.29816291492E+03  0.29816291492E+03  0.00000000000E+00 0. -1.
         -6    2    1    2    0  504 -0.30564999091E+02 -0.15919022626E+03 -0.18842910127E+02  0.23793305379E+03  0.17315119266E+03 0.  0.
        -24    2    3    3    0    0 -0.72050615821E+02 -0.66257887985E+02  0.21934436929E+02  0.12819537601E+03  0.79821901415E+02 0.  0.
          6    2    1    2  502    0  0.30564999091E+02  0.15919022626E+03 -0.86609830201E+02  0.25294003571E+03  0.17378622405E+03 0.  0.
         24    2    5    5    0    0  0.72972067773E+02  0.14212391207E+03 -0.30111306183E+02  0.18011289948E+03  0.77523136826E+02 0.  0.
          2    1    6    6  501    0  0.29331300723E+02  0.29956971865E+02 -0.41782787686E+02  0.59190765430E+02  0.00000000000E+00 0. -1.
         -1    1    6    6    0  501  0.43640767051E+02  0.11216694020E+03  0.11671481503E+02  0.12092213405E+03  0.00000000000E+00 0.  1.
          5    1    5    5  502    0 -0.42407068683E+02  0.17066314197E+02 -0.56498524018E+02  0.72827136225E+02  0.47000000000E+01 0. -1.
         11    1    4    4    0    0 -0.34366591340E+02 -0.67040109287E+02 -0.13415033626E+02  0.76520598408E+02  0.00000000000E+00 0. -1.
        -12    1    4    4    0    0 -0.37684024481E+02  0.78222130227E+00  0.35349470556E+02  0.51674777598E+02  0.00000000000E+00 0.  1.
         -5    1    3    3    0  504  0.41485616730E+02 -0.92932338279E+02 -0.40777347057E+02  0.10973767779E+03  0.47000000000E+01 0.  1.
<mgrwt>
<rscale>  2 0.23753366E+03</rscale>
<asrwt>0</asrwt>
<pdfrwt beam="1">  1       21 0.29647719E-01 0.23764974E+03</pdfrwt>
<pdfrwt beam="2">  1       21 0.45871218E-01 0.23764974E+03</pdfrwt>
<totfact> 0.48657277E+04</totfact>
</mgrwt>
</event>
<event>
12    1  0.1410528E-001  0.2179661E+03  0.7546771E-02  0.1135432E+00
         21   -1    0    0  502  503  0.00000000000E+00  0.00000000000E+00  0.31421243878E+03  0.31421243878E+03  0.00000000000E+00 0. -1.
         21   -1    0    0  503  504 -0.00000000000E+00 -0.00000000000E+00 -0.21619424610E+03  0.21619424610E+03  0.00000000000E+00 0.  1.
         -6    2    1    2    0  504  0.74150316753E+02  0.11015505771E+03 -0.96487112683E+02  0.23836728407E+03  0.17284904682E+03 0.  0.
        -24    2    3    3    0    0 -0.68933277071E+01  0.27653423334E+02 -0.41874843931E+02  0.11038610623E+03  0.98078336574E+02 0.  0.
          6    2    1    2  502    0 -0.74150316753E+02 -0.11015505771E+03  0.19450530536E+03  0.29203940081E+03  0.17269131883E+03 0.  0.
         24    2    5    5    0    0 -0.38157456478E+02  0.86104188682E+01  0.51087538265E+02  0.10232522017E+03  0.79563706039E+02 0.  0.
          2    1    6    6  501    0 -0.25570728982E+02  0.43276874801E+02  0.38635366110E+02  0.63399066142E+02  0.00000000000E+00 0. -1.
         -1    1    6    6    0  501 -0.12586727496E+02 -0.34666455932E+02  0.12452172155E+02  0.38926154027E+02  0.00000000000E+00 0.  1.
          5    1    5    5  502    0 -0.35992860275E+02 -0.11876547658E+03  0.14341776709E+03  0.18971418064E+03  0.47000000000E+01 0. -1.
         13    1    4    4    0    0  0.36306025972E+02  0.36587291484E+01  0.10904141247E+02  0.38084302767E+02  0.00000000000E+00 0. -1.
        -14    1    4    4    0    0 -0.43199353679E+02  0.23994694186E+02 -0.52778985178E+02  0.72301803462E+02  0.00000000000E+00 0.  1.
         -5    1    3    3    0  504  0.81043644460E+02  0.82501634378E+02 -0.54612268752E+02  0.12798117784E+03  0.47000000000E+01 0.  1.
<mgrwt>
<rscale>  2 0.21793478E+03</rscale>
<asrwt>0</asrwt>
<pdfrwt beam="1">  1       21 0.48340375E-01 0.21796605E+03</pdfrwt>
<pdfrwt beam="2">  1       21 0.33260653E-01 0.21796605E+03</pdfrwt>
<totfact> 0.35117061E+04</totfact>
</mgrwt>
</event>
<event>
12    1  0.1410528E-001  0.2227401E+03  0.7546771E-02  0.1131859E+00
         21   -1    0    0  502  503  0.00000000000E+00  0.00000000000E+00  0.66383091229E+03  0.66383091229E+03  0.00000000000E+00 0. -1.
         21   -1    0    0  503  504 -0.00000000000E+00 -0.00000000000E+00 -0.78408028017E+02  0.78408028017E+02  0.00000000000E+00 0. -1.
         -6    2    1    2    0  504  0.38325403736E+02 -0.13445213731E+03  0.37304726143E+03  0.43447837232E+03  0.17338103402E+03 0.  0.
        -24    2    3    3    0    0  0.58496385864E+02 -0.10138779443E+02  0.16685948005E+03  0.19282537595E+03  0.76255606491E+02 0.  0.
          6    2    1    2  502    0 -0.38325403736E+02  0.13445213731E+03  0.21237562285E+03  0.30776056799E+03  0.17339823594E+03 0.  0.
         24    2    5    5    0    0  0.41282709702E+02  0.99285456827E+02  0.13867492519E+03  0.19362017208E+03  0.81830141783E+02 0.  0.
          2    1    6    6  501    0  0.26953891022E+02  0.61607256157E+02  0.13776294838E+03  0.15329904174E+03  0.00000000000E+00 0. -1.
         -1    1    6    6    0  501  0.14328818680E+02  0.37678200670E+02  0.91197680851E+00  0.40321130343E+02  0.00000000000E+00 0.  1.
          5    1    5    5  502    0 -0.79608113439E+02  0.35166680485E+02  0.73700697663E+02  0.11414039591E+03  0.47000000000E+01 0. -1.
         11    1    4    4    0    0 -0.17622012265E+02 -0.10516296153E+02  0.35701222412E+02  0.41178939796E+02  0.00000000000E+00 0. -1.
        -12    1    4    4    0    0  0.76118398129E+02  0.37751670972E+00  0.13115825763E+03  0.15164643615E+03  0.00000000000E+00 0.  1.
         -5    1    3    3    0  504 -0.20170982128E+02 -0.12431335787E+03  0.20618778138E+03  0.24165299637E+03  0.47000000000E+01 0.  1.
<mgrwt>
<rscale>  2 0.22273677E+03</rscale>
<asrwt>0</asrwt>
<pdfrwt beam="1">  1       21 0.10212783E+00 0.22274012E+03</pdfrwt>
<pdfrwt beam="2">  1       21 0.12062774E-01 0.22274012E+03</pdfrwt>
<totfact> 0.44701226E+04</totfact>
</mgrwt>
</event>
<event>
12    1  0.1410528E-001  0.2119908E+03  0.7546771E-02  0.1140571E+00
         21   -1    0    0  502  503  0.00000000000E+00  0.00000000000E+00  0.36349204352E+02  0.36349204352E+02  0.00000000000E+00 0. -1.
         21   -1    0    0  503  504 -0.00000000000E+00 -0.00000000000E+00 -0.12218235648E+04  0.12218235648E+04  0.00000000000E+00 0.  1.
         -6    2    1    2    0  504  0.11184773458E+03 -0.47036486938E+02 -0.62448846928E+03  0.65948916097E+03  0.17383255834E+03 0.  0.
        -24    2    3    3    0    0  0.20419571385E+02 -0.31339014033E+02 -0.13772491155E+03  0.16394262349E+03  0.80684198190E+02 0.  0.
          6    2    1    2  502    0 -0.11184773458E+03  0.47036486938E+02 -0.56098589118E+03  0.59868360820E+03  0.17027784878E+03 0.  0.
         24    2    5    5    0    0 -0.78221785845E+02  0.17384268727E+02 -0.53454309080E+03  0.54642205287E+03  0.80124174649E+02 0.  0.
          4    1    6    6  501    0  0.10117599327E+02 -0.55794874571E+01 -0.17822239363E+03  0.17859652317E+03  0.00000000000E+00 0. -1.
         -3    1    6    6    0  501 -0.88339385172E+02  0.22963756184E+02 -0.35632069717E+03  0.36782552970E+03  0.00000000000E+00 0.  1.
          5    1    5    5  502    0 -0.33625948734E+02  0.29652218212E+02 -0.26442800388E+02  0.52261555330E+02  0.47000000000E+01 0. -1.
         13    1    4    4    0    0 -0.14412445603E+01 -0.52904771931E+02 -0.11203206858E+03  0.12390390014E+03  0.00000000000E+00 0. -1.
        -14    1    4    4    0    0  0.21860815945E+02  0.21565757898E+02 -0.25692842975E+02  0.40038723352E+02  0.00000000000E+00 0.  1.
         -5    1    3    3    0  504  0.91428163195E+02 -0.15697472905E+02 -0.48676355772E+03  0.49554653748E+03  0.47000000000E+01 0.  1.
<mgrwt>
<rscale>  2 0.21126081E+03</rscale>
<asrwt>0</asrwt>
<pdfrwt beam="1">  1       21 0.55921861E-02 0.21199081E+03</pdfrwt>
<pdfrwt beam="2">  1       21 0.18797283E+00 0.21199081E+03</pdfrwt>
<totfact> 0.35316697E+04</totfact>
</mgrwt>
</event>
<event>
12    1  0.1410528E-001  0.2970482E+03  0.7546771E-02  0.1087131E+00
         21   -1    0    0  502  503  0.00000000000E+00  0.00000000000E+00  0.31157866028E+04  0.31157866028E+04  0.00000000000E+00 0. -1.
         21   -1    0    0  503  504 -0.00000000000E+00 -0.00000000000E+00 -0.56002531984E+02  0.56002531984E+02  0.00000000000E+00 0.  1.
         -6    2    1    2    0  504  0.33930030161E+02  0.23916159463E+03  0.41293994966E+03  0.50868169242E+03  0.17288188708E+03 0.  0.
        -24    2    3    3    0    0  0.81347037477E+01  0.33876443281E+02  0.15214934690E+03  0.17575344081E+03  0.80784041617E+02 0.  0.
          6    2    1    2  502    0 -0.33930030161E+02 -0.23916159463E+03  0.26468441211E+04  0.26631074423E+04  0.16735570681E+03 0.  0.
         24    2    5    5    0    0  0.37380605770E+02 -0.13050915432E+03  0.17124152106E+04  0.17196722095E+04  0.80477983685E+02 0.  0.
          4    1    6    6  501    0  0.34654171033E+02 -0.93853634878E+02  0.15465673855E+04  0.15498000175E+04  0.00000000000E+00 0. -1.
         -3    1    6    6    0  501  0.27264347363E+01 -0.36655519439E+02  0.16584782511E+03  0.16987219209E+03  0.00000000000E+00 0.  1.
          5    1    5    5  502    0 -0.71310635931E+02 -0.10865244032E+03  0.93442891056E+03  0.94343523279E+03  0.47000000000E+01 0. -1.
         13    1    4    4    0    0  0.10741095650E+02 -0.17909374904E+02  0.76630882525E+01  0.22244994196E+02  0.00000000000E+00 0. -1.
        -14    1    4    4    0    0 -0.26063919021E+01  0.51785818185E+02  0.14448625865E+03  0.15350844661E+03  0.00000000000E+00 0.  1.
         -5    1    3    3    0  504  0.25795326413E+02  0.20528515135E+03  0.26079060276E+03  0.33292825161E+03  0.47000000000E+01 0.  1.
<mgrwt>
<rscale>  2 0.29624957E+03</rscale>
<asrwt>0</asrwt>
<pdfrwt beam="1">  1       21 0.47935165E+00 0.29704825E+03</pdfrwt>
<pdfrwt beam="2">  1       21 0.86157766E-02 0.29704825E+03</pdfrwt>
<totfact> 0.24056309E+02</totfact>
</mgrwt>
</event>
<event>
12    1  0.1410528E-001  0.2259419E+03  0.7546771E-02  0.1129664E+00
         21   -1    0    0  502  503  0.00000000000E+00  0.00000000000E+00  0.11411856496E+04  0.11411856496E+04  0.00000000000E+00 0. -1.
         21   -1    0    0  503  504 -0.00000000000E+00 -0.00000000000E+00 -0.54549377720E+02  0.54549377720E+02  0.00000000000E+00 0. -1.
         -6    2    1    2    0  504 -0.13052715715E+03  0.65878171774E+02  0.28706462688E+03  0.36485322676E+03  0.17127318763E+03 0.  0.
        -24    2    3    3    0    0 -0.23717971914E+02  0.52538324504E+02  0.21164448204E+03  0.23333728923E+03  0.79561837801E+02 0.  0.
          6    2    1    2  502    0  0.13052715715E+03 -0.65878171774E+02  0.79957164500E+03  0.83088180056E+03  0.17225701364E+03 0.  0.
         24    2    5    5    0    0 -0.12949870187E+01 -0.56489986100E+02  0.25161403113E+03  0.26719318766E+03  0.69926985824E+02 0.  0.
          4    1    6    6  501    0  0.22819043310E+02  0.29652275770E+01  0.40910855659E+02  0.46938251170E+02  0.00000000000E+00 0. -1.
         -3    1    6    6    0  501 -0.24114030328E+02 -0.59455213677E+02  0.21070317547E+03  0.22025493649E+03  0.00000000000E+00 0.  1.
          5    1    5    5  502    0  0.13182214417E+03 -0.93881856737E+01  0.54795761387E+03  0.56368861290E+03  0.47000000000E+01 0. -1.
         13    1    4    4    0    0 -0.18875835255E+01  0.17826580356E+02  0.17323055973E+00  0.17927073035E+02  0.00000000000E+00 0. -1.
        -14    1    4    4    0    0 -0.21830388389E+02  0.34711744147E+02  0.21147125148E+03  0.21541021620E+03  0.00000000000E+00 0.  1.
         -5    1    3    3    0  504 -0.10680918524E+03  0.13339847270E+02  0.75420144837E+02  0.13151593753E+03  0.47000000000E+01 0.  1.
<mgrwt>
<rscale>  2 0.22575440E+03</rscale>
<asrwt>0</asrwt>
<pdfrwt beam="1">  1       21 0.17556701E+00 0.22594192E+03</pdfrwt>
<pdfrwt beam="2">  1       21 0.83922128E-02 0.22594192E+03</pdfrwt>
<totfact> 0.21063796E+04</totfact>
</mgrwt>
</event>
<event>
12    1  0.1410528E-001  0.2945378E+03  0.7546771E-02  0.1089359E+00
         21   -1    0    0  502  503  0.00000000000E+00  0.00000000000E+00  0.18455113158E+03  0.18455113158E+03  0.00000000000E+00 0.  1.
         21   -1    0    0  503  504 -0.00000000000E+00 -0.00000000000E+00 -0.91308902205E+03  0.91308902205E+03  0.00000000000E+00 0. -1.
         -6    2    1    2    0  504 -0.12994637274E+02 -0.22435549380E+03 -0.75029668204E+03  0.80229969583E+03  0.17388341684E+03 0.  0.
        -24    2    3    3    0    0 -0.41681882877E+02 -0.15705346487E+03 -0.36735727179E+03  0.41240586018E+03  0.93402666888E+02 0.  0.
          6    2    1    2  502    0  0.12994637274E+02  0.22435549380E+03  0.21758791566E+02  0.29534045781E+03  0.19038984430E+03 0.  0.
         24    2    5    5    0    0  0.36187180714E+02  0.16810061878E+03  0.83435601495E+02  0.20857281455E+03  0.83509216782E+02 0.  0.
          2    1    6    6  501    0  0.10342642533E+02  0.12923218235E+03  0.22130269985E+02  0.13152062979E+03  0.00000000000E+00 0. -1.
         -1    1    6    6    0  501  0.25844538181E+02  0.38868436430E+02  0.61305331511E+02  0.77052184758E+02  0.00000000000E+00 0.  1.
          5    1    5    5  502    0 -0.23192543441E+02  0.56254875013E+02 -0.61676809929E+02  0.86767643261E+02  0.47000000000E+01 0. -1.
         11    1    4    4    0    0 -0.10030529299E+02 -0.12872859354E+03 -0.33496438627E+03  0.35898858252E+03  0.00000000000E+00 0. -1.
        -12    1    4    4    0    0 -0.31651353578E+02 -0.28324871340E+02 -0.32392885518E+02  0.53417277653E+02  0.00000000000E+00 0.  1.
         -5    1    3    3    0  504  0.28687245603E+02 -0.67302028921E+02 -0.38293941025E+03  0.38989383565E+03  0.47000000000E+01 0.  1.
<mgrwt>
<rscale>  2 0.29190512E+03</rscale>
<asrwt>0</asrwt>
<pdfrwt beam="1">  1       21 0.28392482E-01 0.29453784E+03</pdfrwt>
<pdfrwt beam="2">  1       21 0.14047523E+00 0.29453784E+03</pdfrwt>
<totfact> 0.39155101E+03</totfact>
</mgrwt>
</event>
<event>
12    1  0.1410528E-001  0.2159162E+03  0.7546771E-02  0.1138614E+00
         21   -1    0    0  502  503  0.00000000000E+00  0.00000000000E+00  0.89575966392E+03  0.89575966392E+03  0.00000000000E+00 0. -1.
         21   -1    0    0  503  504 -0.00000000000E+00 -0.00000000000E+00 -0.90337054644E+02  0.90337054644E+02  0.00000000000E+00 0. -1.
         -6    2    1    2    0  504 -0.73234605416E+02 -0.89018005282E+02  0.77846556457E+02  0.22952101546E+03  0.18257134904E+03 0.  0.
        -24    2    3    3    0    0 -0.11432888441E+02 -0.54767651390E+02 -0.28036325940E+02  0.10214042923E+03  0.80724377571E+02 0.  0.
          6    2    1    2  502    0  0.73234605416E+02  0.89018005282E+02  0.72757605282E+03  0.75657570311E+03  0.17248875094E+03 0.  0.
         24    2    5    5    0    0 -0.13931305287E+02  0.12935274955E+00  0.26031802434E+03  0.27299402054E+03  0.81031866907E+02 0.  0.
          2    1    6    6  501    0 -0.44411379573E+01  0.30017240070E+02  0.38745804074E+02  0.49213775928E+02  0.00000000000E+00 0. -1.
         -1    1    6    6    0  501 -0.94901673296E+01 -0.29887887320E+02  0.22157222026E+03  0.22378024461E+03  0.00000000000E+00 0.  1.
          5    1    5    5  502    0  0.87165910703E+02  0.88888652532E+02  0.46725802849E+03  0.48358168258E+03  0.47000000000E+01 0. -1.
         13    1    4    4    0    0 -0.26195502114E+02  0.10857688508E+02 -0.19320286591E+02  0.34312784858E+02  0.00000000000E+00 0. -1.
        -14    1    4    4    0    0  0.14762613672E+02 -0.65625339898E+02 -0.87160393486E+01  0.67827644373E+02  0.00000000000E+00 0.  1.
         -5    1    3    3    0  504 -0.61801716975E+02 -0.34250353892E+02  0.10588288240E+03  0.12738058623E+03  0.47000000000E+01 0.  1.
<mgrwt>
<rscale>  2 0.21377052E+03</rscale>
<asrwt>0</asrwt>
<pdfrwt beam="1">  1       21 0.13780917E+00 0.21591621E+03</pdfrwt>
<pdfrwt beam="2">  1       21 0.13898009E-01 0.21591621E+03</pdfrwt>
<totfact> 0.16534459E+04</totfact>
</mgrwt>
</event>
<event>
12    1  0.1410528E-001  0.1876046E+03  0.7546771E-02  0.1160767E+00
         21   -1    0    0  502  503  0.00000000000E+00  0.00000000000E+00  0.50455731627E+02  0.50455731627E+02  0.00000000000E+00 0.  1.
         21   -1    0    0  503  504 -0.00000000000E+00 -0.00000000000E+00 -0.80328190459E+03  0.80328190459E+03  0.00000000000E+00 0.  1.
         -6    2    1    2    0  504  0.68788289110E+01 -0.72572107530E+02 -0.53326617129E+03  0.56530371666E+03  0.17286252790E+03 0.  0.
        -24    2    3    3    0    0  0.16666910706E+02 -0.16912333144E+02 -0.11052028934E+03  0.13877120004E+03  0.80491606273E+02 0.  0.
          6    2    1    2  502    0 -0.68788289110E+01  0.72572107530E+02 -0.21956000167E+03  0.28843391955E+03  0.17225998530E+03 0.  0.
         24    2    5    5    0    0 -0.63040425819E+02  0.93286816252E+01 -0.13099374385E+03  0.16587810406E+03  0.79341444961E+02 0.  0.
          2    1    6    6  501    0 -0.68223547359E+02 -0.45210902160E+01 -0.13431998242E+03  0.15072076946E+03  0.00000000000E+00 0. -1.
         -1    1    6    6    0  501  0.51831215394E+01  0.13849771841E+02  0.33262385661E+01  0.15157334592E+02  0.00000000000E+00 0.  1.
          5    1    5    5  502    0  0.56161596908E+02  0.63243425904E+02 -0.88566257817E+02  0.12255581549E+03  0.47000000000E+01 0. -1.
         11    1    4    4    0    0 -0.23926177905E+02 -0.32091309733E+02 -0.45143952348E+02  0.60334820652E+02  0.00000000000E+00 0. -1.
        -12    1    4    4    0    0  0.40593088611E+02  0.15178976589E+02 -0.65376336990E+02  0.78436379388E+02  0.00000000000E+00 0.  1.
         -5    1    3    3    0  504 -0.97880817948E+01 -0.55659774386E+02 -0.42274588195E+03  0.42653251662E+03  0.47000000000E+01 0.  1.
<mgrwt>
<rscale>  2 0.18746567E+03</rscale>
<asrwt>0</asrwt>
<pdfrwt beam="1">  1       21 0.77624211E-02 0.18760459E+03</pdfrwt>
<pdfrwt beam="2">  1       21 0.12358182E+00 0.18760459E+03</pdfrwt>
<totfact> 0.62225804E+04</totfact>
</mgrwt>
</event>
<event>
12    1  0.1410528E-001  0.2121969E+03  0.7546771E-02  0.1139884E+00
         21   -1    0    0  502  503  0.00000000000E+00  0.00000000000E+00  0.64514832007E+03  0.64514832007E+03  0.00000000000E+00 0.  1.
         21   -1    0    0  503  504 -0.00000000000E+00 -0.00000000000E+00 -0.17870252890E+03  0.17870252890E+03  0.00000000000E+00 0. -1.
         -6    2    1    2    0  504  0.11615717979E+03 -0.35914402915E+02  0.55496220341E+03  0.59414692791E+03  0.17391144293E+03 0.  0.
        -24    2    3    3    0    0  0.12230873966E+03 -0.78907580508E+02  0.40624276377E+03  0.43914429331E+03  0.81416786774E+02 0.  0.
          6    2    1    2  502    0 -0.11615717979E+03  0.35914402915E+02 -0.88516412244E+02  0.22970392106E+03  0.17362719072E+03 0.  0.
         24    2    5    5    0    0 -0.82843422199E+02  0.70097581716E+02 -0.70883127555E+01  0.13520036798E+03  0.80325536166E+02 0.  0.
          4    1    6    6  501    0 -0.40429580596E+02  0.68726435368E+02 -0.32084965391E+02  0.85949513726E+02  0.00000000000E+00 0. -1.
         -3    1    6    6    0  501 -0.42413841603E+02  0.13711463473E+01  0.24996652635E+02  0.49250854255E+02  0.00000000000E+00 0.  1.
          5    1    5    5  502    0 -0.33313757593E+02 -0.34183178800E+02 -0.81428099488E+02  0.94503553077E+02  0.47000000000E+01 0. -1.
         11    1    4    4    0    0 -0.79002848266E+01 -0.21278098929E+02  0.80511404802E+02  0.83649616243E+02  0.00000000000E+00 0. -1.
        -12    1    4    4    0    0  0.13020902449E+03 -0.57629481579E+02  0.32573135897E+03  0.35549467707E+03  0.00000000000E+00 0.  1.
         -5    1    3    3    0  504 -0.61515598693E+01  0.42993177593E+02  0.14871943964E+03  0.15500263460E+03  0.47000000000E+01 0.  1.
<mgrwt>
<rscale>  2 0.21213865E+03</rscale>
<asrwt>0</asrwt>
<pdfrwt beam="1">  1       21 0.99253587E-01 0.21219690E+03</pdfrwt>
<pdfrwt beam="2">  1       21 0.27492697E-01 0.21219690E+03</pdfrwt>
<totfact> 0.10406346E+04</totfact>
</mgrwt>
</event>
<event>
12    1  0.1410528E-001  0.1961471E+03  0.7546771E-02  0.1153109E+00
         21   -1    0    0  502  503  0.00000000000E+00  0.00000000000E+00  0.17577586820E+03  0.17577586820E+03  0.00000000000E+00 0.  1.
         21   -1    0    0  503  504 -0.00000000000E+00 -0.00000000000E+00 -0.24854581042E+03  0.24854581042E+03  0.00000000000E+00 0.  1.
         -6    2    1    2    0  504  0.14643791819E+02  0.91769437073E+02 -0.11020667183E+03  0.22498713940E+03  0.17273572925E+03 0.  0.
        -24    2    3    3    0    0  0.12298319530E+01  0.97118378825E+02 -0.14177224608E+03  0.18995828023E+03  0.80940017773E+02 0.  0.
          6    2    1    2  502    0 -0.14643791819E+02 -0.91769437073E+02  0.37436729609E+02  0.19933453923E+03  0.17232724563E+03 0.  0.
         24    2    5    5    0    0  0.19372616201E+02  0.13349158229E+02  0.12031102206E+02  0.85868372479E+02  0.81701479105E+02 0.  0.
          2    1    6    6  501    0  0.28875006789E+02  0.13794724485E+02 -0.29341382462E+02  0.43416323721E+02  0.00000000000E+00 0. -1.
         -1    1    6    6    0  501 -0.95023905879E+01 -0.44556625604E+00  0.41372484667E+02  0.42452048758E+02  0.00000000000E+00 0.  1.
          5    1    5    5  502    0 -0.34016408020E+02 -0.10511859530E+03  0.25405627404E+02  0.11346616675E+03  0.47000000000E+01 0. -1.
         13    1    4    4    0    0  0.11032608077E+02 -0.69378879411E+01  0.94024541201E+00  0.13066628926E+02  0.00000000000E+00 0. -1.
        -14    1    4    4    0    0 -0.98027761241E+01  0.10405626677E+03 -0.14271249149E+03  0.17689165130E+03  0.00000000000E+00 0.  1.
         -5    1    3    3    0  504  0.13413959866E+02 -0.53489417527E+01  0.31565574250E+02  0.35028859172E+02  0.47000000000E+01 0.  1.
<mgrwt>
<rscale>  2 0.19605717E+03</rscale>
<asrwt>0</asrwt>
<pdfrwt beam="1">  1       21 0.27042441E-01 0.19614714E+03</pdfrwt>
<pdfrwt beam="2">  1       21 0.38237817E-01 0.19614714E+03</pdfrwt>
<totfact> 0.85814975E+04</totfact>
</mgrwt>
</event>
<event>
12    1  0.1410528E-001  0.1909477E+03  0.7546771E-02  0.1157701E+00
         21   -1    0    0  502  503  0.00000000000E+00  0.00000000000E+00  0.26318719764E+03  0.26318719764E+03  0.00000000000E+00 0. -1.
         21   -1    0    0  503  504 -0.00000000000E+00 -0.00000000000E+00 -0.16862040354E+03  0.16862040354E+03  0.00000000000E+00 0. -1.
         -6    2    1    2    0  504  0.79395195312E+01  0.81937364911E+02 -0.44400243253E+02  0.19564484284E+03  0.17183932958E+03 0.  0.
        -24    2    3    3    0    0 -0.31376653779E+02  0.10154933566E+03  0.13460666377E+01  0.13204291088E+03  0.78337452372E+02 0.  0.
          6    2    1    2  502    0 -0.79395195312E+01 -0.81937364911E+02  0.13896703736E+03  0.23616275834E+03  0.17229115826E+03 0.  0.
         24    2    5    5    0    0 -0.53602796575E+02 -0.21465375416E+01  0.54830000279E+02  0.11145172430E+03  0.80853512567E+02 0.  0.
          2    1    6    6  501    0 -0.41450501341E+02 -0.21200270107E+02  0.70117940485E+02  0.84167221006E+02  0.00000000000E+00 0. -1.
         -1    1    6    6    0  501 -0.12152295234E+02  0.19053732565E+02 -0.15287940206E+02  0.27284503292E+02  0.00000000000E+00 0.  1.
          5    1    5    5  502    0  0.45663277044E+02 -0.79790827370E+02  0.84137037083E+02  0.12471103404E+03  0.47000000000E+01 0. -1.
         11    1    4    4    0    0  0.19825863800E+02  0.33031508495E+02  0.21565186122E+02  0.44149775552E+02  0.00000000000E+00 0. -1.
        -12    1    4    4    0    0 -0.51202517579E+02  0.68517827161E+02 -0.20219119484E+02  0.87893135329E+02  0.00000000000E+00 0.  1.
         -5    1    3    3    0  504  0.39316173310E+02 -0.19611970744E+02 -0.45746309890E+02  0.63601931958E+02  0.47000000000E+01 0.  1.
<mgrwt>
<rscale>  2 0.19084569E+03</rscale>
<asrwt>0</asrwt>
<pdfrwt beam="1">  1       21 0.40490338E-01 0.19094767E+03</pdfrwt>
<pdfrwt beam="2">  1       21 0.25941600E-01 0.19094767E+03</pdfrwt>
<totfact> 0.82998241E+04</totfact>
</mgrwt>
</event>
<event>
12    1  0.1410528E-001  0.2152505E+03  0.7546771E-02  0.1140018E+00
         21   -1    0    0  502  503  0.00000000000E+00  0.00000000000E+00  0.12445727216E+03  0.12445727216E+03  0.00000000000E+00 0.  1.
         21   -1    0    0  503  504 -0.00000000000E+00 -0.00000000000E+00 -0.49921139353E+03  0.49921139353E+03  0.00000000000E+00 0. -1.
         -6    2    1    2    0  504  0.97759446164E+02  0.32722101940E+02 -0.36161351865E+03  0.42082907397E+03  0.18895800421E+03 0.  0.
        -24    2    3    3    0    0  0.14363084471E+03  0.33089576113E+02 -0.26368868668E+03  0.31259006548E+03  0.80349772590E+02 0.  0.
          6    2    1    2  502    0 -0.97759446164E+02 -0.32722101940E+02 -0.13140602721E+02  0.20283959172E+03  0.17419408503E+03 0.  0.
         24    2    5    5    0    0 -0.27426796202E+02  0.47848680696E+01  0.51980690975E+02  0.99804028231E+02  0.80521597752E+02 0.  0.
          2    1    6    6  501    0 -0.19225536924E+02  0.42473473832E+02  0.29046645784E+02  0.54930181874E+02  0.00000000000E+00 0. -1.
         -1    1    6    6    0  501 -0.82012592786E+01 -0.37688605763E+02  0.22934045191E+02  0.44873846358E+02  0.00000000000E+00 0.  1.
          5    1    5    5  502    0 -0.70332649962E+02 -0.37506970009E+02 -0.65121293696E+02  0.10303556348E+03  0.47000000000E+01 0. -1.
         11    1    4    4    0    0  0.56721445017E+02 -0.13784136778E+02 -0.15559665778E+03  0.16618557298E+03  0.00000000000E+00 0. -1.
        -12    1    4    4    0    0  0.86909399690E+02  0.46873712891E+02 -0.10809202889E+03  0.14640449250E+03  0.00000000000E+00 0.  1.
         -5    1    3    3    0  504 -0.45871398543E+02 -0.36747417379E+00 -0.97924831974E+02  0.10823900849E+03  0.47000000000E+01 0.  1.
<mgrwt>
<rscale>  2 0.21196687E+03</rscale>
<asrwt>0</asrwt>
<pdfrwt beam="1">  1       21 0.19147272E-01 0.21525049E+03</pdfrwt>
<pdfrwt beam="2">  1       21 0.76801753E-01 0.21525049E+03</pdfrwt>
<totfact> 0.37303624E+04</totfact>
</mgrwt>
</event>
<event>
12    1  0.1410528E-001  0.2724487E+03  0.7546771E-02  0.1100593E+00
         21   -1    0    0  502  503  0.00000000000E+00  0.00000000000E+00  0.14198258023E+03  0.14198258023E+03  0.00000000000E+00 0. -1.
         21   -1    0    0  503  504 -0.00000000000E+00 -0.00000000000E+00 -0.55242717035E+03  0.55242717035E+03  0.00000000000E+00 0.  1.
         -6    2    1    2    0  504  0.14239323258E+03 -0.14482449090E+03 -0.29930812382E+03  0.40473899536E+03  0.18159938198E+03 0.  0.
        -24    2    3    3    0    0  0.11785634245E+03 -0.15252243235E+03 -0.16035501134E+03  0.26334813729E+03  0.80531372302E+02 0.  0.
          6    2    1    2  502    0 -0.14239323258E+03  0.14482449090E+03 -0.11113646630E+03  0.28967075523E+03  0.17409154616E+03 0.  0.
         24    2    5    5    0    0 -0.94327173142E+02  0.14771471286E+03 -0.13488055442E+03  0.23577668159E+03  0.81735106480E+02 0.  0.
          2    1    6    6  501    0 -0.66776150695E+02  0.14974439260E+03 -0.10315746957E+03  0.19371086945E+03  0.00000000000E+00 0. -1.
         -1    1    6    6    0  501 -0.27551022447E+02 -0.20296797415E+01 -0.31723084856E+02  0.42065812134E+02  0.00000000000E+00 0.  1.
          5    1    5    5  502    0 -0.48066059433E+02 -0.28902219598E+01  0.23744088121E+02  0.53894073636E+02  0.47000000000E+01 0. -1.
         11    1    4    4    0    0  0.89638054289E+02 -0.11092983015E+03 -0.15826231024E+03  0.21304311027E+03  0.00000000000E+00 0. -1.
        -12    1    4    4    0    0  0.28218288160E+02 -0.41592602206E+02 -0.20927011009E+01  0.50305027013E+02  0.00000000000E+00 0.  1.
         -5    1    3    3    0  504  0.24536890127E+02  0.76979414514E+01 -0.13895311248E+03  0.14139085807E+03  0.47000000000E+01 0.  1.
<mgrwt>
<rscale>  2 0.27120377E+03</rscale>
<asrwt>0</asrwt>
<pdfrwt beam="1">  1       21 0.21843474E-01 0.27244871E+03</pdfrwt>
<pdfrwt beam="2">  1       21 0.84988795E-01 0.27244871E+03</pdfrwt>
<totfact> 0.22501191E+04</totfact>
</mgrwt>
</event>
<event>
12    1  0.1410528E-001  0.2445481E+03  0.7546771E-02  0.1116861E+00
         21   -1    0    0  502  503  0.00000000000E+00  0.00000000000E+00  0.43227326263E+03  0.43227326263E+03  0.00000000000E+00 0. -1.
         21   -1    0    0  503  504 -0.00000000000E+00 -0.00000000000E+00 -0.13909362981E+03  0.13909362981E+03  0.00000000000E+00 0. -1.
         -6    2    1    2    0  504 -0.90210292413E+02 -0.14664098391E+03  0.17020303529E+03  0.29763886775E+03  0.17314256367E+03 0.  0.
        -24    2    3    3    0    0 -0.11405313303E+03 -0.95904975106E+02  0.17218609805E+03  0.24134813871E+03  0.79968683215E+02 0.  0.
          6    2    1    2  502    0  0.90210292413E+02  0.14664098391E+03  0.12297659753E+03  0.27372802469E+03  0.17367300579E+03 0.  0.
         24    2    5    5    0    0  0.71525919276E+02  0.48680561274E+02 -0.76221611921E-01  0.11526845098E+03  0.76164662453E+02 0.  0.
          4    1    6    6  501    0  0.53992209978E+02 -0.61193188436E+01 -0.13914431990E+02  0.56091142073E+02  0.00000000000E+00 0. -1.
         -3    1    6    6    0  501  0.17533709299E+02  0.54799880118E+02  0.13838210378E+02  0.59177308904E+02  0.00000000000E+00 0.  1.
          5    1    5    5  502    0  0.18684373136E+02  0.97960422634E+02  0.12305281915E+03  0.15845957371E+03  0.47000000000E+01 0. -1.
         13    1    4    4    0    0 -0.32442830768E+02 -0.16788948890E+02  0.18577627973E+01  0.36576732436E+02  0.00000000000E+00 0. -1.
        -14    1    4    4    0    0 -0.81610302262E+02 -0.79116026216E+02  0.17032833525E+03  0.20477140627E+03  0.00000000000E+00 0.  1.
         -5    1    3    3    0  504  0.23842840618E+02 -0.50736008802E+02 -0.19830627553E+01  0.56290729039E+02  0.47000000000E+01 0.  1.
<mgrwt>
<rscale>  2 0.24445397E+03</rscale>
<asrwt>0</asrwt>
<pdfrwt beam="1">  1       21 0.66503578E-01 0.24454813E+03</pdfrwt>
<pdfrwt beam="2">  1       21 0.21399020E-01 0.24454813E+03</pdfrwt>
<totfact> 0.41138008E+04</totfact>
</mgrwt>
</event>
<event>
12    1  0.1410528E-001  0.2650605E+03  0.7546771E-02  0.1104181E+00
         21   -1    0    0  502  503  0.00000000000E+00  0.00000000000E+00  0.26184513866E+03  0.26184513866E+03  0.00000000000E+00 0.  1.
         21   -1    0    0  503  504 -0.00000000000E+00 -0.00000000000E+00 -0.26931551538E+03  0.26931551538E+03  0.00000000000E+00 0. -1.
         -6    2    1    2    0  504 -0.20071065104E+03 -0.40951814938E+01 -0.22029367658E+02  0.26597437203E+03  0.17307668122E+03 0.  0.
        -24    2    3    3    0    0 -0.21094150957E+03  0.19140492000E+02 -0.45483746351E+02  0.23109221515E+03  0.80449747220E+02 0.  0.
          6    2    1    2  502    0  0.20071065104E+03  0.40951814938E+01  0.14558990942E+02  0.26518628201E+03  0.17265649133E+03 0.  0.
         24    2    5    5    0    0  0.11791144920E+03 -0.50949498701E+02 -0.27997772904E+02  0.15693290889E+03  0.85703566638E+02 0.  0.
          2    1    6    6  501    0  0.12369443778E+03 -0.61962320219E+02 -0.34937108233E+02  0.14268932895E+03  0.00000000000E+00 0. -1.
         -1    1    6    6    0  501 -0.57829885796E+01  0.11012821518E+02  0.69393353284E+01  0.14243579940E+02  0.00000000000E+00 0.  1.
          5    1    5    5  502    0  0.82799201847E+02  0.55044680195E+02  0.42556763846E+02  0.10825337313E+03  0.47000000000E+01 0. -1.
         11    1    4    4    0    0 -0.67329346181E+01  0.11262765217E+02 -0.21691271366E+02  0.25351401191E+02  0.00000000000E+00 0. -1.
        -12    1    4    4    0    0 -0.20420857495E+03  0.78777267828E+01 -0.23792474985E+02  0.20574081396E+03  0.00000000000E+00 0.  1.
         -5    1    3    3    0  504  0.10230858522E+02 -0.23235673493E+02  0.23454378693E+02  0.34882156881E+02  0.47000000000E+01 0.  1.
<mgrwt>
<rscale>  2 0.26499194E+03</rscale>
<asrwt>0</asrwt>
<pdfrwt beam="1">  1       21 0.40283867E-01 0.26506051E+03</pdfrwt>
<pdfrwt beam="2">  1       21 0.41433156E-01 0.26506051E+03</pdfrwt>
<totfact> 0.32176251E+04</totfact>
</mgrwt>
</event>
<event>
12    1  0.1410528E-001  0.1953264E+03  0.7546771E-02  0.1154732E+00
         21   -1    0    0  502  503  0.00000000000E+00  0.00000000000E+00  0.33082439551E+03  0.33082439551E+03  0.00000000000E+00 0. -1.
         21   -1    0    0  503  504 -0.00000000000E+00 -0.00000000000E+00 -0.16947707148E+03  0.16947707148E+03  0.00000000000E+00 0. -1.
         -6    2    1    2    0  504 -0.79708539282E+02 -0.10390509708E+02 -0.64744465906E+02  0.20152075425E+03  0.17308193031E+03 0.  0.
        -24    2    3    3    0    0 -0.12012824158E+03 -0.23841865250E+02 -0.59344011899E+02  0.15832415481E+03  0.80904865652E+02 0.  0.
          6    2    1    2  502    0  0.79708539282E+02  0.10390509708E+02  0.22609178994E+03  0.29878071273E+03  0.17801966998E+03 0.  0.
         24    2    5    5    0    0  0.45823097441E+02  0.10513563690E+02  0.30385294034E+02  0.10010670626E+03  0.82992742235E+02 0.  0.
          4    1    6    6  501    0  0.50648881889E+02  0.39911016909E+02  0.27743122405E+02  0.70198855747E+02  0.00000000000E+00 0. -1.
         -3    1    6    6    0  501 -0.48257844481E+01 -0.29397453219E+02  0.26421716285E+01  0.29907850511E+02  0.00000000000E+00 0.  1.
          5    1    5    5  502    0  0.33885441841E+02 -0.12305398240E+00  0.19570649590E+03  0.19867400648E+03  0.47000000000E+01 0. -1.
         11    1    4    4    0    0 -0.23396747169E+02 -0.39867622528E+02 -0.57481352437E+01  0.46581929575E+02  0.00000000000E+00 0. -1.
        -12    1    4    4    0    0 -0.96731494407E+02  0.16025757278E+02 -0.53595876656E+02  0.11174222524E+03  0.00000000000E+00 0.  1.
         -5    1    3    3    0  504  0.40419702294E+02  0.13451355542E+02 -0.54004540064E+01  0.43196599437E+02  0.47000000000E+01 0.  1.
<mgrwt>
<rscale>  2 0.19419428E+03</rscale>
<asrwt>0</asrwt>
<pdfrwt beam="1">  1       21 0.50896061E-01 0.19532644E+03</pdfrwt>
<pdfrwt beam="2">  1       21 0.26073396E-01 0.19532644E+03</pdfrwt>
<totfact> 0.51251614E+04</totfact>
</mgrwt>
</event>
<event>
12    1  0.1410528E-001  0.2416252E+03  0.7546771E-02  0.1118896E+00
         21   -1    0    0  502  503  0.00000000000E+00  0.00000000000E+00  0.17153338807E+03  0.17153338807E+03  0.00000000000E+00 0.  1.
         21   -1    0    0  503  504 -0.00000000000E+00 -0.00000000000E+00 -0.63435781540E+03  0.63435781540E+03  0.00000000000E+00 0. -1.
         -6    2    1    2    0  504 -0.12643935588E+03  0.11091498854E+03 -0.50616588057E+03  0.56040957173E+03  0.17194750373E+03 0.  0.
        -24    2    3    3    0    0 -0.29176129133E+02  0.70344126825E+02 -0.13641383711E+03  0.17590366315E+03  0.80832054675E+02 0.  0.
          6    2    1    2  502    0  0.12643935588E+03 -0.11091498854E+03  0.43341453236E+02  0.24548163175E+03  0.17347537162E+03 0.  0.
         24    2    5    5    0    0  0.13699638028E+03 -0.10235124826E+03  0.81063181459E+02  0.20511076116E+03  0.79091078673E+02 0.  0.
          4    1    6    6  501    0  0.52020577206E+01 -0.25317488589E+02  0.38961692988E+02  0.46755215254E+02  0.00000000000E+00 0. -1.
         -3    1    6    6    0  501  0.13179432256E+03 -0.77033759669E+02  0.42101488471E+02  0.15835554591E+03  0.00000000000E+00 0.  1.
          5    1    5    5  502    0 -0.10557024396E+02 -0.85637402808E+01 -0.37721728223E+02  0.40370870586E+02  0.47000000000E+01 0. -1.
         13    1    4    4    0    0 -0.53465925187E+02  0.37662578497E+02 -0.57407347070E+02  0.87021138080E+02  0.00000000000E+00 0. -1.
        -14    1    4    4    0    0  0.24289796055E+02  0.32681548328E+02 -0.79006490043E+02  0.88882525068E+02  0.00000000000E+00 0.  1.
         -5    1    3    3    0  504 -0.97263226752E+02  0.40570861714E+02 -0.36975204345E+03  0.38450590858E+03  0.47000000000E+01 0.  1.
<mgrwt>
<rscale>  2 0.24135111E+03</rscale>
<asrwt>0</asrwt>
<pdfrwt beam="1">  1       21 0.26389752E-01 0.24162523E+03</pdfrwt>
<pdfrwt beam="2">  1       21 0.97593510E-01 0.24162523E+03</pdfrwt>
<totfact> 0.11512735E+04</totfact>
</mgrwt>
</event>
<event>
12    1  0.1410528E-001  0.1897242E+03  0.7546771E-02  0.1158933E+00
         21   -1    0    0  502  503  0.00000000000E+00  0.00000000000E+00  0.67934197066E+02  0.67934197066E+02  0.00000000000E+00 0.  1.
         21   -1    0    0  503  504 -0.00000000000E+00 -0.00000000000E+00 -0.12040303152E+04  0.12040303152E+04  0.00000000000E+00 0.  1.
         -6    2    1    2    0  504  0.48199309813E+02 -0.63313124033E+02 -0.10455598999E+04  0.10626338928E+04  0.17223112600E+03 0.  0.
        -24    2    3    3    0    0  0.65215914923E+01  0.30669017247E+02 -0.55904056084E+03  0.56534842918E+03  0.78162509731E+02 0.  0.
          6    2    1    2  502    0 -0.48199309813E+02  0.63313124033E+02 -0.90536218260E+02  0.20933061946E+03  0.17114548281E+03 0.  0.
         24    2    5    5    0    0 -0.90097640872E+02  0.86006343902E+01 -0.53691003469E+02  0.13104533016E+03  0.78093526622E+02 0.  0.
          2    1    6    6  501    0 -0.20141804135E+02  0.27944335995E+02 -0.46838762581E+02  0.58141619070E+02  0.00000000000E+00 0. -1.
         -1    1    6    6    0  501 -0.69955836737E+02 -0.19343701605E+02 -0.68522408887E+01  0.72903711089E+02  0.00000000000E+00 0.  1.
          5    1    5    5  502    0  0.41898331060E+02  0.54712489643E+02 -0.36845214791E+02  0.78285289305E+02  0.47000000000E+01 0. -1.
         11    1    4    4    0    0 -0.80724212550E+01  0.36003531583E+01 -0.44317948660E+01  0.98877365214E+01  0.00000000000E+00 0. -1.
        -12    1    4    4    0    0  0.14594012747E+02  0.27068664089E+02 -0.55460876598E+03  0.55546069265E+03  0.00000000000E+00 0.  1.
         -5    1    3    3    0  504  0.41677718320E+02 -0.93982141281E+02 -0.48651933903E+03  0.49728546363E+03  0.47000000000E+01 0.  1.
<mgrwt>
<rscale>  2 0.18947751E+03</rscale>
<asrwt>0</asrwt>
<pdfrwt beam="1">  1       21 0.10451416E-01 0.18972424E+03</pdfrwt>
<pdfrwt beam="2">  1       21 0.18523542E+00 0.18972424E+03</pdfrwt>
<totfact> 0.12618386E+04</totfact>
</mgrwt>
</event>
<event>
12    1  0.1410528E-001  0.1915518E+03  0.7546771E-02  0.1157829E+00
         21   -1    0    0  502  503  0.00000000000E+00  0.00000000000E+00  0.88152240144E+02  0.88152240144E+02  0.00000000000E+00 0. -1.
         21   -1    0    0  503  504 -0.00000000000E+00 -0.00000000000E+00 -0.46118238071E+03  0.46118238071E+03  0.00000000000E+00 0. -1.
         -6    2    1    2    0  504  0.78851055939E+02  0.23228727742E+02 -0.28042924563E+03  0.33960663093E+03  0.17301745332E+03 0.  0.
        -24    2    3    3    0    0  0.57948985123E+02  0.31555296828E+02 -0.29474763039E+03  0.31252648213E+03  0.80267146311E+02 0.  0.
          6    2    1    2  502    0 -0.78851055939E+02 -0.23228727742E+02 -0.92600894939E+02  0.20972798992E+03  0.16927445525E+03 0.  0.
         24    2    5    5    0    0 -0.10314454505E+03  0.22879037028E+02 -0.52362381943E+02  0.14371793377E+03  0.82163117861E+02 0.  0.
          4    1    6    6  501    0 -0.43859598244E+02  0.10954372270E+02  0.19983497813E+02  0.49426741900E+02  0.00000000000E+00 0. -1.
         -3    1    6    6    0  501 -0.59284946802E+02  0.11924664758E+02 -0.72345879756E+02  0.94291191871E+02  0.00000000000E+00 0.  1.
          5    1    5    5  502    0  0.24293489107E+02 -0.46107764770E+02 -0.40238512996E+02  0.66010056152E+02  0.47000000000E+01 0. -1.
         13    1    4    4    0    0  0.13245870451E+02 -0.18979131933E+01 -0.21363944488E+03  0.21405809391E+03  0.00000000000E+00 0. -1.
        -14    1    4    4    0    0  0.44703114672E+02  0.33453210021E+02 -0.81108185501E+02  0.98468388214E+02  0.00000000000E+00 0.  1.
         -5    1    3    3    0  504  0.20902070816E+02 -0.83265690857E+01  0.14318384759E+02  0.27080148804E+02  0.47000000000E+01 0.  1.
<mgrwt>
<rscale>  2 0.19070270E+03</rscale>
<asrwt>0</asrwt>
<pdfrwt beam="1">  1       21 0.13561883E-01 0.19155183E+03</pdfrwt>
<pdfrwt beam="2">  1       21 0.70951137E-01 0.19155183E+03</pdfrwt>
<totfact> 0.84745087E+04</totfact>
</mgrwt>
</event>
<event>
12    1  0.1410528E-001  0.1761842E+03  0.7546771E-02  0.1172376E+00
         21   -1    0    0  502  503  0.00000000000E+00  0.00000000000E+00  0.42882261153E+02  0.42882261153E+02  0.00000000000E+00 0. -1.
         21   -1    0    0  503  504 -0.00000000000E+00 -0.00000000000E+00 -0.10767536316E+04  0.10767536316E+04  0.00000000000E+00 0. -1.
         -6    2    1    2    0  504  0.19898129014E+02 -0.75613031610E+01 -0.84669456349E+03  0.86483094644E+03  0.17489360547E+03 0.  0.
        -24    2    3    3    0    0  0.64826205999E+01 -0.88149376012E+01 -0.17676638312E+03  0.19475079876E+03  0.81004888253E+02 0.  0.
          6    2    1    2  502    0 -0.19898129014E+02  0.75613031610E+01 -0.18717680692E+03  0.25480494628E+03  0.17157300124E+03 0.  0.
         24    2    5    5    0    0 -0.45000627750E+02  0.60766900654E+02 -0.93082656946E+02  0.14373393247E+03  0.79229979220E+02 0.  0.
          2    1    6    6  501    0 -0.33372270465E+02  0.38494329912E+02 -0.39177869077E+01  0.51096682139E+02  0.00000000000E+00 0. -1.
         -1    1    6    6    0  501 -0.11628357285E+02  0.22272570742E+02 -0.89164870039E+02  0.92637250335E+02  0.00000000000E+00 0.  1.
          5    1    5    5  502    0  0.25102498736E+02 -0.53205597493E+02 -0.94094149975E+02  0.11107101380E+03  0.47000000000E+01 0. -1.
         11    1    4    4    0    0 -0.21400201089E+02 -0.31180563433E+02 -0.13284194788E+03  0.13812016239E+03  0.00000000000E+00 0. -1.
        -12    1    4    4    0    0  0.27882821689E+02  0.22365625832E+02 -0.43924435245E+02  0.56630636371E+02  0.00000000000E+00 0.  1.
         -5    1    3    3    0  504  0.13415508414E+02  0.12536344402E+01 -0.66992818037E+03  0.67008014769E+03  0.47000000000E+01 0.  1.
<mgrwt>
<rscale>  2 0.17535443E+03</rscale>
<asrwt>0</asrwt>
<pdfrwt beam="1">  1       21 0.65972715E-02 0.17618423E+03</pdfrwt>
<pdfrwt beam="2">  1       21 0.16565439E+00 0.17618423E+03</pdfrwt>
<totfact> 0.38774910E+04</totfact>
</mgrwt>
</event>
<event>
12    1  0.1410528E-001  0.1781374E+03  0.7546771E-02  0.1169955E+00
         21   -1    0    0  502  503  0.00000000000E+00  0.00000000000E+00  0.49383693972E+03  0.49383693972E+03  0.00000000000E+00 0.  1.
         21   -1    0    0  503  504 -0.00000000000E+00 -0.00000000000E+00 -0.10371985938E+03  0.10371985938E+03  0.00000000000E+00 0.  1.
         -6    2    1    2    0  504  0.72888876723E+01  0.37754302729E+02  0.91575828836E+01  0.17700586571E+03  0.17253608293E+03 0.  0.
        -24    2    3    3    0    0 -0.13711507600E+02  0.28169164812E+01  0.67310896949E+02  0.10583329026E+03  0.80461096312E+02 0.  0.
          6    2    1    2  502    0 -0.72888876723E+01 -0.37754302729E+02  0.38095949745E+03  0.42055093340E+03  0.17393801661E+03 0.  0.
         24    2    5    5    0    0 -0.17988183789E+02  0.40526908094E+02  0.26166968856E+03  0.27739168147E+03  0.80679080335E+02 0.  0.
          2    1    6    6  501    0 -0.39247921748E+02 -0.17522138786E+01  0.73256442002E+02  0.83126264861E+02  0.00000000000E+00 0. -1.
         -1    1    6    6    0  501  0.21259737959E+02  0.42279121973E+02  0.18841324655E+03  0.19426541661E+03  0.00000000000E+00 0.  1.
          5    1    5    5  502    0  0.10699296116E+02 -0.78281210823E+02  0.11928980890E+03  0.14315925193E+03  0.47000000000E+01 0. -1.
         11    1    4    4    0    0  0.19349343966E+02  0.31820894856E+02  0.36407109880E+02  0.52081130087E+02  0.00000000000E+00 0. -1.
        -12    1    4    4    0    0 -0.33060851566E+02 -0.29003978375E+02  0.30903787070E+02  0.53752160172E+02  0.00000000000E+00 0.  1.
         -5    1    3    3    0  504  0.21000395273E+02  0.34937386248E+02 -0.58153314066E+02  0.71172575451E+02  0.47000000000E+01 0.  1.
<mgrwt>
<rscale>  2 0.17779430E+03</rscale>
<asrwt>0</asrwt>
<pdfrwt beam="1">  1       21 0.75974913E-01 0.17813744E+03</pdfrwt>
<pdfrwt beam="2">  1       21 0.15956902E-01 0.17813744E+03</pdfrwt>
<totfact> 0.54498797E+04</totfact>
</mgrwt>
</event>
<event>
12    1  0.1410528E-001  0.2790402E+03  0.7546771E-02  0.1096267E+00
         21   -1    0    0  502  503  0.00000000000E+00  0.00000000000E+00  0.47865663145E+03  0.47865663145E+03  0.00000000000E+00 0.  1.
         21   -1    0    0  503  504 -0.00000000000E+00 -0.00000000000E+00 -0.16258757012E+03  0.16258757012E+03  0.00000000000E+00 0. -1.
         -6    2    1    2    0  504  0.11751974527E+03 -0.18445280860E+03  0.16760205977E+03  0.32550558652E+03  0.17329081708E+03 0.  0.
        -24    2    3    3    0    0  0.74998358817E+02 -0.18526329153E+03  0.84706864937E+02  0.23221877869E+03  0.82480708020E+02 0.  0.
          6    2    1    2  502    0 -0.11751974527E+03  0.18445280860E+03  0.14846700157E+03  0.31573861505E+03  0.17266931792E+03 0.  0.
         24    2    5    5    0    0 -0.69911990204E+02  0.18925523383E+03  0.10133839738E+03  0.24841286245E+03  0.10360622347E+03 0.  0.
          4    1    6    6  501    0 -0.70946945132E+02  0.79133959742E+02  0.12682109089E+02  0.10703498727E+03  0.00000000000E+00 0. -1.
         -3    1    6    6    0  501  0.10349549278E+01  0.11012127409E+03  0.88656288293E+02  0.14137787519E+03  0.00000000000E+00 0.  1.
          5    1    5    5  502    0 -0.47607755067E+02 -0.48024252249E+01  0.47128604191E+02  0.67325752603E+02  0.47000000000E+01 0. -1.
         11    1    4    4    0    0  0.77531198063E+02 -0.84564104494E+02  0.54795544030E+02  0.12714057609E+03  0.00000000000E+00 0. -1.
        -12    1    4    4    0    0 -0.25328392457E+01 -0.10069918703E+03  0.29911320907E+02  0.10507820260E+03  0.00000000000E+00 0.  1.
         -5    1    3    3    0  504  0.42521386455E+02  0.81048292401E+00  0.82895194829E+02  0.93286807826E+02  0.47000000000E+01 0.  1.
<mgrwt>
<rscale>  2 0.27894377E+03</rscale>
<asrwt>0</asrwt>
<pdfrwt beam="1">  1       21 0.73639481E-01 0.27904021E+03</pdfrwt>
<pdfrwt beam="2">  1       21 0.25013473E-01 0.27904021E+03</pdfrwt>
<totfact> 0.23999843E+04</totfact>
</mgrwt>
</event>
<event>
12    1  0.1410528E-001  0.1848366E+03  0.7546771E-02  0.1163876E+00
         21   -1    0    0  502  503  0.00000000000E+00  0.00000000000E+00  0.81988672195E+03  0.81988672195E+03  0.00000000000E+00 0. -1.
         21   -1    0    0  503  504 -0.00000000000E+00 -0.00000000000E+00 -0.49092208779E+02  0.49092208779E+02  0.00000000000E+00 0. -1.
         -6    2    1    2    0  504 -0.43242851408E+02  0.40484151314E+02  0.56399847325E+03  0.59351396643E+03  0.17508752044E+03 0.  0.
        -24    2    3    3    0    0 -0.94934177212E+02  0.32402402719E+02  0.44733570025E+03  0.46557022712E+03  0.81141813886E+02 0.  0.
          6    2    1    2  502    0  0.43242851408E+02 -0.40484151314E+02  0.20679603992E+03  0.27546496429E+03  0.17206810780E+03 0.  0.
         24    2    5    5    0    0  0.54437346738E+02 -0.75703149156E+01  0.43144573601E+02  0.10809552330E+03  0.82476987929E+02 0.  0.
          2    1    6    6  501    0  0.17449257957E+02  0.19310031686E+02 -0.18073902564E+02  0.31686272751E+02  0.00000000000E+00 0. -1.
         -1    1    6    6    0  501  0.36988088782E+02 -0.26880346602E+02  0.61218476165E+02  0.76409250547E+02  0.00000000000E+00 0.  1.
          5    1    5    5  502    0 -0.11194495330E+02 -0.32913836399E+02  0.16365146631E+03  0.16736944100E+03  0.47000000000E+01 0. -1.
         11    1    4    4    0    0  0.44697958669E+01  0.10252003490E+02  0.16586679021E+03  0.16624342016E+03  0.00000000000E+00 0. -1.
        -12    1    4    4    0    0 -0.99403973079E+02  0.22150399229E+02  0.28146891003E+03  0.29932680696E+03  0.00000000000E+00 0.  1.
         -5    1    3    3    0  504  0.51691325804E+02  0.80817485952E+01  0.11666277301E+03  0.12794373931E+03  0.47000000000E+01 0.  1.
<mgrwt>
<rscale>  2 0.18411798E+03</rscale>
<asrwt>0</asrwt>
<pdfrwt beam="1">  1       21 0.12613641E+00 0.18483655E+03</pdfrwt>
<pdfrwt beam="2">  1       21 0.75526481E-02 0.18483655E+03</pdfrwt>
<totfact> 0.62086851E+04</totfact>
</mgrwt>
</event>
<event>
12    1  0.1410528E-001  0.2608572E+03  0.7546771E-02  0.1107068E+00
         21   -1    0    0  502  503  0.00000000000E+00  0.00000000000E+00  0.86661576114E+02  0.86661576114E+02  0.00000000000E+00 0. -1.
         21   -1    0    0  503  504 -0.00000000000E+00 -0.00000000000E+00 -0.23368844294E+04  0.23368844294E+04  0.00000000000E+00 0.  1.
         -6    2    1    2    0  504  0.49761206246E+02  0.18433866586E+03 -0.21132125020E+04  0.21288965465E+04  0.17342579277E+03 0.  0.
        -24    2    3    3    0    0  0.29606724277E+02  0.98549357220E+02 -0.65663260398E+03  0.66964567772E+03  0.81672658571E+02 0.  0.
          6    2    1    2  502    0 -0.49761206246E+02 -0.18433866586E+03 -0.13701035128E+03  0.29464945904E+03  0.17773448167E+03 0.  0.
         24    2    5    5    0    0  0.11566666866E+02 -0.76474512052E+02 -0.13372852057E+03  0.17043736579E+03  0.71996108684E+02 0.  0.
          2    1    6    6  501    0 -0.19874309684E+02 -0.29737489713E+02 -0.96507360422E+02  0.10292218952E+03  0.00000000000E+00 0. -1.
         -1    1    6    6    0  501  0.31440976550E+02 -0.46737022338E+02 -0.37221160153E+02  0.67515176269E+02  0.00000000000E+00 0.  1.
          5    1    5    5  502    0 -0.61327873112E+02 -0.10786415381E+03 -0.32818307100E+01  0.12421209325E+03  0.47000000000E+01 0. -1.
         13    1    4    4    0    0 -0.21435901427E+02  0.61344521376E+02 -0.40651626149E+03  0.41167720246E+03  0.00000000000E+00 0. -1.
        -14    1    4    4    0    0  0.51042625704E+02  0.37204835844E+02 -0.25011634248E+03  0.25796847526E+03  0.00000000000E+00 0.  1.
         -5    1    3    3    0  504  0.20154481969E+02  0.85789308639E+02 -0.14565798980E+04  0.14592508687E+04  0.47000000000E+01 0.  1.
<mgrwt>
<rscale>  2 0.26012499E+03</rscale>
<asrwt>0</asrwt>
<pdfrwt beam="1">  1       21 0.13332548E-01 0.26085718E+03</pdfrwt>
<pdfrwt beam="2">  1       21 0.35952075E+00 0.26085718E+03</pdfrwt>
<totfact> 0.68248921E+02</totfact>
</mgrwt>
</event>
<event>
12    1  0.1410528E-001  0.1817567E+03  0.7546771E-02  0.1167010E+00
         21   -1    0    0  502  503  0.00000000000E+00  0.00000000000E+00  0.22324376948E+03  0.22324376948E+03  0.00000000000E+00 0.  1.
         21   -1    0    0  503  504 -0.00000000000E+00 -0.00000000000E+00 -0.17810399470E+03  0.17810399470E+03  0.00000000000E+00 0.  1.
         -6    2    1    2    0  504  0.37429554011E+01  0.40281015514E+02 -0.63787861150E+02  0.19262502824E+03  0.17719746146E+03 0.  0.
        -24    2    3    3    0    0 -0.56223214524E+02  0.42624679387E+02  0.59964843906E+01  0.10046549711E+03  0.71270226184E+02 0.  0.
          6    2    1    2  502    0 -0.37429554011E+01 -0.40281015514E+02  0.10892763594E+03  0.20872273594E+03  0.17338794855E+03 0.  0.
         24    2    5    5    0    0 -0.45982598536E+02 -0.72658452129E+02  0.46931273464E+02  0.12688066355E+03  0.80638131916E+02 0.  0.
          4    1    6    6  501    0 -0.21332657067E+00 -0.52893261800E+02 -0.70939774609E+01  0.53367285562E+02  0.00000000000E+00 0. -1.
         -3    1    6    6    0  501 -0.45769271965E+02 -0.19765190329E+02  0.54025250925E+02  0.73513377983E+02  0.00000000000E+00 0.  1.
          5    1    5    5  502    0  0.42239643135E+02  0.32377436615E+02  0.61996362471E+02  0.81842072393E+02  0.47000000000E+01 0. -1.
         13    1    4    4    0    0 -0.14962372363E+02  0.40580073546E+02  0.30046732413E+02  0.52663280229E+02  0.00000000000E+00 0. -1.
        -14    1    4    4    0    0 -0.41260842161E+02  0.20446058411E+01 -0.24050248022E+02  0.47802216882E+02  0.00000000000E+00 0.  1.
         -5    1    3    3    0  504  0.59966169925E+02 -0.23436638732E+01 -0.69784345540E+02  0.92159531131E+02  0.47000000000E+01 0.  1.
<mgrwt>
<rscale>  2 0.18082156E+03</rscale>
<asrwt>0</asrwt>
<pdfrwt beam="1">  1       21 0.34345195E-01 0.18175673E+03</pdfrwt>
<pdfrwt beam="2">  1       21 0.27400615E-01 0.18175673E+03</pdfrwt>
<totfact> 0.10420121E+05</totfact>
</mgrwt>
</event>
<event>
12    1  0.1410528E-001  0.2181287E+03  0.7546771E-02  0.1135397E+00
         21   -1    0    0  502  503  0.00000000000E+00  0.00000000000E+00  0.43874286517E+03  0.43874286517E+03  0.00000000000E+00 0. -1.
         21   -1    0    0  503  504 -0.00000000000E+00 -0.00000000000E+00 -0.10938770817E+03  0.10938770817E+03  0.00000000000E+00 0. -1.
         -6    2    1    2    0  504 -0.12852123189E+03 -0.28475213659E+02  0.19399996373E+03  0.29191796693E+03  0.17392978081E+03 0.  0.
        -24    2    3    3    0    0 -0.46448808922E+01  0.74660795035E+01  0.11593721102E+03  0.14107695709E+03  0.79899647440E+02 0.  0.
          6    2    1    2  502    0  0.12852123189E+03  0.28475213659E+02  0.13535519327E+03  0.25621260640E+03  0.17319158898E+03 0.  0.
         24    2    5    5    0    0  0.12296924777E+03  0.34317196746E+02  0.16586810935E+03  0.22430521945E+03  0.80631854029E+02 0.  0.
          2    1    6    6  501    0  0.13226121408E+03  0.41522925879E+02  0.14685142247E+03  0.20194683064E+03  0.00000000000E+00 0. -1.
         -1    1    6    6    0  501 -0.92919663135E+01 -0.72057291335E+01  0.19016686881E+02  0.22358388811E+02  0.00000000000E+00 0.  1.
          5    1    5    5  502    0  0.55519841180E+01 -0.58419830874E+01 -0.30512916082E+02  0.31907386948E+02  0.47000000000E+01 0. -1.
         11    1    4    4    0    0 -0.24178518244E+02 -0.17700271190E+02  0.11849028132E+02  0.32222659921E+02  0.00000000000E+00 0. -1.
        -12    1    4    4    0    0  0.19533637352E+02  0.25166350693E+02  0.10408818289E+03  0.10885429717E+03  0.00000000000E+00 0.  1.
         -5    1    3    3    0  504 -0.12387635099E+03 -0.35941293162E+02  0.78062752712E+02  0.15084100984E+03  0.47000000000E+01 0.  1.
<mgrwt>
<rscale>  2 0.21798147E+03</rscale>
<asrwt>0</asrwt>
<pdfrwt beam="1">  1       21 0.67498901E-01 0.21812866E+03</pdfrwt>
<pdfrwt beam="2">  1       21 0.16828878E-01 0.21812866E+03</pdfrwt>
<totfact> 0.63058294E+04</totfact>
</mgrwt>
</event>
<event>
12    1  0.1410528E-001  0.2366327E+03  0.7546771E-02  0.1122149E+00
         21   -1    0    0  502  503  0.00000000000E+00  0.00000000000E+00  0.19264025849E+03  0.19264025849E+03  0.00000000000E+00 0. -1.
         21   -1    0    0  503  504 -0.00000000000E+00 -0.00000000000E+00 -0.61143975625E+03  0.61143975625E+03  0.00000000000E+00 0. -1.
         -6    2    1    2    0  504  0.36597827543E+02  0.15765376135E+03 -0.50101524727E+03  0.55408601582E+03  0.17262944559E+03 0.  0.
        -24    2    3    3    0    0  0.35384248798E+02  0.18705012173E+03 -0.43894729396E+03  0.48523734405E+03  0.80874965739E+02 0.  0.
          6    2    1    2  502    0 -0.36597827543E+02 -0.15765376135E+03  0.82215749510E+02  0.24999399891E+03  0.17188211244E+03 0.  0.
         24    2    5    5    0    0 -0.20843250578E+01 -0.82132816461E+01  0.41255500898E+02  0.91175011398E+02  0.80864478869E+02 0.  0.
          4    1    6    6  501    0  0.90383135719E+01  0.54773416068E+00  0.63861940551E+02  0.64500686631E+02  0.00000000000E+00 0. -1.
         -3    1    6    6    0  501 -0.11122638630E+02 -0.87610158068E+01 -0.22606439653E+02  0.26674324768E+02  0.00000000000E+00 0.  1.
          5    1    5    5  502    0 -0.34513502485E+02 -0.14944047971E+03  0.40960248612E+02  0.15881898752E+03  0.47000000000E+01 0. -1.
         13    1    4    4    0    0  0.24639798632E+02  0.10189356189E+03 -0.14440523767E+03  0.17844408171E+03  0.00000000000E+00 0. -1.
        -14    1    4    4    0    0  0.10744450166E+02  0.85156559843E+02 -0.29454205629E+03  0.30679326234E+03  0.00000000000E+00 0.  1.
         -5    1    3    3    0  504  0.12135787452E+01 -0.29396360377E+02 -0.62067953308E+02  0.68848671771E+02  0.47000000000E+01 0.  1.
<mgrwt>
<rscale>  2 0.23649642E+03</rscale>
<asrwt>0</asrwt>
<pdfrwt beam="1">  1       21 0.29636963E-01 0.23663270E+03</pdfrwt>
<pdfrwt beam="2">  1       21 0.94067654E-01 0.23663270E+03</pdfrwt>
<totfact> 0.10050805E+04</totfact>
</mgrwt>
</event>
<event>
12    1  0.1410528E-001  0.1897106E+03  0.7546771E-02  0.1159496E+00
         21   -1    0    0  502  503  0.00000000000E+00  0.00000000000E+00  0.10817917368E+03  0.10817917368E+03  0.00000000000E+00 0.  1.
         21   -1    0    0  503  504 -0.00000000000E+00 -0.00000000000E+00 -0.69754894292E+03  0.69754894292E+03  0.00000000000E+00 0. -1.
         -6    2    1    2    0  504  0.65764177020E+02  0.37664917938E+02 -0.58715121589E+03  0.61600451775E+03  0.17020999544E+03 0.  0.
        -24    2    3    3    0    0  0.43479935291E+02  0.85017798264E+01 -0.56585746275E+03  0.57331271553E+03  0.80808518177E+02 0.  0.
          6    2    1    2  502    0 -0.65764177020E+02 -0.37664917938E+02 -0.22185533590E+01  0.18972359885E+03  0.17391534998E+03 0.  0.
         24    2    5    5    0    0 -0.52860081266E+02  0.76765311949E+01  0.58331110842E+02  0.11284242735E+03  0.80484641982E+02 0.  0.
          4    1    6    6  501    0  0.20734381836E+02 -0.45044426234E+01  0.72051640650E+01  0.22408011574E+02  0.00000000000E+00 0. -1.
         -3    1    6    6    0  501 -0.73594463102E+02  0.12180973818E+02  0.51125946777E+02  0.90434415773E+02  0.00000000000E+00 0.  1.
          5    1    5    5  502    0 -0.12904095754E+02 -0.45341449133E+02 -0.60549664201E+02  0.76881171502E+02  0.47000000000E+01 0. -1.
         11    1    4    4    0    0  0.65449307713E+02  0.88844014647E+01 -0.33762343178E+03  0.34402343838E+03  0.00000000000E+00 0. -1.
        -12    1    4    4    0    0 -0.21969372421E+02 -0.38262163828E+00 -0.22823403097E+03  0.22928927715E+03  0.00000000000E+00 0.  1.
         -5    1    3    3    0  504  0.22284241729E+02  0.29163138111E+02 -0.21293753143E+02  0.42691802220E+02  0.47000000000E+01 0.  1.
<mgrwt>
<rscale>  2 0.18885714E+03</rscale>
<asrwt>0</asrwt>
<pdfrwt beam="1">  1       21 0.16642949E-01 0.18971063E+03</pdfrwt>
<pdfrwt beam="2">  1       21 0.10731522E+00 0.18971063E+03</pdfrwt>
<totfact> 0.22528818E+04</totfact>
</mgrwt>
</event>
<event>
12    1  0.1410528E-001  0.3067107E+03  0.7546771E-02  0.1082018E+00
         21   -1    0    0  502  503  0.00000000000E+00  0.00000000000E+00  0.12848905100E+04  0.12848905100E+04  0.00000000000E+00 0.  1.
         21   -1    0    0  503  504 -0.00000000000E+00 -0.00000000000E+00 -0.75622295344E+02  0.75622295344E+02  0.00000000000E+00 0. -1.
         -6    2    1    2    0  504 -0.16631377352E+03  0.18966292337E+03  0.47978151290E+03  0.56943983910E+03  0.17446814743E+03 0.  0.
        -24    2    3    3    0    0 -0.18374230190E+02  0.10082380728E+03  0.24826251970E+03  0.28064643329E+03  0.81394652027E+02 0.  0.
          6    2    1    2  502    0  0.16631377352E+03 -0.18966292337E+03  0.72948670175E+03  0.79107296624E+03  0.17324345333E+03 0.  0.
         24    2    5    5    0    0  0.11271812473E+03 -0.95945766583E+02  0.59649946842E+03  0.61971634024E+03  0.79534651362E+02 0.  0.
          2    1    6    6  501    0  0.71339306706E+01 -0.46478818646E+02  0.24225303690E+03  0.24677460857E+03  0.00000000000E+00 0. -1.
         -1    1    6    6    0  501  0.10558419406E+03 -0.49466947937E+02  0.35424643152E+03  0.37294173167E+03  0.00000000000E+00 0.  1.
          5    1    5    5  502    0  0.53595648792E+02 -0.93717156783E+02  0.13298723333E+03  0.17135662600E+03  0.47000000000E+01 0. -1.
         11    1    4    4    0    0  0.46302452628E+01  0.68248390014E+01 -0.49174008388E+01  0.96020013330E+01  0.00000000000E+00 0. -1.
        -12    1    4    4    0    0 -0.23004475453E+02  0.93998968282E+02  0.25317992054E+03  0.27104443196E+03  0.00000000000E+00 0.  1.
         -5    1    3    3    0  504 -0.14793954333E+03  0.88839116083E+02  0.23151899320E+03  0.28879340581E+03  0.47000000000E+01 0.  1.
<mgrwt>
<rscale>  2 0.30653677E+03</rscale>
<asrwt>0</asrwt>
<pdfrwt beam="1">  1       21 0.19767545E+00 0.30671066E+03</pdfrwt>
<pdfrwt beam="2">  1       21 0.11634200E-01 0.30671066E+03</pdfrwt>
<totfact> 0.79659165E+03</totfact>
</mgrwt>
</event>
<event>
12    1  0.1410528E-001  0.1944555E+03  0.7546771E-02  0.1154586E+00
         21   -1    0    0  502  503  0.00000000000E+00  0.00000000000E+00  0.61929269813E+02  0.61929269813E+02  0.00000000000E+00 0.  1.
         21   -1    0    0  503  504 -0.00000000000E+00 -0.00000000000E+00 -0.64852053272E+03  0.64852053272E+03  0.00000000000E+00 0. -1.
         -6    2    1    2    0  504 -0.85275783482E+02  0.22282902467E+02 -0.38028200216E+03  0.42694239823E+03  0.17290726778E+03 0.  0.
        -24    2    3    3    0    0 -0.11380223938E+02 -0.45064081131E+02 -0.15640498055E+03  0.18170948705E+03  0.79972112886E+02 0.  0.
          6    2    1    2  502    0  0.85275783482E+02 -0.22282902467E+02 -0.20630926074E+03  0.28350740430E+03  0.17333335003E+03 0.  0.
         24    2    5    5    0    0  0.32712982576E+02 -0.53685285094E+02 -0.38752374482E+02  0.10505192580E+03  0.74712191246E+02 0.  0.
          2    1    6    6  501    0  0.12234731613E+02 -0.90483398000E+01  0.22113913281E+02  0.26843738030E+02  0.00000000000E+00 0. -1.
         -1    1    6    6    0  501  0.20478250963E+02 -0.44636945294E+02 -0.60866287763E+02  0.78208187767E+02  0.00000000000E+00 0.  1.
          5    1    5    5  502    0  0.52562800906E+02  0.31402382627E+02 -0.16755688626E+03  0.17845547850E+03  0.47000000000E+01 0. -1.
         11    1    4    4    0    0 -0.36633483220E+02 -0.10781939834E+02 -0.11919380258E+03  0.12516159512E+03  0.00000000000E+00 0. -1.
        -12    1    4    4    0    0  0.25253259282E+02 -0.34282141297E+02 -0.37211177969E+02  0.56547891934E+02  0.00000000000E+00 0.  1.
         -5    1    3    3    0  504 -0.73895559544E+02  0.67346983598E+02 -0.22387702161E+03  0.24523291118E+03  0.47000000000E+01 0.  1.
<mgrwt>
<rscale>  2 0.19436049E+03</rscale>
<asrwt>0</asrwt>
<pdfrwt beam="1">  1       21 0.95275802E-02 0.19445549E+03</pdfrwt>
<pdfrwt beam="2">  1       21 0.99772387E-01 0.19445549E+03</pdfrwt>
<totfact> 0.72887975E+04</totfact>
</mgrwt>
</event>
<event>
12    1  0.1410528E-001  0.2590338E+03  0.7546771E-02  0.1108099E+00
         21   -1    0    0  502  503  0.00000000000E+00  0.00000000000E+00  0.90207543517E+02  0.90207543517E+02  0.00000000000E+00 0. -1.
         21   -1    0    0  503  504 -0.00000000000E+00 -0.00000000000E+00 -0.13050489430E+04  0.13050489430E+04  0.00000000000E+00 0. -1.
         -6    2    1    2    0  504 -0.19540207039E+02  0.19088663464E+03 -0.10661350596E+04  0.10965725302E+04  0.17031682772E+03 0.  0.
        -24    2    3    3    0    0 -0.15621904449E+02  0.59975750239E+02 -0.70972941154E+03  0.71683566251E+03  0.79349826217E+02 0.  0.
          6    2    1    2  502    0  0.19540207039E+02 -0.19088663464E+03 -0.14870633986E+03  0.29868395625E+03  0.17400862975E+03 0.  0.
         24    2    5    5    0    0 -0.33508727274E+02 -0.11693710814E+03 -0.14730819670E+03  0.20754249090E+03  0.81099066892E+02 0.  0.
          4    1    6    6  501    0 -0.11115386115E+01  0.96373916259E+01 -0.31468732885E+02  0.32930168309E+02  0.00000000000E+00 0. -1.
         -3    1    6    6    0  501 -0.32397188662E+02 -0.12657449977E+03 -0.11583946381E+03  0.17461232259E+03  0.00000000000E+00 0.  1.
          5    1    5    5  502    0  0.53048934313E+02 -0.73949526505E+02 -0.13981431649E+01  0.91141465351E+02  0.47000000000E+01 0. -1.
         13    1    4    4    0    0  0.20908981233E+02 -0.82382237081E+01 -0.12440378584E+03  0.12641738709E+03  0.00000000000E+00 0. -1.
        -14    1    4    4    0    0 -0.36530885682E+02  0.68213973947E+02 -0.58532562570E+03  0.59041827542E+03  0.00000000000E+00 0.  1.
         -5    1    3    3    0  504 -0.39183025898E+01  0.13091088441E+03 -0.35640564804E+03  0.37973686772E+03  0.47000000000E+01 0.  1.
<mgrwt>
<rscale>  2 0.25841527E+03</rscale>
<asrwt>0</asrwt>
<pdfrwt beam="1">  1       21 0.13878085E-01 0.25903384E+03</pdfrwt>
<pdfrwt beam="2">  1       21 0.20077675E+00 0.25903384E+03</pdfrwt>
<totfact> 0.56860533E+03</totfact>
</mgrwt>
</event>
<event>
12    1  0.1410528E-001  0.2174481E+03  0.7546771E-02  0.1135935E+00
         21   -1    0    0  502  503  0.00000000000E+00  0.00000000000E+00  0.31405354214E+03  0.31405354214E+03  0.00000000000E+00 0.  1.
         21   -1    0    0  503  504 -0.00000000000E+00 -0.00000000000E+00 -0.15912738640E+03  0.15912738640E+03  0.00000000000E+00 0.  1.
         -6    2    1    2    0  504  0.83308469938E+02  0.10123535913E+03  0.20884986323E+02  0.21773874717E+03  0.17258354575E+03 0.  0.
        -24    2    3    3    0    0  0.99916860695E+02  0.10563205554E+03 -0.30046568499E+02  0.16378244207E+03  0.69140305495E+02 0.  0.
          6    2    1    2  502    0 -0.83308469938E+02 -0.10123535913E+03  0.13404116941E+03  0.25544218138E+03  0.17347845350E+03 0.  0.
         24    2    5    5    0    0 -0.12749117671E+03 -0.60303392034E+02  0.84810538402E+02  0.17751091334E+03  0.66534184454E+02 0.  0.
          2    1    6    6  501    0 -0.59218713938E+02 -0.64428202975E+02  0.45763387312E+02  0.98752909007E+02  0.00000000000E+00 0. -1.
         -1    1    6    6    0  501 -0.68272462772E+02  0.41248109408E+01  0.39047151090E+02  0.78758004333E+02  0.00000000000E+00 0.  1.
          5    1    5    5  502    0  0.44182706773E+02 -0.40931967095E+02  0.49230631012E+02  0.77931268037E+02  0.47000000000E+01 0. -1.
         11    1    4    4    0    0 -0.50474772369E+01  0.25434102934E+02  0.64845440766E+01  0.26728635027E+02  0.00000000000E+00 0. -1.
        -12    1    4    4    0    0  0.10496433793E+03  0.80197952602E+02 -0.36531112576E+02  0.13705380704E+03  0.00000000000E+00 0.  1.
         -5    1    3    3    0  504 -0.16608390757E+02 -0.43966964074E+01  0.50931554822E+02  0.53956305094E+02  0.47000000000E+01 0.  1.
<mgrwt>
<rscale>  2 0.21726955E+03</rscale>
<asrwt>0</asrwt>
<pdfrwt beam="1">  1       21 0.48315930E-01 0.21744809E+03</pdfrwt>
<pdfrwt beam="2">  1       21 0.24481136E-01 0.21744809E+03</pdfrwt>
<totfact> 0.63794694E+04</totfact>
</mgrwt>
</event>
<event>
12    1  0.1410528E-001  0.2094164E+03  0.7546771E-02  0.1142499E+00
         21   -1    0    0  502  503  0.00000000000E+00  0.00000000000E+00  0.43390968531E+03  0.43390968531E+03  0.00000000000E+00 0.  1.
         21   -1    0    0  503  504 -0.00000000000E+00 -0.00000000000E+00 -0.12510350352E+03  0.12510350352E+03  0.00000000000E+00 0. -1.
         -6    2    1    2    0  504  0.73550557526E+02 -0.91281855572E+02  0.29741698072E+02  0.21151781199E+03  0.17353142227E+03 0.  0.
        -24    2    3    3    0    0  0.82674178312E+02 -0.69552702516E+01 -0.13603148203E+02  0.11614968761E+03  0.80139308383E+02 0.  0.
          6    2    1    2  502    0 -0.73550557526E+02  0.91281855572E+02  0.27906448372E+03  0.34749537684E+03  0.17068681608E+03 0.  0.
         24    2    5    5    0    0 -0.33672866134E+02  0.26686384268E+02  0.25058869407E+03  0.26628105680E+03  0.79151011338E+02 0.  0.
          4    1    6    6  501    0  0.80837551693E+01  0.60803866537E+01  0.18799533796E+03  0.18826727091E+03  0.00000000000E+00 0. -1.
         -3    1    6    6    0  501 -0.41756621303E+02  0.20605997614E+02  0.62593356104E+02  0.78013785888E+02  0.00000000000E+00 0.  1.
          5    1    5    5  502    0 -0.39877691392E+02  0.64595471305E+02  0.28475789653E+02  0.81214320044E+02  0.47000000000E+01 0. -1.
         13    1    4    4    0    0 -0.30789112578E+01  0.20159045412E+02 -0.16399054251E+02  0.26168603073E+02  0.00000000000E+00 0. -1.
        -14    1    4    4    0    0  0.85753089570E+02 -0.27114315663E+02  0.27959060482E+01  0.89981084542E+02  0.00000000000E+00 0.  1.
         -5    1    3    3    0  504 -0.91236207861E+01 -0.84326585321E+02  0.43344846275E+02  0.95368124375E+02  0.47000000000E+01 0.  1.
<mgrwt>
<rscale>  2 0.20882612E+03</rscale>
<asrwt>0</asrwt>
<pdfrwt beam="1">  1       21 0.66755335E-01 0.20941637E+03</pdfrwt>
<pdfrwt beam="2">  1       21 0.19246693E-01 0.20941637E+03</pdfrwt>
<totfact> 0.50575646E+04</totfact>
</mgrwt>
</event>
<event>
12    1  0.1410528E-001  0.2538063E+03  0.7546771E-02  0.1111032E+00
         21   -1    0    0  502  503  0.00000000000E+00  0.00000000000E+00  0.19415711663E+03  0.19415711663E+03  0.00000000000E+00 0.  1.
         21   -1    0    0  503  504 -0.00000000000E+00 -0.00000000000E+00 -0.10238102849E+04  0.10238102849E+04  0.00000000000E+00 0.  1.
         -6    2    1    2    0  504  0.16322803445E+03  0.88372007054E+02 -0.91602312353E+03  0.95053457603E+03  0.17310290157E+03 0.  0.
        -24    2    3    3    0    0  0.11760489074E+03  0.36372902376E+00 -0.67429704248E+03  0.68922916754E+03  0.80804091952E+02 0.  0.
          6    2    1    2  502    0 -0.16322803445E+03 -0.88372007054E+02  0.86369955287E+02  0.26743282547E+03  0.17206842853E+03 0.  0.
         24    2    5    5    0    0 -0.32193025947E+02 -0.13826164271E+02  0.75977535411E+02  0.11624635609E+03  0.80703628665E+02 0.  0.
          2    1    6    6  501    0  0.36882855222E+01  0.26755029481E+02  0.48485001231E+02  0.55499823396E+02  0.00000000000E+00 0. -1.
         -1    1    6    6    0  501 -0.35881311469E+02 -0.40581193752E+02  0.27492534180E+02  0.60746532697E+02  0.00000000000E+00 0.  1.
          5    1    5    5  502    0 -0.13103500851E+03 -0.74545842783E+02  0.10392419876E+02  0.15118646937E+03  0.47000000000E+01 0. -1.
         13    1    4    4    0    0  0.31901353966E+02 -0.34383679990E+02 -0.16206119611E+03  0.16871207757E+03  0.00000000000E+00 0. -1.
        -14    1    4    4    0    0  0.85703536770E+02  0.34747409014E+02 -0.51223584637E+03  0.52051708997E+03  0.00000000000E+00 0.  1.
         -5    1    3    3    0  504  0.45623143718E+02  0.88008278030E+02 -0.24172608105E+03  0.26130540849E+03  0.47000000000E+01 0.  1.
<mgrwt>
<rscale>  2 0.25362997E+03</rscale>
<asrwt>0</asrwt>
<pdfrwt beam="1">  1       21 0.29870326E-01 0.25380626E+03</pdfrwt>
<pdfrwt beam="2">  1       21 0.15750927E+00 0.25380626E+03</pdfrwt>
<totfact> 0.26825070E+03</totfact>
</mgrwt>
</event>
<event>
12    1  0.1410528E-001  0.1749641E+03  0.7546771E-02  0.1173129E+00
         21   -1    0    0  502  503  0.00000000000E+00  0.00000000000E+00  0.88656786607E+02  0.88656786607E+02  0.00000000000E+00 0.  1.
         21   -1    0    0  503  504 -0.00000000000E+00 -0.00000000000E+00 -0.50704722426E+03  0.50704722426E+03  0.00000000000E+00 0.  1.
         -6    2    1    2    0  504 -0.26770433791E+01 -0.19942582041E+01 -0.37830577201E+03  0.41620689309E+03  0.17349863716E+03 0.  0.
        -24    2    3    3    0    0  0.11017304172E+02 -0.56728394258E+02 -0.32380552574E+03  0.33762109509E+03  0.76147840706E+02 0.  0.
          6    2    1    2  502    0  0.26770433791E+01  0.19942582041E+01 -0.40084665645E+02  0.17949711777E+03  0.17493224758E+03 0.  0.
         24    2    5    5    0    0  0.48747026046E+02  0.38327656485E+02  0.10034224243E+02  0.10218895354E+03  0.80601580440E+02 0.  0.
          4    1    6    6  501    0  0.58626011537E+02  0.13102151909E+01 -0.91352087915E+01  0.59347939579E+02  0.00000000000E+00 0. -1.
         -3    1    6    6    0  501 -0.98789854912E+01  0.37017441294E+02  0.19169433035E+02  0.42841013960E+02  0.00000000000E+00 0.  1.
          5    1    5    5  502    0 -0.46069982667E+02 -0.36333398281E+02 -0.50118889888E+02  0.77308164233E+02  0.47000000000E+01 0. -1.
         13    1    4    4    0    0 -0.12492370821E+02  0.96865054181E+01 -0.18697049443E+02  0.24484022827E+02  0.00000000000E+00 0. -1.
        -14    1    4    4    0    0  0.23509674993E+02 -0.66414899676E+02 -0.30510847630E+03  0.31313707227E+03  0.00000000000E+00 0.  1.
         -5    1    3    3    0  504 -0.13694347551E+02  0.54734136054E+02 -0.54500246263E+02  0.78585797999E+02  0.47000000000E+01 0.  1.
<mgrwt>
<rscale>  2 0.17460465E+03</rscale>
<asrwt>0</asrwt>
<pdfrwt beam="1">  1       21 0.13639506E-01 0.17496410E+03</pdfrwt>
<pdfrwt beam="2">  1       21 0.78007266E-01 0.17496410E+03</pdfrwt>
<totfact> 0.68399153E+04</totfact>
</mgrwt>
</event>
<event>
12    1  0.1410528E-001  0.2109898E+03  0.7546771E-02  0.1141051E+00
         21   -1    0    0  502  503  0.00000000000E+00  0.00000000000E+00  0.59374955416E+03  0.59374955416E+03  0.00000000000E+00 0. -1.
         21   -1    0    0  503  504 -0.00000000000E+00 -0.00000000000E+00 -0.13059019794E+03  0.13059019794E+03  0.00000000000E+00 0.  1.
         -6    2    1    2    0  504  0.70180646296E+02  0.95856722294E+02 -0.62065463902E+01  0.20973209828E+03  0.17272868178E+03 0.  0.
        -24    2    3    3    0    0  0.95196693519E+02  0.12007822398E+03 -0.27561495814E+01  0.17442658879E+03  0.83281739814E+02 0.  0.
          6    2    1    2  502    0 -0.70180646296E+02 -0.95856722294E+02  0.46936590261E+03  0.51460765381E+03  0.17436413767E+03 0.  0.
         24    2    5    5    0    0  0.27036949483E+02 -0.63755179531E+02  0.27587876155E+03  0.29565301529E+03  0.80659127306E+02 0.  0.
          2    1    6    6  501    0 -0.88031277129E+01 -0.66252956256E+02  0.14047565086E+03  0.15556464172E+03  0.00000000000E+00 0. -1.
         -1    1    6    6    0  501  0.35840077196E+02  0.24977767258E+01  0.13540311070E+03  0.14008837356E+03  0.00000000000E+00 0.  1.
          5    1    5    5  502    0 -0.97217595779E+02 -0.32101542763E+02  0.19348714106E+03  0.21895463853E+03  0.47000000000E+01 0. -1.
         11    1    4    4    0    0  0.19497012517E+01  0.30958488060E+02  0.28040733657E+02  0.41815213284E+02  0.00000000000E+00 0. -1.
        -12    1    4    4    0    0  0.93246992267E+02  0.89119735916E+02 -0.30796883239E+02  0.13261137551E+03  0.00000000000E+00 0.  1.
         -5    1    3    3    0  504 -0.25016047223E+02 -0.24221501682E+02 -0.34503968088E+01  0.35305509493E+02  0.47000000000E+01 0.  1.
<mgrwt>
<rscale>  2 0.21065158E+03</rscale>
<asrwt>0</asrwt>
<pdfrwt beam="1">  1       21 0.91346084E-01 0.21098978E+03</pdfrwt>
<pdfrwt beam="2">  1       21 0.20090800E-01 0.21098978E+03</pdfrwt>
<totfact> 0.22982395E+04</totfact>
</mgrwt>
</event>
<event>
12    1  0.1410528E-001  0.2035187E+03  0.7546771E-02  0.1150383E+00
         21   -1    0    0  502  503  0.00000000000E+00  0.00000000000E+00  0.35547282038E+03  0.35547282038E+03  0.00000000000E+00 0.  1.
         21   -1    0    0  503  504 -0.00000000000E+00 -0.00000000000E+00 -0.10723689383E+03  0.10723689383E+03  0.00000000000E+00 0.  1.
         -6    2    1    2    0  504  0.70101836216E+02 -0.48324074617E+01  0.11567474377E+03  0.21982632390E+03  0.17322051475E+03 0.  0.
        -24    2    3    3    0    0  0.94157160478E+02 -0.42666879333E+02  0.49499897729E+02  0.13975569173E+03  0.79971120001E+02 0.  0.
          6    2    1    2  502    0 -0.70101836216E+02  0.48324074617E+01  0.13256118278E+03  0.24288339032E+03  0.19100328403E+03 0.  0.
         24    2    5    5    0    0 -0.78617745260E+02 -0.65693560520E+02  0.71994796812E+02  0.14941248589E+03  0.81513473781E+02 0.  0.
          2    1    6    6  501    0 -0.43859929333E+02 -0.72276952297E+02  0.20596085659E+02  0.87016377648E+02  0.00000000000E+00 0. -1.
         -1    1    6    6    0  501 -0.34757815927E+02  0.65833917779E+01  0.51398711154E+02  0.62396108240E+02  0.00000000000E+00 0.  1.
          5    1    5    5  502    0  0.85159090437E+01  0.70525967981E+02  0.60566385966E+02  0.93470904433E+02  0.47000000000E+01 0. -1.
         11    1    4    4    0    0 -0.91026710409E+01  0.41596118159E+01  0.20364479818E+02  0.22690813753E+02  0.00000000000E+00 0. -1.
        -12    1    4    4    0    0  0.10325983152E+03 -0.46826491149E+02  0.29135417912E+02  0.11706487798E+03  0.00000000000E+00 0.  1.
         -5    1    3    3    0  504 -0.24055324262E+02  0.37834471872E+02  0.66174846041E+02  0.80070632167E+02  0.47000000000E+01 0.  1.
<mgrwt>
<rscale>  2 0.19923850E+03</rscale>
<asrwt>0</asrwt>
<pdfrwt beam="1">  1       21 0.54688126E-01 0.20351873E+03</pdfrwt>
<pdfrwt beam="2">  1       21 0.16497984E-01 0.20351873E+03</pdfrwt>
<totfact> 0.10360856E+05</totfact>
</mgrwt>
</event>
<event>
12    1  0.1410528E-001  0.1997357E+03  0.7546771E-02  0.1150095E+00
         21   -1    0    0  502  503  0.00000000000E+00  0.00000000000E+00  0.15129137344E+03  0.15129137344E+03  0.00000000000E+00 0.  1.
         21   -1    0    0  503  504 -0.00000000000E+00 -0.00000000000E+00 -0.39272019646E+03  0.39272019646E+03  0.00000000000E+00 0. -1.
         -6    2    1    2    0  504  0.91438802432E+02 -0.42967564880E+02 -0.27725280399E+03  0.34170670970E+03  0.17229942517E+03 0.  0.
        -24    2    3    3    0    0  0.66086710852E+02  0.65497369649E+01 -0.65207463446E+02  0.12243516988E+03  0.79548759444E+02 0.  0.
          6    2    1    2  502    0 -0.91438802432E+02  0.42967564880E+02  0.35823980964E+02  0.20230486021E+03  0.17157107165E+03 0.  0.
         24    2    5    5    0    0 -0.69167086252E+02  0.91146701932E+02  0.21397513000E+01  0.13926538117E+03  0.79362842464E+02 0.  0.
          4    1    6    6  501    0 -0.49850922797E+02  0.18051765851E+02  0.27235496999E+02  0.59604975051E+02  0.00000000000E+00 0. -1.
         -3    1    6    6    0  501 -0.19316163456E+02  0.73094936081E+02 -0.25095745699E+02  0.79660406122E+02  0.00000000000E+00 0.  1.
          5    1    5    5  502    0 -0.22271716180E+02 -0.48179137052E+02  0.33684229664E+02  0.63039479033E+02  0.47000000000E+01 0. -1.
         11    1    4    4    0    0  0.69084151141E+01 -0.11658276167E+01  0.18413990039E+02  0.19701786279E+02  0.00000000000E+00 0. -1.
        -12    1    4    4    0    0  0.59178295738E+02  0.77155645816E+01 -0.83621453485E+02  0.10273338360E+03  0.00000000000E+00 0.  1.
         -5    1    3    3    0  504  0.25352091580E+02 -0.49517301845E+02 -0.21204534054E+03  0.21927153982E+03  0.47000000000E+01 0.  1.
<mgrwt>
<rscale>  2 0.19957854E+03</rscale>
<asrwt>0</asrwt>
<pdfrwt beam="1">  1       21 0.23275596E-01 0.19973572E+03</pdfrwt>
<pdfrwt beam="2">  1       21 0.60418493E-01 0.19973572E+03</pdfrwt>
<totfact> 0.44138613E+04</totfact>
</mgrwt>
</event>
<event>
12    1  0.1410528E-001  0.1744407E+03  0.7546771E-02  0.1173387E+00
         21   -1    0    0  502  503  0.00000000000E+00  0.00000000000E+00  0.48508650044E+03  0.48508650044E+03  0.00000000000E+00 0.  1.
         21   -1    0    0  503  504 -0.00000000000E+00 -0.00000000000E+00 -0.14306435720E+03  0.14306435720E+03  0.00000000000E+00 0.  1.
         -6    2    1    2    0  504  0.23105894147E+01 -0.25594608557E+02 -0.64611747984E+02  0.18567975841E+03  0.17216815006E+03 0.  0.
        -24    2    3    3    0    0 -0.49051621266E+02 -0.61656415387E+02 -0.42326632621E+02  0.11891714189E+03  0.78371982872E+02 0.  0.
          6    2    1    2  502    0 -0.23105894147E+01  0.25594608557E+02  0.40663389122E+03  0.44247109923E+03  0.17253732743E+03 0.  0.
         24    2    5    5    0    0  0.31497812726E+02 -0.18395656956E+02  0.35253285152E+03  0.36483628738E+03  0.86577091575E+02 0.  0.
          2    1    6    6  501    0  0.12341048886E+02  0.12007225616E+02  0.30379750570E+03  0.30428506277E+03  0.00000000000E+00 0. -1.
         -1    1    6    6    0  501  0.19156763840E+02 -0.30402882572E+02  0.48735345822E+02  0.60551224611E+02  0.00000000000E+00 0.  1.
          5    1    5    5  502    0 -0.33808402141E+02  0.43990265513E+02  0.54101039698E+02  0.77634811854E+02  0.47000000000E+01 0. -1.
         11    1    4    4    0    0  0.11064369254E+02 -0.32486182189E+02  0.80321575101E+01  0.35246104104E+02  0.00000000000E+00 0. -1.
        -12    1    4    4    0    0 -0.60115990519E+02 -0.29170233198E+02 -0.50358790131E+02  0.83671037787E+02  0.00000000000E+00 0.  1.
         -5    1    3    3    0  504  0.51362210680E+02  0.36061806830E+02 -0.22285115363E+02  0.66762616520E+02  0.47000000000E+01 0.  1.
<mgrwt>
<rscale>  2 0.17434933E+03</rscale>
<asrwt>0</asrwt>
<pdfrwt beam="1">  1       21 0.74628692E-01 0.17444068E+03</pdfrwt>
<pdfrwt beam="2">  1       21 0.22009901E-01 0.17444068E+03</pdfrwt>
<totfact> 0.31317897E+04</totfact>
</mgrwt>
</event>
<event>
12    1  0.1410528E-001  0.1798207E+03  0.7546771E-02  0.1168066E+00
         21   -1    0    0  502  503  0.00000000000E+00  0.00000000000E+00  0.17466467479E+03  0.17466467479E+03  0.00000000000E+00 0. -1.
         21   -1    0    0  503  504 -0.00000000000E+00 -0.00000000000E+00 -0.33005817304E+03  0.33005817304E+03  0.00000000000E+00 0. -1.
         -6    2    1    2    0  504  0.36374125501E+02 -0.31507811458E+02 -0.24509773794E+03  0.30376930049E+03  0.17287876558E+03 0.  0.
        -24    2    3    3    0    0  0.56876439721E+01 -0.36477510833E+02 -0.40470295172E+02  0.96740707311E+02  0.79736826932E+02 0.  0.
          6    2    1    2  502    0 -0.36374125501E+02  0.31507811458E+02  0.89704239686E+02  0.20095354735E+03  0.17326182033E+03 0.  0.
         24    2    5    5    0    0 -0.78492262220E+02 -0.89980065292E+01  0.13777234974E+02  0.10502827030E+03  0.67816856379E+02 0.  0.
          4    1    6    6  501    0 -0.76524361639E+02 -0.24977481965E+02  0.26241895794E+02  0.84666933478E+02  0.00000000000E+00 0. -1.
         -3    1    6    6    0  501 -0.19679005801E+01  0.15979475436E+02 -0.12464660819E+02  0.20361336824E+02  0.00000000000E+00 0.  1.
          5    1    5    5  502    0  0.42118136719E+02  0.40505817988E+02  0.75927004712E+02  0.95925277044E+02  0.47000000000E+01 0. -1.
         11    1    4    4    0    0  0.16418541446E+02 -0.28057825461E+02 -0.62719262888E+02  0.70643584351E+02  0.00000000000E+00 0. -1.
        -12    1    4    4    0    0 -0.10730897474E+02 -0.84196853724E+01  0.22248967716E+02  0.26097122960E+02  0.00000000000E+00 0.  1.
         -5    1    3    3    0  504  0.30686481529E+02  0.49696993750E+01 -0.20462744276E+03  0.20702859318E+03  0.47000000000E+01 0.  1.
<mgrwt>
<rscale>  2 0.17972835E+03</rscale>
<asrwt>0</asrwt>
<pdfrwt beam="1">  1       21 0.26871488E-01 0.17982068E+03</pdfrwt>
<pdfrwt beam="2">  1       21 0.50778180E-01 0.17982068E+03</pdfrwt>
<totfact> 0.48961470E+04</totfact>
</mgrwt>
</event>
<event>
12    1  0.1410528E-001  0.2618869E+03  0.7546771E-02  0.1106226E+00
         21   -1    0    0  502  503  0.00000000000E+00  0.00000000000E+00  0.32829050705E+03  0.32829050705E+03  0.00000000000E+00 0.  1.
         21   -1    0    0  503  504 -0.00000000000E+00 -0.00000000000E+00 -0.23390322436E+03  0.23390322436E+03  0.00000000000E+00 0. -1.
         -6    2    1    2    0  504  0.13468584363E+03  0.14329443313E+03 -0.46843904832E+02  0.26465213041E+03  0.17080054939E+03 0.  0.
        -24    2    3    3    0    0  0.15423395612E+03  0.79197680752E+02 -0.49330350877E+02  0.19743014903E+03  0.80528220945E+02 0.  0.
          6    2    1    2  502    0 -0.13468584363E+03 -0.14329443313E+03  0.14123118753E+03  0.29754160100E+03  0.17294850377E+03 0.  0.
         24    2    5    5    0    0  0.23206861707E+01 -0.64553015583E+02  0.64373221893E+02  0.12175696878E+03  0.80674471453E+02 0.  0.
          2    1    6    6  501    0  0.19982065331E+02 -0.45258632459E+02 -0.29192032043E+01  0.49559544937E+02  0.00000000000E+00 0. -1.
         -1    1    6    6    0  501 -0.17661379160E+02 -0.19294383123E+02  0.67292425098E+02  0.72197423842E+02  0.00000000000E+00 0.  1.
          5    1    5    5  502    0 -0.13700652980E+03 -0.78741417545E+02  0.76857965634E+02  0.17578463222E+03  0.47000000000E+01 0. -1.
         11    1    4    4    0    0  0.45640456306E+00  0.82557362329E+00 -0.22784095365E+02  0.22803615470E+02  0.00000000000E+00 0. -1.
        -12    1    4    4    0    0  0.15377755156E+03  0.78372107128E+02 -0.26546255512E+02  0.17462653356E+03  0.00000000000E+00 0.  1.
         -5    1    3    3    0  504 -0.19548112498E+02  0.64096752376E+02  0.24864460445E+01  0.67221981385E+02  0.47000000000E+01 0.  1.
<mgrwt>
<rscale>  2 0.26153282E+03</rscale>
<asrwt>0</asrwt>
<pdfrwt beam="1">  1       21 0.50506232E-01 0.26188691E+03</pdfrwt>
<pdfrwt beam="2">  1       21 0.35985111E-01 0.26188691E+03</pdfrwt>
<totfact> 0.26840165E+04</totfact>
</mgrwt>
</event>
<event>
12    1  0.1410528E-001  0.2001133E+03  0.7546771E-02  0.1150643E+00
         21   -1    0    0  502  503  0.00000000000E+00  0.00000000000E+00  0.27029965940E+03  0.27029965940E+03  0.00000000000E+00 0.  1.
         21   -1    0    0  503  504 -0.00000000000E+00 -0.00000000000E+00 -0.23254553400E+03  0.23254553400E+03  0.00000000000E+00 0.  1.
         -6    2    1    2    0  504  0.19036890426E+01 -0.10063965571E+03 -0.13550291442E+03  0.24167409779E+03  0.17295480737E+03 0.  0.
        -24    2    3    3    0    0 -0.35571767652E+02 -0.88116401753E+02 -0.28495006127E+02  0.12750744687E+03  0.80102014462E+02 0.  0.
          6    2    1    2  502    0 -0.19036890426E+01  0.10063965571E+03  0.17325703983E+03  0.26117109561E+03  0.16751231297E+03 0.  0.
         24    2    5    5    0    0 -0.77277971076E+01 -0.32562203012E+01  0.11866162945E+03  0.14356572956E+03  0.80375460086E+02 0.  0.
          4    1    6    6  501    0  0.30490786369E+02 -0.57371838797E+01  0.18011243988E+02  0.35874897104E+02  0.00000000000E+00 0. -1.
         -3    1    6    6    0  501 -0.38218583477E+02  0.24809635785E+01  0.10065038546E+03  0.10769083246E+03  0.00000000000E+00 0.  1.
          5    1    5    5  502    0  0.58241080650E+01  0.10389587601E+03  0.54595410385E+02  0.11760536604E+03  0.47000000000E+01 0. -1.
         13    1    4    4    0    0 -0.41204421321E+02 -0.26834871058E+02 -0.41809006665E+02  0.64543843079E+02  0.00000000000E+00 0. -1.
        -14    1    4    4    0    0  0.56326536693E+01 -0.61281530696E+02  0.13314000538E+02  0.62963603789E+02  0.00000000000E+00 0.  1.
         -5    1    3    3    0  504  0.37475456695E+02 -0.12523253959E+02 -0.10700790830E+03  0.11416665092E+03  0.47000000000E+01 0.  1.
<mgrwt>
<rscale>  2 0.19893170E+03</rscale>
<asrwt>0</asrwt>
<pdfrwt beam="1">  1       21 0.41584563E-01 0.20011329E+03</pdfrwt>
<pdfrwt beam="2">  1       21 0.35776236E-01 0.20011329E+03</pdfrwt>
<totfact> 0.41785194E+04</totfact>
</mgrwt>
</event>
<event>
12    1  0.1410528E-001  0.2252365E+03  0.7546771E-02  0.1130419E+00
         21   -1    0    0  502  503  0.00000000000E+00  0.00000000000E+00  0.12865135169E+03  0.12865135169E+03  0.00000000000E+00 0. -1.
         21   -1    0    0  503  504 -0.00000000000E+00 -0.00000000000E+00 -0.82621615860E+03  0.82621615860E+03  0.00000000000E+00 0. -1.
         -6    2    1    2    0  504  0.96367496812E+02  0.10768002242E+03 -0.69465252316E+03  0.72961220176E+03  0.17002986606E+03 0.  0.
        -24    2    3    3    0    0  0.11839739203E+03  0.97867470637E+02 -0.67835753856E+03  0.70012968187E+03  0.80103914230E+02 0.  0.
          6    2    1    2  502    0 -0.96367496812E+02 -0.10768002242E+03 -0.29122837459E+01  0.22525530853E+03  0.17277092046E+03 0.  0.
         24    2    5    5    0    0 -0.12527685752E+02 -0.36548978938E+02  0.53896916338E+02  0.10140816695E+03  0.76720062309E+02 0.  0.
          2    1    6    6  501    0 -0.44611093267E+02 -0.17768133421E+02  0.23895358168E+02  0.53636222367E+02  0.00000000000E+00 0. -1.
         -1    1    6    6    0  501  0.32083407516E+02 -0.18780845518E+02  0.30001558170E+02  0.47771944579E+02  0.00000000000E+00 0.  1.
          5    1    5    5  502    0 -0.83839811060E+02 -0.71131043479E+02 -0.56809200084E+02  0.12384714159E+03  0.47000000000E+01 0. -1.
         11    1    4    4    0    0  0.22370736144E+01  0.43669122231E+02 -0.13725803164E+03  0.14405472566E+03  0.00000000000E+00 0. -1.
        -12    1    4    4    0    0  0.11616031841E+03  0.54198348407E+02 -0.54109950692E+03  0.55607495621E+03  0.00000000000E+00 0.  1.
         -5    1    3    3    0  504 -0.22029895215E+02  0.98125517798E+01 -0.16294984607E+02  0.29482519888E+02  0.47000000000E+01 0.  1.
<mgrwt>
<rscale>  2 0.22471073E+03</rscale>
<asrwt>0</asrwt>
<pdfrwt beam="1">  1       21 0.19792516E-01 0.22523648E+03</pdfrwt>
<pdfrwt beam="2">  1       21 0.12711018E+00 0.22523648E+03</pdfrwt>
<totfact> 0.10526400E+04</totfact>
</mgrwt>
</event>
<event>
12    1  0.1410528E-001  0.2097423E+03  0.7546771E-02  0.1143042E+00
         21   -1    0    0  502  503  0.00000000000E+00  0.00000000000E+00  0.15158407555E+03  0.15158407555E+03  0.00000000000E+00 0.  1.
         21   -1    0    0  503  504 -0.00000000000E+00 -0.00000000000E+00 -0.29244887193E+03  0.29244887193E+03  0.00000000000E+00 0.  1.
         -6    2    1    2    0  504  0.40389308794E+02  0.11115016129E+03 -0.11432940144E+03  0.23887868861E+03  0.17322286576E+03 0.  0.
        -24    2    3    3    0    0 -0.36897320941E+02  0.52522468583E+02 -0.93529716169E+02  0.13955524528E+03  0.81288601171E+02 0.  0.
          6    2    1    2  502    0 -0.40389308794E+02 -0.11115016129E+03 -0.26535394939E+02  0.20515425886E+03  0.16552488673E+03 0.  0.
         24    2    5    5    0    0 -0.35765868369E+01  0.52980537786E+01 -0.15094639074E+02  0.82401074849E+02  0.80754118535E+02 0.  0.
          4    1    6    6  501    0 -0.15233438035E+02  0.37067110949E+02  0.87304208471E+01  0.41015223962E+02  0.00000000000E+00 0. -1.
         -3    1    6    6    0  501  0.11656851199E+02 -0.31769057171E+02 -0.23825059921E+02  0.41385850887E+02  0.00000000000E+00 0.  1.
          5    1    5    5  502    0 -0.36812721957E+02 -0.11644821507E+03 -0.11440755866E+02  0.12275318401E+03  0.47000000000E+01 0. -1.
         13    1    4    4    0    0  0.17168711606E+02 -0.52357966575E+01 -0.40535089670E+02  0.44331385264E+02  0.00000000000E+00 0. -1.
        -14    1    4    4    0    0 -0.54066032547E+02  0.57758265240E+02 -0.52994626498E+02  0.95223860017E+02  0.00000000000E+00 0.  1.
         -5    1    3    3    0  504  0.77286629735E+02  0.58627692710E+02 -0.20799685269E+02  0.99323443333E+02  0.47000000000E+01 0.  1.
<mgrwt>
<rscale>  2 0.20814630E+03</rscale>
<asrwt>0</asrwt>
<pdfrwt beam="1">  1       21 0.23320627E-01 0.20974226E+03</pdfrwt>
<pdfrwt beam="2">  1       21 0.44992134E-01 0.20974226E+03</pdfrwt>
<totfact> 0.81362509E+04</totfact>
</mgrwt>
</event>
<event>
12    1  0.1410528E-001  0.2327069E+03  0.7546771E-02  0.1125135E+00
         21   -1    0    0  502  503  0.00000000000E+00  0.00000000000E+00  0.13674399366E+03  0.13674399366E+03  0.00000000000E+00 0.  1.
         21   -1    0    0  503  504 -0.00000000000E+00 -0.00000000000E+00 -0.60716161784E+03  0.60716161784E+03  0.00000000000E+00 0.  1.
         -6    2    1    2    0  504  0.11579089641E+03  0.10182386061E+03 -0.45577220828E+03  0.51073832549E+03  0.17131754437E+03 0.  0.
        -24    2    3    3    0    0  0.53444247061E+02  0.73238855216E+02 -0.41170564342E+03  0.42907952709E+03  0.79921751017E+02 0.  0.
          6    2    1    2  502    0 -0.11579089641E+03 -0.10182386061E+03 -0.14645415900E+02  0.23316728601E+03  0.17428960031E+03 0.  0.
         24    2    5    5    0    0 -0.13495024679E+03 -0.84447363981E+02 -0.52807897744E+02  0.18682628512E+03  0.82294959479E+02 0.  0.
          4    1    6    6  501    0 -0.59026144982E+02 -0.17776798227E+02 -0.59351628516E+02  0.85572870433E+02  0.00000000000E+00 0. -1.
         -3    1    6    6    0  501 -0.75924101811E+02 -0.66670565754E+02  0.65437307722E+01  0.10125341469E+03  0.00000000000E+00 0.  1.
          5    1    5    5  502    0  0.19159350385E+02 -0.17376496633E+02  0.38162481844E+02  0.46341000884E+02  0.47000000000E+01 0. -1.
         13    1    4    4    0    0 -0.13499903660E+02 -0.10835724736E+01 -0.16171891204E+02  0.21093875729E+02  0.00000000000E+00 0. -1.
        -14    1    4    4    0    0  0.66944150722E+02  0.74322427690E+02 -0.39553375222E+03  0.40798565136E+03  0.00000000000E+00 0.  1.
         -5    1    3    3    0  504  0.62346649346E+02  0.28585005398E+02 -0.44066564855E+02  0.81658798401E+02  0.47000000000E+01 0.  1.
<mgrwt>
<rscale>  2 0.23215051E+03</rscale>
<asrwt>0</asrwt>
<pdfrwt beam="1">  1       21 0.21037538E-01 0.23270689E+03</pdfrwt>
<pdfrwt beam="2">  1       21 0.93409479E-01 0.23270689E+03</pdfrwt>
<totfact> 0.19766196E+04</totfact>
</mgrwt>
</event>
<event>
12    1  0.1410528E-001  0.1909750E+03  0.7546771E-02  0.1157595E+00
         21   -1    0    0  502  503  0.00000000000E+00  0.00000000000E+00  0.23077028451E+04  0.23077028451E+04  0.00000000000E+00 0. -1.
         21   -1    0    0  503  504 -0.00000000000E+00 -0.00000000000E+00 -0.16824990352E+02  0.16824990352E+02  0.00000000000E+00 0. -1.
         -6    2    1    2    0  504 -0.46882643869E+02  0.65682633805E+02  0.85852544673E+03  0.87950020210E+03  0.17303893244E+03 0.  0.
        -24    2    3    3    0    0 -0.58156030403E+02 -0.17480377509E+02  0.33222972447E+03  0.34653448748E+03  0.77600732750E+02 0.  0.
          6    2    1    2  502    0  0.46882643869E+02 -0.65682633805E+02  0.14323524081E+04  0.14450276334E+04  0.17308740480E+03 0.  0.
         24    2    5    5    0    0  0.36584049021E+02 -0.56979600154E+01  0.12365729583E+04  0.12399522690E+04  0.83654579755E+02 0.  0.
          2    1    6    6  501    0  0.58176886453E+02 -0.24217172074E+02  0.86365587040E+03  0.86595177927E+03  0.00000000000E+00 0. -1.
         -1    1    6    6    0  501 -0.21592837432E+02  0.18519212059E+02  0.37291708793E+03  0.37400048973E+03  0.00000000000E+00 0.  1.
          5    1    5    5  502    0  0.10298594848E+02 -0.59984673789E+02  0.19577944972E+03  0.20507536438E+03  0.47000000000E+01 0. -1.
         13    1    4    4    0    0 -0.19176950807E+02 -0.10536112822E+02  0.14278032958E+02  0.26127138014E+02  0.00000000000E+00 0. -1.
        -14    1    4    4    0    0 -0.38979079596E+02 -0.69442646865E+01  0.31795169151E+03  0.32040734946E+03  0.00000000000E+00 0.  1.
         -5    1    3    3    0  504  0.11273386534E+02  0.83163011313E+02  0.52629572226E+03  0.53296571463E+03  0.47000000000E+01 0.  1.
<mgrwt>
<rscale>  2 0.19096399E+03</rscale>
<asrwt>0</asrwt>
<pdfrwt beam="1">  1       21 0.35503096E+00 0.19097497E+03</pdfrwt>
<pdfrwt beam="2">  1       21 0.25884619E-02 0.19097497E+03</pdfrwt>
<totfact> 0.13204966E+04</totfact>
</mgrwt>
</event>
<event>
12    1  0.1410528E-001  0.1975281E+03  0.7546771E-02  0.1152114E+00
         21   -1    0    0  502  503  0.00000000000E+00  0.00000000000E+00  0.12071904383E+04  0.12071904383E+04  0.00000000000E+00 0.  1.
         21   -1    0    0  503  504 -0.00000000000E+00 -0.00000000000E+00 -0.35125488191E+02  0.35125488191E+02  0.00000000000E+00 0.  1.
         -6    2    1    2    0  504  0.10235918649E+02  0.92577741561E+02  0.40587675576E+03  0.45139041133E+03  0.17418940932E+03 0.  0.
        -24    2    3    3    0    0  0.51193548181E+02  0.11735168620E+03  0.29656767918E+03  0.33196746559E+03  0.76536345890E+02 0.  0.
          6    2    1    2  502    0 -0.10235918649E+02 -0.92577741561E+02  0.76618819431E+03  0.79092551511E+03  0.17275245033E+03 0.  0.
         24    2    5    5    0    0 -0.68401251374E+02 -0.40545297934E+02  0.47346190570E+03  0.48793813722E+03  0.87148133826E+02 0.  0.
          2    1    6    6  501    0 -0.21728508148E+02  0.27606619393E+02  0.15586769704E+03  0.15977794742E+03  0.00000000000E+00 0. -1.
         -1    1    6    6    0  501 -0.46672743227E+02 -0.68151917326E+02  0.31759420866E+03  0.32816018980E+03  0.00000000000E+00 0.  1.
          5    1    5    5  502    0  0.58165332725E+02 -0.52032443628E+02  0.29272628860E+03  0.30298737789E+03  0.47000000000E+01 0. -1.
         11    1    4    4    0    0  0.43374578095E+02  0.48301834623E+02  0.21613182229E+03  0.22567096814E+03  0.00000000000E+00 0. -1.
        -12    1    4    4    0    0  0.78189700860E+01  0.69049851578E+02  0.80435856892E+02  0.10629649745E+03  0.00000000000E+00 0.  1.
         -5    1    3    3    0  504 -0.40957629532E+02 -0.24773944639E+02  0.10930907657E+03  0.11942294575E+03  0.47000000000E+01 0.  1.
<mgrwt>
<rscale>  2 0.19721087E+03</rscale>
<asrwt>0</asrwt>
<pdfrwt beam="1">  1       21 0.18572157E+00 0.19752813E+03</pdfrwt>
<pdfrwt beam="2">  1       21 0.54039222E-02 0.19752813E+03</pdfrwt>
<totfact> 0.39123960E+04</totfact>
</mgrwt>
</event>
<event>
12    1  0.1410528E-001  0.2294490E+03  0.7546771E-02  0.1127511E+00
         21   -1    0    0  502  503  0.00000000000E+00  0.00000000000E+00  0.65042574620E+03  0.65042574620E+03  0.00000000000E+00 0. -1.
         21   -1    0    0  503  504 -0.00000000000E+00 -0.00000000000E+00 -0.83999390989E+02  0.83999390989E+02  0.00000000000E+00 0.  1.
         -6    2    1    2    0  504 -0.12005252923E+03  0.85744867848E+02  0.20455018943E+03  0.30738842583E+03  0.17573295708E+03 0.  0.
        -24    2    3    3    0    0 -0.85005210162E+02  0.48782236378E+02  0.21971081649E+03  0.25403596280E+03  0.81583302053E+02 0.  0.
          6    2    1    2  502    0  0.12005252923E+03 -0.85744867848E+02  0.36187616578E+03  0.42703671135E+03  0.17216620270E+03 0.  0.
         24    2    5    5    0    0  0.13756671136E+03 -0.24244629956E+02  0.23721278107E+03  0.28685085143E+03  0.80629432001E+02 0.  0.
          4    1    6    6  501    0  0.39298912289E+02 -0.38915780987E+02  0.12667594999E+03  0.13822314865E+03  0.00000000000E+00 0. -1.
         -3    1    6    6    0  501  0.98267799074E+02  0.14671151032E+02  0.11053683108E+03  0.14862770278E+03  0.00000000000E+00 0.  1.
          5    1    5    5  502    0 -0.17514182136E+02 -0.61500237892E+02  0.12466338471E+03  0.14018585992E+03  0.47000000000E+01 0. -1.
         11    1    4    4    0    0 -0.93466318138E+02  0.54004027223E+02  0.21888946218E+03  0.24405938670E+03  0.00000000000E+00 0. -1.
        -12    1    4    4    0    0  0.84611079760E+01 -0.52217908448E+01  0.82135430688E+00  0.99765761013E+01  0.00000000000E+00 0.  1.
         -5    1    3    3    0  504 -0.35047319066E+02  0.36962631470E+02 -0.15160627054E+02  0.53352463032E+02  0.47000000000E+01 0.  1.
<mgrwt>
<rscale>  2 0.22876596E+03</rscale>
<asrwt>0</asrwt>
<pdfrwt beam="1">  1       21 0.10006550E+00 0.22944905E+03</pdfrwt>
<pdfrwt beam="2">  1       21 0.12922984E-01 0.22944905E+03</pdfrwt>
<totfact> 0.41330820E+04</totfact>
</mgrwt>
</event>
<event>
12    1  0.1410528E-001  0.1833835E+03  0.7546771E-02  0.1164605E+00
         21   -1    0    0  502  503  0.00000000000E+00  0.00000000000E+00  0.96443502081E+03  0.96443502081E+03  0.00000000000E+00 0. -1.
         21   -1    0    0  503  504 -0.00000000000E+00 -0.00000000000E+00 -0.49016217257E+02  0.49016217257E+02  0.00000000000E+00 0. -1.
         -6    2    1    2    0  504 -0.59543058527E+02  0.32738229745E+01  0.73008007472E+03  0.75272157537E+03  0.17325345825E+03 0.  0.
        -24    2    3    3    0    0 -0.93272823934E+02  0.36735607996E+02  0.43244423715E+03  0.45128075210E+03  0.81221760574E+02 0.  0.
          6    2    1    2  502    0  0.59543058527E+02 -0.32738229745E+01  0.18533872884E+03  0.26072966270E+03  0.17341689326E+03 0.  0.
         24    2    5    5    0    0  0.19191919927E+02 -0.58516996321E+02  0.15840809676E+03  0.18705896614E+03  0.78136822585E+02 0.  0.
          2    1    6    6  501    0  0.34281904787E+02 -0.57589189182E+02  0.68296459065E+02  0.95687878163E+02  0.00000000000E+00 0. -1.
         -1    1    6    6    0  501 -0.15089984860E+02 -0.92780713854E+00  0.90111637697E+02  0.91371087975E+02  0.00000000000E+00 0.  1.
          5    1    5    5  502    0  0.40351138600E+02  0.55243173347E+02  0.26930632077E+02  0.73670696561E+02  0.47000000000E+01 0. -1.
         13    1    4    4    0    0 -0.60552957306E+02  0.52041122383E+02  0.18902672675E+03  0.20519756939E+03  0.00000000000E+00 0. -1.
        -14    1    4    4    0    0 -0.32719866628E+02 -0.15305514387E+02  0.24341751040E+03  0.24608318271E+03  0.00000000000E+00 0.  1.
         -5    1    3    3    0  504  0.33729765407E+02 -0.33461785022E+02  0.29763583757E+03  0.30144082327E+03  0.47000000000E+01 0.  1.
<mgrwt>
<rscale>  2 0.18334486E+03</rscale>
<asrwt>0</asrwt>
<pdfrwt beam="1">  1       21 0.14837460E+00 0.18338351E+03</pdfrwt>
<pdfrwt beam="2">  1       21 0.75409572E-02 0.18338351E+03</pdfrwt>
<totfact> 0.41123117E+04</totfact>
</mgrwt>
</event>
<event>
12    1  0.1410528E-001  0.2037599E+03  0.7546771E-02  0.1148357E+00
         21   -1    0    0  502  503  0.00000000000E+00  0.00000000000E+00  0.19595053559E+03  0.19595053559E+03  0.00000000000E+00 0.  1.
         21   -1    0    0  503  504 -0.00000000000E+00 -0.00000000000E+00 -0.28249726179E+03  0.28249726179E+03  0.00000000000E+00 0.  1.
         -6    2    1    2    0  504  0.27802593190E+02 -0.10272611320E+03 -0.17055423652E+03  0.26571949992E+03  0.17375979547E+03 0.  0.
        -24    2    3    3    0    0  0.47196969593E+02 -0.77105768131E+02 -0.19161520446E+03  0.22701293345E+03  0.81520745557E+02 0.  0.
          6    2    1    2  502    0 -0.27802593190E+02  0.10272611320E+03  0.84007510321E+02  0.21272829747E+03  0.16392201875E+03 0.  0.
         24    2    5    5    0    0 -0.15249632377E+02  0.13600219559E+03  0.60079280814E+02  0.16960609145E+03  0.80172051129E+02 0.  0.
          2    1    6    6  501    0 -0.15314954217E+02  0.43303943312E+02 -0.17071860055E+02  0.49002323769E+02  0.00000000000E+00 0. -1.
         -1    1    6    6    0  501  0.65321840392E-01  0.92698252276E+02  0.77151140869E+02  0.12060376768E+03  0.00000000000E+00 0.  1.
          5    1    5    5  502    0 -0.12552960813E+02 -0.33276082389E+02  0.23928229507E+02  0.43122206016E+02  0.47000000000E+01 0. -1.
         13    1    4    4    0    0  0.20236697532E+02  0.13264896794E+02 -0.20864577489E+02  0.31950148791E+02  0.00000000000E+00 0. -1.
        -14    1    4    4    0    0  0.26960272061E+02 -0.90370664925E+02 -0.17075062697E+03  0.19506278466E+03  0.00000000000E+00 0.  1.
         -5    1    3    3    0  504 -0.19394376403E+02 -0.25620345068E+02  0.21060967937E+02  0.38706566470E+02  0.47000000000E+01 0.  1.
<mgrwt>
<rscale>  2 0.20164683E+03</rscale>
<asrwt>0</asrwt>
<pdfrwt beam="1">  1       21 0.30146236E-01 0.20375992E+03</pdfrwt>
<pdfrwt beam="2">  1       21 0.43461117E-01 0.20375992E+03</pdfrwt>
<totfact> 0.53430062E+04</totfact>
</mgrwt>
</event>
<event>
12    1  0.1410528E-001  0.1746497E+03  0.7546771E-02  0.1173483E+00
         21   -1    0    0  502  503  0.00000000000E+00  0.00000000000E+00  0.16731312800E+03  0.16731312800E+03  0.00000000000E+00 0.  1.
         21   -1    0    0  503  504 -0.00000000000E+00 -0.00000000000E+00 -0.39622270056E+03  0.39622270056E+03  0.00000000000E+00 0.  1.
         -6    2    1    2    0  504 -0.31818552915E+01 -0.96147659680E+01 -0.32204551818E+03  0.36560448548E+03  0.17277371357E+03 0.  0.
        -24    2    3    3    0    0  0.35625578581E+02 -0.20162177303E+02 -0.77488738732E+02  0.11771867875E+03  0.78596993918E+02 0.  0.
          6    2    1    2  502    0  0.31818552915E+01  0.96147659680E+01  0.93135945618E+02  0.19793134308E+03  0.17435579795E+03 0.  0.
         24    2    5    5    0    0 -0.88986957008E+01 -0.68443442904E+01  0.13130895735E+03  0.15438698813E+03  0.80419325962E+02 0.  0.
          4    1    6    6  501    0 -0.43780689810E+02  0.56399155426E+01  0.72463229743E+02  0.84849732542E+02  0.00000000000E+00 0. -1.
         -3    1    6    6    0  501  0.34881994109E+02 -0.12484259833E+02  0.58845727610E+02  0.69537255587E+02  0.00000000000E+00 0.  1.
          5    1    5    5  502    0  0.12080550992E+02  0.16459110258E+02 -0.38173011736E+02  0.43544354947E+02  0.47000000000E+01 0. -1.
         13    1    4    4    0    0  0.42611715197E+02  0.10878036627E+02 -0.13083495123E+02  0.45883197333E+02  0.00000000000E+00 0. -1.
        -14    1    4    4    0    0 -0.69861366159E+01 -0.31040213930E+02 -0.64405243609E+02  0.71835481414E+02  0.00000000000E+00 0.  1.
         -5    1    3    3    0  504 -0.38807433872E+02  0.10547411335E+02 -0.24455677944E+03  0.24788580674E+03  0.47000000000E+01 0.  1.
<mgrwt>
<rscale>  2 0.17425349E+03</rscale>
<asrwt>0</asrwt>
<pdfrwt beam="1">  1       21 0.25740482E-01 0.17464968E+03</pdfrwt>
<pdfrwt beam="2">  1       21 0.60957338E-01 0.17464968E+03</pdfrwt>
<totfact> 0.36215735E+04</totfact>
</mgrwt>
</event>
<event>
12    1  0.1410528E-001  0.1912930E+03  0.7546771E-02  0.1161433E+00
         21   -1    0    0  502  503  0.00000000000E+00  0.00000000000E+00  0.47729310582E+03  0.47729310582E+03  0.00000000000E+00 0. -1.
         21   -1    0    0  503  504 -0.00000000000E+00 -0.00000000000E+00 -0.92752589636E+02  0.92752589636E+02  0.00000000000E+00 0. -1.
         -6    2    1    2    0  504  0.93882431476E+01  0.82809329129E+02  0.43618281836E+02  0.17912246008E+03  0.15243614104E+03 0.  0.
        -24    2    3    3    0    0 -0.11873410468E+02  0.99202508908E+02 -0.10285108811E+02  0.11871997850E+03  0.63297189371E+02 0.  0.
          6    2    1    2  502    0 -0.93882431476E+01 -0.82809329129E+02  0.34092223434E+03  0.39092323537E+03  0.17218444176E+03 0.  0.
         24    2    5    5    0    0 -0.66071730934E+02 -0.42862385044E+02  0.25943992865E+03  0.28382406511E+03  0.83930719510E+02 0.  0.
          4    1    6    6  501    0 -0.55921231887E+02 -0.49865973164E+02  0.26086318119E+03  0.27141001963E+03  0.00000000000E+00 0. -1.
         -3    1    6    6    0  501 -0.10150499047E+02  0.70035881203E+01 -0.14232525365E+01  0.12414045483E+02  0.00000000000E+00 0.  1.
          5    1    5    5  502    0  0.56683487786E+02 -0.39946944085E+02  0.81482305692E+02  0.10709917026E+03  0.47000000000E+01 0. -1.
         13    1    4    4    0    0  0.16752744806E+02  0.54941972880E+02  0.16268045628E+02  0.59698610964E+02  0.00000000000E+00 0. -1.
        -14    1    4    4    0    0 -0.28626155275E+02  0.44260536028E+02 -0.26553154439E+02  0.59021367537E+02  0.00000000000E+00 0.  1.
         -5    1    3    3    0  504  0.21261653616E+02 -0.16393179778E+02  0.53903390647E+02  0.60402481580E+02  0.47000000000E+01 0.  1.
<mgrwt>
<rscale>  2 0.18674257E+03</rscale>
<asrwt>0</asrwt>
<pdfrwt beam="1">  1       21 0.73429707E-01 0.19129298E+03</pdfrwt>
<pdfrwt beam="2">  1       21 0.14269629E-01 0.19129298E+03</pdfrwt>
<totfact> 0.71634254E+04</totfact>
</mgrwt>
</event>
<event>
12    1  0.1410528E-001  0.1921723E+03  0.7546771E-02  0.1157308E+00
         21   -1    0    0  502  503  0.00000000000E+00  0.00000000000E+00  0.14470866120E+02  0.14470866120E+02  0.00000000000E+00 0.  1.
         21   -1    0    0  503  504 -0.00000000000E+00 -0.00000000000E+00 -0.32268655380E+04  0.32268655380E+04  0.00000000000E+00 0.  1.
         -6    2    1    2    0  504 -0.47124040538E+02 -0.63523679866E+02 -0.23609364292E+04  0.23684610743E+04  0.17126326127E+03 0.  0.
        -24    2    3    3    0    0 -0.47323114542E+02 -0.37944202842E+02 -0.68954272625E+03  0.69686502575E+03  0.80451557409E+02 0.  0.
          6    2    1    2  502    0  0.47124040538E+02  0.63523679866E+02 -0.85145824271E+03  0.87287532985E+03  0.17514071279E+03 0.  0.
         24    2    5    5    0    0  0.14719611066E+02 -0.30089202238E+02 -0.29178413506E+03  0.30448231835E+03  0.80308615191E+02 0.  0.
          2    1    6    6  501    0 -0.84539800673E+01 -0.53179335188E+02 -0.16607758324E+03  0.17458887457E+03  0.00000000000E+00 0. -1.
         -1    1    6    6    0  501  0.23173591134E+02  0.23090132950E+02 -0.12570655183E+03  0.12989344378E+03  0.00000000000E+00 0.  1.
          5    1    5    5  502    0  0.32404429472E+02  0.93612882105E+02 -0.55967410765E+03  0.56839301150E+03  0.47000000000E+01 0. -1.
         13    1    4    4    0    0  0.11496146834E+02 -0.21786763078E+02 -0.67785060256E+02  0.72122387865E+02  0.00000000000E+00 0. -1.
        -14    1    4    4    0    0 -0.58819261376E+02 -0.16157439763E+02 -0.62175766600E+03  0.62474263789E+03  0.00000000000E+00 0.  1.
         -5    1    3    3    0  504  0.19907400388E+00 -0.25579477024E+02 -0.16713937029E+04  0.16715960486E+04  0.47000000000E+01 0.  1.
<mgrwt>
<rscale>  2 0.19128443E+03</rscale>
<asrwt>0</asrwt>
<pdfrwt beam="1">  1       21 0.22262849E-02 0.19217232E+03</pdfrwt>
<pdfrwt beam="2">  1       21 0.49644133E+00 0.19217232E+03</pdfrwt>
<totfact> 0.20737785E+03</totfact>
</mgrwt>
</event>
<event>
12    1  0.1410528E-001  0.3311736E+03  0.7546771E-02  0.1070629E+00
         21   -1    0    0  502  503  0.00000000000E+00  0.00000000000E+00  0.87781043896E+03  0.87781043896E+03  0.00000000000E+00 0. -1.
         21   -1    0    0  503  504 -0.00000000000E+00 -0.00000000000E+00 -0.12628957863E+03  0.12628957863E+03  0.00000000000E+00 0.  1.
         -6    2    1    2    0  504 -0.18172172289E+03 -0.21613382341E+03  0.42824076407E+03  0.54129770375E+03  0.17284801962E+03 0.  0.
        -24    2    3    3    0    0 -0.12198039113E+03 -0.17170392931E+03  0.40449282953E+03  0.46300915667E+03  0.80009842238E+02 0.  0.
          6    2    1    2  502    0  0.18172172289E+03  0.21613382341E+03  0.32328009627E+03  0.46280231384E+03  0.17302990164E+03 0.  0.
         24    2    5    5    0    0  0.16836415707E+02  0.79270905746E+02  0.97965846503E+02  0.15182446269E+03  0.82982040225E+02 0.  0.
          4    1    6    6  501    0  0.44110256296E+02  0.68364898808E+02  0.90137085589E+02  0.12142556690E+03  0.00000000000E+00 0. -1.
         -3    1    6    6    0  501 -0.27273840589E+02  0.10906006938E+02  0.78287609136E+01  0.30398895790E+02  0.00000000000E+00 0.  1.
          5    1    5    5  502    0  0.16488530718E+03  0.13686291766E+03  0.22531424976E+03  0.31097785114E+03  0.47000000000E+01 0. -1.
         13    1    4    4    0    0 -0.15366826980E+02  0.27167088276E+01  0.63902188428E+02  0.65780008849E+02  0.00000000000E+00 0. -1.
        -14    1    4    4    0    0 -0.10661356415E+03 -0.17442063814E+03  0.34059064110E+03  0.39722914782E+03  0.00000000000E+00 0.  1.
         -5    1    3    3    0  504 -0.59741331760E+02 -0.44429894091E+02  0.23747934538E+02  0.78288547082E+02  0.47000000000E+01 0.  1.
<mgrwt>
<rscale>  2 0.33114986E+03</rscale>
<asrwt>0</asrwt>
<pdfrwt beam="1">  1       21 0.13504776E+00 0.33117361E+03</pdfrwt>
<pdfrwt beam="2">  1       21 0.19429166E-01 0.33117361E+03</pdfrwt>
<totfact> 0.88243232E+03</totfact>
</mgrwt>
</event>
<event>
12    1  0.1410528E-001  0.2231242E+03  0.7546771E-02  0.1131648E+00
         21   -1    0    0  502  503  0.00000000000E+00  0.00000000000E+00  0.20710946486E+03  0.20710946486E+03  0.00000000000E+00 0.  1.
         21   -1    0    0  503  504 -0.00000000000E+00 -0.00000000000E+00 -0.43866140256E+03  0.43866140256E+03  0.00000000000E+00 0.  1.
         -6    2    1    2    0  504 -0.91589975871E+02 -0.10688659564E+03 -0.33315227034E+03  0.40096738384E+03  0.17312117047E+03 0.  0.
        -24    2    3    3    0    0 -0.62885454299E+01 -0.61931780813E+02 -0.90612415085E+02  0.13992152427E+03  0.86558257312E+02 0.  0.
          6    2    1    2  502    0  0.91589975871E+02  0.10688659564E+03  0.10160033264E+03  0.24480348358E+03  0.17260547492E+03 0.  0.
         24    2    5    5    0    0  0.80190181914E+02  0.10258818094E+03  0.13698327336E+03  0.20708778174E+03  0.84653009523E+02 0.  0.
          4    1    6    6  501    0  0.40164974999E+02  0.10707628185E+03  0.92568264120E+02  0.14713068637E+03  0.00000000000E+00 0. -1.
         -3    1    6    6    0  501  0.40025206915E+02 -0.44881009123E+01  0.44415009244E+02  0.59957095365E+02  0.00000000000E+00 0.  1.
          5    1    5    5  502    0  0.11399793956E+02  0.42984147011E+01 -0.35382940722E+02  0.37715701841E+02  0.47000000000E+01 0. -1.
         11    1    4    4    0    0  0.22743296390E+02 -0.36755832751E+02 -0.91809559122E+02  0.10147533650E+03  0.00000000000E+00 0. -1.
        -12    1    4    4    0    0 -0.29031841820E+02 -0.25175948062E+02  0.11971440364E+01  0.38446187771E+02  0.00000000000E+00 0.  1.
         -5    1    3    3    0  504 -0.85301430441E+02 -0.44954814823E+02 -0.24253985526E+03  0.26104585957E+03  0.47000000000E+01 0.  1.
<mgrwt>
<rscale>  2 0.22302416E+03</rscale>
<asrwt>0</asrwt>
<pdfrwt beam="1">  1       21 0.31862995E-01 0.22312420E+03</pdfrwt>
<pdfrwt beam="2">  1       21 0.67486369E-01 0.22312420E+03</pdfrwt>
<totfact> 0.18680193E+04</totfact>
</mgrwt>
</event>
<event>
12    1  0.1410528E-001  0.1871766E+03  0.7546771E-02  0.1161444E+00
         21   -1    0    0  502  503  0.00000000000E+00  0.00000000000E+00  0.10388389947E+03  0.10388389947E+03  0.00000000000E+00 0. -1.
         21   -1    0    0  503  504 -0.00000000000E+00 -0.00000000000E+00 -0.13825045648E+04  0.13825045648E+04  0.00000000000E+00 0. -1.
         -6    2    1    2    0  504 -0.70196297955E+02  0.17534060137E+02 -0.12872542559E+04  0.13007915349E+04  0.17262715411E+03 0.  0.
        -24    2    3    3    0    0  0.22134898771E+02 -0.23228588287E+02 -0.59471037206E+03  0.60091599991E+03  0.79938046302E+02 0.  0.
          6    2    1    2  502    0  0.70196297955E+02 -0.17534060137E+02  0.86335906438E+01  0.18559692933E+03  0.17069480887E+03 0.  0.
         24    2    5    5    0    0  0.66142447621E+02  0.51972535816E+02 -0.97536137794E+01  0.11343198029E+03  0.75469949739E+02 0.  0.
          4    1    6    6  501    0  0.33120074183E+02  0.70605632053E-01  0.26154757020E+02  0.42202080681E+02  0.00000000000E+00 0. -1.
         -3    1    6    6    0  501  0.33022373438E+02  0.51901930184E+02 -0.35908370800E+02  0.71229899605E+02  0.00000000000E+00 0.  1.
          5    1    5    5  502    0  0.40538503340E+01 -0.69506595953E+02  0.18387204423E+02  0.72164949040E+02  0.47000000000E+01 0. -1.
         13    1    4    4    0    0  0.39853622344E+02 -0.14922890909E+02 -0.55516573636E+03  0.55679439537E+03  0.00000000000E+00 0. -1.
        -14    1    4    4    0    0 -0.17718723573E+02 -0.83056973775E+01 -0.39544635701E+02  0.44121604535E+02  0.00000000000E+00 0.  1.
         -5    1    3    3    0  504 -0.92331196726E+02  0.40762648424E+02 -0.69254388387E+03  0.69987553499E+03  0.47000000000E+01 0.  1.
<mgrwt>
<rscale>  2 0.18672989E+03</rscale>
<asrwt>0</asrwt>
<pdfrwt beam="1">  1       21 0.15982139E-01 0.18717665E+03</pdfrwt>
<pdfrwt beam="2">  1       21 0.21269300E+00 0.18717665E+03</pdfrwt>
<totfact> 0.39215784E+03</totfact>
</mgrwt>
</event>
<event>
12    1  0.1410528E-001  0.1970578E+03  0.7546771E-02  0.1152498E+00
         21   -1    0    0  502  503  0.00000000000E+00  0.00000000000E+00  0.40630466023E+03  0.40630466023E+03  0.00000000000E+00 0.  1.
         21   -1    0    0  503  504 -0.00000000000E+00 -0.00000000000E+00 -0.97061462593E+02  0.97061462593E+02  0.00000000000E+00 0.  1.
         -6    2    1    2    0  504 -0.54606728445E+02  0.75465371847E+02  0.19079120480E+03  0.27344729413E+03  0.17232301558E+03 0.  0.
        -24    2    3    3    0    0 -0.20352951314E+01  0.83209150402E+02  0.56886010596E+02  0.12930704041E+03  0.80971521918E+02 0.  0.
          6    2    1    2  502    0  0.54606728445E+02 -0.75465371847E+02  0.11845199283E+03  0.22991882869E+03  0.17365159383E+03 0.  0.
         24    2    5    5    0    0  0.53654162230E+02 -0.29301860897E+02 -0.18260202813E+01  0.10099688500E+03  0.80372061397E+02 0.  0.
          4    1    6    6  501    0  0.54288424667E+02 -0.50942320634E+02  0.11857482987E+02  0.75385363216E+02  0.00000000000E+00 0. -1.
         -3    1    6    6    0  501 -0.63426243683E+00  0.21640459737E+02 -0.13683503268E+02  0.25611521785E+02  0.00000000000E+00 0.  1.
          5    1    5    5  502    0  0.95256621502E+00 -0.46163510950E+02  0.12027801311E+03  0.12892194369E+03  0.47000000000E+01 0. -1.
         11    1    4    4    0    0 -0.14748935698E+02  0.24840596899E+02 -0.17598069540E+02  0.33827184483E+02  0.00000000000E+00 0. -1.
        -12    1    4    4    0    0  0.12713640566E+02  0.58368553502E+02  0.74484080136E+02  0.95479855928E+02  0.00000000000E+00 0.  1.
         -5    1    3    3    0  504 -0.52571433313E+02 -0.77437785545E+01  0.13390519421E+03  0.14414025372E+03  0.47000000000E+01 0.  1.
<mgrwt>
<rscale>  2 0.19676475E+03</rscale>
<asrwt>0</asrwt>
<pdfrwt beam="1">  1       21 0.62508408E-01 0.19705784E+03</pdfrwt>
<pdfrwt beam="2">  1       21 0.14932533E-01 0.19705784E+03</pdfrwt>
<totfact> 0.93659478E+04</totfact>
</mgrwt>
</event>
<event>
12    1  0.1410528E-001  0.3345559E+03  0.7546771E-02  0.1069372E+00
         21   -1    0    0  502  503  0.00000000000E+00  0.00000000000E+00  0.27668077964E+03  0.27668077964E+03  0.00000000000E+00 0.  1.
         21   -1    0    0  503  504 -0.00000000000E+00 -0.00000000000E+00 -0.98526977539E+03  0.98526977539E+03  0.00000000000E+00 0.  1.
         -6    2    1    2    0  504 -0.26414975219E+03  0.11192623965E+03 -0.83932638798E+03  0.90275712770E+03  0.16792579118E+03 0.  0.
        -24    2    3    3    0    0 -0.21881868685E+03  0.13124449355E+03 -0.58104058147E+03  0.63977091463E+03  0.81190708143E+02 0.  0.
          6    2    1    2  502    0  0.26414975219E+03 -0.11192623965E+03  0.13073739223E+03  0.35919342733E+03  0.17211937081E+03 0.  0.
         24    2    5    5    0    0  0.85596988812E+02 -0.83312020384E+02  0.15168574370E+02  0.14453531657E+03  0.79953954585E+02 0.  0.
          4    1    6    6  501    0 -0.14960416194E+02 -0.18936854506E+02  0.54576352531E+01  0.24742762454E+02  0.00000000000E+00 0. -1.
         -3    1    6    6    0  501  0.10055740501E+03 -0.64375165878E+02  0.97109391168E+01  0.11979255412E+03  0.00000000000E+00 0.  1.
          5    1    5    5  502    0  0.17855276338E+03 -0.28614219269E+02  0.11556881786E+03  0.21465811076E+03  0.47000000000E+01 0. -1.
         11    1    4    4    0    0 -0.76525857635E+02  0.15408022923E+02 -0.11577289623E+03  0.13963157794E+03  0.00000000000E+00 0. -1.
        -12    1    4    4    0    0 -0.14229282922E+03  0.11583647063E+03 -0.46526768524E+03  0.50013933669E+03  0.00000000000E+00 0.  1.
         -5    1    3    3    0  504 -0.45331065333E+02 -0.19318253898E+02 -0.25828580651E+03  0.26298621307E+03  0.47000000000E+01 0.  1.
<mgrwt>
<rscale>  2 0.33402011E+03</rscale>
<asrwt>0</asrwt>
<pdfrwt beam="1">  1       21 0.42566274E-01 0.33455590E+03</pdfrwt>
<pdfrwt beam="2">  1       21 0.15157997E+00 0.33455590E+03</pdfrwt>
<totfact> 0.13862103E+03</totfact>
</mgrwt>
</event>
<event>
12    1  0.1410528E-001  0.2052455E+03  0.7546771E-02  0.1145446E+00
         21   -1    0    0  502  503  0.00000000000E+00  0.00000000000E+00  0.47186931461E+02  0.47186931461E+02  0.00000000000E+00 0. -1.
         21   -1    0    0  503  504 -0.00000000000E+00 -0.00000000000E+00 -0.15448843469E+04  0.15448843469E+04  0.00000000000E+00 0. -1.
         -6    2    1    2    0  504  0.71247996137E+02  0.84299854205E+02 -0.12662383401E+04  0.12827186814E+04  0.17269898430E+03 0.  0.
        -24    2    3    3    0    0  0.74958078934E+02  0.73568103122E+02 -0.12631136782E+04  0.12700384327E+04  0.80687527246E+02 0.  0.
          6    2    1    2  502    0 -0.71247996137E+02 -0.84299854205E+02 -0.23145907525E+03  0.30935259692E+03  0.17304040954E+03 0.  0.
         24    2    5    5    0    0  0.15768151245E+02 -0.75123784302E+02 -0.93104712881E+02  0.14558437732E+03  0.81450020246E+02 0.  0.
          2    1    6    6  501    0 -0.37868445936E+01 -0.74644622605E+02 -0.31781811166E+02  0.81217260461E+02  0.00000000000E+00 0. -1.
         -1    1    6    6    0  501  0.19554995839E+02 -0.47916169652E+00 -0.61322901715E+02  0.64367116860E+02  0.00000000000E+00 0.  1.
          5    1    5    5  502    0 -0.87016147382E+02 -0.91760699033E+01 -0.13835436237E+03  0.16376821960E+03  0.47000000000E+01 0. -1.
         13    1    4    4    0    0  0.58060870963E+02  0.84243541541E+02 -0.80314015401E+03  0.80963087021E+03  0.00000000000E+00 0. -1.
        -14    1    4    4    0    0  0.16897207971E+02 -0.10675438418E+02 -0.45997352417E+03  0.46040756245E+03  0.00000000000E+00 0.  1.
         -5    1    3    3    0  504 -0.37100827966E+01  0.10731751083E+02 -0.31246619766E+01  0.12680248741E+02  0.47000000000E+01 0.  1.
<mgrwt>
<rscale>  2 0.20517355E+03</rscale>
<asrwt>0</asrwt>
<pdfrwt beam="1">  1       21 0.72595276E-02 0.20524553E+03</pdfrwt>
<pdfrwt beam="2">  1       21 0.23767453E+00 0.20524553E+03</pdfrwt>
<totfact> 0.11046512E+04</totfact>
</mgrwt>
</event>
<event>
12    1  0.1410528E-001  0.2158585E+03  0.7546771E-02  0.1137264E+00
         21   -1    0    0  502  503  0.00000000000E+00  0.00000000000E+00  0.29616560501E+03  0.29616560501E+03  0.00000000000E+00 0. -1.
         21   -1    0    0  503  504 -0.00000000000E+00 -0.00000000000E+00 -0.15852060259E+03  0.15852060259E+03  0.00000000000E+00 0.  1.
         -6    2    1    2    0  504 -0.12342655906E+03 -0.42934114100E+02  0.95587070756E+02  0.23607580976E+03  0.17180642078E+03 0.  0.
        -24    2    3    3    0    0 -0.12773957795E+03 -0.11373714706E+02  0.19114630566E+02  0.15310120491E+03  0.81411600417E+02 0.  0.
          6    2    1    2  502    0  0.12342655906E+03  0.42934114100E+02  0.42057931661E+02  0.21861039784E+03  0.17012989976E+03 0.  0.
         24    2    5    5    0    0  0.14781662845E+03  0.12091455015E+02  0.12738276539E+02  0.16933690313E+03  0.80726477321E+02 0.  0.
          2    1    6    6  501    0  0.13553866461E+03  0.34289937822E+02  0.23519207316E+02  0.14177334923E+03  0.00000000000E+00 0. -1.
         -1    1    6    6    0  501  0.12277963847E+02 -0.22198482807E+02 -0.10780930777E+02  0.27563553900E+02  0.00000000000E+00 0.  1.
          5    1    5    5  502    0 -0.24390069391E+02  0.30842659085E+02  0.29319655122E+02  0.49273494709E+02  0.47000000000E+01 0. -1.
         11    1    4    4    0    0 -0.38738017455E+02 -0.11415613336E+02  0.44948500613E+02  0.60426136162E+02  0.00000000000E+00 0. -1.
        -12    1    4    4    0    0 -0.89001560490E+02  0.41898629226E-01 -0.25833870047E+02  0.92675068745E+02  0.00000000000E+00 0.  1.
         -5    1    3    3    0  504  0.43130188830E+01 -0.31560399393E+02  0.76472440190E+02  0.82974604852E+02  0.47000000000E+01 0.  1.
<mgrwt>
<rscale>  2 0.21552475E+03</rscale>
<asrwt>0</asrwt>
<pdfrwt beam="1">  1       21 0.45563939E-01 0.21585852E+03</pdfrwt>
<pdfrwt beam="2">  1       21 0.24387785E-01 0.21585852E+03</pdfrwt>
<totfact> 0.72613009E+04</totfact>
</mgrwt>
</event>
<event>
12    1  0.1410528E-001  0.2091063E+03  0.7546771E-02  0.1142612E+00
         21   -1    0    0  502  503  0.00000000000E+00  0.00000000000E+00  0.20457512549E+03  0.20457512549E+03  0.00000000000E+00 0. -1.
         21   -1    0    0  503  504 -0.00000000000E+00 -0.00000000000E+00 -0.29096892829E+03  0.29096892829E+03  0.00000000000E+00 0.  1.
         -6    2    1    2    0  504  0.62819334937E+02  0.98930826228E+02 -0.17212950650E+03  0.26954393349E+03  0.17114843808E+03 0.  0.
        -24    2    3    3    0    0 -0.25911514431E+02  0.37065915802E+02 -0.47512111184E+02  0.10446208717E+03  0.81299681749E+02 0.  0.
          6    2    1    2  502    0 -0.62819334937E+02 -0.98930826228E+02  0.85735703698E+02  0.22600012029E+03  0.17318159909E+03 0.  0.
         24    2    5    5    0    0 -0.36029386608E+02  0.20846947017E+02  0.58655043295E+02  0.10022306172E+03  0.69796390288E+02 0.  0.
          4    1    6    6  501    0  0.81632481265E+01  0.16383890588E+02  0.52228221289E+02  0.55343089810E+02  0.00000000000E+00 0. -1.
         -3    1    6    6    0  501 -0.44192634735E+02  0.44630564281E+01  0.64268220067E+01  0.44879971909E+02  0.00000000000E+00 0.  1.
          5    1    5    5  502    0 -0.26789948329E+02 -0.11977777324E+03  0.27080660403E+02  0.12577705857E+03  0.47000000000E+01 0. -1.
         11    1    4    4    0    0  0.28986307202E+02  0.11916714027E+02 -0.81543588751E+01  0.32383755913E+02  0.00000000000E+00 0. -1.
        -12    1    4    4    0    0 -0.54897821633E+02  0.25149201776E+02 -0.39357752309E+02  0.72078331258E+02  0.00000000000E+00 0.  1.
         -5    1    3    3    0  504  0.88730849368E+02  0.61864910425E+02 -0.12461739531E+03  0.16508184632E+03  0.47000000000E+01 0.  1.
<mgrwt>
<rscale>  2 0.20868484E+03</rscale>
<asrwt>0</asrwt>
<pdfrwt beam="1">  1       21 0.31473096E-01 0.20910630E+03</pdfrwt>
<pdfrwt beam="2">  1       21 0.44764450E-01 0.20910630E+03</pdfrwt>
<totfact> 0.46102289E+04</totfact>
</mgrwt>
</event>
<event>
12    1  0.1410528E-001  0.1999465E+03  0.7546771E-02  0.1149876E+00
         21   -1    0    0  502  503  0.00000000000E+00  0.00000000000E+00  0.12924962426E+03  0.12924962426E+03  0.00000000000E+00 0. -1.
         21   -1    0    0  503  504 -0.00000000000E+00 -0.00000000000E+00 -0.32149693218E+03  0.32149693218E+03  0.00000000000E+00 0. -1.
         -6    2    1    2    0  504 -0.96716318702E+02  0.24798100141E+02 -0.14109113356E+03  0.24435966434E+03  0.17273084702E+03 0.  0.
        -24    2    3    3    0    0  0.98318504828E+01 -0.19017709802E+02 -0.47323143977E+02  0.95743166507E+02  0.80429692321E+02 0.  0.
          6    2    1    2  502    0  0.96716318702E+02 -0.24798100141E+02 -0.51156174350E+02  0.20638689210E+03  0.17323279996E+03 0.  0.
         24    2    5    5    0    0  0.10348557313E+03 -0.71752186804E+02 -0.54572649980E+02  0.15859284053E+03  0.79472478151E+02 0.  0.
          4    1    6    6  501    0  0.90965451152E+02 -0.86960807922E+02 -0.34543221559E+02  0.13049953859E+03  0.00000000000E+00 0. -1.
         -3    1    6    6    0  501  0.12520121980E+02  0.15208621118E+02 -0.20029428421E+02  0.28093301934E+02  0.00000000000E+00 0.  1.
          5    1    5    5  502    0 -0.67692544292E+01  0.46954086664E+02  0.34164756298E+01  0.47794051572E+02  0.47000000000E+01 0. -1.
         13    1    4    4    0    0  0.24141290274E+02 -0.14826049056E+02 -0.66012247365E+02  0.71834743883E+02  0.00000000000E+00 0. -1.
        -14    1    4    4    0    0 -0.14309439791E+02 -0.41916607463E+01  0.18689103387E+02  0.23908422624E+02  0.00000000000E+00 0.  1.
         -5    1    3    3    0  504 -0.10654816918E+03  0.43815809942E+02 -0.93767989587E+02  0.14861649783E+03  0.47000000000E+01 0.  1.
<mgrwt>
<rscale>  2 0.19983771E+03</rscale>
<asrwt>0</asrwt>
<pdfrwt beam="1">  1       21 0.19884558E-01 0.19994648E+03</pdfrwt>
<pdfrwt beam="2">  1       21 0.49461066E-01 0.19994648E+03</pdfrwt>
<totfact> 0.90666638E+04</totfact>
</mgrwt>
</event>
<event>
12    1  0.1410528E-001  0.2244975E+03  0.7546771E-02  0.1130973E+00
         21   -1    0    0  502  503  0.00000000000E+00  0.00000000000E+00  0.21350592055E+03  0.21350592055E+03  0.00000000000E+00 0. -1.
         21   -1    0    0  503  504 -0.00000000000E+00 -0.00000000000E+00 -0.23795973080E+03  0.23795973080E+03  0.00000000000E+00 0.  1.
         -6    2    1    2    0  504 -0.13646193136E+03  0.43857527827E+02 -0.42272648024E+02  0.22844279686E+03  0.17278250262E+03 0.  0.
        -24    2    3    3    0    0 -0.15446997185E+03  0.73754271424E+02 -0.27177711909E+02  0.19012763151E+03  0.78161521746E+02 0.  0.
          6    2    1    2  502    0  0.13646193136E+03 -0.43857527827E+02  0.17818837776E+02  0.22302285449E+03  0.16993040101E+03 0.  0.
         24    2    5    5    0    0  0.15953127378E+03 -0.56611391251E+02  0.35760454084E+02  0.19079170205E+03  0.80421306637E+02 0.  0.
          4    1    6    6  501    0  0.10547235426E+03  0.31273553148E+01  0.90234661720E+01  0.10590382810E+03  0.00000000000E+00 0. -1.
         -3    1    6    6    0  501  0.54058919518E+02 -0.59738746566E+02  0.26736987912E+02  0.84887873947E+02  0.00000000000E+00 0.  1.
          5    1    5    5  502    0 -0.23069342417E+02  0.12753863424E+02 -0.17941616309E+02  0.32231152439E+02  0.47000000000E+01 0. -1.
         11    1    4    4    0    0 -0.60527506400E+02  0.70251757805E+02 -0.17707434412E+01  0.92747097195E+02  0.00000000000E+00 0. -1.
        -12    1    4    4    0    0 -0.93942465450E+02  0.35025136186E+01 -0.25406968467E+02  0.97380534313E+02  0.00000000000E+00 0.  1.
         -5    1    3    3    0  504  0.18008040490E+02 -0.29896743597E+02 -0.15094936116E+02  0.38315165357E+02  0.47000000000E+01 0.  1.
<mgrwt>
<rscale>  2 0.22394860E+03</rscale>
<asrwt>0</asrwt>
<pdfrwt beam="1">  1       21 0.32847065E-01 0.22449752E+03</pdfrwt>
<pdfrwt beam="2">  1       21 0.36609189E-01 0.22449752E+03</pdfrwt>
<totfact> 0.63305430E+04</totfact>
</mgrwt>
</event>
<event>
12    1  0.1410528E-001  0.2576366E+03  0.7546771E-02  0.1108677E+00
         21   -1    0    0  502  503  0.00000000000E+00  0.00000000000E+00  0.33201691409E+03  0.33201691409E+03  0.00000000000E+00 0. -1.
         21   -1    0    0  503  504 -0.00000000000E+00 -0.00000000000E+00 -0.20073710175E+03  0.20073710175E+03  0.00000000000E+00 0.  1.
         -6    2    1    2    0  504  0.88005336172E+02 -0.16988212446E+03  0.43673588013E+02  0.26063000541E+03  0.17151018054E+03 0.  0.
        -24    2    3    3    0    0 -0.17122783502E+02 -0.64921938544E+02 -0.43733606590E+01  0.10442769605E+03  0.79862191306E+02 0.  0.
          6    2    1    2  502    0 -0.88005336172E+02  0.16988212446E+03  0.87606224331E+02  0.27212401043E+03  0.17254492489E+03 0.  0.
         24    2    5    5    0    0 -0.74004412682E+02  0.11059758138E+03  0.12614017999E+03  0.19989078646E+03  0.79602156989E+02 0.  0.
          2    1    6    6  501    0 -0.23271438844E+01  0.21921233329E+02  0.68833679748E+02  0.72277462165E+02  0.00000000000E+00 0. -1.
         -1    1    6    6    0  501 -0.71677268798E+02  0.88676348054E+02  0.57306500247E+02  0.12761332429E+03  0.00000000000E+00 0.  1.
          5    1    5    5  502    0 -0.14000923490E+02  0.59284543076E+02 -0.38533955664E+02  0.72233223972E+02  0.47000000000E+01 0. -1.
         11    1    4    4    0    0 -0.64369416762E+01 -0.16294697620E+02  0.36190063812E+02  0.40207861264E+02  0.00000000000E+00 0. -1.
        -12    1    4    4    0    0 -0.10685841826E+02 -0.48627240925E+02 -0.40563424471E+02  0.64219834789E+02  0.00000000000E+00 0.  1.
         -5    1    3    3    0  504  0.10512811967E+03 -0.10496018591E+03  0.48046948672E+02  0.15620230936E+03  0.47000000000E+01 0.  1.
<mgrwt>
<rscale>  2 0.25746348E+03</rscale>
<asrwt>0</asrwt>
<pdfrwt beam="1">  1       21 0.51079525E-01 0.25763662E+03</pdfrwt>
<pdfrwt beam="2">  1       21 0.30882631E-01 0.25763662E+03</pdfrwt>
<totfact> 0.35582079E+04</totfact>
</mgrwt>
</event>
<event>
12    1  0.1410528E-001  0.3154637E+03  0.7546771E-02  0.1078030E+00
         21   -1    0    0  502  503  0.00000000000E+00  0.00000000000E+00  0.75146537532E+03  0.75146537532E+03  0.00000000000E+00 0. -1.
         21   -1    0    0  503  504 -0.00000000000E+00 -0.00000000000E+00 -0.13212620725E+03  0.13212620725E+03  0.00000000000E+00 0.  1.
         -6    2    1    2    0  504 -0.86547428312E+02  0.24902435371E+03  0.27709622272E+03  0.41813744276E+03  0.16897638386E+03 0.  0.
        -24    2    3    3    0    0 -0.37485405903E+02  0.11954533678E+03  0.58242015559E+02  0.15911784531E+03  0.78931065616E+02 0.  0.
          6    2    1    2  502    0  0.86547428312E+02 -0.24902435371E+03  0.34224294535E+03  0.46545413981E+03  0.17324473018E+03 0.  0.
         24    2    5    5    0    0  0.85286577189E+02 -0.22549391460E+03  0.20574182272E+03  0.32685429208E+03  0.79891957463E+02 0.  0.
          4    1    6    6  501    0 -0.11334113698E+02 -0.68534548310E+02  0.50654194214E+02  0.85972634232E+02  0.00000000000E+00 0. -1.
         -3    1    6    6    0  501  0.96620690887E+02 -0.15695936629E+03  0.15508762850E+03  0.24088165785E+03  0.00000000000E+00 0.  1.
          5    1    5    5  502    0  0.12608511237E+01 -0.23530439109E+02  0.13650112263E+03  0.13859984773E+03  0.47000000000E+01 0. -1.
         11    1    4    4    0    0  0.59192596705E+01  0.75663302060E+02  0.60946352713E+02  0.97336687958E+02  0.00000000000E+00 0. -1.
        -12    1    4    4    0    0 -0.43404665573E+02  0.43882034717E+02 -0.27043371537E+01  0.61781157353E+02  0.00000000000E+00 0.  1.
         -5    1    3    3    0  504 -0.49062022409E+02  0.12947901693E+03  0.21885420716E+03  0.25901959745E+03  0.47000000000E+01 0.  1.
<mgrwt>
<rscale>  2 0.31488111E+03</rscale>
<asrwt>0</asrwt>
<pdfrwt beam="1">  1       21 0.11561006E+00 0.31546366E+03</pdfrwt>
<pdfrwt beam="2">  1       21 0.20327109E-01 0.31546366E+03</pdfrwt>
<totfact> 0.12111121E+04</totfact>
</mgrwt>
</event>
<event>
12    1  0.1410528E-001  0.1813662E+03  0.7546771E-02  0.1166685E+00
         21   -1    0    0  502  503  0.00000000000E+00  0.00000000000E+00  0.12624882100E+04  0.12624882100E+04  0.00000000000E+00 0. -1.
         21   -1    0    0  503  504 -0.00000000000E+00 -0.00000000000E+00 -0.44832569571E+02  0.44832569571E+02  0.00000000000E+00 0. -1.
         -6    2    1    2    0  504  0.54462761567E+02 -0.26404238593E+01  0.18365737872E+03  0.25753693852E+03  0.17211065542E+03 0.  0.
        -24    2    3    3    0    0  0.47682798662E+02  0.62917214334E+02  0.13283212769E+03  0.17417586868E+03  0.80378068757E+02 0.  0.
          6    2    1    2  502    0 -0.54462761567E+02  0.26404238593E+01  0.10339982617E+04  0.10497838410E+04  0.17297555745E+03 0.  0.
         24    2    5    5    0    0 -0.96604080920E+02 -0.24942772307E+02  0.72297106913E+03  0.73467000760E+03  0.84251782935E+02 0.  0.
          2    1    6    6  501    0 -0.10380052436E+03 -0.12395743386E+01  0.62797944206E+03  0.63650158292E+03  0.00000000000E+00 0. -1.
         -1    1    6    6    0  501  0.71964434368E+01 -0.23703197969E+02  0.94991627068E+02  0.98168424685E+02  0.00000000000E+00 0.  1.
          5    1    5    5  502    0  0.42141319353E+02  0.27583196167E+02  0.31102719253E+03  0.31511383340E+03  0.47000000000E+01 0. -1.
         13    1    4    4    0    0  0.13435676360E+02  0.43904972967E+02  0.12437611734E+02  0.47569509522E+02  0.00000000000E+00 0. -1.
        -14    1    4    4    0    0  0.34247122301E+02  0.19012241366E+02  0.12039451595E+03  0.12660635916E+03  0.00000000000E+00 0.  1.
         -5    1    3    3    0  504  0.67799629049E+01 -0.65557638193E+02  0.50825251033E+02  0.83361069840E+02  0.47000000000E+01 0.  1.
<mgrwt>
<rscale>  2 0.18115970E+03</rscale>
<asrwt>0</asrwt>
<pdfrwt beam="1">  1       21 0.19422893E+00 0.18136623E+03</pdfrwt>
<pdfrwt beam="2">  1       21 0.68973193E-02 0.18136623E+03</pdfrwt>
<totfact> 0.22896563E+04</totfact>
</mgrwt>
</event>
<event>
12    1  0.1410528E-001  0.1788125E+03  0.7546771E-02  0.1169107E+00
         21   -1    0    0  502  503  0.00000000000E+00  0.00000000000E+00  0.44017649024E+03  0.44017649024E+03  0.00000000000E+00 0. -1.
         21   -1    0    0  503  504 -0.00000000000E+00 -0.00000000000E+00 -0.99330908312E+02  0.99330908312E+02  0.00000000000E+00 0. -1.
         -6    2    1    2    0  504 -0.10926692670E+02  0.43361322242E+02  0.29724668597E+02  0.18066182866E+03  0.17249795226E+03 0.  0.
        -24    2    3    3    0    0 -0.48626249766E+02 -0.99882493294E+01  0.55453013897E+02  0.11029513807E+03  0.81398424073E+02 0.  0.
          6    2    1    2  502    0  0.10926692670E+02 -0.43361322242E+02  0.31112091333E+03  0.35884556989E+03  0.17313094305E+03 0.  0.
         24    2    5    5    0    0 -0.17564874814E+02 -0.35750699839E+02  0.31624510638E+03  0.32854642229E+03  0.79656430542E+02 0.  0.
          2    1    6    6  501    0 -0.40791358257E+02 -0.38960552418E+02  0.14302463703E+03  0.15374624012E+03  0.00000000000E+00 0. -1.
         -1    1    6    6    0  501  0.23226483443E+02  0.32098525787E+01  0.17322046934E+03  0.17480018217E+03  0.00000000000E+00 0.  1.
          5    1    5    5  502    0  0.28491567483E+02 -0.76106224032E+01 -0.51241930460E+01  0.30299147602E+02  0.47000000000E+01 0. -1.
         13    1    4    4    0    0  0.14862182154E+02  0.19491728225E+02  0.20998535380E+02  0.32276158626E+02  0.00000000000E+00 0. -1.
        -14    1    4    4    0    0 -0.63488431920E+02 -0.29479977554E+02  0.34454478517E+02  0.78018979448E+02  0.00000000000E+00 0.  1.
         -5    1    3    3    0  504  0.37699557096E+02  0.53349571571E+02 -0.25728345300E+02  0.70366690586E+02  0.47000000000E+01 0.  1.
<mgrwt>
<rscale>  2 0.17865913E+03</rscale>
<asrwt>0</asrwt>
<pdfrwt beam="1">  1       21 0.67719459E-01 0.17881253E+03</pdfrwt>
<pdfrwt beam="2">  1       21 0.15281678E-01 0.17881253E+03</pdfrwt>
<totfact> 0.76014755E+04</totfact>
</mgrwt>
</event>
<event>
12    1  0.1410528E-001  0.3396223E+03  0.7546771E-02  0.1067255E+00
         21   -1    0    0  502  503  0.00000000000E+00  0.00000000000E+00  0.11868439090E+03  0.11868439090E+03  0.00000000000E+00 0. -1.
         21   -1    0    0  503  504 -0.00000000000E+00 -0.00000000000E+00 -0.11925972348E+04  0.11925972348E+04  0.00000000000E+00 0.  1.
         -6    2    1    2    0  504  0.28708012619E+03  0.44227736875E+02 -0.82228314092E+03  0.88859876313E+03  0.17054942519E+03 0.  0.
        -24    2    3    3    0    0  0.17318922932E+03  0.85086367150E+02 -0.43613231520E+03  0.48390738162E+03  0.81980233009E+02 0.  0.
          6    2    1    2  502    0 -0.28708012619E+03 -0.44227736875E+02 -0.25162970302E+03  0.42268286262E+03  0.17598921373E+03 0.  0.
         24    2    5    5    0    0 -0.18544754562E+03  0.28024639560E+02 -0.20576720561E+03  0.28973533161E+03  0.80188820167E+02 0.  0.
          4    1    6    6  501    0 -0.46827825277E+02 -0.10819004795E+02 -0.10047979261E+03  0.11138260550E+03  0.00000000000E+00 0. -1.
         -3    1    6    6    0  501 -0.13861972034E+03  0.38843644356E+02 -0.10528741300E+03  0.17835272611E+03  0.00000000000E+00 0.  1.
          5    1    5    5  502    0 -0.10163258057E+03 -0.72252376435E+02 -0.45862497417E+02  0.13294753102E+03  0.47000000000E+01 0. -1.
         13    1    4    4    0    0  0.31852466983E+02 -0.10099883243E+02 -0.36628715208E+02  0.49580742958E+02  0.00000000000E+00 0. -1.
        -14    1    4    4    0    0  0.14133676234E+03  0.95186250393E+02 -0.39950359999E+03  0.43432663867E+03  0.00000000000E+00 0.  1.
         -5    1    3    3    0  504  0.11389089687E+03 -0.40858630275E+02 -0.38615082572E+03  0.40469138150E+03  0.47000000000E+01 0.  1.
<mgrwt>
<rscale>  2 0.33892345E+03</rscale>
<asrwt>0</asrwt>
<pdfrwt beam="1">  1       21 0.18259138E-01 0.33962228E+03</pdfrwt>
<pdfrwt beam="2">  1       21 0.18347649E+00 0.33962228E+03</pdfrwt>
<totfact> 0.42601081E+03</totfact>
</mgrwt>
</event>
<event>
12    1  0.1410528E-001  0.1803974E+03  0.7546771E-02  0.1167654E+00
         21   -1    0    0  502  503  0.00000000000E+00  0.00000000000E+00  0.18889005418E+03  0.18889005418E+03  0.00000000000E+00 0.  1.
         21   -1    0    0  503  504 -0.00000000000E+00 -0.00000000000E+00 -0.22898926001E+03  0.22898926001E+03  0.00000000000E+00 0.  1.
         -6    2    1    2    0  504  0.26235489599E+02 -0.39497749352E+02 -0.12490811994E+03  0.21942030616E+03  0.17405418470E+03 0.  0.
        -24    2    3    3    0    0  0.11441579124E+02 -0.90176924236E+02 -0.11199486341E+03  0.16486683928E+03  0.79846339100E+02 0.  0.
          6    2    1    2  502    0 -0.26235489599E+02  0.39497749352E+02  0.84808914113E+02  0.19845900803E+03  0.17304638926E+03 0.  0.
         24    2    5    5    0    0 -0.65386151703E+02 -0.56819166472E+01  0.96829875255E+02  0.13729880798E+03  0.71883968454E+02 0.  0.
          4    1    6    6  501    0 -0.37937976880E+02  0.31998940448E+02  0.39655337287E+02  0.63527695180E+02  0.00000000000E+00 0. -1.
         -3    1    6    6    0  501 -0.27448174824E+02 -0.37680857095E+02  0.57174537968E+02  0.73771112805E+02  0.00000000000E+00 0.  1.
          5    1    5    5  502    0  0.39150662104E+02  0.45179665999E+02 -0.12020961142E+02  0.61160200046E+02  0.47000000000E+01 0. -1.
         11    1    4    4    0    0  0.11400410336E+02 -0.50723237786E+02 -0.66944434458E+01  0.52417857457E+02  0.00000000000E+00 0. -1.
        -12    1    4    4    0    0  0.41168788061E-01 -0.39453686450E+02 -0.10530041996E+03  0.11244898183E+03  0.00000000000E+00 0.  1.
         -5    1    3    3    0  504  0.14793910476E+02  0.50679174885E+02 -0.12913256535E+02  0.54553466879E+02  0.47000000000E+01 0.  1.
<mgrwt>
<rscale>  2 0.18015390E+03</rscale>
<asrwt>0</asrwt>
<pdfrwt beam="1">  1       21 0.29060008E-01 0.18039743E+03</pdfrwt>
<pdfrwt beam="2">  1       21 0.35229117E-01 0.18039743E+03</pdfrwt>
<totfact> 0.88490826E+04</totfact>
</mgrwt>
</event>
<event>
12    1  0.1410528E-001  0.2498684E+03  0.7546771E-02  0.1113661E+00
         21   -1    0    0  502  503  0.00000000000E+00  0.00000000000E+00  0.21287751156E+03  0.21287751156E+03  0.00000000000E+00 0.  1.
         21   -1    0    0  503  504 -0.00000000000E+00 -0.00000000000E+00 -0.73968312204E+03  0.73968312204E+03  0.00000000000E+00 0.  1.
         -6    2    1    2    0  504 -0.17800779494E+03 -0.28199054374E+02 -0.63387624023E+03  0.68071819002E+03  0.17057609613E+03 0.  0.
        -24    2    3    3    0    0 -0.93552632971E+02  0.29476252862E+02 -0.45949745205E+03  0.47850748997E+03  0.90612167491E+02 0.  0.
          6    2    1    2  502    0  0.17800779494E+03  0.28199054374E+02  0.10707062975E+03  0.27184244358E+03  0.17306713336E+03 0.  0.
         24    2    5    5    0    0  0.13988512411E+03 -0.34891497866E+02  0.44261831372E+02  0.17488476741E+03  0.88545511394E+02 0.  0.
          2    1    6    6  501    0  0.60417092167E+02 -0.54269165572E+02 -0.13649319322E+01  0.81223336529E+02  0.00000000000E+00 0. -1.
         -1    1    6    6    0  501  0.79468031939E+02  0.19377667706E+02  0.45626763304E+02  0.93661430886E+02  0.00000000000E+00 0.  1.
          5    1    5    5  502    0  0.38122670838E+02  0.63090552240E+02  0.62808798374E+02  0.96957676163E+02  0.47000000000E+01 0. -1.
         13    1    4    4    0    0 -0.56636309539E+02  0.33596184417E+01 -0.90945095527E+02  0.10719127294E+03  0.00000000000E+00 0. -1.
        -14    1    4    4    0    0 -0.36916323432E+02  0.26116634420E+02 -0.36855235653E+03  0.37131621703E+03  0.00000000000E+00 0.  1.
         -5    1    3    3    0  504 -0.84455161972E+02 -0.57675307236E+02 -0.17437878818E+03  0.20221070005E+03  0.47000000000E+01 0.  1.
<mgrwt>
<rscale>  2 0.24943752E+03</rscale>
<asrwt>0</asrwt>
<pdfrwt beam="1">  1       21 0.32750387E-01 0.24986835E+03</pdfrwt>
<pdfrwt beam="2">  1       21 0.11379740E+00 0.24986835E+03</pdfrwt>
<totfact> 0.51799829E+03</totfact>
</mgrwt>
</event>
<event>
12    1  0.1410528E-001  0.2030004E+03  0.7546771E-02  0.1147364E+00
         21   -1    0    0  502  503  0.00000000000E+00  0.00000000000E+00  0.60329695547E+03  0.60329695547E+03  0.00000000000E+00 0. -1.
         21   -1    0    0  503  504 -0.00000000000E+00 -0.00000000000E+00 -0.71934453158E+02  0.71934453158E+02  0.00000000000E+00 0.  1.
         -6    2    1    2    0  504  0.97867057726E+02 -0.42575477191E+02  0.34331360632E+03  0.39851572571E+03  0.17192998316E+03 0.  0.
        -24    2    3    3    0    0  0.11598969944E+03 -0.78832066650E+02  0.27206385761E+03  0.31640855725E+03  0.80171861489E+02 0.  0.
          6    2    1    2  502    0 -0.97867057726E+02  0.42575477191E+02  0.18804889599E+03  0.27671568292E+03  0.17268048426E+03 0.  0.
         24    2    5    5    0    0 -0.80646890280E+02 -0.35478080156E+02  0.87384274914E+02  0.14809084893E+03  0.80822478008E+02 0.  0.
          2    1    6    6  501    0 -0.83232584997E+02 -0.21864338636E+02  0.98156696427E+02  0.13053907293E+03  0.00000000000E+00 0. -1.
         -1    1    6    6    0  501  0.25856947170E+01 -0.13613741520E+02 -0.10772421513E+02  0.17551775995E+02  0.00000000000E+00 0.  1.
          5    1    5    5  502    0 -0.17220167446E+02  0.78053557347E+02  0.10066462108E+03  0.12862483399E+03  0.47000000000E+01 0. -1.
         13    1    4    4    0    0  0.70714404025E+02 -0.81492131854E+00  0.13343019926E+03  0.15101261242E+03  0.00000000000E+00 0. -1.
        -14    1    4    4    0    0  0.45275295411E+02 -0.78017145331E+02  0.13863365835E+03  0.16539594483E+03  0.00000000000E+00 0.  1.
         -5    1    3    3    0  504 -0.18122641711E+02  0.36256589458E+02  0.71249748709E+02  0.82107168462E+02  0.47000000000E+01 0.  1.
<mgrwt>
<rscale>  2 0.20284075E+03</rscale>
<asrwt>0</asrwt>
<pdfrwt beam="1">  1       21 0.92814913E-01 0.20300045E+03</pdfrwt>
<pdfrwt beam="2">  1       21 0.11066839E-01 0.20300045E+03</pdfrwt>
<totfact> 0.65987104E+04</totfact>
</mgrwt>
</event>
<event>
12    1  0.1410528E-001  0.2047192E+03  0.7546771E-02  0.1145998E+00
         21   -1    0    0  502  503  0.00000000000E+00  0.00000000000E+00  0.19394087580E+03  0.19394087580E+03  0.00000000000E+00 0.  1.
         21   -1    0    0  503  504 -0.00000000000E+00 -0.00000000000E+00 -0.25123119137E+03  0.25123119137E+03  0.00000000000E+00 0.  1.
         -6    2    1    2    0  504  0.10749011696E+03  0.46190461223E+01 -0.11292161944E+03  0.23302877235E+03  0.17313479077E+03 0.  0.
        -24    2    3    3    0    0  0.32266352538E+02 -0.77952526959E+01  0.10919086722E+02  0.87525026517E+02  0.80246621993E+02 0.  0.
          6    2    1    2  502    0 -0.10749011696E+03 -0.46190461223E+01  0.55631303860E+02  0.21214329482E+03  0.17416794980E+03 0.  0.
         24    2    5    5    0    0 -0.10512537918E+03  0.43899431105E+02  0.31325948541E+01  0.14046457368E+03  0.82109548231E+02 0.  0.
          2    1    6    6  501    0 -0.62902025322E+02  0.65197086192E+02 -0.10620541082E+02  0.91214695803E+02  0.00000000000E+00 0. -1.
         -1    1    6    6    0  501 -0.42223353854E+02 -0.21297655088E+02  0.13753135936E+02  0.49249877878E+02  0.00000000000E+00 0.  1.
          5    1    5    5  502    0 -0.23647377814E+01 -0.48518477227E+02  0.52498709006E+02  0.71678721141E+02  0.47000000000E+01 0. -1.
         13    1    4    4    0    0  0.51488147044E+02 -0.18646676959E+02  0.26172902990E+02  0.60693893420E+02  0.00000000000E+00 0. -1.
        -14    1    4    4    0    0 -0.19221794505E+02  0.10851424263E+02 -0.15253816268E+02  0.26831133097E+02  0.00000000000E+00 0.  1.
         -5    1    3    3    0  504  0.75223764419E+02  0.12414298818E+02 -0.12384070616E+03  0.14550374583E+03  0.47000000000E+01 0.  1.
<mgrwt>
<rscale>  2 0.20449925E+03</rscale>
<asrwt>0</asrwt>
<pdfrwt beam="1">  1       21 0.29837058E-01 0.20471916E+03</pdfrwt>
<pdfrwt beam="2">  1       21 0.38650952E-01 0.20471916E+03</pdfrwt>
<totfact> 0.69142246E+04</totfact>
</mgrwt>
</event>
<event>
12    1  0.1410528E-001  0.3060791E+03  0.7546771E-02  0.1082263E+00
         21   -1    0    0  502  503  0.00000000000E+00  0.00000000000E+00  0.43194833157E+03  0.43194833157E+03  0.00000000000E+00 0. -1.
         21   -1    0    0  503  504 -0.00000000000E+00 -0.00000000000E+00 -0.31397547689E+03  0.31397547689E+03  0.00000000000E+00 0.  1.
         -6    2    1    2    0  504  0.77262695553E+02 -0.23976045851E+03 -0.14856243070E+03  0.34005995739E+03  0.17353782647E+03 0.  0.
        -24    2    3    3    0    0  0.12120585370E+03 -0.18887341900E+03 -0.11246783388E+03  0.26360472959E+03  0.80463733625E+02 0.  0.
          6    2    1    2  502    0 -0.77262695553E+02  0.23976045851E+03  0.26653528538E+03  0.40586385106E+03  0.17386720695E+03 0.  0.
         24    2    5    5    0    0 -0.11469257318E+03  0.14882390914E+03  0.20866029565E+03  0.29166202889E+03  0.78896627546E+02 0.  0.
          2    1    6    6  501    0 -0.11142585212E+03  0.14062736355E+03  0.15445968341E+03  0.23674790327E+03  0.00000000000E+00 0. -1.
         -1    1    6    6    0  501 -0.32667210641E+01  0.81965455907E+01  0.54200612235E+02  0.54914125622E+02  0.00000000000E+00 0.  1.
          5    1    5    5  502    0  0.37429877631E+02  0.90936549369E+02  0.57874989733E+02  0.11420182217E+03  0.47000000000E+01 0. -1.
         11    1    4    4    0    0  0.97066848026E+01  0.74582338464E+01 -0.92691721169E+01  0.15354560681E+02  0.00000000000E+00 0. -1.
        -12    1    4    4    0    0  0.11149916890E+03 -0.19633165284E+03 -0.10319866176E+03  0.24825016891E+03  0.00000000000E+00 0.  1.
         -5    1    3    3    0  504 -0.43943158150E+02 -0.50887039517E+02 -0.36094596825E+02  0.76455227807E+02  0.47000000000E+01 0.  1.
<mgrwt>
<rscale>  2 0.30603233E+03</rscale>
<asrwt>0</asrwt>
<pdfrwt beam="1">  1       21 0.66453590E-01 0.30607909E+03</pdfrwt>
<pdfrwt beam="2">  1       21 0.48303919E-01 0.30607909E+03</pdfrwt>
<totfact> 0.79622395E+03</totfact>
</mgrwt>
</event>
<event>
12    1  0.1410528E-001  0.1849874E+03  0.7546771E-02  0.1163186E+00
         21   -1    0    0  502  503  0.00000000000E+00  0.00000000000E+00  0.45329882788E+03  0.45329882788E+03  0.00000000000E+00 0. -1.
         21   -1    0    0  503  504 -0.00000000000E+00 -0.00000000000E+00 -0.43110803297E+03  0.43110803297E+03  0.00000000000E+00 0. -1.
         -6    2    1    2    0  504 -0.21087943809E+02 -0.58291285792E+02 -0.39065397277E+03  0.43201197936E+03  0.17372751221E+03 0.  0.
        -24    2    3    3    0    0  0.36163594109E+02 -0.84240578653E+02 -0.25732054515E+03  0.28452978615E+03  0.79618186494E+02 0.  0.
          6    2    1    2  502    0  0.21087943809E+02  0.58291285792E+02  0.41284476768E+03  0.45239488149E+03  0.17429214334E+03 0.  0.
         24    2    5    5    0    0 -0.87139351086E+00  0.20051481877E+02  0.39667689697E+03  0.40519334399E+03  0.80163983052E+02 0.  0.
          4    1    6    6  501    0 -0.16654309707E+02 -0.22723627289E+01  0.35470154353E+03  0.35509958413E+03  0.00000000000E+00 0. -1.
         -3    1    6    6    0  501  0.15782916197E+02  0.22323844605E+02  0.41975353436E+02  0.50093759868E+02  0.00000000000E+00 0.  1.
          5    1    5    5  502    0  0.21959337320E+02  0.38239803915E+02  0.16167870711E+02  0.47201537500E+02  0.47000000000E+01 0. -1.
         13    1    4    4    0    0  0.42272058268E+02 -0.63598233437E+02 -0.25060122344E+03  0.26197831093E+03  0.00000000000E+00 0. -1.
        -14    1    4    4    0    0 -0.61084641595E+01 -0.20642345216E+02 -0.67193217039E+01  0.22551475219E+02  0.00000000000E+00 0.  1.
         -5    1    3    3    0  504 -0.57251537917E+02  0.25949292861E+02 -0.13333342762E+03  0.14748219321E+03  0.47000000000E+01 0.  1.
<mgrwt>
<rscale>  2 0.18485425E+03</rscale>
<asrwt>0</asrwt>
<pdfrwt beam="1">  1       21 0.69738281E-01 0.18498737E+03</pdfrwt>
<pdfrwt beam="2">  1       21 0.66324313E-01 0.18498737E+03</pdfrwt>
<totfact> 0.39212995E+03</totfact>
</mgrwt>
</event>
<event>
12    1  0.1410528E-001  0.1808024E+03  0.7546771E-02  0.1168011E+00
         21   -1    0    0  502  503  0.00000000000E+00  0.00000000000E+00  0.14904076257E+04  0.14904076257E+04  0.00000000000E+00 0.  1.
         21   -1    0    0  503  504 -0.00000000000E+00 -0.00000000000E+00 -0.21682347680E+02  0.21682347680E+02  0.00000000000E+00 0.  1.
         -6    2    1    2    0  504 -0.95336849839E+01 -0.41722594234E+02  0.66369741879E+03  0.68788354701E+03  0.17566401029E+03 0.  0.
        -24    2    3    3    0    0  0.22675818929E+02  0.24583303749E+02  0.19370202117E+03  0.21211922716E+03  0.79721778329E+02 0.  0.
          6    2    1    2  502    0  0.95336849839E+01  0.41722594234E+02  0.80502785922E+03  0.82420642637E+03  0.17150718097E+03 0.  0.
         24    2    5    5    0    0  0.62352042306E+02 -0.90263359304E+01  0.26716595962E+03  0.28135953652E+03  0.61776102876E+02 0.  0.
          2    1    6    6  501    0  0.39547078615E+02 -0.18129947950E+00  0.54747163667E+02  0.67537072975E+02  0.00000000000E+00 0. -1.
         -1    1    6    6    0  501  0.22804963692E+02 -0.88450364509E+01  0.21241879596E+03  0.21382246354E+03  0.00000000000E+00 0.  1.
          5    1    5    5  502    0 -0.52818357323E+02  0.50748930165E+02  0.53786189960E+03  0.54284688985E+03  0.47000000000E+01 0. -1.
         11    1    4    4    0    0  0.25007143844E+02 -0.48917730161E+01  0.17562498269E+03  0.17746385895E+03  0.00000000000E+00 0. -1.
        -12    1    4    4    0    0 -0.23313249146E+01  0.29475076765E+02  0.18077038477E+02  0.34655368217E+02  0.00000000000E+00 0.  1.
         -5    1    3    3    0  504 -0.32209503913E+02 -0.66305897983E+02  0.46999539762E+03  0.47576431984E+03  0.47000000000E+01 0.  1.
<mgrwt>
<rscale>  2 0.17978486E+03</rscale>
<asrwt>0</asrwt>
<pdfrwt beam="1">  1       21 0.22929340E+00 0.18080241E+03</pdfrwt>
<pdfrwt beam="2">  1       21 0.33357470E-02 0.18080241E+03</pdfrwt>
<totfact> 0.47275366E+04</totfact>
</mgrwt>
</event>
<event>
12    1  0.1410528E-001  0.3416245E+03  0.7546771E-02  0.1066133E+00
         21   -1    0    0  502  503  0.00000000000E+00  0.00000000000E+00  0.17971125142E+03  0.17971125142E+03  0.00000000000E+00 0.  1.
         21   -1    0    0  503  504 -0.00000000000E+00 -0.00000000000E+00 -0.67406943711E+03  0.67406943711E+03  0.00000000000E+00 0.  1.
         -6    2    1    2    0  504  0.12922603988E+03 -0.26409327405E+03 -0.16484291151E+03  0.37931585052E+03  0.17396178373E+03 0.  0.
        -24    2    3    3    0    0  0.10617252654E+01 -0.10725667986E+03 -0.66581285607E+02  0.15414647884E+03  0.88447423425E+02 0.  0.
          6    2    1    2  502    0 -0.12922603988E+03  0.26409327405E+03 -0.32951527418E+03  0.47446483802E+03  0.17347028510E+03 0.  0.
         24    2    5    5    0    0 -0.14238130367E+03  0.21069081147E+03 -0.20097512118E+03  0.33457364848E+03  0.82978751819E+02 0.  0.
          2    1    6    6  501    0 -0.49909768291E+02  0.51300399262E+02 -0.15723619236E+02  0.73279929976E+02  0.00000000000E+00 0. -1.
         -1    1    6    6    0  501 -0.92471535379E+02  0.15939041221E+03 -0.18525150194E+03  0.26129371851E+03  0.00000000000E+00 0.  1.
          5    1    5    5  502    0  0.13155263789E+02  0.53402462581E+02 -0.12854015300E+03  0.13989118953E+03  0.47000000000E+01 0. -1.
         11    1    4    4    0    0 -0.10686846573E+02 -0.87125639919E+02 -0.86684277106E+02  0.12336632328E+03  0.00000000000E+00 0. -1.
        -12    1    4    4    0    0  0.11748571839E+02 -0.20131039945E+02  0.20102991500E+02  0.30780155568E+02  0.00000000000E+00 0.  1.
         -5    1    3    3    0  504  0.12816431462E+03 -0.15683659419E+03 -0.98261625901E+02  0.22516937168E+03  0.47000000000E+01 0.  1.
<mgrwt>
<rscale>  2 0.34156202E+03</rscale>
<asrwt>0</asrwt>
<pdfrwt beam="1">  1       21 0.27647885E-01 0.34162454E+03</pdfrwt>
<pdfrwt beam="2">  1       21 0.10370299E+00 0.34162454E+03</pdfrwt>
<totfact> 0.86591552E+03</totfact>
</mgrwt>
</event>
<event>
12    1  0.1410528E-001  0.2111621E+03  0.7546771E-02  0.1141004E+00
         21   -1    0    0  502  503  0.00000000000E+00  0.00000000000E+00  0.13623802511E+03  0.13623802511E+03  0.00000000000E+00 0. -1.
         21   -1    0    0  503  504 -0.00000000000E+00 -0.00000000000E+00 -0.42724092064E+03  0.42724092064E+03  0.00000000000E+00 0. -1.
         -6    2    1    2    0  504  0.94934691069E+02 -0.72330523865E+02 -0.28412775080E+03  0.35400284633E+03  0.17419855392E+03 0.  0.
        -24    2    3    3    0    0  0.79039798064E+02 -0.10723598519E+03 -0.27148129593E+03  0.31334498517E+03  0.82073987902E+02 0.  0.
          6    2    1    2  502    0 -0.94934691069E+02  0.72330523865E+02 -0.68751447293E+01  0.20947609942E+03  0.17201357028E+03 0.  0.
         24    2    5    5    0    0 -0.69086988538E+02 -0.24419024798E+02  0.91235125381E+01  0.10795454541E+03  0.78750521504E+02 0.  0.
          4    1    6    6  501    0 -0.62718874398E+02  0.17379330226E+02  0.22684600641E+01  0.65121764687E+02  0.00000000000E+00 0. -1.
         -3    1    6    6    0  501 -0.63681141398E+01 -0.41798355024E+02  0.68550524740E+01  0.42832780727E+02  0.00000000000E+00 0.  1.
          5    1    5    5  502    0 -0.25847702531E+02  0.96749548663E+02 -0.15998657267E+02  0.10152155400E+03  0.47000000000E+01 0. -1.
         13    1    4    4    0    0  0.54445807157E+02 -0.53867130458E+02 -0.71027005377E+02  0.10445501019E+03  0.00000000000E+00 0. -1.
        -14    1    4    4    0    0  0.24593990907E+02 -0.53368854734E+02 -0.20045429055E+03  0.20888997498E+03  0.00000000000E+00 0.  1.
         -5    1    3    3    0  504  0.15894893005E+02  0.34905461326E+02 -0.12646454867E+02  0.40657861168E+02  0.47000000000E+01 0.  1.
<mgrwt>
<rscale>  2 0.21071095E+03</rscale>
<asrwt>0</asrwt>
<pdfrwt beam="1">  1       21 0.20959697E-01 0.21116211E+03</pdfrwt>
<pdfrwt beam="2">  1       21 0.65729371E-01 0.21116211E+03</pdfrwt>
<totfact> 0.44561574E+04</totfact>
</mgrwt>
</event>
<event>
12    1  0.1410528E-001  0.1853589E+03  0.7546771E-02  0.1162790E+00
         21   -1    0    0  502  503  0.00000000000E+00  0.00000000000E+00  0.70657147325E+03  0.70657147325E+03  0.00000000000E+00 0.  1.
         21   -1    0    0  503  504 -0.00000000000E+00 -0.00000000000E+00 -0.57899660828E+02  0.57899660828E+02  0.00000000000E+00 0. -1.
         -6    2    1    2    0  504 -0.65013987671E+02  0.35887642928E+00  0.47776590194E+03  0.51234663315E+03  0.17323933748E+03 0.  0.
        -24    2    3    3    0    0 -0.63045380474E+02  0.37537290482E+02  0.45658461903E+03  0.46925548984E+03  0.79670774008E+02 0.  0.
          6    2    1    2  502    0  0.65013987671E+02 -0.35887642928E+00  0.17090591048E+03  0.25212450094E+03  0.17358279393E+03 0.  0.
         24    2    5    5    0    0  0.94097347187E+02 -0.41028078304E+02  0.96433760293E+02  0.16230236037E+03  0.80653407251E+02 0.  0.
          4    1    6    6  501    0  0.20933284899E+02 -0.52450933888E+02  0.43233768493E+02  0.71122862854E+02  0.00000000000E+00 0. -1.
         -3    1    6    6    0  501  0.73164062287E+02  0.11422855585E+02  0.53199991800E+02  0.91179497518E+02  0.00000000000E+00 0.  1.
          5    1    5    5  502    0 -0.29083359516E+02  0.40669201874E+02  0.74472150190E+02  0.89822140565E+02  0.47000000000E+01 0. -1.
         11    1    4    4    0    0 -0.20354331565E+02 -0.19699109030E+02  0.60711737470E+02  0.66994542887E+02  0.00000000000E+00 0. -1.
        -12    1    4    4    0    0 -0.42691048909E+02  0.57236399512E+02  0.39587288156E+03  0.40226094695E+03  0.00000000000E+00 0.  1.
         -5    1    3    3    0  504 -0.19686071973E+01 -0.37178414053E+02  0.21181282912E+02  0.43091143308E+02  0.47000000000E+01 0.  1.
<mgrwt>
<rscale>  2 0.18527848E+03</rscale>
<asrwt>0</asrwt>
<pdfrwt beam="1">  1       21 0.10870330E+00 0.18535893E+03</pdfrwt>
<pdfrwt beam="2">  1       21 0.89076406E-02 0.18535893E+03</pdfrwt>
<totfact> 0.67079352E+04</totfact>
</mgrwt>
</event>
<event>
12    1  0.1410528E-001  0.2015964E+03  0.7546771E-02  0.1148803E+00
         21   -1    0    0  502  503  0.00000000000E+00  0.00000000000E+00  0.21809936806E+03  0.21809936806E+03  0.00000000000E+00 0.  1.
         21   -1    0    0  503  504 -0.00000000000E+00 -0.00000000000E+00 -0.18457126777E+03  0.18457126777E+03  0.00000000000E+00 0.  1.
         -6    2    1    2    0  504 -0.77979798799E+02 -0.69770297823E+02  0.15995780602E+02  0.20223003454E+03  0.17231476545E+03 0.  0.
        -24    2    3    3    0    0 -0.21094327080E+02  0.25269559159E+02  0.30833358738E+02  0.90378458630E+02  0.78320166741E+02 0.  0.
          6    2    1    2  502    0  0.77979798799E+02  0.69770297823E+02  0.17532319685E+02  0.20044060129E+03  0.17005972166E+03 0.  0.
         24    2    5    5    0    0  0.49661715962E+02  0.89064095913E+02  0.62103274544E+02  0.14402407465E+03  0.80544510413E+02 0.  0.
          2    1    6    6  501    0  0.41795109042E+02  0.84833395992E+02  0.14602757723E+02  0.95691048423E+02  0.00000000000E+00 0. -1.
         -1    1    6    6    0  501  0.78666069203E+01  0.42306999214E+01  0.47500516821E+02  0.48333026230E+02  0.00000000000E+00 0.  1.
          5    1    5    5  502    0  0.28318082838E+02 -0.19293798090E+02 -0.44570954860E+02  0.56416526634E+02  0.47000000000E+01 0. -1.
         11    1    4    4    0    0  0.20175327593E+02  0.24025922420E+02 -0.93773829653E+01  0.32744833224E+02  0.00000000000E+00 0. -1.
        -12    1    4    4    0    0 -0.41269654673E+02  0.12436367387E+01  0.40210741703E+02  0.57633625406E+02  0.00000000000E+00 0.  1.
         -5    1    3    3    0  504 -0.56885471720E+02 -0.95039856981E+02 -0.14837578136E+02  0.11185157591E+03  0.47000000000E+01 0.  1.
<mgrwt>
<rscale>  2 0.20111368E+03</rscale>
<asrwt>0</asrwt>
<pdfrwt beam="1">  1       21 0.33553749E-01 0.20159643E+03</pdfrwt>
<pdfrwt beam="2">  1       21 0.28395580E-01 0.20159643E+03</pdfrwt>
<totfact> 0.10107563E+05</totfact>
</mgrwt>
</event>
<event>
12    1  0.1410528E-001  0.2346256E+03  0.7546771E-02  0.1123851E+00
         21   -1    0    0  502  503  0.00000000000E+00  0.00000000000E+00  0.16005181806E+03  0.16005181806E+03  0.00000000000E+00 0.  1.
         21   -1    0    0  503  504 -0.00000000000E+00 -0.00000000000E+00 -0.41024372485E+03  0.41024372485E+03  0.00000000000E+00 0.  1.
         -6    2    1    2    0  504  0.76680888923E+02 -0.13508075594E+03 -0.24334819493E+03  0.33803481944E+03  0.17584773478E+03 0.  0.
        -24    2    3    3    0    0 -0.20973246912E+02 -0.33731787434E+02 -0.50958165096E+02  0.99615111273E+02  0.75820348420E+02 0.  0.
          6    2    1    2  502    0 -0.76680888923E+02  0.13508075594E+03 -0.68437118637E+01  0.23226072347E+03  0.17254401735E+03 0.  0.
         24    2    5    5    0    0 -0.65749665527E+02  0.14704464663E+03 -0.49880062344E+02  0.18603471577E+03  0.78585928967E+02 0.  0.
          2    1    6    6  501    0 -0.51892661105E+02  0.78554182694E+02 -0.65171509021E+02  0.11450298460E+03  0.00000000000E+00 0. -1.
         -1    1    6    6    0  501 -0.13857004423E+02  0.68490463934E+02  0.15291446676E+02  0.71531731161E+02  0.00000000000E+00 0.  1.
          5    1    5    5  502    0 -0.10931223395E+02 -0.11963890691E+02  0.43036350481E+02  0.46226007702E+02  0.47000000000E+01 0. -1.
         11    1    4    4    0    0 -0.20987874796E+02  0.13783294175E+02  0.56212082331E+01  0.25730683410E+02  0.00000000000E+00 0. -1.
        -12    1    4    4    0    0  0.14627884144E-01 -0.47515081609E+02 -0.56579373329E+02  0.73884427863E+02  0.00000000000E+00 0.  1.
         -5    1    3    3    0  504  0.97654135835E+02 -0.10134896850E+03 -0.19239002984E+03  0.23841970817E+03  0.47000000000E+01 0.  1.
<mgrwt>
<rscale>  2 0.23400676E+03</rscale>
<asrwt>0</asrwt>
<pdfrwt beam="1">  1       21 0.24623357E-01 0.23462565E+03</pdfrwt>
<pdfrwt beam="2">  1       21 0.63114419E-01 0.23462565E+03</pdfrwt>
<totfact> 0.35469752E+04</totfact>
</mgrwt>
</event>
<event>
12    1  0.1410528E-001  0.1741644E+03  0.7546771E-02  0.1173685E+00
         21   -1    0    0  502  503  0.00000000000E+00  0.00000000000E+00  0.23256245219E+03  0.23256245219E+03  0.00000000000E+00 0. -1.
         21   -1    0    0  503  504 -0.00000000000E+00 -0.00000000000E+00 -0.13251210859E+03  0.13251210859E+03  0.00000000000E+00 0. -1.
         -6    2    1    2    0  504  0.37295162093E+01  0.79856231054E+01  0.25330931713E+02  0.17555878533E+03  0.17349798713E+03 0.  0.
        -24    2    3    3    0    0 -0.52796153108E+02  0.34496129663E+02  0.41299320763E+02  0.11094425370E+03  0.81397646082E+02 0.  0.
          6    2    1    2  502    0 -0.37295162093E+01 -0.79856231054E+01  0.74719411891E+02  0.18951577545E+03  0.17394125205E+03 0.  0.
         24    2    5    5    0    0 -0.16579670476E+02  0.48396057828E+02  0.88525814642E+02  0.12987747260E+03  0.80089163719E+02 0.  0.
          2    1    6    6  501    0 -0.50491123430E+01  0.56448179169E+01  0.85132518331E+02  0.85468726340E+02  0.00000000000E+00 0. -1.
         -1    1    6    6    0  501 -0.11530558133E+02  0.42751239911E+02  0.33932963111E+01  0.44408746263E+02  0.00000000000E+00 0.  1.
          5    1    5    5  502    0  0.12850154267E+02 -0.56381680933E+02 -0.13806402751E+02  0.59638302847E+02  0.47000000000E+01 0. -1.
         11    1    4    4    0    0 -0.17421297872E+01  0.47889494303E+02  0.81306961172E+01  0.48606037692E+02  0.00000000000E+00 0. -1.
        -12    1    4    4    0    0 -0.51054023321E+02 -0.13393364639E+02  0.33168624645E+02  0.62338216003E+02  0.00000000000E+00 0.  1.
         -5    1    3    3    0  504  0.56525669317E+02 -0.26510506558E+02 -0.15968389049E+02  0.64614531636E+02  0.47000000000E+01 0.  1.
<mgrwt>
<rscale>  2 0.17405362E+03</rscale>
<asrwt>0</asrwt>
<pdfrwt beam="1">  1       21 0.35778839E-01 0.17416440E+03</pdfrwt>
<pdfrwt beam="2">  1       21 0.20386478E-01 0.17416440E+03</pdfrwt>
<totfact> 0.16872455E+05</totfact>
</mgrwt>
</event>
<event>
12    1  0.1410528E-001  0.1773404E+03  0.7546771E-02  0.1170560E+00
         21   -1    0    0  502  503  0.00000000000E+00  0.00000000000E+00  0.61325541932E+03  0.61325541932E+03  0.00000000000E+00 0.  1.
         21   -1    0    0  503  504 -0.00000000000E+00 -0.00000000000E+00 -0.52396516026E+02  0.52396516026E+02  0.00000000000E+00 0.  1.
         -6    2    1    2    0  504 -0.12394040811E+02  0.28749682406E+02  0.33331340833E+03  0.37755457088E+03  0.17455506104E+03 0.  0.
        -24    2    3    3    0    0  0.59853638114E+02  0.25857608126E+02  0.21983231363E+03  0.24291378933E+03  0.80185965321E+02 0.  0.
          6    2    1    2  502    0  0.12394040811E+02 -0.28749682406E+02  0.22754549497E+03  0.28809736447E+03  0.17390509667E+03 0.  0.
         24    2    5    5    0    0  0.11732361858E+02 -0.97876695874E+00  0.23972678135E+03  0.25740314185E+03  0.92999147510E+02 0.  0.
          4    1    6    6  501    0  0.52145408897E+02  0.33008213802E+01  0.11738921035E+03  0.12849227913E+03  0.00000000000E+00 0. -1.
         -3    1    6    6    0  501 -0.40413047039E+02 -0.42795883390E+01  0.12233757101E+03  0.12891086272E+03  0.00000000000E+00 0.  1.
          5    1    5    5  502    0  0.66167895311E+00 -0.27770915448E+02 -0.12181286387E+02  0.30694222614E+02  0.47000000000E+01 0. -1.
         13    1    4    4    0    0  0.30715846161E+01  0.39856514067E+02  0.12749034417E+03  0.13361049436E+03  0.00000000000E+00 0. -1.
        -14    1    4    4    0    0  0.56782053498E+02 -0.13998905941E+02  0.92341969460E+02  0.10930329497E+03  0.00000000000E+00 0.  1.
         -5    1    3    3    0  504 -0.72247678925E+02  0.28920742799E+01  0.11348109469E+03  0.13464078155E+03  0.47000000000E+01 0.  1.
<mgrwt>
<rscale>  2 0.17718028E+03</rscale>
<asrwt>0</asrwt>
<pdfrwt beam="1">  1       21 0.94346982E-01 0.17734042E+03</pdfrwt>
<pdfrwt beam="2">  1       21 0.80610029E-02 0.17734042E+03</pdfrwt>
<totfact> 0.11216100E+05</totfact>
</mgrwt>
</event>
<event>
12    1  0.1410528E-001  0.1832532E+03  0.7546771E-02  0.1165425E+00
         21   -1    0    0  502  503  0.00000000000E+00  0.00000000000E+00  0.36372462397E+03  0.36372462397E+03  0.00000000000E+00 0.  1.
         21   -1    0    0  503  504 -0.00000000000E+00 -0.00000000000E+00 -0.13257656709E+03  0.13257656709E+03  0.00000000000E+00 0.  1.
         -6    2    1    2    0  504  0.20704168355E+02 -0.51671452388E+02 -0.23079212606E+02  0.18470079088E+03  0.17459418810E+03 0.  0.
        -24    2    3    3    0    0 -0.56927375838E+02 -0.20175832501E+02 -0.78209951650E+01  0.99415775054E+02  0.78578228710E+02 0.  0.
          6    2    1    2  502    0 -0.20704168355E+02  0.51671452388E+02  0.25422726949E+03  0.31160040017E+03  0.17136132369E+03 0.  0.
         24    2    5    5    0    0 -0.44736452111E+01  0.10947916283E+02  0.25330494380E+03  0.26750077478E+03  0.85166892547E+02 0.  0.
          2    1    6    6  501    0  0.19904125966E+01 -0.35676077521E+02  0.74831721838E+02  0.82924850575E+02  0.00000000000E+00 0. -1.
         -1    1    6    6    0  501 -0.64640578077E+01  0.46623993804E+02  0.17847322196E+03  0.18457592421E+03  0.00000000000E+00 0.  1.
          5    1    5    5  502    0 -0.16230523144E+02  0.40723536105E+02  0.92232568881E+00  0.44099625384E+02  0.47000000000E+01 0. -1.
         13    1    4    4    0    0 -0.25931170926E+02  0.28979275051E+02  0.68369671670E+01  0.39483770439E+02  0.00000000000E+00 0. -1.
        -14    1    4    4    0    0 -0.30996204912E+02 -0.49155107552E+02 -0.14657962332E+02  0.59932004614E+02  0.00000000000E+00 0.  1.
         -5    1    3    3    0  504  0.77631544193E+02 -0.31495619886E+02 -0.15258217441E+02  0.85285015831E+02  0.47000000000E+01 0.  1.
<mgrwt>
<rscale>  2 0.18247894E+03</rscale>
<asrwt>0</asrwt>
<pdfrwt beam="1">  1       21 0.55957634E-01 0.18325319E+03</pdfrwt>
<pdfrwt beam="2">  1       21 0.20396395E-01 0.18325319E+03</pdfrwt>
<totfact> 0.67185981E+04</totfact>
</mgrwt>
</event>
<event>
12    1  0.1410528E-001  0.1832090E+03  0.7546771E-02  0.1165877E+00
         21   -1    0    0  502  503  0.00000000000E+00  0.00000000000E+00  0.18659735726E+03  0.18659735726E+03  0.00000000000E+00 0. -1.
         21   -1    0    0  503  504 -0.00000000000E+00 -0.00000000000E+00 -0.30744620575E+03  0.30744620575E+03  0.00000000000E+00 0. -1.
         -6    2    1    2    0  504  0.38665123985E+02  0.42048970352E+02 -0.22195362130E+03  0.28478846739E+03  0.16905015063E+03 0.  0.
        -24    2    3    3    0    0  0.20491001018E+02  0.89571710683E+02 -0.18360813435E+03  0.22090438515E+03  0.81509679798E+02 0.  0.
          6    2    1    2  502    0 -0.38665123985E+02 -0.42048970352E+02  0.10110477280E+03  0.20925509562E+03  0.17407588069E+03 0.  0.
         24    2    5    5    0    0  0.44960905842E+02 -0.21848009802E+02  0.40181659015E+02  0.10373207697E+03  0.81528887425E+02 0.  0.
          2    1    6    6  501    0  0.56840073466E+02 -0.19526159548E+02  0.57119557632E+02  0.82913863270E+02  0.00000000000E+00 0. -1.
         -1    1    6    6    0  501 -0.11879167624E+02 -0.23218502543E+01 -0.16937898617E+02  0.20818213699E+02  0.00000000000E+00 0.  1.
          5    1    5    5  502    0 -0.83626029827E+02 -0.20200960550E+02  0.60923113787E+02  0.10552301865E+03  0.47000000000E+01 0. -1.
         11    1    4    4    0    0  0.41416946186E+02  0.29659591396E+02 -0.12308142684E+03  0.13320695337E+03  0.00000000000E+00 0. -1.
        -12    1    4    4    0    0 -0.20925945168E+02  0.59912119287E+02 -0.60526707517E+02  0.87697431783E+02  0.00000000000E+00 0.  1.
         -5    1    3    3    0  504  0.18174122967E+02 -0.47522740331E+02 -0.38345486946E+02  0.63884082237E+02  0.47000000000E+01 0.  1.
<mgrwt>
<rscale>  2 0.18200506E+03</rscale>
<asrwt>0</asrwt>
<pdfrwt beam="1">  1       21 0.28707286E-01 0.18320895E+03</pdfrwt>
<pdfrwt beam="2">  1       21 0.47299416E-01 0.18320895E+03</pdfrwt>
<totfact> 0.49861374E+04</totfact>
</mgrwt>
</event>
<event>
12    1  0.1410528E-001  0.2055777E+03  0.7546771E-02  0.1147438E+00
         21   -1    0    0  502  503  0.00000000000E+00  0.00000000000E+00  0.29232936849E+03  0.29232936849E+03  0.00000000000E+00 0. -1.
         21   -1    0    0  503  504 -0.00000000000E+00 -0.00000000000E+00 -0.15912643648E+03  0.15912643648E+03  0.00000000000E+00 0. -1.
         -6    2    1    2    0  504  0.76193583446E+02 -0.51863488782E+02 -0.19339561186E+02  0.19546480505E+03  0.17128101985E+03 0.  0.
        -24    2    3    3    0    0  0.60975006286E+02 -0.50906983220E+02 -0.80316511449E+02  0.13243466578E+03  0.69128332516E+02 0.  0.
          6    2    1    2  502    0 -0.76193583446E+02  0.51863488782E+02  0.15254249320E+03  0.25599099991E+03  0.18375771052E+03 0.  0.
         24    2    5    5    0    0 -0.99500882481E+02  0.64381374195E+02  0.52800987156E+02  0.15269344103E+03  0.80510593899E+02 0.  0.
          4    1    6    6  501    0 -0.54567639530E+02  0.78588995033E+02  0.41142503969E+02  0.10414683412E+03  0.00000000000E+00 0. -1.
         -3    1    6    6    0  501 -0.44933242951E+02 -0.14207620838E+02  0.11658483187E+02  0.48546606907E+02  0.00000000000E+00 0.  1.
          5    1    5    5  502    0  0.23307299035E+02 -0.12517885413E+02  0.99741506044E+02  0.10329755888E+03  0.47000000000E+01 0. -1.
         13    1    4    4    0    0  0.72943993271E+02 -0.53918280222E+02 -0.60311461261E+02  0.10892878158E+03  0.00000000000E+00 0. -1.
        -14    1    4    4    0    0 -0.11968986985E+02  0.30112970021E+01 -0.20005050188E+02  0.23505884202E+02  0.00000000000E+00 0.  1.
         -5    1    3    3    0  504  0.15218577160E+02 -0.95650556225E+00  0.60976950264E+02  0.63030139276E+02  0.47000000000E+01 0.  1.
<mgrwt>
<rscale>  2 0.20275195E+03</rscale>
<asrwt>0</asrwt>
<pdfrwt beam="1">  1       21 0.44973749E-01 0.20557767E+03</pdfrwt>
<pdfrwt beam="2">  1       21 0.24480990E-01 0.20557767E+03</pdfrwt>
<totfact> 0.74371593E+04</totfact>
</mgrwt>
</event>
<event>
12    1  0.1410528E-001  0.2043624E+03  0.7546771E-02  0.1147415E+00
         21   -1    0    0  502  503  0.00000000000E+00  0.00000000000E+00  0.50730646065E+02  0.50730646065E+02  0.00000000000E+00 0. -1.
         21   -1    0    0  503  504 -0.00000000000E+00 -0.00000000000E+00 -0.88611920246E+03  0.88611920246E+03  0.00000000000E+00 0. -1.
         -6    2    1    2    0  504 -0.35211861598E+02 -0.98231343740E+02 -0.57105569396E+03  0.60652172198E+03  0.17571204153E+03 0.  0.
        -24    2    3    3    0    0  0.41096033884E+02 -0.88148892783E+02 -0.31204839293E+03  0.33627845617E+03  0.79056241065E+02 0.  0.
          6    2    1    2  502    0  0.35211861598E+02  0.98231343740E+02 -0.26433286243E+03  0.33032812654E+03  0.16839102391E+03 0.  0.
         24    2    5    5    0    0 -0.25390328166E+02  0.10369296364E+03 -0.21165177349E+03  0.24970653000E+03  0.78485530097E+02 0.  0.
          2    1    6    6  501    0 -0.15583453833E+02  0.64368450801E+02 -0.49813264800E+02  0.82870397862E+02  0.00000000000E+00 0. -1.
         -1    1    6    6    0  501 -0.98068743331E+01  0.39324512835E+02 -0.16183850869E+03  0.16683613214E+03  0.00000000000E+00 0.  1.
          5    1    5    5  502    0  0.60602189765E+02 -0.54616198959E+01 -0.52681088942E+02  0.80621596537E+02  0.47000000000E+01 0. -1.
         13    1    4    4    0    0  0.36519330413E+02 -0.82020735921E+00 -0.70764246927E+02  0.79636127964E+02  0.00000000000E+00 0. -1.
        -14    1    4    4    0    0  0.45767034705E+01 -0.87328685424E+02 -0.24128414601E+03  0.25664232821E+03  0.00000000000E+00 0.  1.
         -5    1    3    3    0  504 -0.76307895482E+02 -0.10082450957E+02 -0.25900730103E+03  0.27024326581E+03  0.47000000000E+01 0.  1.
<mgrwt>
<rscale>  2 0.20277926E+03</rscale>
<asrwt>0</asrwt>
<pdfrwt beam="1">  1       21 0.78047154E-02 0.20436241E+03</pdfrwt>
<pdfrwt beam="2">  1       21 0.13632602E+00 0.20436241E+03</pdfrwt>
<totfact> 0.47691139E+04</totfact>
</mgrwt>
</event>
<event>
12    1  0.1410528E-001  0.1869598E+03  0.7546771E-02  0.1161318E+00
         21   -1    0    0  502  503  0.00000000000E+00  0.00000000000E+00  0.37380185099E+02  0.37380185099E+02  0.00000000000E+00 0. -1.
         21   -1    0    0  503  504 -0.00000000000E+00 -0.00000000000E+00 -0.12442827129E+04  0.12442827129E+04  0.00000000000E+00 0. -1.
         -6    2    1    2    0  504 -0.13492374621E+02  0.68388780358E+02 -0.92430173661E+03  0.94302050364E+03  0.17347881870E+03 0.  0.
        -24    2    3    3    0    0  0.10227232733E+02  0.11536558355E+03 -0.65570064931E+03  0.66927230929E+03  0.67588965960E+02 0.  0.
          6    2    1    2  502    0  0.13492374621E+02 -0.68388780358E+02 -0.28260079115E+03  0.33864239431E+03  0.17307915709E+03 0.  0.
         24    2    5    5    0    0 -0.14712982353E+01  0.29615030240E+02 -0.10797186915E+03  0.13777923494E+03  0.80286850213E+02 0.  0.
          4    1    6    6  501    0 -0.25145515513E+02  0.25191782329E+02 -0.10798013072E+03  0.11369534501E+03  0.00000000000E+00 0. -1.
         -3    1    6    6    0  501  0.23674217278E+02  0.44232479116E+01  0.82615642127E-02  0.24083889928E+02  0.00000000000E+00 0.  1.
          5    1    5    5  502    0  0.14963672857E+02 -0.98003810598E+02 -0.17462892199E+03  0.20086315937E+03  0.47000000000E+01 0. -1.
         11    1    4    4    0    0 -0.80875091915E+01  0.72085984864E+02 -0.53240734037E+03  0.53732613290E+03  0.00000000000E+00 0. -1.
        -12    1    4    4    0    0  0.18314741924E+02  0.43279598689E+02 -0.12329330895E+03  0.13194617639E+03  0.00000000000E+00 0.  1.
         -5    1    3    3    0  504 -0.23719607354E+02 -0.46976803196E+02 -0.26860108730E+03  0.27374819435E+03  0.47000000000E+01 0.  1.
<mgrwt>
<rscale>  2 0.18686704E+03</rscale>
<asrwt>0</asrwt>
<pdfrwt beam="1">  1       21 0.57507975E-02 0.18695981E+03</pdfrwt>
<pdfrwt beam="2">  1       21 0.19142812E+00 0.18695981E+03</pdfrwt>
<totfact> 0.32486748E+04</totfact>
</mgrwt>
</event>
<event>
12    1  0.1410528E-001  0.3002606E+03  0.7546771E-02  0.1085308E+00
         21   -1    0    0  502  503  0.00000000000E+00  0.00000000000E+00  0.92668806343E+03  0.92668806343E+03  0.00000000000E+00 0. -1.
         21   -1    0    0  503  504 -0.00000000000E+00 -0.00000000000E+00 -0.96817868693E+02  0.96817868693E+02  0.00000000000E+00 0.  1.
         -6    2    1    2    0  504 -0.12013379535E+03 -0.21236236655E+03  0.40565757113E+03  0.50469246163E+03  0.17500432079E+03 0.  0.
        -24    2    3    3    0    0 -0.12837575200E+03 -0.13269908888E+03  0.35974182491E+03  0.41225592443E+03  0.80320512591E+02 0.  0.
          6    2    1    2  502    0  0.12013379535E+03  0.21236236655E+03  0.42421262361E+03  0.51881347050E+03  0.17228222086E+03 0.  0.
         24    2    5    5    0    0  0.10073663018E+03  0.96779779029E+02  0.14797806008E+03  0.21870814124E+03  0.80134577389E+02 0.  0.
          4    1    6    6  501    0  0.68896821850E+02  0.40294288417E+02  0.12802412239E+03  0.15086609179E+03  0.00000000000E+00 0. -1.
         -3    1    6    6    0  501  0.31839808331E+02  0.56485490612E+02  0.19953937688E+02  0.67842049450E+02  0.00000000000E+00 0.  1.
          5    1    5    5  502    0  0.19397165173E+02  0.11558258753E+03  0.27623456353E+03  0.30010532925E+03  0.47000000000E+01 0. -1.
         11    1    4    4    0    0 -0.13719169485E+02 -0.61252797859E+02  0.80757417179E+02  0.10228333826E+03  0.00000000000E+00 0. -1.
        -12    1    4    4    0    0 -0.11465658252E+03 -0.71446291024E+02  0.27898440773E+03  0.30997258616E+03  0.00000000000E+00 0.  1.
         -5    1    3    3    0  504  0.82419566467E+01 -0.79663277672E+02  0.45915746219E+02  0.92436537200E+02  0.47000000000E+01 0.  1.
<mgrwt>
<rscale>  2 0.29986521E+03</rscale>
<asrwt>0</asrwt>
<pdfrwt beam="1">  1       21 0.14256739E+00 0.30026058E+03</pdfrwt>
<pdfrwt beam="2">  1       21 0.14895057E-01 0.30026058E+03</pdfrwt>
<totfact> 0.12734318E+04</totfact>
</mgrwt>
</event>
<event>
12    1  0.1410528E-001  0.1972580E+03  0.7546771E-02  0.1152217E+00
         21   -1    0    0  502  503  0.00000000000E+00  0.00000000000E+00  0.28436398573E+03  0.28436398573E+03  0.00000000000E+00 0. -1.
         21   -1    0    0  503  504 -0.00000000000E+00 -0.00000000000E+00 -0.27325492809E+03  0.27325492809E+03  0.00000000000E+00 0. -1.
         -6    2    1    2    0  504 -0.86296293418E+02  0.34056400375E+02 -0.19178256524E+03  0.27464234375E+03  0.17332332787E+03 0.  0.
        -24    2    3    3    0    0 -0.10877663643E+02  0.30230418066E+02 -0.17753067923E+03  0.19765004470E+03  0.80722960544E+02 0.  0.
          6    2    1    2  502    0  0.86296293418E+02 -0.34056400375E+02  0.20289162288E+03  0.28297657007E+03  0.17407998135E+03 0.  0.
         24    2    5    5    0    0  0.87770867142E+01 -0.15475611602E+02  0.23443039190E+02  0.86562829947E+02  0.81406483994E+02 0.  0.
          2    1    6    6  501    0  0.12538187005E+02 -0.48446259847E+02  0.16176611216E+02  0.52592099949E+02  0.00000000000E+00 0. -1.
         -1    1    6    6    0  501 -0.37611002912E+01  0.32970648245E+02  0.72664279733E+01  0.33970729998E+02  0.00000000000E+00 0.  1.
          5    1    5    5  502    0  0.77519206704E+02 -0.18580788773E+02  0.17944858369E+03  0.19641374012E+03  0.47000000000E+01 0. -1.
         13    1    4    4    0    0  0.20497298003E+02  0.36810764989E+02 -0.46474312029E+02  0.62729843959E+02  0.00000000000E+00 0. -1.
        -14    1    4    4    0    0 -0.31374961646E+02 -0.65803469229E+01 -0.13105636720E+03  0.13492020074E+03  0.00000000000E+00 0.  1.
         -5    1    3    3    0  504 -0.75418629775E+02  0.38259823091E+01 -0.14251886008E+02  0.76992299047E+02  0.47000000000E+01 0.  1.
<mgrwt>
<rscale>  2 0.19709096E+03</rscale>
<asrwt>0</asrwt>
<pdfrwt beam="1">  1       21 0.43748305E-01 0.19725803E+03</pdfrwt>
<pdfrwt beam="2">  1       21 0.42039220E-01 0.19725803E+03</pdfrwt>
<totfact> 0.27271764E+04</totfact>
</mgrwt>
</event>
<event>
12    1  0.1410528E-001  0.1783825E+03  0.7546771E-02  0.1169482E+00
         21   -1    0    0  502  503  0.00000000000E+00  0.00000000000E+00  0.52004250998E+03  0.52004250998E+03  0.00000000000E+00 0.  1.
         21   -1    0    0  503  504 -0.00000000000E+00 -0.00000000000E+00 -0.63622408001E+02  0.63622408001E+02  0.00000000000E+00 0.  1.
         -6    2    1    2    0  504  0.30511590295E+02 -0.31812658954E+02  0.16917114062E+03  0.24553434750E+03  0.17241008836E+03 0.  0.
        -24    2    3    3    0    0  0.96576251215E+01 -0.90275682293E+01  0.97763869163E+01  0.83106438158E+02  0.81463707324E+02 0.  0.
          6    2    1    2  502    0 -0.30511590295E+02  0.31812658954E+02  0.28724896135E+03  0.33813057048E+03  0.17285055535E+03 0.  0.
         24    2    5    5    0    0 -0.51540108852E+02  0.83813991422E+02  0.24176819511E+03  0.26576395339E+03  0.49974501263E+02 0.  0.
          2    1    6    6  501    0 -0.18324806726E+02  0.15194463329E+02  0.11818250902E+03  0.12055611015E+03  0.00000000000E+00 0. -1.
         -1    1    6    6    0  501 -0.33215302125E+02  0.68619528093E+02  0.12358568609E+03  0.14520784324E+03  0.00000000000E+00 0.  1.
          5    1    5    5  502    0  0.21028518556E+02 -0.52001332468E+02  0.45480766241E+02  0.72366617089E+02  0.47000000000E+01 0. -1.
         11    1    4    4    0    0 -0.19432778911E+01  0.25479752960E+02  0.31616864288E+02  0.40652432243E+02  0.00000000000E+00 0. -1.
        -12    1    4    4    0    0  0.11600903013E+02 -0.34507321189E+02 -0.21840477372E+02  0.42454005915E+02  0.00000000000E+00 0.  1.
         -5    1    3    3    0  504  0.20853965174E+02 -0.22785090724E+02  0.15939475371E+03  0.16242790934E+03  0.47000000000E+01 0.  1.
<mgrwt>
<rscale>  2 0.17827571E+03</rscale>
<asrwt>0</asrwt>
<pdfrwt beam="1">  1       21 0.80006537E-01 0.17838250E+03</pdfrwt>
<pdfrwt beam="2">  1       21 0.97880631E-02 0.17838250E+03</pdfrwt>
<totfact> 0.11650604E+05</totfact>
</mgrwt>
</event>
<event>
12    1  0.1410528E-001  0.2124459E+03  0.7546771E-02  0.1139702E+00
         21   -1    0    0  502  503  0.00000000000E+00  0.00000000000E+00  0.46028561319E+03  0.46028561319E+03  0.00000000000E+00 0.  1.
         21   -1    0    0  503  504 -0.00000000000E+00 -0.00000000000E+00 -0.98060238696E+02  0.98060238696E+02  0.00000000000E+00 0.  1.
         -6    2    1    2    0  504 -0.11477667117E+03 -0.43378086058E+02  0.19168193669E+03  0.28591545537E+03  0.17306166581E+03 0.  0.
        -24    2    3    3    0    0 -0.37249100365E+02 -0.85446063147E+02  0.10101204048E+03  0.15933204805E+03  0.80589974742E+02 0.  0.
          6    2    1    2  502    0  0.11477667117E+03  0.43378086058E+02  0.17054343781E+03  0.27243039651E+03  0.17342985375E+03 0.  0.
         24    2    5    5    0    0 -0.50680102507E+01  0.39351040664E+02  0.80699694900E+02  0.12252058063E+03  0.83214558770E+02 0.  0.
          2    1    6    6  501    0 -0.12152860146E+02  0.28512501905E+02 -0.86965824956E+01  0.32191385831E+02  0.00000000000E+00 0. -1.
         -1    1    6    6    0  501  0.70848498955E+01  0.10838538759E+02  0.89396277396E+02  0.90329194797E+02  0.00000000000E+00 0.  1.
          5    1    5    5  502    0  0.11984468142E+03  0.40270453942E+01  0.89843742907E+02  0.14990981589E+03  0.47000000000E+01 0. -1.
         13    1    4    4    0    0  0.50524723245E+01  0.45036121336E+01  0.44457055510E+02  0.44969320470E+02  0.00000000000E+00 0. -1.
        -14    1    4    4    0    0 -0.42301572690E+02 -0.89949675281E+02  0.56554984974E+02  0.11436272758E+03  0.00000000000E+00 0.  1.
         -5    1    3    3    0  504 -0.77527570804E+02  0.42067977089E+02  0.90669896206E+02  0.12658340732E+03  0.47000000000E+01 0.  1.
<mgrwt>
<rscale>  2 0.21237074E+03</rscale>
<asrwt>0</asrwt>
<pdfrwt beam="1">  1       21 0.70813170E-01 0.21244589E+03</pdfrwt>
<pdfrwt beam="2">  1       21 0.15086191E-01 0.21244589E+03</pdfrwt>
<totfact> 0.69499497E+04</totfact>
</mgrwt>
</event>
<event>
12    1  0.1410528E-001  0.1738846E+03  0.7546771E-02  0.1174084E+00
         21   -1    0    0  502  503  0.00000000000E+00  0.00000000000E+00  0.30788740337E+03  0.30788740337E+03  0.00000000000E+00 0.  1.
         21   -1    0    0  503  504 -0.00000000000E+00 -0.00000000000E+00 -0.10899335090E+03  0.10899335090E+03  0.00000000000E+00 0.  1.
         -6    2    1    2    0  504  0.52254443066E+01  0.15328387762E+02  0.32579005501E+02  0.17691024408E+03  0.17312879056E+03 0.  0.
        -24    2    3    3    0    0  0.31133211511E+02  0.33993167990E+02  0.77675375295E+02  0.12145432473E+03  0.81196531576E+02 0.  0.
          6    2    1    2  502    0 -0.52254443066E+01 -0.15328387762E+02  0.16631504696E+03  0.23997051019E+03  0.17222916761E+03 0.  0.
         24    2    5    5    0    0  0.36879326368E+02 -0.52772914824E+02  0.57577375156E+02  0.11741082844E+03  0.79530392006E+02 0.  0.
          4    1    6    6  501    0  0.31520010689E+02 -0.69756123680E+02  0.25430416910E+02  0.80660609773E+02  0.00000000000E+00 0. -1.
         -3    1    6    6    0  501  0.53593156788E+01  0.16983208856E+02  0.32146958246E+02  0.36750218667E+02  0.00000000000E+00 0.  1.
          5    1    5    5  502    0 -0.42104770675E+02  0.37444527062E+02  0.10873767181E+03  0.12255968175E+03  0.47000000000E+01 0. -1.
         13    1    4    4    0    0  0.38123070861E+02  0.39414844392E+02  0.13235227534E+02  0.56409837247E+02  0.00000000000E+00 0. -1.
        -14    1    4    4    0    0 -0.69898593502E+01 -0.54216764020E+01  0.64440147761E+02  0.65044487485E+02  0.00000000000E+00 0.  1.
         -5    1    3    3    0  504 -0.25907767204E+02 -0.18664780228E+02 -0.45096369794E+02  0.55455919351E+02  0.47000000000E+01 0.  1.
<mgrwt>
<rscale>  2 0.17366021E+03</rscale>
<asrwt>0</asrwt>
<pdfrwt beam="1">  1       21 0.47367293E-01 0.17388457E+03</pdfrwt>
<pdfrwt beam="2">  1       21 0.16768208E-01 0.17388457E+03</pdfrwt>
<totfact> 0.13728130E+05</totfact>
</mgrwt>
</event>
<event>
12    1  0.1410528E-001  0.2821557E+03  0.7546771E-02  0.1094583E+00
         21   -1    0    0  502  503  0.00000000000E+00  0.00000000000E+00  0.19121133896E+03  0.19121133896E+03  0.00000000000E+00 0. -1.
         21   -1    0    0  503  504 -0.00000000000E+00 -0.00000000000E+00 -0.46874547787E+03  0.46874547787E+03  0.00000000000E+00 0. -1.
         -6    2    1    2    0  504  0.22295153498E+03 -0.96299165607E+01 -0.27596867978E+02  0.28302117479E+03  0.17186993924E+03 0.  0.
        -24    2    3    3    0    0  0.18321247907E+03 -0.67550494528E+02 -0.12784370006E+02  0.21108032400E+03  0.79130153952E+02 0.  0.
          6    2    1    2  502    0 -0.22295153498E+03  0.96299165607E+01 -0.24993727093E+03  0.37693564204E+03  0.17266069790E+03 0.  0.
         24    2    5    5    0    0 -0.12582647650E+03 -0.65383333054E+02 -0.13947839307E+03  0.21175840905E+03  0.72664428975E+02 0.  0.
          2    1    6    6  501    0 -0.68351453133E+02 -0.21036182570E+02 -0.24147668415E+02  0.75482130418E+02  0.00000000000E+00 0. -1.
         -1    1    6    6    0  501 -0.57475023369E+02 -0.44347150484E+02 -0.11533072466E+03  0.13627627863E+03  0.00000000000E+00 0.  1.
          5    1    5    5  502    0 -0.97125058476E+02  0.75013249615E+02 -0.11045887786E+03  0.16517723299E+03  0.47000000000E+01 0. -1.
         11    1    4    4    0    0  0.14967172300E+03 -0.17964192585E+02 -0.11807358449E+02  0.15120764066E+03  0.00000000000E+00 0. -1.
        -12    1    4    4    0    0  0.33540756068E+02 -0.49586301942E+02 -0.97701155653E+00  0.59872683333E+02  0.00000000000E+00 0.  1.
         -5    1    3    3    0  504  0.39739055908E+02  0.57920577967E+02 -0.14812497972E+02  0.71940850792E+02  0.47000000000E+01 0.  1.
<mgrwt>
<rscale>  2 0.28203482E+03</rscale>
<asrwt>0</asrwt>
<pdfrwt beam="1">  1       21 0.29417129E-01 0.28215570E+03</pdfrwt>
<pdfrwt beam="2">  1       21 0.72114689E-01 0.28215570E+03</pdfrwt>
<totfact> 0.18328195E+04</totfact>
</mgrwt>
</event>
<event>
12    1  0.1410528E-001  0.2003726E+03  0.7546771E-02  0.1150703E+00
         21   -1    0    0  502  503  0.00000000000E+00  0.00000000000E+00  0.11777403008E+03  0.11777403008E+03  0.00000000000E+00 0.  1.
         21   -1    0    0  503  504 -0.00000000000E+00 -0.00000000000E+00 -0.33295253417E+03  0.33295253417E+03  0.00000000000E+00 0.  1.
         -6    2    1    2    0  504  0.28390183178E+00 -0.88070864000E+02 -0.87905696792E+02  0.21335015539E+03  0.17330412457E+03 0.  0.
        -24    2    3    3    0    0  0.46022164258E+02 -0.73779760865E+02 -0.10774899896E+03  0.16127260822E+03  0.82689265745E+02 0.  0.
          6    2    1    2  502    0 -0.28390183178E+00  0.88070864000E+02 -0.12727280730E+03  0.23737640887E+03  0.17997953862E+03 0.  0.
         24    2    5    5    0    0 -0.56951638797E+02  0.14021706039E+02 -0.37753023862E+02  0.10803039295E+03  0.82493500275E+02 0.  0.
          4    1    6    6  501    0 -0.28089997876E+02 -0.34663146493E+02 -0.16053003053E+02  0.47416037503E+02  0.00000000000E+00 0. -1.
         -3    1    6    6    0  501 -0.28861640921E+02  0.48684852532E+02 -0.21700020809E+02  0.60614355444E+02  0.00000000000E+00 0.  1.
          5    1    5    5  502    0  0.56667736966E+02  0.74049157961E+02 -0.89519783436E+02  0.12934601592E+03  0.47000000000E+01 0. -1.
         11    1    4    4    0    0 -0.20710966067E+02 -0.13286385006E+01 -0.25999975811E+02  0.33267223176E+02  0.00000000000E+00 0. -1.
        -12    1    4    4    0    0  0.66733130325E+02 -0.72451122364E+02 -0.81749023148E+02  0.12800538505E+03  0.00000000000E+00 0.  1.
         -5    1    3    3    0  504 -0.45738262426E+02 -0.14291103136E+02  0.19843302167E+02  0.52077547172E+02  0.47000000000E+01 0.  1.
<mgrwt>
<rscale>  2 0.19886217E+03</rscale>
<asrwt>0</asrwt>
<pdfrwt beam="1">  1       21 0.18119082E-01 0.20037263E+03</pdfrwt>
<pdfrwt beam="2">  1       21 0.51223466E-01 0.20037263E+03</pdfrwt>
<totfact> 0.10016527E+05</totfact>
</mgrwt>
</event>
<event>
12    1  0.1410528E-001  0.1844683E+03  0.7546771E-02  0.1166537E+00
         21   -1    0    0  502  503  0.00000000000E+00  0.00000000000E+00  0.47976634291E+03  0.47976634291E+03  0.00000000000E+00 0. -1.
         21   -1    0    0  503  504 -0.00000000000E+00 -0.00000000000E+00 -0.16091052400E+03  0.16091052400E+03  0.00000000000E+00 0. -1.
         -6    2    1    2    0  504 -0.63700088120E+02 -0.79011415417E+01 -0.88438135271E+02  0.19355615051E+03  0.15975778656E+03 0.  0.
        -24    2    3    3    0    0 -0.32126325602E+01  0.20884043288E+02 -0.94531740718E+02  0.12612810610E+03  0.80781092305E+02 0.  0.
          6    2    1    2  502    0  0.63700088120E+02  0.79011415417E+01  0.40729395418E+03  0.44712071640E+03  0.17294056973E+03 0.  0.
         24    2    5    5    0    0 -0.30850487573E+02  0.91355741812E+01  0.22649770959E+03  0.24303566735E+03  0.82036039979E+02 0.  0.
          4    1    6    6  501    0 -0.16327183414E+02 -0.36620211830E+02  0.10054298111E+03  0.10824281908E+03  0.00000000000E+00 0. -1.
         -3    1    6    6    0  501 -0.14523304159E+02  0.45755786011E+02  0.12595472849E+03  0.13479284827E+03  0.00000000000E+00 0.  1.
          5    1    5    5  502    0  0.94550575693E+02 -0.12344326395E+01  0.18079624459E+03  0.20408504905E+03  0.47000000000E+01 0. -1.
         11    1    4    4    0    0 -0.18429173022E+02  0.23491849048E+02  0.48834538548E+00  0.29862013850E+02  0.00000000000E+00 0. -1.
        -12    1    4    4    0    0  0.15216540462E+02 -0.26078057601E+01 -0.95020086103E+02  0.96266092253E+02  0.00000000000E+00 0.  1.
         -5    1    3    3    0  504 -0.60487455560E+02 -0.28785184830E+02  0.60936054470E+01  0.67428044411E+02  0.47000000000E+01 0.  1.
<mgrwt>
<rscale>  2 0.18131389E+03</rscale>
<asrwt>0</asrwt>
<pdfrwt beam="1">  1       21 0.73810206E-01 0.18446834E+03</pdfrwt>
<pdfrwt beam="2">  1       21 0.24755465E-01 0.18446834E+03</pdfrwt>
<totfact> 0.25546731E+04</totfact>
</mgrwt>
</event>
<event>
12    1  0.1410528E-001  0.1971835E+03  0.7546771E-02  0.1152754E+00
         21   -1    0    0  502  503  0.00000000000E+00  0.00000000000E+00  0.77209540284E+03  0.77209540284E+03  0.00000000000E+00 0. -1.
         21   -1    0    0  503  504 -0.00000000000E+00 -0.00000000000E+00 -0.49724940013E+02  0.49724940013E+02  0.00000000000E+00 0. -1.
         -6    2    1    2    0  504  0.38505800312E+02  0.81995861719E+02  0.37617477475E+03  0.42340748579E+03  0.17193143945E+03 0.  0.
        -24    2    3    3    0    0  0.61463120458E+02  0.11261475559E+03  0.25691851642E+03  0.29807313152E+03  0.79879091785E+02 0.  0.
          6    2    1    2  502    0 -0.38505800312E+02 -0.81995861719E+02  0.34619568808E+03  0.39841285706E+03  0.17514374733E+03 0.  0.
         24    2    5    5    0    0 -0.14104646892E+02 -0.12330365533E+03  0.24045728237E+03  0.28220420617E+03  0.80104786703E+02 0.  0.
          4    1    6    6  501    0 -0.32470324599E+02 -0.81972932579E+02  0.20977625202E+03  0.22755210297E+03  0.00000000000E+00 0. -1.
         -3    1    6    6    0  501  0.18365677707E+02 -0.41330722746E+02  0.30681030351E+02  0.54652103196E+02  0.00000000000E+00 0.  1.
          5    1    5    5  502    0 -0.24401153420E+02  0.41307793606E+02  0.10573840571E+03  0.11620865089E+03  0.47000000000E+01 0. -1.
         11    1    4    4    0    0  0.74038849937E+02  0.56090353199E+02  0.14843664411E+03  0.17510373022E+03  0.00000000000E+00 0. -1.
        -12    1    4    4    0    0 -0.12575729480E+02  0.56524402386E+02  0.10848187231E+03  0.12296940130E+03  0.00000000000E+00 0.  1.
         -5    1    3    3    0  504 -0.22957320146E+02 -0.30618893866E+02  0.11925625833E+03  0.12533435427E+03  0.47000000000E+01 0.  1.
<mgrwt>
<rscale>  2 0.19646774E+03</rscale>
<asrwt>0</asrwt>
<pdfrwt beam="1">  1       21 0.11878390E+00 0.19718354E+03</pdfrwt>
<pdfrwt beam="2">  1       21 0.76499913E-02 0.19718354E+03</pdfrwt>
<totfact> 0.70093689E+04</totfact>
</mgrwt>
</event>
<event>
12    1  0.1410528E-001  0.1803092E+03  0.7546771E-02  0.1167575E+00
         21   -1    0    0  502  503  0.00000000000E+00  0.00000000000E+00  0.72922400228E+02  0.72922400228E+02  0.00000000000E+00 0. -1.
         21   -1    0    0  503  504 -0.00000000000E+00 -0.00000000000E+00 -0.46953989297E+03  0.46953989297E+03  0.00000000000E+00 0.  1.
         -6    2    1    2    0  504  0.41159763974E+02  0.28944420273E+02 -0.26001728791E+03  0.31625213366E+03  0.17284246122E+03 0.  0.
        -24    2    3    3    0    0  0.35934872771E+02  0.80398685885E+02 -0.23190443540E+03  0.25719907774E+03  0.67944349729E+02 0.  0.
          6    2    1    2  502    0 -0.41159763974E+02 -0.28944420273E+02 -0.13660020483E+03  0.22621015953E+03  0.17314593464E+03 0.  0.
         24    2    5    5    0    0  0.41401676180E+02 -0.35336805466E+02 -0.70996458714E+02  0.12045953073E+03  0.80667296853E+02 0.  0.
          2    1    6    6  501    0  0.50148504324E+02 -0.96199569764E+01 -0.77774280821E+01  0.51651761303E+02  0.00000000000E+00 0. -1.
         -1    1    6    6    0  501 -0.87468281442E+01 -0.25716848489E+02 -0.63219030632E+02  0.68807769422E+02  0.00000000000E+00 0.  1.
          5    1    5    5  502    0 -0.82561440154E+02  0.63923851927E+01 -0.65603746119E+02  0.10575062881E+03  0.47000000000E+01 0. -1.
         11    1    4    4    0    0  0.51039300715E+02  0.74540390508E+02 -0.16244549980E+03  0.18587581994E+03  0.00000000000E+00 0. -1.
        -12    1    4    4    0    0 -0.15104427944E+02  0.58582953772E+01 -0.69458935600E+02  0.71323257798E+02  0.00000000000E+00 0.  1.
         -5    1    3    3    0  504  0.52248912036E+01 -0.51454265612E+02 -0.28112852515E+02  0.59053055927E+02  0.47000000000E+01 0.  1.
<mgrwt>
<rscale>  2 0.18023634E+03</rscale>
<asrwt>0</asrwt>
<pdfrwt beam="1">  1       21 0.11218831E-01 0.18030924E+03</pdfrwt>
<pdfrwt beam="2">  1       21 0.72236906E-01 0.18030924E+03</pdfrwt>
<totfact> 0.11489949E+05</totfact>
</mgrwt>
</event>
<event>
12    1  0.1410528E-001  0.3129272E+03  0.7546771E-02  0.1079004E+00
         21   -1    0    0  502  503  0.00000000000E+00  0.00000000000E+00  0.27573739321E+04  0.27573739321E+04  0.00000000000E+00 0. -1.
         21   -1    0    0  503  504 -0.00000000000E+00 -0.00000000000E+00 -0.35463249956E+02  0.35463249956E+02  0.00000000000E+00 0. -1.
         -6    2    1    2    0  504 -0.70927070426E+02 -0.25053197311E+03  0.13609080602E+04  0.13964219116E+04  0.17356983589E+03 0.  0.
        -24    2    3    3    0    0 -0.71572435383E+02 -0.16933476494E+03  0.63552815941E+03  0.66649623482E+03  0.80773222683E+02 0.  0.
          6    2    1    2  502    0  0.70927070426E+02  0.25053197311E+03  0.13610026220E+04  0.13964152705E+04  0.17277312244E+03 0.  0.
         24    2    5    5    0    0 -0.43632133375E+01  0.53935426672E+02  0.32068683008E+03  0.33500212486E+03  0.80363628553E+02 0.  0.
          2    1    6    6  501    0 -0.30603068785E+02  0.47044244090E+02  0.11982956586E+03  0.13232094912E+03  0.00000000000E+00 0. -1.
         -1    1    6    6    0  501  0.26239855447E+02  0.68911825818E+01  0.20085726422E+03  0.20268117574E+03  0.00000000000E+00 0.  1.
          5    1    5    5  502    0  0.75290283763E+02  0.19659654644E+03  0.10403157919E+04  0.10614131456E+04  0.47000000000E+01 0. -1.
         13    1    4    4    0    0 -0.37211203192E+02 -0.16055986189E+03  0.50356240253E+03  0.52984831427E+03  0.00000000000E+00 0. -1.
        -14    1    4    4    0    0 -0.34361232192E+02 -0.87749030417E+01  0.13196575688E+03  0.13664792055E+03  0.00000000000E+00 0.  1.
         -5    1    3    3    0  504  0.64536495790E+00 -0.81197208173E+02  0.72537990081E+03  0.72992567678E+03  0.47000000000E+01 0.  1.
<mgrwt>
<rscale>  2 0.31281680E+03</rscale>
<asrwt>0</asrwt>
<pdfrwt beam="1">  1       21 0.42421120E+00 0.31292716E+03</pdfrwt>
<pdfrwt beam="2">  1       21 0.54558868E-02 0.31292716E+03</pdfrwt>
<totfact> 0.12328714E+03</totfact>
</mgrwt>
</event>
<event>
12    1  0.1410528E-001  0.2019722E+03  0.7546771E-02  0.1148169E+00
         21   -1    0    0  502  503  0.00000000000E+00  0.00000000000E+00  0.65973398205E+02  0.65973398205E+02  0.00000000000E+00 0. -1.
         21   -1    0    0  503  504 -0.00000000000E+00 -0.00000000000E+00 -0.69201179460E+03  0.69201179460E+03  0.00000000000E+00 0. -1.
         -6    2    1    2    0  504 -0.17750213130E+02 -0.98794685519E+02 -0.18805320084E+03  0.27567427781E+03  0.17480515195E+03 0.  0.
        -24    2    3    3    0    0  0.58366269309E+02 -0.60267337021E+02 -0.10509397049E+03  0.15658439839E+03  0.80219435807E+02 0.  0.
          6    2    1    2  502    0  0.17750213130E+02  0.98794685519E+02 -0.43798519556E+03  0.48231091499E+03  0.17526359359E+03 0.  0.
         24    2    5    5    0    0  0.68046614496E+02  0.43545879184E+02 -0.34249038860E+03  0.36097045699E+03  0.80457561483E+02 0.  0.
          4    1    6    6  501    0  0.86390612371E+02  0.32533990095E+02 -0.28786037949E+03  0.30230017615E+03  0.00000000000E+00 0. -1.
         -3    1    6    6    0  501 -0.18343997875E+02  0.11011889089E+02 -0.54630009105E+02  0.58670280843E+02  0.00000000000E+00 0.  1.
          5    1    5    5  502    0 -0.50296401366E+02  0.55248806334E+02 -0.95494806964E+02  0.12134045801E+03  0.47000000000E+01 0. -1.
         13    1    4    4    0    0  0.26125074713E+02 -0.30549722987E+02  0.26253373148E+01  0.40282719612E+02  0.00000000000E+00 0. -1.
        -14    1    4    4    0    0  0.32241194596E+02 -0.29717614034E+02 -0.10771930780E+03  0.11630167878E+03  0.00000000000E+00 0.  1.
         -5    1    3    3    0  504 -0.76116482439E+02 -0.38527348498E+02 -0.82959230350E+02  0.11908987942E+03  0.47000000000E+01 0.  1.
<mgrwt>
<rscale>  2 0.20187275E+03</rscale>
<asrwt>0</asrwt>
<pdfrwt beam="1">  1       21 0.10149753E-01 0.20197224E+03</pdfrwt>
<pdfrwt beam="2">  1       21 0.10646336E+00 0.20197224E+03</pdfrwt>
<totfact> 0.55595119E+04</totfact>
</mgrwt>
</event>
<event>
12    1  0.1410528E-001  0.3745288E+03  0.7546771E-02  0.1053036E+00
         21   -1    0    0  502  503  0.00000000000E+00  0.00000000000E+00  0.38923800550E+03  0.38923800550E+03  0.00000000000E+00 0.  1.
         21   -1    0    0  503  504 -0.00000000000E+00 -0.00000000000E+00 -0.55368533238E+03  0.55368533238E+03  0.00000000000E+00 0.  1.
         -6    2    1    2    0  504 -0.29646613921E+03 -0.15041954319E+03 -0.36129209115E+03  0.52038811514E+03  0.17249233193E+03 0.  0.
        -24    2    3    3    0    0 -0.10542892171E+03 -0.10605390578E+03 -0.11135434497E+03  0.20265474386E+03  0.79413264660E+02 0.  0.
          6    2    1    2  502    0  0.29646613921E+03  0.15041954319E+03  0.19684476427E+03  0.42253522274E+03  0.17108460644E+03 0.  0.
         24    2    5    5    0    0  0.19478835254E+03  0.70803761320E+02  0.19160638817E+03  0.29320395966E+03  0.79371777551E+02 0.  0.
          4    1    6    6  501    0  0.69606273889E+02  0.38855137350E+02  0.12393593943E+03  0.14735966933E+03  0.00000000000E+00 0. -1.
         -3    1    6    6    0  501  0.12518207865E+03  0.31948623970E+02  0.67670448734E+02  0.14584429032E+03  0.00000000000E+00 0.  1.
          5    1    5    5  502    0  0.10167778668E+03  0.79615781872E+02  0.52383761052E+01  0.12933126308E+03  0.47000000000E+01 0. -1.
         13    1    4    4    0    0 -0.99903336223E+02 -0.70458424090E+02 -0.11316499535E+03  0.16658746137E+03  0.00000000000E+00 0. -1.
        -14    1    4    4    0    0 -0.55255854883E+01 -0.35595481685E+02  0.18106503854E+01  0.36067282490E+02  0.00000000000E+00 0.  1.
         -5    1    3    3    0  504 -0.19103721750E+03 -0.44365637417E+02 -0.24993774619E+03  0.31773337128E+03  0.47000000000E+01 0.  1.
<mgrwt>
<rscale>  2 0.37436712E+03</rscale>
<asrwt>0</asrwt>
<pdfrwt beam="1">  1       21 0.59882770E-01 0.37452879E+03</pdfrwt>
<pdfrwt beam="2">  1       21 0.85182358E-01 0.37452879E+03</pdfrwt>
<totfact> 0.27770169E+03</totfact>
</mgrwt>
</event>
<event>
12    1  0.1410528E-001  0.2557427E+03  0.7546771E-02  0.1110001E+00
         21   -1    0    0  502  503  0.00000000000E+00  0.00000000000E+00  0.19019154611E+03  0.19019154611E+03  0.00000000000E+00 0.  1.
         21   -1    0    0  503  504 -0.00000000000E+00 -0.00000000000E+00 -0.93688461450E+03  0.93688461450E+03  0.00000000000E+00 0. -1.
         -6    2    1    2    0  504  0.82303874310E+02  0.16719499947E+03 -0.82305634268E+03  0.86187357179E+03  0.17514626730E+03 0.  0.
        -24    2    3    3    0    0  0.24320365607E+02  0.15457951644E+03 -0.73380904551E+03  0.75459632469E+03  0.80334244721E+02 0.  0.
          6    2    1    2  502    0 -0.82303874310E+02 -0.16719499947E+03  0.76363274295E+02  0.26520258882E+03  0.17254845082E+03 0.  0.
         24    2    5    5    0    0 -0.82218031224E+02 -0.14630989671E+03  0.11651647937E+03  0.21969913000E+03  0.80778878570E+02 0.  0.
          4    1    6    6  501    0 -0.15414627890E+02 -0.35436461782E+02  0.73946708880E+02  0.83435420121E+02  0.00000000000E+00 0. -1.
         -3    1    6    6    0  501 -0.66803403335E+02 -0.11087343493E+03  0.42569770495E+02  0.13626370988E+03  0.00000000000E+00 0.  1.
          5    1    5    5  502    0 -0.85843085241E-01 -0.20885102752E+02 -0.40153205080E+02  0.45503458816E+02  0.47000000000E+01 0. -1.
         11    1    4    4    0    0  0.29810738455E+02  0.12515095465E+03 -0.41747034602E+03  0.43684428734E+03  0.00000000000E+00 0. -1.
        -12    1    4    4    0    0 -0.54903728474E+01  0.29428561788E+02 -0.31633869948E+03  0.31775203734E+03  0.00000000000E+00 0.  1.
         -5    1    3    3    0  504  0.57983508703E+02  0.12615483032E+02 -0.89247297174E+02  0.10727724711E+03  0.47000000000E+01 0.  1.
<mgrwt>
<rscale>  2 0.25529849E+03</rscale>
<asrwt>0</asrwt>
<pdfrwt beam="1">  1       21 0.29260237E-01 0.25574266E+03</pdfrwt>
<pdfrwt beam="2">  1       21 0.14413610E+00 0.25574266E+03</pdfrwt>
<totfact> 0.35340370E+03</totfact>
</mgrwt>
</event>
<event>
12    1  0.1410528E-001  0.2358383E+03  0.7546771E-02  0.1124017E+00
         21   -1    0    0  502  503  0.00000000000E+00  0.00000000000E+00  0.11040028653E+04  0.11040028653E+04  0.00000000000E+00 0.  1.
         21   -1    0    0  503  504 -0.00000000000E+00 -0.00000000000E+00 -0.72875763274E+02  0.72875763274E+02  0.00000000000E+00 0.  1.
         -6    2    1    2    0  504 -0.13301111428E+03 -0.43162556971E+02  0.18238359604E+03  0.29813336187E+03  0.18990724713E+03 0.  0.
        -24    2    3    3    0    0 -0.16538528880E+03 -0.58863556036E+02  0.12507882630E+03  0.23030611674E+03  0.81110927996E+02 0.  0.
          6    2    1    2  502    0  0.13301111428E+03  0.43162556971E+02  0.84874350598E+03  0.87874526670E+03  0.17964615762E+03 0.  0.
         24    2    5    5    0    0  0.11208019370E+03  0.21521745074E+02  0.32120546677E+03  0.35032791177E+03  0.80817934572E+02 0.  0.
          2    1    6    6  501    0  0.10424481948E+03  0.43176945215E+02  0.22897871123E+03  0.25526942861E+03  0.00000000000E+00 0. -1.
         -1    1    6    6    0  501  0.78353742206E+01 -0.21655200141E+02  0.92226755548E+02  0.95058483163E+02  0.00000000000E+00 0.  1.
          5    1    5    5  502    0  0.20930920578E+02  0.21640811897E+02  0.52753803921E+03  0.52841735493E+03  0.47000000000E+01 0. -1.
         13    1    4    4    0    0 -0.43150031434E+02 -0.12312382762E+02  0.80422114586E+02  0.92093628968E+02  0.00000000000E+00 0. -1.
        -14    1    4    4    0    0 -0.12223525736E+03 -0.46551173273E+02  0.44656711719E+02  0.13821248778E+03  0.00000000000E+00 0.  1.
         -5    1    3    3    0  504  0.32374174517E+02  0.15700999065E+02  0.57304769737E+02  0.67827245130E+02  0.47000000000E+01 0.  1.
<mgrwt>
<rscale>  2 0.23376585E+03</rscale>
<asrwt>0</asrwt>
<pdfrwt beam="1">  1       21 0.16984658E+00 0.23583835E+03</pdfrwt>
<pdfrwt beam="2">  1       21 0.11211657E-01 0.23583835E+03</pdfrwt>
<totfact> 0.13749290E+04</totfact>
</mgrwt>
</event>
<event>
12    1  0.1410528E-001  0.2138480E+03  0.7546771E-02  0.1138711E+00
         21   -1    0    0  502  503  0.00000000000E+00  0.00000000000E+00  0.10844258933E+03  0.10844258933E+03  0.00000000000E+00 0.  1.
         21   -1    0    0  503  504 -0.00000000000E+00 -0.00000000000E+00 -0.48214893790E+03  0.48214893790E+03  0.00000000000E+00 0. -1.
         -6    2    1    2    0  504  0.78170559692E+01 -0.12529144734E+03 -0.81239151358E+02  0.22875921747E+03  0.17312402122E+03 0.  0.
        -24    2    3    3    0    0  0.27388715568E+02 -0.39515101734E+02 -0.10039099165E+03  0.13859539817E+03  0.82575711826E+02 0.  0.
          6    2    1    2  502    0 -0.78170559692E+01  0.12529144734E+03 -0.29246719721E+03  0.36183230976E+03  0.17212351904E+03 0.  0.
         24    2    5    5    0    0 -0.85668178960E+01  0.13550371158E+03 -0.14582845339E+03  0.21476136202E+03  0.80136499637E+02 0.  0.
          2    1    6    6  501    0 -0.35096808555E+02  0.38162625506E+02 -0.25643876782E+02  0.57842721000E+02  0.00000000000E+00 0. -1.
         -1    1    6    6    0  501  0.26529990659E+02  0.97341086078E+02 -0.12018457661E+03  0.15691864102E+03  0.00000000000E+00 0.  1.
          5    1    5    5  502    0  0.74976192678E+00 -0.10212264248E+02 -0.14663874381E+03  0.14707094775E+03  0.47000000000E+01 0. -1.
         13    1    4    4    0    0 -0.17303619682E+02  0.14554849048E+02 -0.11526806909E+02  0.25379640708E+02  0.00000000000E+00 0. -1.
        -14    1    4    4    0    0  0.44692335251E+02 -0.54069950782E+02 -0.88864184741E+02  0.11321575746E+03  0.00000000000E+00 0.  1.
         -5    1    3    3    0  504 -0.19571659599E+02 -0.85776345602E+02  0.19151840292E+02  0.90163819300E+02  0.47000000000E+01 0.  1.
<mgrwt>
<rscale>  2 0.21364545E+03</rscale>
<asrwt>0</asrwt>
<pdfrwt beam="1">  1       21 0.16683475E-01 0.21384803E+03</pdfrwt>
<pdfrwt beam="2">  1       21 0.74176759E-01 0.21384803E+03</pdfrwt>
<totfact> 0.52087430E+04</totfact>
</mgrwt>
</event>
<event>
12    1  0.1410528E-001  0.2073147E+03  0.7546771E-02  0.1144205E+00
         21   -1    0    0  502  503  0.00000000000E+00  0.00000000000E+00  0.20244298316E+03  0.20244298316E+03  0.00000000000E+00 0. -1.
         21   -1    0    0  503  504 -0.00000000000E+00 -0.00000000000E+00 -0.42400568129E+03  0.42400568129E+03  0.00000000000E+00 0. -1.
         -6    2    1    2    0  504 -0.84082418470E+02 -0.71593017809E+02 -0.33307958785E+03  0.39104386176E+03  0.17256267465E+03 0.  0.
        -24    2    3    3    0    0 -0.77179279162E+02 -0.82632942860E+02 -0.34620809651E+03  0.37196557522E+03  0.75587688697E+02 0.  0.
          6    2    1    2  502    0  0.84082418470E+02  0.71593017809E+02  0.11151688971E+03  0.23540480269E+03  0.17545367235E+03 0.  0.
         24    2    5    5    0    0  0.36285411724E+02  0.28252938336E+02 -0.14796858869E+02  0.93488737975E+02  0.80039599369E+02 0.  0.
          2    1    6    6  501    0  0.57695604768E+02  0.34054632285E+02 -0.31391584650E+00  0.66997009880E+02  0.00000000000E+00 0. -1.
         -1    1    6    6    0  501 -0.21410193044E+02 -0.58016939496E+01 -0.14482943023E+02  0.26491728095E+02  0.00000000000E+00 0.  1.
          5    1    5    5  502    0  0.47797006746E+02  0.43340079473E+02  0.12631374858E+03  0.14191606471E+03  0.47000000000E+01 0. -1.
         13    1    4    4    0    0 -0.84262660425E+02 -0.52300339425E+02 -0.20998544340E+03  0.23222706105E+03  0.00000000000E+00 0. -1.
        -14    1    4    4    0    0  0.70833812625E+01 -0.30332603434E+02 -0.13622265311E+03  0.13973851417E+03  0.00000000000E+00 0.  1.
         -5    1    3    3    0  504 -0.69031393079E+01  0.11039925051E+02  0.13128508663E+02  0.19078286536E+02  0.47000000000E+01 0.  1.
<mgrwt>
<rscale>  2 0.20670181E+03</rscale>
<asrwt>0</asrwt>
<pdfrwt beam="1">  1       21 0.31145074E-01 0.20731475E+03</pdfrwt>
<pdfrwt beam="2">  1       21 0.65231644E-01 0.20731475E+03</pdfrwt>
<totfact> 0.21234637E+04</totfact>
</mgrwt>
</event>
<event>
12    1  0.1410528E-001  0.1890175E+03  0.7546771E-02  0.1159589E+00
         21   -1    0    0  502  503  0.00000000000E+00  0.00000000000E+00  0.11546667788E+03  0.11546667788E+03  0.00000000000E+00 0. -1.
         21   -1    0    0  503  504 -0.00000000000E+00 -0.00000000000E+00 -0.30773095100E+03  0.30773095100E+03  0.00000000000E+00 0.  1.
         -6    2    1    2    0  504 -0.72948399007E+02 -0.16761498767E+02 -0.98144114210E+02  0.21297860638E+03  0.17356613397E+03 0.  0.
        -24    2    3    3    0    0 -0.17592722297E+02 -0.70402798172E+02 -0.79036902105E+02  0.13342475355E+03  0.79304950014E+02 0.  0.
          6    2    1    2  502    0  0.72948399007E+02  0.16761498767E+02 -0.94120158904E+02  0.21021902250E+03  0.17242684348E+03 0.  0.
         24    2    5    5    0    0  0.87487331984E+01  0.65739352020E+02 -0.41446912934E+02  0.11369447619E+03  0.82525054309E+02 0.  0.
          4    1    6    6  501    0 -0.27333203693E+02 -0.34280725376E+01 -0.14696828742E+02  0.31222627700E+02  0.00000000000E+00 0. -1.
         -3    1    6    6    0  501  0.36081936891E+02  0.69167424558E+02 -0.26750084193E+02  0.82471848494E+02  0.00000000000E+00 0.  1.
          5    1    5    5  502    0  0.64199665808E+02 -0.48977853253E+02 -0.52673245970E+02  0.96524546309E+02  0.47000000000E+01 0. -1.
         13    1    4    4    0    0 -0.35396050262E+01 -0.39099823485E+02  0.78243466454E+01  0.40031804865E+02  0.00000000000E+00 0. -1.
        -14    1    4    4    0    0 -0.14053117271E+02 -0.31302974687E+02 -0.86861248751E+02  0.93392948684E+02  0.00000000000E+00 0.  1.
         -5    1    3    3    0  504 -0.55355676710E+02  0.53641299405E+02 -0.19107212104E+02  0.79553852831E+02  0.47000000000E+01 0.  1.
<mgrwt>
<rscale>  2 0.18875556E+03</rscale>
<asrwt>0</asrwt>
<pdfrwt beam="1">  1       21 0.17764104E-01 0.18901751E+03</pdfrwt>
<pdfrwt beam="2">  1       21 0.47343223E-01 0.18901751E+03</pdfrwt>
<totfact> 0.12294071E+05</totfact>
</mgrwt>
</event>
<event>
12    1  0.1410528E-001  0.2259242E+03  0.7546771E-02  0.1129562E+00
         21   -1    0    0  502  503  0.00000000000E+00  0.00000000000E+00  0.58511025412E+02  0.58511025412E+02  0.00000000000E+00 0. -1.
         21   -1    0    0  503  504 -0.00000000000E+00 -0.00000000000E+00 -0.95041606796E+03  0.95041606796E+03  0.00000000000E+00 0.  1.
         -6    2    1    2    0  504 -0.14469285015E+03 -0.16206117858E+02 -0.30086510376E+03  0.37617917039E+03  0.17260445658E+03 0.  0.
        -24    2    3    3    0    0 -0.10794953152E+03  0.25284155284E+02 -0.28962215771E+03  0.31943405549E+03  0.76581536327E+02 0.  0.
          6    2    1    2  502    0  0.14469285015E+03  0.16206117858E+02 -0.59103993878E+03  0.63274792298E+03  0.17275145632E+03 0.  0.
         24    2    5    5    0    0  0.13925069614E+03 -0.17731397502E+01 -0.29057094133E+03  0.33165561292E+03  0.78549813747E+02 0.  0.
          4    1    6    6  501    0  0.90201277782E+02 -0.22455768706E+02 -0.11322940477E+03  0.14649720190E+03  0.00000000000E+00 0. -1.
         -3    1    6    6    0  501  0.49049418358E+02  0.20682628956E+02 -0.17734153656E+03  0.18515841102E+03  0.00000000000E+00 0.  1.
          5    1    5    5  502    0  0.54421540110E+01  0.17979257608E+02 -0.30046899746E+03  0.30109231006E+03  0.47000000000E+01 0. -1.
         11    1    4    4    0    0 -0.20227527271E+02  0.18806256364E+02 -0.15774989660E+02  0.31806892911E+02  0.00000000000E+00 0. -1.
        -12    1    4    4    0    0 -0.87722004251E+02  0.64778989195E+01 -0.27384716805E+03  0.28762716257E+03  0.00000000000E+00 0.  1.
         -5    1    3    3    0  504 -0.36743318629E+02 -0.41490273142E+02 -0.11242946058E+02  0.56745114903E+02  0.47000000000E+01 0.  1.
<mgrwt>
<rscale>  2 0.22589606E+03</rscale>
<asrwt>0</asrwt>
<pdfrwt beam="1">  1       21 0.90016965E-02 0.22592416E+03</pdfrwt>
<pdfrwt beam="2">  1       21 0.14621785E+00 0.22592416E+03</pdfrwt>
<totfact> 0.30599354E+04</totfact>
</mgrwt>
</event>
<event>
12    1  0.1410528E-001  0.1912985E+03  0.7546771E-02  0.1157682E+00
         21   -1    0    0  502  503  0.00000000000E+00  0.00000000000E+00  0.23426307144E+03  0.23426307144E+03  0.00000000000E+00 0. -1.
         21   -1    0    0  503  504 -0.00000000000E+00 -0.00000000000E+00 -0.17722329641E+03  0.17722329641E+03  0.00000000000E+00 0.  1.
         -6    2    1    2    0  504 -0.65513377747E+02  0.47113633648E+02 -0.44758455515E+02  0.19478843413E+03  0.17154450615E+03 0.  0.
        -24    2    3    3    0    0  0.50562080301E+01  0.78378041670E+02 -0.32268199049E+02  0.11645819634E+03  0.79703150308E+02 0.  0.
          6    2    1    2  502    0  0.65513377747E+02 -0.47113633648E+02  0.10179823054E+03  0.21669793372E+03  0.17344571946E+03 0.  0.
         24    2    5    5    0    0  0.94004212951E+02  0.14654302124E+02  0.61815986033E+02  0.13765569529E+03  0.77950841518E+02 0.  0.
          2    1    6    6  501    0  0.21512577293E+02  0.35424570081E+02  0.43442347272E+02  0.60041058316E+02  0.00000000000E+00 0. -1.
         -1    1    6    6    0  501  0.72491635657E+02 -0.20770267957E+02  0.18373638761E+02  0.77614636974E+02  0.00000000000E+00 0.  1.
          5    1    5    5  502    0 -0.28490835204E+02 -0.61767935772E+02  0.39982244512E+02  0.79042238432E+02  0.47000000000E+01 0. -1.
         13    1    4    4    0    0 -0.16585414820E+02 -0.12374811734E+01  0.14111166706E+02  0.21811289971E+02  0.00000000000E+00 0. -1.
        -14    1    4    4    0    0  0.21641622850E+02  0.79615522844E+02 -0.46379365755E+02  0.94646906368E+02  0.00000000000E+00 0.  1.
         -5    1    3    3    0  504 -0.70569585778E+02 -0.31264408022E+02 -0.12490256467E+02  0.78330237791E+02  0.47000000000E+01 0.  1.
<mgrwt>
<rscale>  2 0.19086651E+03</rscale>
<asrwt>0</asrwt>
<pdfrwt beam="1">  1       21 0.36040473E-01 0.19129850E+03</pdfrwt>
<pdfrwt beam="2">  1       21 0.27265122E-01 0.19129850E+03</pdfrwt>
<totfact> 0.95271594E+04</totfact>
</mgrwt>
</event>
<event>
12    1  0.1410528E-001  0.2624805E+03  0.7546771E-02  0.1105975E+00
         21   -1    0    0  502  503  0.00000000000E+00  0.00000000000E+00  0.23882870612E+03  0.23882870612E+03  0.00000000000E+00 0. -1.
         21   -1    0    0  503  504 -0.00000000000E+00 -0.00000000000E+00 -0.37070938709E+03  0.37070938709E+03  0.00000000000E+00 0.  1.
         -6    2    1    2    0  504 -0.19389502960E+03  0.40531002355E+02 -0.21168708277E+03  0.33720535707E+03  0.17221494467E+03 0.  0.
        -24    2    3    3    0    0 -0.94277022633E+02  0.81458940484E+02 -0.15728353290E+03  0.21645487189E+03  0.81184271031E+02 0.  0.
          6    2    1    2  502    0  0.19389502960E+03 -0.40531002355E+02  0.79806401799E+02  0.27233273614E+03  0.16899116175E+03 0.  0.
         24    2    5    5    0    0  0.49369669062E+02 -0.18145694867E+02 -0.16686883517E+02  0.97056594180E+02  0.79842970428E+02 0.  0.
          2    1    6    6  501    0  0.36624474782E+02 -0.48449645014E+02 -0.12749071194E+01  0.60748215144E+02  0.00000000000E+00 0. -1.
         -1    1    6    6    0  501  0.12745194280E+02  0.30303950147E+02 -0.15411976397E+02  0.36308379036E+02  0.00000000000E+00 0.  1.
          5    1    5    5  502    0  0.14452536054E+03 -0.22385307488E+02  0.96493285315E+02  0.17527614196E+03  0.47000000000E+01 0. -1.
         11    1    4    4    0    0  0.17380290810E+01 -0.13419622262E+02 -0.17682879583E+02  0.22266370092E+02  0.00000000000E+00 0. -1.
        -12    1    4    4    0    0 -0.96015051714E+02  0.94878562746E+02 -0.13960065332E+03  0.19418850180E+03  0.00000000000E+00 0.  1.
         -5    1    3    3    0  504 -0.99618006971E+02 -0.40927938129E+02 -0.54403549870E+02  0.12075048518E+03  0.47000000000E+01 0.  1.
<mgrwt>
<rscale>  2 0.26195300E+03</rscale>
<asrwt>0</asrwt>
<pdfrwt beam="1">  1       21 0.36742878E-01 0.26248054E+03</pdfrwt>
<pdfrwt beam="2">  1       21 0.57032213E-01 0.26248054E+03</pdfrwt>
<totfact> 0.19879147E+04</totfact>
</mgrwt>
</event>
<event>
12    1  0.1410528E-001  0.2271528E+03  0.7546771E-02  0.1128740E+00
         21   -1    0    0  502  503  0.00000000000E+00  0.00000000000E+00  0.29451547776E+03  0.29451547776E+03  0.00000000000E+00 0. -1.
         21   -1    0    0  503  504 -0.00000000000E+00 -0.00000000000E+00 -0.32258393844E+03  0.32258393844E+03  0.00000000000E+00 0.  1.
         -6    2    1    2    0  504 -0.30488625818E+02  0.14426424875E+03 -0.22283098357E+03  0.31788239016E+03  0.17220289477E+03 0.  0.
        -24    2    3    3    0    0  0.35777948686E+02  0.30965409522E+02 -0.73490703913E+02  0.11900429938E+03  0.80760271855E+02 0.  0.
          6    2    1    2  502    0  0.30488625818E+02 -0.14426424875E+03  0.19476252289E+03  0.29921702603E+03  0.17279079425E+03 0.  0.
         24    2    5    5    0    0  0.44232037641E+02 -0.15771788726E+03  0.20699532355E+03  0.27594444196E+03  0.80416826365E+02 0.  0.
          4    1    6    6  501    0 -0.21728564049E+02 -0.61792431980E+02  0.64323039415E+02  0.91803532313E+02  0.00000000000E+00 0. -1.
         -3    1    6    6    0  501  0.65960601690E+02 -0.95925455275E+02  0.14267228413E+03  0.18414090964E+03  0.00000000000E+00 0.  1.
          5    1    5    5  502    0 -0.13743411823E+02  0.13453638507E+02 -0.12232800660E+02  0.23272584077E+02  0.47000000000E+01 0. -1.
         13    1    4    4    0    0  0.42060798435E+00 -0.22417244987E+02 -0.42089410309E+02  0.47688869184E+02  0.00000000000E+00 0. -1.
        -14    1    4    4    0    0  0.35357340701E+02  0.53382654509E+02 -0.31401293603E+02  0.71315430195E+02  0.00000000000E+00 0.  1.
         -5    1    3    3    0  504 -0.66266574503E+02  0.11329883923E+03 -0.14934027965E+03  0.19887809078E+03  0.47000000000E+01 0.  1.
<mgrwt>
<rscale>  2 0.22704098E+03</rscale>
<asrwt>0</asrwt>
<pdfrwt beam="1">  1       21 0.45310074E-01 0.22715279E+03</pdfrwt>
<pdfrwt beam="2">  1       21 0.49628298E-01 0.22715279E+03</pdfrwt>
<totfact> 0.17719265E+04</totfact>
</mgrwt>
</event>
<event>
12    1  0.1410528E-001  0.2340694E+03  0.7546771E-02  0.1123982E+00
         21   -1    0    0  502  503  0.00000000000E+00  0.00000000000E+00  0.12715868251E+03  0.12715868251E+03  0.00000000000E+00 0.  1.
         21   -1    0    0  503  504 -0.00000000000E+00 -0.00000000000E+00 -0.54926719694E+03  0.54926719694E+03  0.00000000000E+00 0.  1.
         -6    2    1    2    0  504 -0.14134968401E+03 -0.66250110429E+02 -0.52446612330E+02  0.23888914614E+03  0.17305654192E+03 0.  0.
        -24    2    3    3    0    0 -0.12802943256E+03 -0.10069919590E+03 -0.74570912750E+02  0.19557929441E+03  0.78476593415E+02 0.  0.
          6    2    1    2  502    0  0.14134968401E+03  0.66250110429E+02 -0.36966190209E+03  0.43753673331E+03  0.17441232994E+03 0.  0.
         24    2    5    5    0    0  0.76330791866E+02  0.44614320404E+02 -0.93108482287E+02  0.15258156534E+03  0.82432501089E+02 0.  0.
          2    1    6    6  501    0  0.38505374693E+01  0.27576658959E+01 -0.63687149355E+02  0.63863012401E+02  0.00000000000E+00 0. -1.
         -1    1    6    6    0  501  0.72480254397E+02  0.41856654508E+02 -0.29421332931E+02  0.88718552939E+02  0.00000000000E+00 0.  1.
          5    1    5    5  502    0  0.65018892139E+02  0.21635790025E+02 -0.27655341981E+03  0.28495516797E+03  0.47000000000E+01 0. -1.
         11    1    4    4    0    0  0.10425112034E+02 -0.33495213125E+01 -0.89723530034E+00  0.10986686722E+02  0.00000000000E+00 0. -1.
        -12    1    4    4    0    0 -0.13845454460E+03 -0.97349674590E+02 -0.73673677450E+02  0.18459260768E+03  0.00000000000E+00 0.  1.
         -5    1    3    3    0  504 -0.13320251442E+02  0.34449085473E+02  0.22124300420E+02  0.43309851737E+02  0.47000000000E+01 0.  1.
<mgrwt>
<rscale>  2 0.23381684E+03</rscale>
<asrwt>0</asrwt>
<pdfrwt beam="1">  1       21 0.19562875E-01 0.23406937E+03</pdfrwt>
<pdfrwt beam="2">  1       21 0.84502644E-01 0.23406937E+03</pdfrwt>
<totfact> 0.28572298E+04</totfact>
</mgrwt>
</event>
<event>
12    1  0.1410528E-001  0.2286053E+03  0.7546771E-02  0.1127715E+00
         21   -1    0    0  502  503  0.00000000000E+00  0.00000000000E+00  0.17361640324E+03  0.17361640324E+03  0.00000000000E+00 0.  1.
         21   -1    0    0  503  504 -0.00000000000E+00 -0.00000000000E+00 -0.57467430606E+03  0.57467430606E+03  0.00000000000E+00 0.  1.
         -6    2    1    2    0  504  0.53089431505E+02  0.13976800848E+03 -0.45914540824E+03  0.51290826028E+03  0.17293580783E+03 0.  0.
        -24    2    3    3    0    0  0.60078388227E+02  0.77373783167E+02 -0.14583003598E+03  0.19332963559E+03  0.80708323921E+02 0.  0.
          6    2    1    2  502    0 -0.53089431505E+02 -0.13976800848E+03  0.58087505421E+02  0.23538244901E+03  0.17227058682E+03 0.  0.
         24    2    5    5    0    0 -0.47274374169E+02 -0.80482773526E+02 -0.31074837565E+02  0.12804854299E+03  0.81966093869E+02 0.  0.
          4    1    6    6  501    0 -0.85779042813E+01 -0.73989563702E+02 -0.44274620804E+02  0.86650320404E+02  0.00000000000E+00 0. -1.
         -3    1    6    6    0  501 -0.38696469888E+02 -0.64932098235E+01  0.13199783239E+02  0.41398222585E+02  0.00000000000E+00 0.  1.
          5    1    5    5  502    0 -0.58150573358E+01 -0.59285234950E+02  0.89162342986E+02  0.10733390602E+03  0.47000000000E+01 0. -1.
         11    1    4    4    0    0 -0.11820597692E+02 -0.22897495114E+01  0.28248684533E+00  0.12043640706E+02  0.00000000000E+00 0. -1.
        -12    1    4    4    0    0  0.71898985919E+02  0.79663532678E+02 -0.14611252283E+03  0.18128599489E+03  0.00000000000E+00 0.  1.
         -5    1    3    3    0  504 -0.69889567217E+01  0.62394225309E+02 -0.31331537226E+03  0.31957862469E+03  0.47000000000E+01 0.  1.
<mgrwt>
<rscale>  2 0.22847948E+03</rscale>
<asrwt>0</asrwt>
<pdfrwt beam="1">  1       21 0.26710216E-01 0.22860529E+03</pdfrwt>
<pdfrwt beam="2">  1       21 0.88411432E-01 0.22860529E+03</pdfrwt>
<totfact> 0.14283823E+04</totfact>
</mgrwt>
</event>
<event>
12    1  0.1410528E-001  0.2557966E+03  0.7546771E-02  0.1109715E+00
         21   -1    0    0  502  503  0.00000000000E+00  0.00000000000E+00  0.62855454205E+03  0.62855454205E+03  0.00000000000E+00 0.  1.
         21   -1    0    0  503  504 -0.00000000000E+00 -0.00000000000E+00 -0.10512617711E+03  0.10512617711E+03  0.00000000000E+00 0. -1.
         -6    2    1    2    0  504 -0.13129816561E+03 -0.13493233654E+03  0.22445577877E+03  0.34021345287E+03  0.17297067138E+03 0.  0.
        -24    2    3    3    0    0 -0.13024149955E+03 -0.66921617049E+02  0.85357516313E+02  0.18530383043E+03  0.74901621793E+02 0.  0.
          6    2    1    2  502    0  0.13129816561E+03  0.13493233654E+03  0.29897258618E+03  0.39346726629E+03  0.17316448430E+03 0.  0.
         24    2    5    5    0    0  0.12579092206E+03  0.33190349914E+02  0.16458532813E+03  0.22475512477E+03  0.80632378558E+02 0.  0.
          2    1    6    6  501    0  0.47922114842E+02 -0.21187946616E+02  0.31107602874E+02  0.60935548978E+02  0.00000000000E+00 0. -1.
         -1    1    6    6    0  501  0.77868807220E+02  0.54378296531E+02  0.13347772526E+03  0.16381957579E+03  0.00000000000E+00 0.  1.
          5    1    5    5  502    0  0.55072435477E+01  0.10174198663E+03  0.13438725804E+03  0.16871214153E+03  0.47000000000E+01 0. -1.
         13    1    4    4    0    0 -0.82733128074E+02 -0.75693377446E+02  0.77615523022E+02  0.13637605099E+03  0.00000000000E+00 0. -1.
        -14    1    4    4    0    0 -0.47508371472E+02  0.87717603971E+01  0.77419932917E+01  0.48927779435E+02  0.00000000000E+00 0.  1.
         -5    1    3    3    0  504 -0.10566660632E+01 -0.68010719492E+02  0.13909826245E+03  0.15490962245E+03  0.47000000000E+01 0.  1.
<mgrwt>
<rscale>  2 0.25576377E+03</rscale>
<asrwt>0</asrwt>
<pdfrwt beam="1">  1       21 0.96700697E-01 0.25579656E+03</pdfrwt>
<pdfrwt beam="2">  1       21 0.16173258E-01 0.25579656E+03</pdfrwt>
<totfact> 0.29407053E+04</totfact>
</mgrwt>
</event>
<event>
12    1  0.1410528E-001  0.1946905E+03  0.7546771E-02  0.1154973E+00
         21   -1    0    0  502  503  0.00000000000E+00  0.00000000000E+00  0.49465300864E+02  0.49465300864E+02  0.00000000000E+00 0.  1.
         21   -1    0    0  503  504 -0.00000000000E+00 -0.00000000000E+00 -0.81442426585E+03  0.81442426585E+03  0.00000000000E+00 0.  1.
         -6    2    1    2    0  504 -0.85461328748E+02 -0.75169046556E+01 -0.49705956976E+03  0.53271817313E+03  0.17134845645E+03 0.  0.
        -24    2    3    3    0    0 -0.10521703495E+03 -0.16695439271E+02 -0.23843553972E+03  0.27313579249E+03  0.80014326223E+02 0.  0.
          6    2    1    2  502    0  0.85461328748E+02  0.75169046556E+01 -0.26789939522E+03  0.33117139358E+03  0.17476917176E+03 0.  0.
         24    2    5    5    0    0  0.11033771543E+03  0.35508252689E+02 -0.14657513686E+03  0.20411228982E+03  0.82111562261E+02 0.  0.
          2    1    6    6  501    0  0.22112845879E+02 -0.22497781512E+02 -0.59125762658E+02  0.67014803856E+02  0.00000000000E+00 0. -1.
         -1    1    6    6    0  501  0.88224869550E+02  0.58006034201E+02 -0.87449374197E+02  0.13709748597E+03  0.00000000000E+00 0.  1.
          5    1    5    5  502    0 -0.24876386681E+02 -0.27991348034E+02 -0.12132425837E+03  0.12705910375E+03  0.47000000000E+01 0. -1.
         11    1    4    4    0    0 -0.98624768232E+02 -0.41884097807E+02 -0.18885318203E+03  0.21713278638E+03  0.00000000000E+00 0. -1.
        -12    1    4    4    0    0 -0.65922667215E+01  0.25188658536E+02 -0.49582357692E+02  0.56003006113E+02  0.00000000000E+00 0.  1.
         -5    1    3    3    0  504  0.19755706205E+02  0.91785346153E+01 -0.25862403004E+03  0.25958238064E+03  0.47000000000E+01 0.  1.
<mgrwt>
<rscale>  2 0.19391978E+03</rscale>
<asrwt>0</asrwt>
<pdfrwt beam="1">  1       21 0.76100469E-02 0.19469054E+03</pdfrwt>
<pdfrwt beam="2">  1       21 0.12529603E+00 0.19469054E+03</pdfrwt>
<totfact> 0.62007410E+04</totfact>
</mgrwt>
</event>
<event>
12    1  0.1410528E-001  0.2015231E+03  0.7546771E-02  0.1148585E+00
         21   -1    0    0  502  503  0.00000000000E+00  0.00000000000E+00  0.65562245918E+03  0.65562245918E+03  0.00000000000E+00 0.  1.
         21   -1    0    0  503  504 -0.00000000000E+00 -0.00000000000E+00 -0.15735612794E+03  0.15735612794E+03  0.00000000000E+00 0.  1.
         -6    2    1    2    0  504 -0.66852246537E+02 -0.78610484769E+02 -0.67843240945E+02  0.21206961936E+03  0.17240065815E+03 0.  0.
        -24    2    3    3    0    0 -0.84968197920E+02 -0.10092981045E+03 -0.85370550201E+02  0.17807496444E+03  0.83762406972E+02 0.  0.
          6    2    1    2  502    0  0.66852246537E+02  0.78610484769E+02  0.56610957218E+03  0.60090896776E+03  0.17309739640E+03 0.  0.
         24    2    5    5    0    0  0.60399790584E+02 -0.19925638984E+02  0.27558412389E+03  0.29402441622E+03  0.80365304711E+02 0.  0.
          2    1    6    6  501    0  0.50359109467E+02 -0.47432921170E+02  0.15175037863E+03  0.16677559573E+03  0.00000000000E+00 0. -1.
         -1    1    6    6    0  501  0.10040681116E+02  0.27507282186E+02  0.12383374526E+03  0.12724882049E+03  0.00000000000E+00 0.  1.
          5    1    5    5  502    0  0.64524559534E+01  0.98536123753E+02  0.29052544829E+03  0.30688455154E+03  0.47000000000E+01 0. -1.
         11    1    4    4    0    0 -0.13398441416E+02  0.14024438522E+02 -0.19451834597E+02  0.27469564566E+02  0.00000000000E+00 0. -1.
        -12    1    4    4    0    0 -0.71569756504E+02 -0.11495424897E+03 -0.65918715603E+02  0.15060539987E+03  0.00000000000E+00 0.  1.
         -5    1    3    3    0  504  0.18115951383E+02  0.22319325684E+02  0.17527309256E+02  0.33994654922E+02  0.47000000000E+01 0.  1.
<mgrwt>
<rscale>  2 0.20137335E+03</rscale>
<asrwt>0</asrwt>
<pdfrwt beam="1">  1       21 0.10086499E+00 0.20152305E+03</pdfrwt>
<pdfrwt beam="2">  1       21 0.24208635E-01 0.20152305E+03</pdfrwt>
<totfact> 0.12875532E+04</totfact>
</mgrwt>
</event>
<event>
12    1  0.1410528E-001  0.2735913E+03  0.7546771E-02  0.1099271E+00
         21   -1    0    0  502  503  0.00000000000E+00  0.00000000000E+00  0.48437528925E+03  0.48437528925E+03  0.00000000000E+00 0.  1.
         21   -1    0    0  503  504 -0.00000000000E+00 -0.00000000000E+00 -0.29686281871E+03  0.29686281871E+03  0.00000000000E+00 0. -1.
         -6    2    1    2    0  504  0.20329878975E+03  0.59452164290E+02 -0.17680859189E+03  0.32575066110E+03  0.17316829180E+03 0.  0.
        -24    2    3    3    0    0  0.31384089950E+02 -0.64587327317E+01 -0.54441812466E+02  0.10462936167E+03  0.83406930454E+02 0.  0.
          6    2    1    2  502    0 -0.20329878975E+03 -0.59452164290E+02  0.36432106244E+03  0.45548744686E+03  0.17284102509E+03 0.  0.
         24    2    5    5    0    0 -0.16611248965E+03 -0.73310201854E+02  0.36515566239E+03  0.41551679916E+03  0.79673130327E+02 0.  0.
          2    1    6    6  501    0 -0.32008284017E+02 -0.52033873799E+02  0.91384996541E+02  0.10992393671E+03  0.00000000000E+00 0. -1.
         -1    1    6    6    0  501 -0.13410420564E+03 -0.21276328055E+02  0.27377066585E+03  0.30559286245E+03  0.00000000000E+00 0.  1.
          5    1    5    5  502    0 -0.37186300101E+02  0.13858037564E+02 -0.83459994746E+00  0.39970647698E+02  0.47000000000E+01 0. -1.
         11    1    4    4    0    0  0.53224484841E+02 -0.33971059482E+01 -0.89566805625E+01  0.54079647208E+02  0.00000000000E+00 0. -1.
        -12    1    4    4    0    0 -0.21840394892E+02 -0.30616267835E+01 -0.45485131904E+02  0.50549714459E+02  0.00000000000E+00 0.  1.
         -5    1    3    3    0  504  0.17191469980E+03  0.65910897022E+02 -0.12236677943E+03  0.22112129943E+03  0.47000000000E+01 0.  1.
<mgrwt>
<rscale>  2 0.27353956E+03</rscale>
<asrwt>0</asrwt>
<pdfrwt beam="1">  1       21 0.74519275E-01 0.27359133E+03</pdfrwt>
<pdfrwt beam="2">  1       21 0.45671203E-01 0.27359133E+03</pdfrwt>
<totfact> 0.70439541E+03</totfact>
</mgrwt>
</event>
<event>
12    1  0.1410528E-001  0.2121275E+03  0.7546771E-02  0.1141159E+00
         21   -1    0    0  502  503  0.00000000000E+00  0.00000000000E+00  0.90141062143E+02  0.90141062143E+02  0.00000000000E+00 0.  1.
         21   -1    0    0  503  504 -0.00000000000E+00 -0.00000000000E+00 -0.50934365854E+03  0.50934365854E+03  0.00000000000E+00 0.  1.
         -6    2    1    2    0  504  0.90804887646E+02 -0.80730742831E+02 -0.27910256021E+03  0.35056573612E+03  0.17388247688E+03 0.  0.
        -24    2    3    3    0    0  0.62331420465E+02  0.17837406143E+02 -0.17885730758E+03  0.20704703002E+03  0.81701634809E+02 0.  0.
          6    2    1    2  502    0 -0.90804887646E+02  0.80730742831E+02 -0.14010003619E+03  0.24891898456E+03  0.16604114032E+03 0.  0.
         24    2    5    5    0    0 -0.89298956645E+02  0.37002229004E+01 -0.12169418858E+03  0.16956639132E+03  0.77170526906E+02 0.  0.
          2    1    6    6  501    0 -0.80736972972E+02  0.61794632924E+01 -0.13266916339E+03  0.15542764068E+03  0.00000000000E+00 0. -1.
         -1    1    6    6    0  501 -0.85619836725E+01 -0.24792403920E+01  0.10974974817E+02  0.14138750636E+02  0.00000000000E+00 0.  1.
          5    1    5    5  502    0 -0.15059310012E+01  0.77030519931E+02 -0.18405847610E+02  0.79352593248E+02  0.47000000000E+01 0. -1.
         13    1    4    4    0    0  0.57143946202E+02  0.32743515763E+02 -0.66526064663E+02  0.93612422742E+02  0.00000000000E+00 0. -1.
        -14    1    4    4    0    0  0.51874742627E+01 -0.14906109620E+02 -0.11233124291E+03  0.11343460728E+03  0.00000000000E+00 0.  1.
         -5    1    3    3    0  504  0.28473467181E+02 -0.98568148974E+02 -0.10024525263E+03  0.14351870610E+03  0.47000000000E+01 0.  1.
<mgrwt>
<rscale>  2 0.21051460E+03</rscale>
<asrwt>0</asrwt>
<pdfrwt beam="1">  1       21 0.13867856E-01 0.21212755E+03</pdfrwt>
<pdfrwt beam="2">  1       21 0.78360563E-01 0.21212755E+03</pdfrwt>
<totfact> 0.64603068E+04</totfact>
</mgrwt>
</event>
<event>
12    1  0.1410528E-001  0.4699125E+03  0.7546771E-02  0.1022015E+00
         21   -1    0    0  502  503  0.00000000000E+00  0.00000000000E+00  0.51732499799E+03  0.51732499799E+03  0.00000000000E+00 0. -1.
         21   -1    0    0  503  504 -0.00000000000E+00 -0.00000000000E+00 -0.46302695671E+03  0.46302695671E+03  0.00000000000E+00 0. -1.
         -6    2    1    2    0  504 -0.30603814807E+02  0.43546933929E+03 -0.11155077740E+03  0.48297139134E+03  0.17391851533E+03 0.  0.
        -24    2    3    3    0    0 -0.44290645465E+02  0.37086524468E+03 -0.14438896776E+03  0.40906973290E+03  0.83589361649E+02 0.  0.
          6    2    1    2  502    0  0.30603814807E+02 -0.43546933929E+03  0.16584881867E+03  0.49738056336E+03  0.17120588544E+03 0.  0.
         24    2    5    5    0    0  0.31490586990E+02 -0.17941694562E+03  0.14499375541E+02  0.19990391116E+03  0.81050875136E+02 0.  0.
          4    1    6    6  501    0 -0.23483133511E+02 -0.94038606730E+02 -0.24282631109E+01  0.96956761379E+02  0.00000000000E+00 0. -1.
         -3    1    6    6    0  501  0.54973720501E+02 -0.85378338890E+02  0.16927638652E+02  0.10294714978E+03  0.00000000000E+00 0.  1.
          5    1    5    5  502    0 -0.88677218289E+00 -0.25605239367E+03  0.15134944313E+03  0.29747665220E+03  0.47000000000E+01 0. -1.
         13    1    4    4    0    0 -0.11034000025E+02  0.29339997054E+03 -0.84056792686E+02  0.30540274437E+03  0.00000000000E+00 0. -1.
        -14    1    4    4    0    0 -0.33256645440E+02  0.77465274133E+02 -0.60332175072E+02  0.10366698853E+03  0.00000000000E+00 0.  1.
         -5    1    3    3    0  504  0.13686830659E+02  0.64604094613E+02  0.32838190358E+02  0.73901658440E+02  0.47000000000E+01 0.  1.
<mgrwt>
<rscale>  2 0.46966304E+03</rscale>
<asrwt>0</asrwt>
<pdfrwt beam="1">  1       21 0.79588461E-01 0.46991253E+03</pdfrwt>
<pdfrwt beam="2">  1       21 0.71234917E-01 0.46991253E+03</pdfrwt>
<totfact> 0.21295764E+03</totfact>
</mgrwt>
</event>
<event>
12    1  0.1410528E-001  0.1818917E+03  0.7546771E-02  0.1166430E+00
         21   -1    0    0  502  503  0.00000000000E+00  0.00000000000E+00  0.49134000056E+03  0.49134000056E+03  0.00000000000E+00 0. -1.
         21   -1    0    0  503  504 -0.00000000000E+00 -0.00000000000E+00 -0.10000902656E+03  0.10000902656E+03  0.00000000000E+00 0. -1.
         -6    2    1    2    0  504 -0.18156043806E+02 -0.45572223055E+02  0.25569962802E+02  0.18368022993E+03  0.17515174686E+03 0.  0.
        -24    2    3    3    0    0  0.10442416828E+02 -0.69814802272E+02 -0.33875137780E+02  0.11324313331E+03  0.81812783816E+02 0.  0.
          6    2    1    2  502    0  0.18156043806E+02  0.45572223055E+02  0.36576101120E+03  0.40766879719E+03  0.17322315504E+03 0.  0.
         24    2    5    5    0    0  0.62161358232E+02  0.61432913646E+02  0.17692302356E+03  0.21306688358E+03  0.80359836206E+02 0.  0.
          2    1    6    6  501    0  0.50232042973E+01  0.49814191160E+02  0.12625745617E+03  0.13582205808E+03  0.00000000000E+00 0. -1.
         -1    1    6    6    0  501  0.57138153935E+02  0.11618722487E+02  0.50665567394E+02  0.77244825501E+02  0.00000000000E+00 0.  1.
          5    1    5    5  502    0 -0.44005314426E+02 -0.15860690591E+02  0.18883798764E+03  0.19460191361E+03  0.47000000000E+01 0. -1.
         13    1    4    4    0    0 -0.16393059978E+02 -0.43734113204E+02 -0.53474942031E+02  0.70999820411E+02  0.00000000000E+00 0. -1.
        -14    1    4    4    0    0  0.26835476805E+02 -0.26080689068E+02  0.19599804251E+02  0.42243312895E+02  0.00000000000E+00 0.  1.
         -5    1    3    3    0  504 -0.28598460634E+02  0.24242579217E+02  0.59445100582E+02  0.70437096625E+02  0.47000000000E+01 0.  1.
<mgrwt>
<rscale>  2 0.18142586E+03</rscale>
<asrwt>0</asrwt>
<pdfrwt beam="1">  1       21 0.75590768E-01 0.18189174E+03</pdfrwt>
<pdfrwt beam="2">  1       21 0.15386004E-01 0.18189174E+03</pdfrwt>
<totfact> 0.58802127E+04</totfact>
</mgrwt>
</event>
<event>
12    1  0.1410528E-001  0.1776938E+03  0.7546771E-02  0.1170287E+00
         21   -1    0    0  502  503  0.00000000000E+00  0.00000000000E+00  0.73769704528E+03  0.73769704528E+03  0.00000000000E+00 0.  1.
         21   -1    0    0  503  504 -0.00000000000E+00 -0.00000000000E+00 -0.51035023384E+02  0.51035023384E+02  0.00000000000E+00 0.  1.
         -6    2    1    2    0  504  0.59152297434E+01 -0.37229059403E+02  0.18352744813E+03  0.25545531694E+03  0.17364936489E+03 0.  0.
        -24    2    3    3    0    0 -0.28056255194E+02  0.27392550464E+02  0.15174006788E+03  0.17568977429E+03  0.79399894921E+02 0.  0.
          6    2    1    2  502    0 -0.59152297434E+01  0.37229059403E+02  0.50313457376E+03  0.53327675173E+03  0.17268092486E+03 0.  0.
         24    2    5    5    0    0 -0.40972550042E+02  0.61688111690E+02  0.19447257481E+03  0.22163339700E+03  0.76273241268E+02 0.  0.
          4    1    6    6  501    0 -0.55099899172E+02  0.14414267738E+02  0.10227591706E+03  0.11706465399E+03  0.00000000000E+00 0. -1.
         -3    1    6    6    0  501  0.14127349130E+02  0.47273843952E+02  0.92196657749E+02  0.10456874301E+03  0.00000000000E+00 0.  1.
          5    1    5    5  502    0  0.35057320299E+02 -0.24459052287E+02  0.30866199895E+03  0.31164335472E+03  0.47000000000E+01 0. -1.
         13    1    4    4    0    0  0.12292322614E+02  0.33537999752E+02  0.27980780651E+02  0.45374251602E+02  0.00000000000E+00 0. -1.
        -14    1    4    4    0    0 -0.40348577808E+02 -0.61454492876E+01  0.12375928723E+03  0.13031552269E+03  0.00000000000E+00 0.  1.
         -5    1    3    3    0  504  0.33971484937E+02 -0.64621609867E+02  0.31787380256E+02  0.79765542649E+02  0.47000000000E+01 0.  1.
<mgrwt>
<rscale>  2 0.17745678E+03</rscale>
<asrwt>0</asrwt>
<pdfrwt beam="1">  1       21 0.11349185E+00 0.17769382E+03</pdfrwt>
<pdfrwt beam="2">  1       21 0.78515426E-02 0.17769382E+03</pdfrwt>
<totfact> 0.75578828E+04</totfact>
</mgrwt>
</event>
<event>
12    1  0.1410528E-001  0.1853391E+03  0.7546771E-02  0.1162767E+00
         21   -1    0    0  502  503  0.00000000000E+00  0.00000000000E+00  0.55231009193E+03  0.55231009193E+03  0.00000000000E+00 0. -1.
         21   -1    0    0  503  504 -0.00000000000E+00 -0.00000000000E+00 -0.12214739764E+03  0.12214739764E+03  0.00000000000E+00 0. -1.
         -6    2    1    2    0  504 -0.65458731656E+02  0.93209613609E+01 -0.21314968463E+02  0.18641787961E+03  0.17299009245E+03 0.  0.
        -24    2    3    3    0    0 -0.10771332026E+03  0.23195963626E+02 -0.32043676098E+02  0.14042699885E+03  0.80948951426E+02 0.  0.
          6    2    1    2  502    0  0.65458731656E+02 -0.93209613609E+01  0.45147766276E+03  0.48803960996E+03  0.17314402977E+03 0.  0.
         24    2    5    5    0    0 -0.30482444084E+02 -0.26906548623E+02  0.26500601029E+03  0.27754559756E+03  0.71765113233E+02 0.  0.
          2    1    6    6  501    0 -0.93630426391E+01 -0.19559838314E+02  0.14597715966E+02  0.26140909582E+02  0.00000000000E+00 0. -1.
         -1    1    6    6    0  501 -0.21119401445E+02 -0.73467103090E+01  0.25040829432E+03  0.25140468797E+03  0.00000000000E+00 0.  1.
          5    1    5    5  502    0  0.95941175740E+02  0.17585587262E+02  0.18647165247E+03  0.21049401240E+03  0.47000000000E+01 0. -1.
         13    1    4    4    0    0 -0.32771236260E+02  0.11644204124E+01 -0.50453366530E+02  0.60173515728E+02  0.00000000000E+00 0. -1.
        -14    1    4    4    0    0 -0.74942084001E+02  0.22031543214E+02  0.18409690432E+02  0.80253483118E+02  0.00000000000E+00 0.  1.
         -5    1    3    3    0  504  0.42254588604E+02 -0.13875002265E+02  0.10728707635E+02  0.45990880764E+02  0.47000000000E+01 0.  1.
<mgrwt>
<rscale>  2 0.18530314E+03</rscale>
<asrwt>0</asrwt>
<pdfrwt beam="1">  1       21 0.84970782E-01 0.18533910E+03</pdfrwt>
<pdfrwt beam="2">  1       21 0.18791908E-01 0.18533910E+03</pdfrwt>
<totfact> 0.31211453E+04</totfact>
</mgrwt>
</event>
<event>
12    1  0.1410528E-001  0.2466886E+03  0.7546771E-02  0.1115466E+00
         21   -1    0    0  502  503  0.00000000000E+00  0.00000000000E+00  0.43950008693E+02  0.43950008693E+02  0.00000000000E+00 0.  1.
         21   -1    0    0  503  504 -0.00000000000E+00 -0.00000000000E+00 -0.22510768133E+04  0.22510768133E+04  0.00000000000E+00 0.  1.
         -6    2    1    2    0  504 -0.11992302550E+03 -0.13065239945E+03 -0.18166317921E+04  0.18333047552E+04  0.17147500031E+03 0.  0.
        -24    2    3    3    0    0 -0.11211154159E+01 -0.56931004761E+02 -0.54887664391E+03  0.55785426862E+03  0.81813315454E+02 0.  0.
          6    2    1    2  502    0  0.11992302550E+03  0.13065239945E+03 -0.39049501251E+03  0.46172206683E+03  0.17102435696E+03 0.  0.
         24    2    5    5    0    0  0.35083485637E+02  0.25681077381E+02 -0.81492184199E+02  0.12449578688E+03  0.83473685470E+02 0.  0.
          2    1    6    6  501    0  0.70407014736E+01 -0.21610782674E+02 -0.62209227290E+02  0.66231302003E+02  0.00000000000E+00 0. -1.
         -1    1    6    6    0  501  0.28042784163E+02  0.47291860055E+02 -0.19282956909E+02  0.58264484879E+02  0.00000000000E+00 0.  1.
          5    1    5    5  502    0  0.84839539859E+02  0.10497132207E+03 -0.30900282831E+03  0.33722627995E+03  0.47000000000E+01 0. -1.
         13    1    4    4    0    0 -0.14210004448E+02  0.78362345651E+01 -0.29737293890E+03  0.29781537165E+03  0.00000000000E+00 0. -1.
        -14    1    4    4    0    0  0.13088889032E+02 -0.64767239326E+02 -0.25150370500E+03  0.26003889697E+03  0.00000000000E+00 0.  1.
         -5    1    3    3    0  504 -0.11880191008E+03 -0.73721394693E+02 -0.12677551482E+04  0.12754504865E+04  0.47000000000E+01 0.  1.
<mgrwt>
<rscale>  2 0.24661029E+03</rscale>
<asrwt>0</asrwt>
<pdfrwt beam="1">  1       21 0.67615389E-02 0.24668858E+03</pdfrwt>
<pdfrwt beam="2">  1       21 0.34631956E+00 0.24668858E+03</pdfrwt>
<totfact> 0.27698029E+03</totfact>
</mgrwt>
</event>
<event>
12    1  0.1410528E-001  0.2331186E+03  0.7546771E-02  0.1124559E+00
         21   -1    0    0  502  503  0.00000000000E+00  0.00000000000E+00  0.65097573066E+03  0.65097573066E+03  0.00000000000E+00 0. -1.
         21   -1    0    0  503  504 -0.00000000000E+00 -0.00000000000E+00 -0.11454574360E+03  0.11454574360E+03  0.00000000000E+00 0. -1.
         -6    2    1    2    0  504 -0.45403605433E+02  0.14900168115E+03  0.68030289005E+02  0.24231736125E+03  0.17270377810E+03 0.  0.
        -24    2    3    3    0    0 -0.35731903104E+02  0.11275688768E+03  0.11454909384E+03  0.18237308644E+03  0.78406397294E+02 0.  0.
          6    2    1    2  502    0  0.45403605433E+02 -0.14900168115E+03  0.46839969805E+03  0.52320411301E+03  0.17343955248E+03 0.  0.
         24    2    5    5    0    0  0.95956979589E+02 -0.11818674805E+03  0.31976730523E+03  0.36314511783E+03  0.80295689595E+02 0.  0.
          2    1    6    6  501    0  0.27676196529E+02 -0.89776858494E+02  0.21765587330E+03  0.23706525548E+03  0.00000000000E+00 0. -1.
         -1    1    6    6    0  501  0.68280783060E+02 -0.28409889551E+02  0.10211143193E+03  0.12607986235E+03  0.00000000000E+00 0.  1.
          5    1    5    5  502    0 -0.50553374156E+02 -0.30814933105E+02  0.14863239282E+03  0.16005899518E+03  0.47000000000E+01 0. -1.
         13    1    4    4    0    0  0.28145056450E+00  0.68613921852E+01 -0.11784634536E+02  0.13639484165E+02  0.00000000000E+00 0. -1.
        -14    1    4    4    0    0 -0.36013353668E+02  0.10589549550E+03  0.12633372838E+03  0.16873360227E+03  0.00000000000E+00 0.  1.
         -5    1    3    3    0  504 -0.96717023294E+01  0.36244793466E+02 -0.46518804837E+02  0.59944274813E+02  0.47000000000E+01 0.  1.
<mgrwt>
<rscale>  2 0.23298172E+03</rscale>
<asrwt>0</asrwt>
<pdfrwt beam="1">  1       21 0.10015011E+00 0.23311857E+03</pdfrwt>
<pdfrwt beam="2">  1       21 0.17622423E-01 0.23311857E+03</pdfrwt>
<totfact> 0.23340617E+04</totfact>
</mgrwt>
</event>
<event>
12    1  0.1410528E-001  0.2002503E+03  0.7546771E-02  0.1151951E+00
         21   -1    0    0  502  503  0.00000000000E+00  0.00000000000E+00  0.29954301330E+03  0.29954301330E+03  0.00000000000E+00 0.  1.
         21   -1    0    0  503  504 -0.00000000000E+00 -0.00000000000E+00 -0.13507002169E+03  0.13507002169E+03  0.00000000000E+00 0. -1.
         -6    2    1    2    0  504  0.12490089173E+02  0.78664396629E+02  0.13469185431E+03  0.23216030812E+03  0.17150050561E+03 0.  0.
        -24    2    3    3    0    0  0.32915560258E+02  0.97612952688E+02  0.46077862871E+02  0.13915075418E+03  0.81412777260E+02 0.  0.
          6    2    1    2  502    0 -0.12490089173E+02 -0.78664396629E+02  0.29781137297E+02  0.20245272688E+03  0.18372833439E+03 0.  0.
         24    2    5    5    0    0  0.24792662799E+02  0.24635673790E+02 -0.10996824054E+02  0.85210071347E+02  0.76930056337E+02 0.  0.
          4    1    6    6  501    0  0.32220688886E+02 -0.18335850462E+02  0.75289323860E+01  0.37829367260E+02  0.00000000000E+00 0. -1.
         -3    1    6    6    0  501 -0.74280260873E+01  0.42971524252E+02 -0.18525756440E+02  0.47380704087E+02  0.00000000000E+00 0.  1.
          5    1    5    5  502    0 -0.37282751972E+02 -0.10330007042E+03  0.40777961351E+02  0.11724265553E+03  0.47000000000E+01 0. -1.
         13    1    4    4    0    0 -0.10903949744E+02  0.15803480738E+02 -0.18043451324E+02  0.26347908060E+02  0.00000000000E+00 0. -1.
        -14    1    4    4    0    0  0.43819510002E+02  0.81809471951E+02  0.64121314195E+02  0.11280284612E+03  0.00000000000E+00 0.  1.
         -5    1    3    3    0  504 -0.20425471085E+02 -0.18948556059E+02  0.88613991438E+02  0.93009553942E+02  0.47000000000E+01 0.  1.
<mgrwt>
<rscale>  2 0.19740098E+03</rscale>
<asrwt>0</asrwt>
<pdfrwt beam="1">  1       21 0.46083540E-01 0.20025032E+03</pdfrwt>
<pdfrwt beam="2">  1       21 0.20780003E-01 0.20025032E+03</pdfrwt>
<totfact> 0.96661319E+04</totfact>
</mgrwt>
</event>
<event>
12    1  0.1410528E-001  0.2095904E+03  0.7546771E-02  0.1142260E+00
         21   -1    0    0  502  503  0.00000000000E+00  0.00000000000E+00  0.30857079809E+03  0.30857079809E+03  0.00000000000E+00 0. -1.
         21   -1    0    0  503  504 -0.00000000000E+00 -0.00000000000E+00 -0.14347224481E+03  0.14347224481E+03  0.00000000000E+00 0. -1.
         -6    2    1    2    0  504  0.11498171881E+03 -0.51474216201E+01  0.11195071063E+03  0.23761545282E+03  0.17515949932E+03 0.  0.
        -24    2    3    3    0    0  0.81713578254E+02 -0.62224162733E+02  0.10943954653E+03  0.17133634980E+03  0.82644873525E+02 0.  0.
          6    2    1    2  502    0 -0.11498171881E+03  0.51474216201E+01  0.53147842652E+02  0.21442759007E+03  0.17293700182E+03 0.  0.
         24    2    5    5    0    0 -0.56886898954E+02  0.68275237806E+02  0.15938893461E+02  0.12079679829E+03  0.80250799263E+02 0.  0.
          4    1    6    6  501    0 -0.38861186539E+02  0.70635574903E+02  0.40514817578E+02  0.90227638251E+02  0.00000000000E+00 0. -1.
         -3    1    6    6    0  501 -0.18025712415E+02 -0.23603370962E+01 -0.24575924117E+02  0.30569160039E+02  0.00000000000E+00 0.  1.
          5    1    5    5  502    0 -0.58094819853E+02 -0.63127816186E+02  0.37208949191E+02  0.93630791784E+02  0.47000000000E+01 0. -1.
         11    1    4    4    0    0  0.72874994369E+02 -0.27677656563E+02  0.28693858134E+02  0.83067171444E+02  0.00000000000E+00 0. -1.
        -12    1    4    4    0    0  0.88385838857E+01 -0.34546506170E+02  0.80745688395E+02  0.88269178358E+02  0.00000000000E+00 0.  1.
         -5    1    3    3    0  504  0.33268140553E+02  0.57076741113E+02  0.25111640968E+01  0.66279103020E+02  0.47000000000E+01 0.  1.
<mgrwt>
<rscale>  2 0.20912542E+03</rscale>
<asrwt>0</asrwt>
<pdfrwt beam="1">  1       21 0.47472430E-01 0.20959041E+03</pdfrwt>
<pdfrwt beam="2">  1       21 0.22072653E-01 0.20959041E+03</pdfrwt>
<totfact> 0.80827328E+04</totfact>
</mgrwt>
</event>
<event>
12    1  0.1410528E-001  0.1858137E+03  0.7546771E-02  0.1165686E+00
         21   -1    0    0  502  503  0.00000000000E+00  0.00000000000E+00  0.84011783179E+02  0.84011783179E+02  0.00000000000E+00 0.  1.
         21   -1    0    0  503  504 -0.00000000000E+00 -0.00000000000E+00 -0.39922167917E+03  0.39922167917E+03  0.00000000000E+00 0. -1.
         -6    2    1    2    0  504  0.32341061496E+02 -0.46805905013E+02 -0.21570241733E+03  0.28470029806E+03  0.17688976758E+03 0.  0.
        -24    2    3    3    0    0 -0.60829219118E-01  0.22770881362E+02 -0.46542797652E+02  0.98883510197E+02  0.84221136525E+02 0.  0.
          6    2    1    2  502    0 -0.32341061496E+02  0.46805905013E+02 -0.99507478665E+02  0.19853316429E+03  0.16210164098E+03 0.  0.
         24    2    5    5    0    0  0.43627854054E+02  0.31802517886E+02 -0.70729640189E+02  0.11578878839E+03  0.74091644079E+02 0.  0.
          4    1    6    6  501    0  0.63858479450E+02  0.25836077617E+02 -0.62920840307E+02  0.93297590801E+02  0.00000000000E+00 0. -1.
         -3    1    6    6    0  501 -0.20230625396E+02  0.59664402688E+01 -0.78087998820E+01  0.22491197589E+02  0.00000000000E+00 0.  1.
          5    1    5    5  502    0 -0.75968915550E+02  0.15003387127E+02 -0.28777838476E+02  0.82744375896E+02  0.47000000000E+01 0. -1.
         13    1    4    4    0    0  0.16604165531E+02 -0.97331001839E+01 -0.57591119313E+02  0.60722060043E+02  0.00000000000E+00 0. -1.
        -14    1    4    4    0    0 -0.16664994751E+02  0.32503981546E+02  0.11048321661E+02  0.38161450154E+02  0.00000000000E+00 0.  1.
         -5    1    3    3    0  504  0.32401890715E+02 -0.69576786374E+02 -0.16915961968E+03  0.18581678787E+03  0.47000000000E+01 0.  1.
<mgrwt>
<rscale>  2 0.18220538E+03</rscale>
<asrwt>0</asrwt>
<pdfrwt beam="1">  1       21 0.12924890E-01 0.18581369E+03</pdfrwt>
<pdfrwt beam="2">  1       21 0.61418720E-01 0.18581369E+03</pdfrwt>
<totfact> 0.12687243E+05</totfact>
</mgrwt>
</event>
<event>
12    1  0.1410528E-001  0.2047963E+03  0.7546771E-02  0.1146012E+00
         21   -1    0    0  502  503  0.00000000000E+00  0.00000000000E+00  0.23375443903E+03  0.23375443903E+03  0.00000000000E+00 0. -1.
         21   -1    0    0  503  504 -0.00000000000E+00 -0.00000000000E+00 -0.21673112293E+03  0.21673112293E+03  0.00000000000E+00 0. -1.
         -6    2    1    2    0  504  0.55941079675E+02  0.95980536721E+02 -0.86326015943E+02  0.22108935116E+03  0.17054809393E+03 0.  0.
        -24    2    3    3    0    0  0.94479192528E+02  0.75434740974E+02 -0.98486235131E+02  0.17551219903E+03  0.80549832605E+02 0.  0.
          6    2    1    2  502    0 -0.55941079675E+02 -0.95980536721E+02  0.10334933205E+03  0.22939621080E+03  0.17204612541E+03 0.  0.
         24    2    5    5    0    0 -0.98493382054E+01 -0.59870144944E+01  0.99167458629E+02  0.12809043239E+03  0.80250359576E+02 0.  0.
          2    1    6    6  501    0 -0.43789745789E+02  0.27187645969E+01  0.40243206163E+02  0.59535276597E+02  0.00000000000E+00 0. -1.
         -1    1    6    6    0  501  0.33940407583E+02 -0.87057790913E+01  0.58924252466E+02  0.68555155788E+02  0.00000000000E+00 0.  1.
          5    1    5    5  502    0 -0.46091741470E+02 -0.89993522226E+02  0.41818734174E+01  0.10130577841E+03  0.47000000000E+01 0. -1.
         13    1    4    4    0    0  0.98178918958E+02  0.39687677169E+02 -0.55756347004E+02  0.11967866175E+03  0.00000000000E+00 0. -1.
        -14    1    4    4    0    0 -0.36997264300E+01  0.35747063805E+02 -0.42729888126E+02  0.55833537284E+02  0.00000000000E+00 0.  1.
         -5    1    3    3    0  504 -0.38538112853E+02  0.20545795747E+02  0.12160219187E+02  0.45577152125E+02  0.47000000000E+01 0.  1.
<mgrwt>
<rscale>  2 0.20448139E+03</rscale>
<asrwt>0</asrwt>
<pdfrwt beam="1">  1       21 0.35962221E-01 0.20479633E+03</pdfrwt>
<pdfrwt beam="2">  1       21 0.33343250E-01 0.20479633E+03</pdfrwt>
<totfact> 0.64230036E+04</totfact>
</mgrwt>
</event>
<event>
12    1  0.1410528E-001  0.2846318E+03  0.7546771E-02  0.1093466E+00
         21   -1    0    0  502  503  0.00000000000E+00  0.00000000000E+00  0.88313046691E+03  0.88313046691E+03  0.00000000000E+00 0.  1.
         21   -1    0    0  503  504 -0.00000000000E+00 -0.00000000000E+00 -0.91131683041E+02  0.91131683041E+02  0.00000000000E+00 0. -1.
         -6    2    1    2    0  504 -0.22089845190E+03  0.34301518342E+02  0.41055609065E+03  0.49957136185E+03  0.17618888103E+03 0.  0.
        -24    2    3    3    0    0 -0.99593817844E+02  0.56904366209E+02  0.12320525972E+03  0.18681220049E+03  0.81007572386E+02 0.  0.
          6    2    1    2  502    0  0.22089845190E+03 -0.34301518342E+02  0.38144269321E+03  0.47469078810E+03  0.17280074042E+03 0.  0.
         24    2    5    5    0    0  0.21913411086E+03 -0.66185743276E+02  0.36554115316E+03  0.43870932516E+03  0.80282165970E+02 0.  0.
          4    1    6    6  501    0  0.10514534080E+03 -0.15960006770E+02  0.10268618948E+03  0.14783341306E+03  0.00000000000E+00 0. -1.
         -3    1    6    6    0  501  0.11398877007E+03 -0.50225736506E+02  0.26285496368E+03  0.29087591210E+03  0.00000000000E+00 0.  1.
          5    1    5    5  502    0  0.17643410320E+01  0.31884224934E+02  0.15901540050E+02  0.35981462934E+02  0.47000000000E+01 0. -1.
         11    1    4    4    0    0 -0.90137054675E+02  0.52067938981E+02  0.54898138247E+02  0.11768417259E+03  0.00000000000E+00 0. -1.
        -12    1    4    4    0    0 -0.94567631690E+01  0.48364272281E+01  0.68307121469E+02  0.69128027900E+02  0.00000000000E+00 0.  1.
         -5    1    3    3    0  504 -0.12130463405E+03 -0.22602847867E+02  0.28735083094E+03  0.31275916136E+03  0.47000000000E+01 0.  1.
<mgrwt>
<rscale>  2 0.28410914E+03</rscale>
<asrwt>0</asrwt>
<pdfrwt beam="1">  1       21 0.13586622E+00 0.28463177E+03</pdfrwt>
<pdfrwt beam="2">  1       21 0.14020260E-01 0.28463177E+03</pdfrwt>
<totfact> 0.16257877E+04</totfact>
</mgrwt>
</event>
<event>
12    1  0.1410528E-001  0.2119178E+03  0.7546771E-02  0.1140239E+00
         21   -1    0    0  502  503  0.00000000000E+00  0.00000000000E+00  0.13356382674E+04  0.13356382674E+04  0.00000000000E+00 0. -1.
         21   -1    0    0  503  504 -0.00000000000E+00 -0.00000000000E+00 -0.37018324305E+02  0.37018324305E+02  0.00000000000E+00 0. -1.
         -6    2    1    2    0  504  0.11742621896E+03  0.29683572607E+02  0.43570642463E+03  0.48410220546E+03  0.17275654977E+03 0.  0.
        -24    2    3    3    0    0  0.33784727867E+02 -0.43057429524E+02  0.15291137237E+03  0.18032221270E+03  0.78350893529E+02 0.  0.
          6    2    1    2  502    0 -0.11742621896E+03 -0.29683572607E+02  0.86291351851E+03  0.88855438629E+03  0.17389400675E+03 0.  0.
         24    2    5    5    0    0 -0.91355737237E+02  0.45015775401E+02  0.46775863207E+03  0.48552940333E+03  0.81045498714E+02 0.  0.
          4    1    6    6  501    0 -0.59024990041E+02  0.21280980586E+00  0.12367654925E+03  0.13703971531E+03  0.00000000000E+00 0. -1.
         -3    1    6    6    0  501 -0.32330747196E+02  0.44802965595E+02  0.34408208282E+03  0.34848968803E+03  0.00000000000E+00 0.  1.
          5    1    5    5  502    0 -0.26070481723E+02 -0.74699348007E+02  0.39515488644E+03  0.40302498296E+03  0.47000000000E+01 0. -1.
         11    1    4    4    0    0  0.40515360755E+02 -0.50305079336E+02  0.64230466707E+02  0.91091428343E+02  0.00000000000E+00 0. -1.
        -12    1    4    4    0    0 -0.67306328877E+01  0.72476498122E+01  0.88680905664E+02  0.89230784353E+02  0.00000000000E+00 0.  1.
         -5    1    3    3    0  504  0.83641491093E+02  0.72741002130E+02  0.28279505226E+03  0.30377999277E+03  0.47000000000E+01 0.  1.
<mgrwt>
<rscale>  2 0.21168433E+03</rscale>
<asrwt>0</asrwt>
<pdfrwt beam="1">  1       21 0.20548277E+00 0.21191781E+03</pdfrwt>
<pdfrwt beam="2">  1       21 0.56951278E-02 0.21191781E+03</pdfrwt>
<totfact> 0.26335546E+04</totfact>
</mgrwt>
</event>
<event>
12    1  0.1410528E-001  0.2148304E+03  0.7546771E-02  0.1137826E+00
         21   -1    0    0  502  503  0.00000000000E+00  0.00000000000E+00  0.19696978417E+03  0.19696978417E+03  0.00000000000E+00 0.  1.
         21   -1    0    0  503  504 -0.00000000000E+00 -0.00000000000E+00 -0.39105211551E+03  0.39105211551E+03  0.00000000000E+00 0.  1.
         -6    2    1    2    0  504  0.17281263927E+02  0.12566483193E+03 -0.28329859364E+03  0.35554208435E+03  0.17338335710E+03 0.  0.
        -24    2    3    3    0    0  0.50490832048E+02  0.83993734461E+02 -0.27293690813E+03  0.30105529416E+03  0.80842209105E+02 0.  0.
          6    2    1    2  502    0 -0.17281263927E+02 -0.12566483193E+03  0.89216262309E+02  0.23247981533E+03  0.17319650980E+03 0.  0.
         24    2    5    5    0    0 -0.20059072416E+02 -0.15386544529E+03  0.42289284641E+02  0.17745961861E+03  0.75010605916E+02 0.  0.
          4    1    6    6  501    0  0.19611770217E+02 -0.29758400765E+02 -0.10076921525E+02  0.37036850494E+02  0.00000000000E+00 0. -1.
         -3    1    6    6    0  501 -0.39670842633E+02 -0.12410704453E+03  0.52366206165E+02  0.14042276811E+03  0.00000000000E+00 0.  1.
          5    1    5    5  502    0  0.27778084888E+01  0.28200613359E+02  0.46926977669E+02  0.55020196719E+02  0.47000000000E+01 0. -1.
         11    1    4    4    0    0  0.17255637610E+02  0.40202458274E+02 -0.32729155722E+02  0.54636913483E+02  0.00000000000E+00 0. -1.
        -12    1    4    4    0    0  0.33235194438E+02  0.43791276187E+02 -0.24020775240E+03  0.24641838067E+03  0.00000000000E+00 0.  1.
         -5    1    3    3    0  504 -0.33209568121E+02  0.41671097471E+02 -0.10361685516E+02  0.54486790197E+02  0.47000000000E+01 0.  1.
<mgrwt>
<rscale>  2 0.21479265E+03</rscale>
<asrwt>0</asrwt>
<pdfrwt beam="1">  1       21 0.30303044E-01 0.21483035E+03</pdfrwt>
<pdfrwt beam="2">  1       21 0.60161864E-01 0.21483035E+03</pdfrwt>
<totfact> 0.26590148E+04</totfact>
</mgrwt>
</event>
<event>
12    1  0.1410528E-001  0.3856746E+03  0.7546771E-02  0.1048992E+00
         21   -1    0    0  502  503  0.00000000000E+00  0.00000000000E+00  0.39153479929E+03  0.39153479929E+03  0.00000000000E+00 0. -1.
         21   -1    0    0  503  504 -0.00000000000E+00 -0.00000000000E+00 -0.37842706518E+03  0.37842706518E+03  0.00000000000E+00 0.  1.
         -6    2    1    2    0  504 -0.22526100436E+03  0.26088946199E+03  0.74213664372E+01  0.38574599363E+03  0.17302908269E+03 0.  0.
        -24    2    3    3    0    0 -0.11900026832E+03  0.21499764719E+03 -0.37266547242E+02  0.26158278523E+03  0.81557990591E+02 0.  0.
          6    2    1    2  502    0  0.22526100436E+03 -0.26088946199E+03  0.56863676665E+01  0.38421587084E+03  0.16965750548E+03 0.  0.
         24    2    5    5    0    0  0.15834088783E+03 -0.84841425013E+02  0.33147204475E+02  0.19382836894E+03  0.64813542456E+02 0.  0.
          2    1    6    6  501    0  0.30952197686E+02 -0.21003462210E+02 -0.19177988496E+02  0.42035451813E+02  0.00000000000E+00 0. -1.
         -1    1    6    6    0  501  0.12738869014E+03 -0.63837962803E+02  0.52325192971E+02  0.15179291713E+03  0.00000000000E+00 0.  1.
          5    1    5    5  502    0  0.66920116530E+02 -0.17604803698E+03 -0.27460836809E+02  0.19038750190E+03  0.47000000000E+01 0. -1.
         13    1    4    4    0    0 -0.23410989009E+02  0.11910447527E+03 -0.90606238510E+00  0.12138686661E+03  0.00000000000E+00 0. -1.
        -14    1    4    4    0    0 -0.95589279308E+02  0.95893171918E+02 -0.36360484857E+02  0.14019591862E+03  0.00000000000E+00 0.  1.
         -5    1    3    3    0  504 -0.10626073604E+03  0.45891814802E+02  0.44687913680E+02  0.12416320839E+03  0.47000000000E+01 0.  1.
<mgrwt>
<rscale>  2 0.38529885E+03</rscale>
<asrwt>0</asrwt>
<pdfrwt beam="1">  1       21 0.60236123E-01 0.38567460E+03</pdfrwt>
<pdfrwt beam="2">  1       21 0.58219548E-01 0.38567460E+03</pdfrwt>
<totfact> 0.64194934E+03</totfact>
</mgrwt>
</event>
<event>
12    1  0.1410528E-001  0.1863528E+03  0.7546771E-02  0.1162488E+00
         21   -1    0    0  502  503  0.00000000000E+00  0.00000000000E+00  0.17394561291E+04  0.17394561291E+04  0.00000000000E+00 0. -1.
         21   -1    0    0  503  504 -0.00000000000E+00 -0.00000000000E+00 -0.83259852300E+02  0.83259852300E+02  0.00000000000E+00 0. -1.
         -6    2    1    2    0  504 -0.44471410834E+02  0.38115725618E+02  0.29919865949E+02  0.18579743227E+03  0.17376700647E+03 0.  0.
        -24    2    3    3    0    0 -0.88010918742E+02  0.30069806467E+02 -0.13076536280E+02  0.12390069432E+03  0.80810093263E+02 0.  0.
          6    2    1    2  502    0  0.44471410834E+02 -0.38115725618E+02  0.16262764109E+04  0.16369185492E+04  0.17690917750E+03 0.  0.
         24    2    5    5    0    0  0.54285954893E+02 -0.65887715455E+02  0.67103052307E+03  0.68120708388E+03  0.80454784128E+02 0.  0.
          2    1    6    6  501    0  0.60723564512E+02 -0.39904662486E+02  0.61310152242E+03  0.61739226604E+03  0.00000000000E+00 0. -1.
         -1    1    6    6    0  501 -0.64376096188E+01 -0.25983052969E+02  0.57929000644E+02  0.63814817831E+02  0.00000000000E+00 0.  1.
          5    1    5    5  502    0 -0.98145440591E+01  0.27771989837E+02  0.95524588783E+03  0.95571146530E+03  0.47000000000E+01 0. -1.
         13    1    4    4    0    0 -0.87502333929E+02  0.39580596043E+02  0.12274880503E+02  0.96819185689E+02  0.00000000000E+00 0. -1.
        -14    1    4    4    0    0 -0.50858481296E+00 -0.95107895760E+01 -0.25351416782E+02  0.27081508631E+02  0.00000000000E+00 0.  1.
         -5    1    3    3    0  504  0.43539507908E+02  0.80459191510E+01  0.42996402228E+02  0.61896737947E+02  0.47000000000E+01 0.  1.
<mgrwt>
<rscale>  2 0.18560324E+03</rscale>
<asrwt>0</asrwt>
<pdfrwt beam="1">  1       21 0.26760861E+00 0.18635282E+03</pdfrwt>
<pdfrwt beam="2">  1       21 0.12809209E-01 0.18635282E+03</pdfrwt>
<totfact> 0.27600054E+03</totfact>
</mgrwt>
</event>
<event>
12    1  0.1410528E-001  0.2438515E+03  0.7546771E-02  0.1117346E+00
         21   -1    0    0  502  503  0.00000000000E+00  0.00000000000E+00  0.44671903008E+03  0.44671903008E+03  0.00000000000E+00 0.  1.
         21   -1    0    0  503  504 -0.00000000000E+00 -0.00000000000E+00 -0.33770388174E+03  0.33770388174E+03  0.00000000000E+00 0. -1.
         -6    2    1    2    0  504  0.16309783370E+03 -0.57300390209E+02 -0.25097603476E+03  0.34993218055E+03  0.17198640319E+03 0.  0.
        -24    2    3    3    0    0  0.13048122973E+03 -0.94135063400E+02 -0.23659961074E+03  0.29845978434E+03  0.84924116675E+02 0.  0.
          6    2    1    2  502    0 -0.16309783370E+03  0.57300390209E+02  0.35999118310E+03  0.43449073127E+03  0.17118500395E+03 0.  0.
         24    2    5    5    0    0 -0.59174445016E+02 -0.34743752191E+02  0.15520982475E+03  0.18704439448E+03  0.78656039487E+02 0.  0.
          2    1    6    6  501    0  0.11265530899E+01 -0.39533038640E+02  0.36533643093E+02  0.53840851996E+02  0.00000000000E+00 0. -1.
         -1    1    6    6    0  501 -0.60300998105E+02  0.47892864497E+01  0.11867618166E+03  0.13320354248E+03  0.00000000000E+00 0.  1.
          5    1    5    5  502    0 -0.10392338868E+03  0.92044142400E+02  0.20478135835E+03  0.24744633679E+03  0.47000000000E+01 0. -1.
         13    1    4    4    0    0  0.12913280829E+03 -0.53473077411E+02 -0.19813603936E+03  0.24247173501E+03  0.00000000000E+00 0. -1.
        -14    1    4    4    0    0  0.13484214438E+01 -0.40661985989E+02 -0.38463571384E+02  0.55988049337E+02  0.00000000000E+00 0.  1.
         -5    1    3    3    0  504  0.32616603968E+02  0.36834673191E+02 -0.14376424017E+02  0.51472396204E+02  0.47000000000E+01 0.  1.
<mgrwt>
<rscale>  2 0.24371025E+03</rscale>
<asrwt>0</asrwt>
<pdfrwt beam="1">  1       21 0.68726005E-01 0.24385151E+03</pdfrwt>
<pdfrwt beam="2">  1       21 0.51954443E-01 0.24385151E+03</pdfrwt>
<totfact> 0.65527148E+03</totfact>
</mgrwt>
</event>
<event>
12    1  0.1410528E-001  0.2054494E+03  0.7546771E-02  0.1145343E+00
         21   -1    0    0  502  503  0.00000000000E+00  0.00000000000E+00  0.59698113331E+03  0.59698113331E+03  0.00000000000E+00 0. -1.
         21   -1    0    0  503  504 -0.00000000000E+00 -0.00000000000E+00 -0.75565676644E+02  0.75565676644E+02  0.00000000000E+00 0. -1.
         -6    2    1    2    0  504  0.58358344374E+02 -0.93769069997E+02  0.17327347511E+03  0.26830393269E+03  0.17252526851E+03 0.  0.
        -24    2    3    3    0    0  0.90427901499E+02 -0.52453609330E+02  0.62034765657E+02  0.14529350929E+03  0.79582065760E+02 0.  0.
          6    2    1    2  502    0 -0.58358344374E+02  0.93769069997E+02  0.34814198155E+03  0.40424287726E+03  0.17323720631E+03 0.  0.
         24    2    5    5    0    0  0.76606390374E+01 -0.74358917962E+01  0.17870619788E+03  0.19608062023E+03  0.79985789942E+02 0.  0.
          2    1    6    6  501    0  0.92064257090E+01 -0.30296290807E+02  0.16769726889E+03  0.17066047435E+03  0.00000000000E+00 0. -1.
         -1    1    6    6    0  501 -0.15457866716E+01  0.22860399010E+02  0.11008928990E+02  0.25420145886E+02  0.00000000000E+00 0.  1.
          5    1    5    5  502    0 -0.66018983411E+02  0.10120496179E+03  0.16943578367E+03  0.20816225703E+03  0.47000000000E+01 0. -1.
         11    1    4    4    0    0  0.35213681249E+02 -0.32612037247E+01  0.61962477213E+02  0.71344147477E+02  0.00000000000E+00 0. -1.
        -12    1    4    4    0    0  0.55214220250E+02 -0.49192405605E+02  0.72288444191E-01  0.73949361814E+02  0.00000000000E+00 0.  1.
         -5    1    3    3    0  504 -0.32069557125E+02 -0.41315460668E+02  0.11123870945E+03  0.12301042340E+03  0.47000000000E+01 0.  1.
<mgrwt>
<rscale>  2 0.20529927E+03</rscale>
<asrwt>0</asrwt>
<pdfrwt beam="1">  1       21 0.91843248E-01 0.20544942E+03</pdfrwt>
<pdfrwt beam="2">  1       21 0.11625489E-01 0.20544942E+03</pdfrwt>
<totfact> 0.61865329E+04</totfact>
</mgrwt>
</event>
<event>
12    1  0.1410528E-001  0.1889190E+03  0.7546771E-02  0.1160121E+00
         21   -1    0    0  502  503  0.00000000000E+00  0.00000000000E+00  0.13086416328E+04  0.13086416328E+04  0.00000000000E+00 0. -1.
         21   -1    0    0  503  504 -0.00000000000E+00 -0.00000000000E+00 -0.27026607888E+02  0.27026607888E+02  0.00000000000E+00 0. -1.
         -6    2    1    2    0  504  0.32418436286E+02  0.58360733702E+02  0.59114986846E+03  0.62060336536E+03  0.17672984998E+03 0.  0.
        -24    2    3    3    0    0  0.81632976605E+02  0.66169168599E+02  0.37071754960E+03  0.39456013979E+03  0.84875795025E+02 0.  0.
          6    2    1    2  502    0 -0.32418436286E+02 -0.58360733702E+02  0.69046515645E+03  0.71506487532E+03  0.17354743846E+03 0.  0.
         24    2    5    5    0    0 -0.46037879872E+02  0.22035797994E+02  0.47944759277E+03  0.48879160307E+03  0.80263156210E+02 0.  0.
          2    1    6    6  501    0 -0.32825650518E+02 -0.27094372145E+02  0.26467284992E+03  0.26807339633E+03  0.00000000000E+00 0. -1.
         -1    1    6    6    0  501 -0.13212229355E+02  0.49130170139E+02  0.21477474285E+03  0.22071820675E+03  0.00000000000E+00 0.  1.
          5    1    5    5  502    0  0.13619443586E+02 -0.80396531695E+02  0.21101756368E+03  0.22627327224E+03  0.47000000000E+01 0. -1.
         11    1    4    4    0    0  0.37130163618E+02  0.51900752457E+02  0.92085992657E+02  0.11203645478E+03  0.00000000000E+00 0. -1.
        -12    1    4    4    0    0  0.44502812987E+02  0.14268416142E+02  0.27863155695E+03  0.28252368501E+03  0.00000000000E+00 0.  1.
         -5    1    3    3    0  504 -0.49214540319E+02 -0.78084348974E+01  0.22043231885E+03  0.22604322558E+03  0.47000000000E+01 0.  1.
<mgrwt>
<rscale>  2 0.18817110E+03</rscale>
<asrwt>0</asrwt>
<pdfrwt beam="1">  1       21 0.20132943E+00 0.18891895E+03</pdfrwt>
<pdfrwt beam="2">  1       21 0.41579407E-02 0.18891895E+03</pdfrwt>
<totfact> 0.48464941E+04</totfact>
</mgrwt>
</event>
<event>
12    1  0.1410528E-001  0.3029318E+03  0.7546771E-02  0.1083856E+00
         21   -1    0    0  502  503  0.00000000000E+00  0.00000000000E+00  0.55127446729E+03  0.55127446729E+03  0.00000000000E+00 0. -1.
         21   -1    0    0  503  504 -0.00000000000E+00 -0.00000000000E+00 -0.19208536614E+03  0.19208536614E+03  0.00000000000E+00 0. -1.
         -6    2    1    2    0  504 -0.24709884991E+03 -0.25237206541E+02  0.42861328818E+02  0.30537472073E+03  0.17240031419E+03 0.  0.
        -24    2    3    3    0    0 -0.19137397299E+03 -0.17393369151E+02 -0.31858412008E+02  0.21171620611E+03  0.82959427937E+02 0.  0.
          6    2    1    2  502    0  0.24709884991E+03  0.25237206541E+02  0.31632777233E+03  0.43798511270E+03  0.17341551598E+03 0.  0.
         24    2    5    5    0    0  0.19714643104E+03  0.26533820653E+02  0.14835804001E+03  0.26267725112E+03  0.86130548047E+02 0.  0.
          2    1    6    6  501    0  0.15824811524E+03  0.64835675877E+01  0.70499305899E+02  0.17336278366E+03  0.00000000000E+00 0. -1.
         -1    1    6    6    0  501  0.38898315808E+02  0.20050253065E+02  0.77858734110E+02  0.89314467461E+02  0.00000000000E+00 0.  1.
          5    1    5    5  502    0  0.49952418861E+02 -0.12966141119E+01  0.16796973232E+03  0.17530786158E+03  0.47000000000E+01 0. -1.
         13    1    4    4    0    0 -0.44707865937E+02  0.30622050297E+02 -0.26688220642E+00  0.54190169470E+02  0.00000000000E+00 0. -1.
        -14    1    4    4    0    0 -0.14666610705E+03 -0.48015419449E+02 -0.31591529801E+02  0.15752603664E+03  0.00000000000E+00 0.  1.
         -5    1    3    3    0  504 -0.55724876913E+02 -0.78438373896E+01  0.74719740826E+02  0.93658514621E+02  0.47000000000E+01 0.  1.
<mgrwt>
<rscale>  2 0.30278673E+03</rscale>
<asrwt>0</asrwt>
<pdfrwt beam="1">  1       21 0.84811456E-01 0.30293184E+03</pdfrwt>
<pdfrwt beam="2">  1       21 0.29551595E-01 0.30293184E+03</pdfrwt>
<totfact> 0.12445981E+04</totfact>
</mgrwt>
</event>
<event>
12    1  0.1410528E-001  0.2130432E+03  0.7546771E-02  0.1139269E+00
         21   -1    0    0  502  503  0.00000000000E+00  0.00000000000E+00  0.19638599327E+03  0.19638599327E+03  0.00000000000E+00 0.  1.
         21   -1    0    0  503  504 -0.00000000000E+00 -0.00000000000E+00 -0.28646113978E+03  0.28646113978E+03  0.00000000000E+00 0.  1.
         -6    2    1    2    0  504  0.56952068856E+02  0.10939979322E+03 -0.15167829807E+03  0.26152192176E+03  0.17371112962E+03 0.  0.
        -24    2    3    3    0    0  0.17448924633E+02  0.10676034168E+03 -0.17089949060E+03  0.21726122418E+03  0.79332011937E+02 0.  0.
          6    2    1    2  502    0 -0.56952068856E+02 -0.10939979322E+03  0.61603151560E+02  0.22132521129E+03  0.17314169910E+03 0.  0.
         24    2    5    5    0    0 -0.60427198013E+01 -0.81516604336E+02  0.99501917754E+02  0.15184398704E+03  0.80464237522E+02 0.  0.
          2    1    6    6  501    0 -0.22592363713E+02 -0.20590130138E+02  0.80195861499E+02  0.85823916007E+02  0.00000000000E+00 0. -1.
         -1    1    6    6    0  501  0.16549643912E+02 -0.60926474197E+02  0.19306056255E+02  0.66020071038E+02  0.00000000000E+00 0.  1.
          5    1    5    5  502    0 -0.50909349055E+02 -0.27883188885E+02 -0.37898766194E+02  0.69481224245E+02  0.47000000000E+01 0. -1.
         13    1    4    4    0    0 -0.66771806578E+01  0.55674966051E+02 -0.14430916752E+03  0.15482061366E+03  0.00000000000E+00 0. -1.
        -14    1    4    4    0    0  0.24126105291E+02  0.51085375633E+02 -0.26590323087E+02  0.62440610519E+02  0.00000000000E+00 0.  1.
         -5    1    3    3    0  504  0.39503144223E+02  0.26394515369E+01  0.19221192531E+02  0.44260697580E+02  0.47000000000E+01 0.  1.
<mgrwt>
<rscale>  2 0.21292710E+03</rscale>
<asrwt>0</asrwt>
<pdfrwt beam="1">  1       21 0.30213230E-01 0.21304321E+03</pdfrwt>
<pdfrwt beam="2">  1       21 0.44070945E-01 0.21304321E+03</pdfrwt>
<totfact> 0.51477440E+04</totfact>
</mgrwt>
</event>
<event>
12    1  0.1410528E-001  0.2505775E+03  0.7546771E-02  0.1113094E+00
         21   -1    0    0  502  503  0.00000000000E+00  0.00000000000E+00  0.92455151426E+02  0.92455151426E+02  0.00000000000E+00 0. -1.
         21   -1    0    0  503  504 -0.00000000000E+00 -0.00000000000E+00 -0.99761120462E+03  0.99761120462E+03  0.00000000000E+00 0.  1.
         -6    2    1    2    0  504  0.14609857538E+03 -0.10799396424E+03 -0.76239925161E+03  0.80252210210E+03  0.17257350742E+03 0.  0.
        -24    2    3    3    0    0  0.58458287491E+02 -0.12391580515E+03 -0.53598612994E+03  0.55917190846E+03  0.81360884831E+02 0.  0.
          6    2    1    2  502    0 -0.14609857538E+03  0.10799396424E+03 -0.14275680159E+03  0.28754425395E+03  0.17115695586E+03 0.  0.
         24    2    5    5    0    0 -0.15601663552E+03  0.81641906701E+02 -0.16299392863E+03  0.25255239541E+03  0.78797843694E+02 0.  0.
          2    1    6    6  501    0 -0.29405110495E+02 -0.28815850286E+01 -0.30245189682E-01  0.29545980611E+02  0.00000000000E+00 0. -1.
         -1    1    6    6    0  501 -0.12661152502E+03  0.84523491729E+02 -0.16296368344E+03  0.22300641480E+03  0.00000000000E+00 0.  1.
          5    1    5    5  502    0  0.99180601327E+01  0.26352057539E+02  0.20237127037E+02  0.34991858540E+02  0.47000000000E+01 0. -1.
         13    1    4    4    0    0  0.23449125317E+02 -0.56718506927E+02 -0.10537747130E+03  0.12194778376E+03  0.00000000000E+00 0. -1.
        -14    1    4    4    0    0  0.35009162174E+02 -0.67197298226E+02 -0.43060865865E+03  0.43722412471E+03  0.00000000000E+00 0.  1.
         -5    1    3    3    0  504  0.87640287893E+02  0.15921840913E+02 -0.22641312166E+03  0.24335019363E+03  0.47000000000E+01 0.  1.
<mgrwt>
<rscale>  2 0.25033382E+03</rscale>
<asrwt>0</asrwt>
<pdfrwt beam="1">  1       21 0.14223868E-01 0.25057754E+03</pdfrwt>
<pdfrwt beam="2">  1       21 0.15347866E+00 0.25057754E+03</pdfrwt>
<totfact> 0.11692195E+04</totfact>
</mgrwt>
</event>
<event>
12    1  0.1410528E-001  0.1803889E+03  0.7546771E-02  0.1167538E+00
         21   -1    0    0  502  503  0.00000000000E+00  0.00000000000E+00  0.42050020493E+02  0.42050020493E+02  0.00000000000E+00 0. -1.
         21   -1    0    0  503  504 -0.00000000000E+00 -0.00000000000E+00 -0.78666703974E+03  0.78666703974E+03  0.00000000000E+00 0. -1.
         -6    2    1    2    0  504 -0.46652696901E+02 -0.23146558828E+02 -0.31504221906E+03  0.36280434914E+03  0.17222995864E+03 0.  0.
        -24    2    3    3    0    0 -0.92386010363E+02 -0.93939524867E+01 -0.16822532921E+03  0.20834413004E+03  0.80523871478E+02 0.  0.
          6    2    1    2  502    0  0.46652696901E+02  0.23146558828E+02 -0.42957480018E+03  0.46591271109E+03  0.17270757970E+03 0.  0.
         24    2    5    5    0    0 -0.24950635788E+02 -0.10513507080E+02 -0.12464449147E+03  0.15084982774E+03  0.80537899272E+02 0.  0.
          2    1    6    6  501    0  0.13662097403E+02 -0.35852715419E+02 -0.49202597852E+02  0.62393635442E+02  0.00000000000E+00 0. -1.
         -1    1    6    6    0  501 -0.38612733191E+02  0.25339208339E+02 -0.75441893617E+02  0.88456192300E+02  0.00000000000E+00 0.  1.
          5    1    5    5  502    0  0.71603332689E+02  0.33660065908E+02 -0.30493030872E+03  0.31506288335E+03  0.47000000000E+01 0. -1.
         11    1    4    4    0    0 -0.57181065350E+02 -0.42734259792E+02 -0.76771888608E+02  0.10483231408E+03  0.00000000000E+00 0. -1.
        -12    1    4    4    0    0 -0.35204945013E+02  0.33340307305E+02 -0.91453440607E+02  0.10351181596E+03  0.00000000000E+00 0.  1.
         -5    1    3    3    0  504  0.45733313462E+02 -0.13752606341E+02 -0.14681688985E+03  0.15446021910E+03  0.47000000000E+01 0.  1.
<mgrwt>
<rscale>  2 0.18027446E+03</rscale>
<asrwt>0</asrwt>
<pdfrwt beam="1">  1       21 0.64692341E-02 0.18038887E+03</pdfrwt>
<pdfrwt beam="2">  1       21 0.12102569E+00 0.18038887E+03</pdfrwt>
<totfact> 0.90089643E+04</totfact>
</mgrwt>
</event>
<event>
12    1  0.1410528E-001  0.2340133E+03  0.7546771E-02  0.1123847E+00
         21   -1    0    0  502  503  0.00000000000E+00  0.00000000000E+00  0.49315233581E+03  0.49315233581E+03  0.00000000000E+00 0. -1.
         21   -1    0    0  503  504 -0.00000000000E+00 -0.00000000000E+00 -0.16571881482E+03  0.16571881482E+03  0.00000000000E+00 0.  1.
         -6    2    1    2    0  504  0.44366258265E+02  0.15121569429E+03 -0.25506850798E+02  0.23539844957E+03  0.17299502754E+03 0.  0.
        -24    2    3    3    0    0 -0.16425534236E+02  0.27663432648E+02 -0.41575952906E+02  0.96686123394E+02  0.81145442978E+02 0.  0.
          6    2    1    2  502    0 -0.44366258265E+02 -0.15121569429E+03  0.35294037179E+03  0.42347270106E+03  0.17299616017E+03 0.  0.
         24    2    5    5    0    0 -0.48158478967E+02 -0.17897833433E+03  0.28144833649E+03  0.34654191248E+03  0.80781481382E+02 0.  0.
          4    1    6    6  501    0 -0.50649563413E+02 -0.18507510500E+03  0.25409060785E+03  0.31840259070E+03  0.00000000000E+00 0. -1.
         -3    1    6    6    0  501  0.24910844451E+01  0.60967706623E+01  0.27357728634E+02  0.28139321780E+02  0.00000000000E+00 0.  1.
          5    1    5    5  502    0  0.37922207029E+01  0.27762640048E+02  0.71492035299E+02  0.76930788580E+02  0.47000000000E+01 0. -1.
         11    1    4    4    0    0 -0.24636293618E+02  0.54187192475E+02 -0.28243322793E+02  0.65885385891E+02  0.00000000000E+00 0. -1.
        -12    1    4    4    0    0  0.82107593822E+01 -0.26523759827E+02 -0.13332630113E+02  0.30800737503E+02  0.00000000000E+00 0.  1.
         -5    1    3    3    0  504  0.60791792501E+02  0.12355226164E+03  0.16069102108E+02  0.13871232618E+03  0.47000000000E+01 0.  1.
<mgrwt>
<rscale>  2 0.23401309E+03</rscale>
<asrwt>0</asrwt>
<pdfrwt beam="1">  1       21 0.75869590E-01 0.23401330E+03</pdfrwt>
<pdfrwt beam="2">  1       21 0.25495202E-01 0.23401330E+03</pdfrwt>
<totfact> 0.22088264E+04</totfact>
</mgrwt>
</event>
<event>
12    1  0.1410528E-001  0.2896013E+03  0.7546771E-02  0.1091099E+00
         21   -1    0    0  502  503  0.00000000000E+00  0.00000000000E+00  0.85591416989E+02  0.85591416989E+02  0.00000000000E+00 0. -1.
         21   -1    0    0  503  504 -0.00000000000E+00 -0.00000000000E+00 -0.11184280536E+04  0.11184280536E+04  0.00000000000E+00 0. -1.
         -6    2    1    2    0  504 -0.13071716235E+03 -0.19237376678E+03 -0.74182670616E+03  0.79635155537E+03  0.17255229667E+03 0.  0.
        -24    2    3    3    0    0 -0.12976555879E+03 -0.99947483419E+02 -0.35588452195E+03  0.39946746277E+03  0.78050375769E+02 0.  0.
          6    2    1    2  502    0  0.13071716235E+03  0.19237376678E+03 -0.29100993045E+03  0.40766791522E+03  0.16556481148E+03 0.  0.
         24    2    5    5    0    0  0.64639176680E+02  0.16985280187E+03 -0.26892996726E+03  0.33429824283E+03  0.80023686522E+02 0.  0.
          2    1    6    6  501    0  0.34898234852E+02  0.60086265373E+02 -0.43977183622E+02  0.82232832625E+02  0.00000000000E+00 0. -1.
         -1    1    6    6    0  501  0.29740941828E+02  0.10976653649E+03 -0.22495278364E+03  0.25206541021E+03  0.00000000000E+00 0.  1.
          5    1    5    5  502    0  0.66077985675E+02  0.22520964912E+02 -0.22079963183E+02  0.73369672383E+02  0.47000000000E+01 0. -1.
         13    1    4    4    0    0 -0.11009960638E+03 -0.11277530374E+03 -0.30084957609E+03  0.33963312543E+03  0.00000000000E+00 0. -1.
        -14    1    4    4    0    0 -0.19665952409E+02  0.12827820323E+02 -0.55034945856E+02  0.59834337331E+02  0.00000000000E+00 0.  1.
         -5    1    3    3    0  504 -0.95160356517E+00 -0.92426283361E+02 -0.38594218421E+03  0.39688409260E+03  0.47000000000E+01 0.  1.
<mgrwt>
<rscale>  2 0.28856879E+03</rscale>
<asrwt>0</asrwt>
<pdfrwt beam="1">  1       21 0.13167910E-01 0.28960134E+03</pdfrwt>
<pdfrwt beam="2">  1       21 0.17206585E+00 0.28960134E+03</pdfrwt>
<totfact> 0.96151259E+03</totfact>
</mgrwt>
</event>
<event>
12    1  0.1410528E-001  0.1743589E+03  0.7546771E-02  0.1173830E+00
         21   -1    0    0  502  503  0.00000000000E+00  0.00000000000E+00  0.26516857896E+03  0.26516857896E+03  0.00000000000E+00 0.  1.
         21   -1    0    0  503  504 -0.00000000000E+00 -0.00000000000E+00 -0.16511880943E+03  0.16511880943E+03  0.00000000000E+00 0.  1.
         -6    2    1    2    0  504 -0.21279909946E+02 -0.10528878394E+02 -0.70114753031E+02  0.18792845124E+03  0.17273486141E+03 0.  0.
        -24    2    3    3    0    0 -0.22645488104E+02  0.52114427307E+02 -0.32809018391E+01  0.96195675101E+02  0.77550705518E+02 0.  0.
          6    2    1    2  502    0  0.21279909946E+02  0.10528878394E+02  0.17016452256E+03  0.24235893716E+03  0.17093331399E+03 0.  0.
         24    2    5    5    0    0 -0.44483944564E+02  0.28755554775E+02  0.13429143977E+03  0.16511863446E+03  0.80151540188E+02 0.  0.
          2    1    6    6  501    0 -0.67531166922E+02  0.17185058794E+02  0.89432724068E+02  0.11337546862E+03  0.00000000000E+00 0. -1.
         -1    1    6    6    0  501  0.23047222359E+02  0.11570495981E+02  0.44858715707E+02  0.51743165834E+02  0.00000000000E+00 0.  1.
          5    1    5    5  502    0  0.65763854510E+02 -0.18226676381E+02  0.35873082790E+02  0.77240302697E+02  0.47000000000E+01 0. -1.
         11    1    4    4    0    0 -0.10360697085E+02  0.39227608406E+02  0.35252227619E+02  0.53748198644E+02  0.00000000000E+00 0. -1.
        -12    1    4    4    0    0 -0.12284791020E+02  0.12886818901E+02 -0.38533129458E+02  0.42447476457E+02  0.00000000000E+00 0.  1.
         -5    1    3    3    0  504  0.13655781586E+01 -0.62643305702E+02 -0.66833851192E+02  0.91732776138E+02  0.47000000000E+01 0.  1.
<mgrwt>
<rscale>  2 0.17391102E+03</rscale>
<asrwt>0</asrwt>
<pdfrwt beam="1">  1       21 0.40795166E-01 0.17435889E+03</pdfrwt>
<pdfrwt beam="2">  1       21 0.25402894E-01 0.17435889E+03</pdfrwt>
<totfact> 0.85663968E+04</totfact>
</mgrwt>
</event>
<event>
12    1  0.1410528E-001  0.1771575E+03  0.7546771E-02  0.1170948E+00
         21   -1    0    0  502  503  0.00000000000E+00  0.00000000000E+00  0.90934850464E+03  0.90934850464E+03  0.00000000000E+00 0.  1.
         21   -1    0    0  503  504 -0.00000000000E+00 -0.00000000000E+00 -0.38001801937E+02  0.38001801937E+02  0.00000000000E+00 0.  1.
         -6    2    1    2    0  504 -0.33537603851E+02 -0.12202493467E+02  0.28803415056E+03  0.33815449062E+03  0.17352554833E+03 0.  0.
        -24    2    3    3    0    0 -0.69261656162E+02 -0.29438937752E+02  0.27460883565E+03  0.29601624190E+03  0.80943034161E+02 0.  0.
          6    2    1    2  502    0  0.33537603851E+02  0.12202493467E+02  0.58331255215E+03  0.60919581596E+03  0.17202423366E+03 0.  0.
         24    2    5    5    0    0  0.39600808790E+02  0.40911035358E+02  0.18152074675E+03  0.20630664048E+03  0.79816737180E+02 0.  0.
          2    1    6    6  501    0  0.13364830047E+02  0.19186190210E+02  0.18719791759E+01  0.23457043356E+02  0.00000000000E+00 0. -1.
         -1    1    6    6    0  501  0.26235978743E+02  0.21724845149E+02  0.17964876757E+03  0.18284959712E+03  0.00000000000E+00 0.  1.
          5    1    5    5  502    0 -0.60632049392E+01 -0.28708541891E+02  0.40179180540E+03  0.40288917548E+03  0.47000000000E+01 0. -1.
         13    1    4    4    0    0 -0.49881537770E+01  0.21849593442E+02  0.10701469128E+03  0.10933631859E+03  0.00000000000E+00 0. -1.
        -14    1    4    4    0    0 -0.64273502385E+02 -0.51288531194E+02  0.16759414437E+03  0.18667992331E+03  0.00000000000E+00 0.  1.
         -5    1    3    3    0  504  0.35724052311E+02  0.17236444284E+02  0.13425314901E+02  0.42138248721E+02  0.47000000000E+01 0.  1.
<mgrwt>
<rscale>  2 0.17678880E+03</rscale>
<asrwt>0</asrwt>
<pdfrwt beam="1">  1       21 0.13989975E+00 0.17715752E+03</pdfrwt>
<pdfrwt beam="2">  1       21 0.58464318E-02 0.17715752E+03</pdfrwt>
<totfact> 0.74466506E+04</totfact>
</mgrwt>
</event>
<event>
12    1  0.1410528E-001  0.6293244E+03  0.7546771E-02  0.9846840E-01
         21   -1    0    0  502  503  0.00000000000E+00  0.00000000000E+00  0.48965107385E+03  0.48965107385E+03  0.00000000000E+00 0.  1.
         21   -1    0    0  503  504 -0.00000000000E+00 -0.00000000000E+00 -0.13089394770E+04  0.13089394770E+04  0.00000000000E+00 0.  1.
         -6    2    1    2    0  504  0.26329551243E+03  0.54370118245E+03 -0.96639457903E+03  0.11532422594E+04  0.17639082699E+03 0.  0.
        -24    2    3    3    0    0  0.42360765586E+02  0.21462856155E+03 -0.35078675792E+03  0.42105646905E+03  0.79858291393E+02 0.  0.
          6    2    1    2  502    0 -0.26329551243E+03 -0.54370118245E+03  0.14710617591E+03  0.64534829142E+03  0.17291236968E+03 0.  0.
         24    2    5    5    0    0 -0.12501223267E+03 -0.31598063596E+03  0.19178549030E+02  0.34977007762E+03  0.80619289488E+02 0.  0.
          4    1    6    6  501    0 -0.37378331290E+02 -0.76051536230E+02 -0.29523408111E+02  0.89736321740E+02  0.00000000000E+00 0. -1.
         -3    1    6    6    0  501 -0.87633901378E+02 -0.23992909973E+03  0.48701957141E+02  0.26003375588E+03  0.00000000000E+00 0.  1.
          5    1    5    5  502    0 -0.13828327977E+03 -0.22772054648E+03  0.12792762688E+03  0.29557821380E+03  0.47000000000E+01 0. -1.
         13    1    4    4    0    0 -0.14550871738E+01  0.76269704891E+01 -0.65028150075E+02  0.65490062297E+02  0.00000000000E+00 0. -1.
        -14    1    4    4    0    0  0.43815852760E+02  0.20700159106E+03 -0.28575860785E+03  0.35556640676E+03  0.00000000000E+00 0.  1.
         -5    1    3    3    0  504  0.22093474685E+03  0.32907262090E+03 -0.61560782111E+03  0.73218579036E+03  0.47000000000E+01 0.  1.
<mgrwt>
<rscale>  2 0.62908276E+03</rscale>
<asrwt>0</asrwt>
<pdfrwt beam="1">  1       21 0.75330936E-01 0.62932442E+03</pdfrwt>
<pdfrwt beam="2">  1       21 0.20137530E+00 0.62932442E+03</pdfrwt>
<totfact> 0.15365236E+02</totfact>
</mgrwt>
</event>
<event>
12    1  0.1410528E-001  0.1774917E+03  0.7546771E-02  0.1170773E+00
         21   -1    0    0  502  503  0.00000000000E+00  0.00000000000E+00  0.21672767812E+04  0.21672767812E+04  0.00000000000E+00 0. -1.
         21   -1    0    0  503  504 -0.00000000000E+00 -0.00000000000E+00 -0.15871744120E+02  0.15871744120E+02  0.00000000000E+00 0. -1.
         -6    2    1    2    0  504  0.15737148411E+02 -0.33691498822E+02  0.14062776824E+04  0.14171732736E+04  0.17140709629E+03 0.  0.
        -24    2    3    3    0    0  0.46643937257E+02 -0.54287159546E+02  0.57372693117E+03  0.58378125655E+03  0.80716859256E+02 0.  0.
          6    2    1    2  502    0 -0.15737148411E+02  0.33691498822E+02  0.74512735473E+03  0.76597525170E+03  0.17355269089E+03 0.  0.
         24    2    5    5    0    0  0.25260281467E+02 -0.40205158485E+02  0.38456996487E+03  0.39561701081E+03  0.79776091453E+02 0.  0.
          2    1    6    6  501    0  0.40941581822E+02  0.27319467045E+00  0.27022996182E+03  0.27331395871E+03  0.00000000000E+00 0. -1.
         -1    1    6    6    0  501 -0.15681300355E+02 -0.40478353156E+02  0.11434000305E+03  0.12230305210E+03  0.00000000000E+00 0.  1.
          5    1    5    5  502    0 -0.40997429878E+02  0.73896657307E+02  0.36055738986E+03  0.37035824089E+03  0.47000000000E+01 0. -1.
         13    1    4    4    0    0  0.27459296748E+02 -0.46701023566E+02  0.54860807969E+03  0.55127654011E+03  0.00000000000E+00 0. -1.
        -14    1    4    4    0    0  0.19184640509E+02 -0.75861359801E+01  0.25118851487E+02  0.32504716436E+02  0.00000000000E+00 0.  1.
         -5    1    3    3    0  504 -0.30906788846E+02  0.20595660724E+02  0.83255075119E+03  0.83339201709E+03  0.47000000000E+01 0.  1.
<mgrwt>
<rscale>  2 0.17696503E+03</rscale>
<asrwt>0</asrwt>
<pdfrwt beam="1">  1       21 0.33342696E+00 0.17749172E+03</pdfrwt>
<pdfrwt beam="2">  1       21 0.24418085E-02 0.17749172E+03</pdfrwt>
<totfact> 0.19762266E+04</totfact>
</mgrwt>
</event>
<event>
12    1  0.1410528E-001  0.2565414E+03  0.7546771E-02  0.1110426E+00
         21   -1    0    0  502  503  0.00000000000E+00  0.00000000000E+00  0.60478971945E+03  0.60478971945E+03  0.00000000000E+00 0.  1.
         21   -1    0    0  503  504 -0.00000000000E+00 -0.00000000000E+00 -0.13920334179E+03  0.13920334179E+03  0.00000000000E+00 0.  1.
         -6    2    1    2    0  504 -0.17829433378E+03  0.61410193860E+02  0.47375388918E+02  0.25336702988E+03  0.16245104797E+03 0.  0.
        -24    2    3    3    0    0 -0.63025500855E+02 -0.43382046499E+01  0.62018249990E+02  0.11977713830E+03  0.80680020763E+02 0.  0.
          6    2    1    2  502    0  0.17829433378E+03 -0.61410193860E+02  0.41821098874E+03  0.49062603136E+03  0.17393501711E+03 0.  0.
         24    2    5    5    0    0  0.13747796468E+03 -0.97325793063E+02  0.24190613866E+03  0.30606873290E+03  0.82383181355E+02 0.  0.
          2    1    6    6  501    0  0.14283608550E+01 -0.15215148361E+02 -0.15293847132E+01  0.15358384419E+02  0.00000000000E+00 0. -1.
         -1    1    6    6    0  501  0.13604960383E+03 -0.82110644703E+02  0.24343552337E+03  0.29071034848E+03  0.00000000000E+00 0.  1.
          5    1    5    5  502    0  0.40816369098E+02  0.35915599204E+02  0.17630485009E+03  0.18455729847E+03  0.47000000000E+01 0. -1.
         13    1    4    4    0    0  0.12475795027E+02 -0.87523333196E+01 -0.75584609159E+01  0.17011147272E+02  0.00000000000E+00 0. -1.
        -14    1    4    4    0    0 -0.75501295882E+02  0.44141286697E+01  0.69576710906E+02  0.10276599103E+03  0.00000000000E+00 0.  1.
         -5    1    3    3    0  504 -0.11526883293E+03  0.65748398509E+02 -0.14642861072E+02  0.13358989158E+03  0.47000000000E+01 0.  1.
<mgrwt>
<rscale>  2 0.25460890E+03</rscale>
<asrwt>0</asrwt>
<pdfrwt beam="1">  1       21 0.93044570E-01 0.25654136E+03</pdfrwt>
<pdfrwt beam="2">  1       21 0.21415899E-01 0.25654136E+03</pdfrwt>
<totfact> 0.19056969E+04</totfact>
</mgrwt>
</event>
<event>
12    1  0.1410528E-001  0.2599590E+03  0.7546771E-02  0.1107236E+00
         21   -1    0    0  502  503  0.00000000000E+00  0.00000000000E+00  0.36544473420E+02  0.36544473420E+02  0.00000000000E+00 0. -1.
         21   -1    0    0  503  504 -0.00000000000E+00 -0.00000000000E+00 -0.18612633070E+04  0.18612633070E+04  0.00000000000E+00 0.  1.
         -6    2    1    2    0  504 -0.16458687326E+03  0.10219946457E+03 -0.99907976610E+03  0.10323463984E+04  0.17333533351E+03 0.  0.
        -24    2    3    3    0    0 -0.13402447295E+03  0.53884178286E+02 -0.40939116054E+03  0.43987431574E+03  0.70867674575E+02 0.  0.
          6    2    1    2  502    0  0.16458687326E+03 -0.10219946457E+03 -0.82563906750E+03  0.86546138205E+03  0.17265562435E+03 0.  0.
         24    2    5    5    0    0  0.74269289927E+02 -0.59420854762E+02 -0.66662419101E+03  0.67759149020E+03  0.75469531237E+02 0.  0.
          4    1    6    6  501    0  0.16175954442E+02  0.12346149388E+02 -0.48303383560E+02  0.52414747641E+02  0.00000000000E+00 0. -1.
         -3    1    6    6    0  501  0.58093335485E+02 -0.71767004150E+02 -0.61832080745E+03  0.62517674256E+03  0.00000000000E+00 0.  1.
          5    1    5    5  502    0  0.90317583331E+02 -0.42778609808E+02 -0.15901487649E+03  0.18786989184E+03  0.47000000000E+01 0. -1.
         13    1    4    4    0    0 -0.41122874448E+02  0.29322712059E+02 -0.64929526916E+02  0.82260292432E+02  0.00000000000E+00 0. -1.
        -14    1    4    4    0    0 -0.92901598502E+02  0.24561466227E+02 -0.34446163363E+03  0.35761402331E+03  0.00000000000E+00 0.  1.
         -5    1    3    3    0  504 -0.30562400308E+02  0.48315286284E+02 -0.58968860555E+03  0.59247208265E+03  0.47000000000E+01 0.  1.
<mgrwt>
<rscale>  2 0.25984579E+03</rscale>
<asrwt>0</asrwt>
<pdfrwt beam="1">  1       21 0.56222252E-02 0.25995905E+03</pdfrwt>
<pdfrwt beam="2">  1       21 0.28634828E+00 0.25995905E+03</pdfrwt>
<totfact> 0.84719506E+03</totfact>
</mgrwt>
</event>
<event>
12    1  0.1410528E-001  0.2846933E+03  0.7546771E-02  0.1093203E+00
         21   -1    0    0  502  503  0.00000000000E+00  0.00000000000E+00  0.16566339031E+04  0.16566339031E+04  0.00000000000E+00 0. -1.
         21   -1    0    0  503  504 -0.00000000000E+00 -0.00000000000E+00 -0.13609128639E+03  0.13609128639E+03  0.00000000000E+00 0.  1.
         -6    2    1    2    0  504  0.19085272165E+02 -0.22556611608E+03  0.42452445644E+02  0.28746745624E+03  0.17202037065E+03 0.  0.
        -24    2    3    3    0    0  0.20965938637E+02 -0.13146020310E+03  0.90880149911E+02  0.18151089766E+03  0.83460462140E+02 0.  0.
          6    2    1    2  502    0 -0.19085272165E+02  0.22556611608E+03  0.14780901711E+04  0.15052577333E+04  0.17264405403E+03 0.  0.
         24    2    5    5    0    0  0.39980930254E+02  0.11609977963E+03  0.10210034492E+04  0.10315256820E+04  0.80743765883E+02 0.  0.
          2    1    6    6  501    0 -0.12672028595E+01 -0.65848694461E+01  0.22242096575E+03  0.22252202658E+03  0.00000000000E+00 0. -1.
         -1    1    6    6    0  501  0.41248133113E+02  0.12268464908E+03  0.79858248343E+03  0.80900365540E+03  0.00000000000E+00 0.  1.
          5    1    5    5  502    0 -0.59066202419E+02  0.10946633645E+03  0.45708672189E+03  0.47373205128E+03  0.47000000000E+01 0. -1.
         13    1    4    4    0    0  0.21630453073E+02 -0.26832090364E+01  0.34775030523E+02  0.41041184909E+02  0.00000000000E+00 0. -1.
        -14    1    4    4    0    0 -0.66451443608E+00 -0.12877699407E+03  0.56105119388E+02  0.14046971276E+03  0.00000000000E+00 0.  1.
         -5    1    3    3    0  504 -0.18806664724E+01 -0.94105912981E+02 -0.48427704267E+02  0.10595655857E+03  0.47000000000E+01 0.  1.
<mgrwt>
<rscale>  2 0.28459883E+03</rscale>
<asrwt>0</asrwt>
<pdfrwt beam="1">  1       21 0.25486674E+00 0.28469333E+03</pdfrwt>
<pdfrwt beam="2">  1       21 0.20937122E-01 0.28469333E+03</pdfrwt>
<totfact> 0.12026900E+03</totfact>
</mgrwt>
</event>
<event>
12    1  0.1410528E-001  0.2527199E+03  0.7546771E-02  0.1111724E+00
         21   -1    0    0  502  503  0.00000000000E+00  0.00000000000E+00  0.76861526473E+02  0.76861526473E+02  0.00000000000E+00 0.  1.
         21   -1    0    0  503  504 -0.00000000000E+00 -0.00000000000E+00 -0.83245758016E+03  0.83245758016E+03  0.00000000000E+00 0. -1.
         -6    2    1    2    0  504 -0.63075323455E+01 -0.18459957376E+03 -0.34617447523E+03  0.42860720338E+03  0.17248356413E+03 0.  0.
        -24    2    3    3    0    0 -0.61419851556E+02 -0.12036484139E+03 -0.16434286499E+03  0.22798743104E+03  0.81912137272E+02 0.  0.
          6    2    1    2  502    0  0.63075323455E+01  0.18459957376E+03 -0.40942157846E+03  0.48071190325E+03  0.17129249085E+03 0.  0.
         24    2    5    5    0    0 -0.36711475835E+02  0.11734125485E+03 -0.35341978426E+03  0.38307683025E+03  0.82009825117E+02 0.  0.
          4    1    6    6  501    0 -0.43381840461E+02  0.70311082292E+02 -0.12545065067E+03  0.15021151130E+03  0.00000000000E+00 0. -1.
         -3    1    6    6    0  501  0.66703646261E+01  0.47030172563E+02 -0.22796913359E+03  0.23286531894E+03  0.00000000000E+00 0.  1.
          5    1    5    5  502    0  0.43019008180E+02  0.67258318907E+02 -0.56001794199E+02  0.97635073004E+02  0.47000000000E+01 0. -1.
         13    1    4    4    0    0 -0.36608419626E+02 -0.37943203722E+02 -0.13680055442E+02  0.54470239702E+02  0.00000000000E+00 0. -1.
        -14    1    4    4    0    0 -0.24811431930E+02 -0.82421637666E+02 -0.15066280954E+03  0.17351719134E+03  0.00000000000E+00 0.  1.
         -5    1    3    3    0  504  0.55112319211E+02 -0.64234732373E+02 -0.18183161024E+03  0.20061977234E+03  0.47000000000E+01 0.  1.
<mgrwt>
<rscale>  2 0.25251684E+03</rscale>
<asrwt>0</asrwt>
<pdfrwt beam="1">  1       21 0.11824850E-01 0.25271994E+03</pdfrwt>
<pdfrwt beam="2">  1       21 0.12807040E+00 0.25271994E+03</pdfrwt>
<totfact> 0.26153439E+04</totfact>
</mgrwt>
</event>
<event>
12    1  0.1410528E-001  0.2077247E+03  0.7546771E-02  0.1143666E+00
         21   -1    0    0  502  503  0.00000000000E+00  0.00000000000E+00  0.57286214372E+03  0.57286214372E+03  0.00000000000E+00 0. -1.
         21   -1    0    0  503  504 -0.00000000000E+00 -0.00000000000E+00 -0.10702223246E+03  0.10702223246E+03  0.00000000000E+00 0. -1.
         -6    2    1    2    0  504 -0.49529628295E+02  0.10190747041E+03  0.45866522862E+02  0.21134708919E+03  0.17241095552E+03 0.  0.
        -24    2    3    3    0    0 -0.31581596722E+02  0.31693074025E+02  0.88803904703E+02  0.12697942917E+03  0.78967042178E+02 0.  0.
          6    2    1    2  502    0  0.49529628295E+02 -0.10190747041E+03  0.41997338839E+03  0.46853728699E+03  0.17410119397E+03 0.  0.
         24    2    5    5    0    0  0.71492291182E+02 -0.89587474988E+01  0.18198279704E+03  0.21205447037E+03  0.81596281343E+02 0.  0.
          4    1    6    6  501    0  0.60901860478E+01  0.46092667872E+01 -0.77660115694E+01  0.10892503941E+02  0.00000000000E+00 0. -1.
         -3    1    6    6    0  501  0.65402105134E+02 -0.13568014286E+02  0.18974880861E+03  0.20116196643E+03  0.00000000000E+00 0.  1.
          5    1    5    5  502    0 -0.21962662887E+02 -0.92948722911E+02  0.23799059135E+03  0.25648281662E+03  0.47000000000E+01 0. -1.
         11    1    4    4    0    0  0.25901351323E+02  0.11602716958E+02  0.39445247241E+02  0.48594552895E+02  0.00000000000E+00 0. -1.
        -12    1    4    4    0    0 -0.57482948044E+02  0.20090357067E+02  0.49358657462E+02  0.78384876279E+02  0.00000000000E+00 0.  1.
         -5    1    3    3    0  504 -0.17948031573E+02  0.70214396385E+02 -0.42937381841E+02  0.84367660015E+02  0.47000000000E+01 0.  1.
<mgrwt>
<rscale>  2 0.20737013E+03</rscale>
<asrwt>0</asrwt>
<pdfrwt beam="1">  1       21 0.88132635E-01 0.20772468E+03</pdfrwt>
<pdfrwt beam="2">  1       21 0.16464959E-01 0.20772468E+03</pdfrwt>
<totfact> 0.36187590E+04</totfact>
</mgrwt>
</event>
<event>
12    1  0.1410528E-001  0.2053996E+03  0.7546771E-02  0.1145382E+00
         21   -1    0    0  502  503  0.00000000000E+00  0.00000000000E+00  0.18641303466E+03  0.18641303466E+03  0.00000000000E+00 0.  1.
         21   -1    0    0  503  504 -0.00000000000E+00 -0.00000000000E+00 -0.32314819999E+03  0.32314819999E+03  0.00000000000E+00 0.  1.
         -6    2    1    2    0  504  0.49547556653E+02  0.99073571003E+02 -0.20823133458E+03  0.29207402557E+03  0.17226843841E+03 0.  0.
        -24    2    3    3    0    0  0.37648061502E+02 -0.13998407992E+02 -0.66030057769E+02  0.10994724680E+03  0.78199083046E+02 0.  0.
          6    2    1    2  502    0 -0.49547556653E+02 -0.99073571003E+02  0.71496169246E+02  0.21748720907E+03  0.17296950902E+03 0.  0.
         24    2    5    5    0    0  0.33953761427E+02 -0.19235099811E+02  0.32324328437E+02  0.95408649465E+02  0.80839972811E+02 0.  0.
          2    1    6    6  501    0  0.36230037677E+02 -0.38434822441E+02 -0.53232983572E+01  0.53086615182E+02  0.00000000000E+00 0. -1.
         -1    1    6    6    0  501 -0.22762762497E+01  0.19199722630E+02  0.37647626794E+02  0.42322034283E+02  0.00000000000E+00 0.  1.
          5    1    5    5  502    0 -0.83501318081E+02 -0.79838471192E+02  0.39171840809E+02  0.12207855961E+03  0.47000000000E+01 0. -1.
         13    1    4    4    0    0  0.57785084073E+02  0.38456179319E+01 -0.30725147847E+02  0.65558671653E+02  0.00000000000E+00 0. -1.
        -14    1    4    4    0    0 -0.20137022571E+02 -0.17844025924E+02 -0.35304909922E+02  0.44388575150E+02  0.00000000000E+00 0.  1.
         -5    1    3    3    0  504  0.11899495151E+02  0.11307197899E+03 -0.14220127681E+03  0.18212677877E+03  0.47000000000E+01 0.  1.
<mgrwt>
<rscale>  2 0.20525190E+03</rscale>
<asrwt>0</asrwt>
<pdfrwt beam="1">  1       21 0.28678928E-01 0.20539957E+03</pdfrwt>
<pdfrwt beam="2">  1       21 0.49715108E-01 0.20539957E+03</pdfrwt>
<totfact> 0.44564996E+04</totfact>
</mgrwt>
</event>
<event>
12    1  0.1410528E-001  0.1779703E+03  0.7546771E-02  0.1171408E+00
         21   -1    0    0  502  503  0.00000000000E+00  0.00000000000E+00  0.20112773286E+03  0.20112773286E+03  0.00000000000E+00 0. -1.
         21   -1    0    0  503  504 -0.00000000000E+00 -0.00000000000E+00 -0.27805885273E+03  0.27805885273E+03  0.00000000000E+00 0. -1.
         -6    2    1    2    0  504 -0.17232831404E+02  0.12280950303E+02 -0.20029791273E+03  0.26794155395E+03  0.17670775384E+03 0.  0.
        -24    2    3    3    0    0 -0.33064414997E+02  0.77479200613E+01 -0.23033188755E+02  0.89851521186E+02  0.79934237163E+02 0.  0.
          6    2    1    2  502    0  0.17232831404E+02 -0.12280950303E+02  0.12336679286E+03  0.21124503164E+03  0.17016846240E+03 0.  0.
         24    2    5    5    0    0 -0.89358681909E+01  0.58197693327E+02  0.71793168938E+02  0.11995445858E+03  0.75947296055E+02 0.  0.
          2    1    6    6  501    0 -0.17733607495E+02  0.14727256991E+02 -0.11370500976E+02  0.25703331023E+02  0.00000000000E+00 0. -1.
         -1    1    6    6    0  501  0.87977393043E+01  0.43470436336E+02  0.83163669913E+02  0.94251127556E+02  0.00000000000E+00 0.  1.
          5    1    5    5  502    0  0.26168699594E+02 -0.70478643630E+02  0.51573623918E+02  0.91290573065E+02  0.47000000000E+01 0. -1.
         11    1    4    4    0    0 -0.38790682466E+02 -0.17198943240E+01 -0.48474407697E+02  0.62108318962E+02  0.00000000000E+00 0. -1.
        -12    1    4    4    0    0  0.57262674691E+01  0.94678143853E+01  0.25441218942E+02  0.27743202224E+02  0.00000000000E+00 0.  1.
         -5    1    3    3    0  504  0.15831583594E+02  0.45330302422E+01 -0.17726472398E+03  0.17809003276E+03  0.47000000000E+01 0.  1.
<mgrwt>
<rscale>  2 0.17632482E+03</rscale>
<asrwt>0</asrwt>
<pdfrwt beam="1">  1       21 0.30942728E-01 0.17797029E+03</pdfrwt>
<pdfrwt beam="2">  1       21 0.42778285E-01 0.17797029E+03</pdfrwt>
<totfact> 0.53085558E+04</totfact>
</mgrwt>
</event>
<event>
12    1  0.1410528E-001  0.1920457E+03  0.7546771E-02  0.1157154E+00
         21   -1    0    0  502  503  0.00000000000E+00  0.00000000000E+00  0.12528773135E+04  0.12528773135E+04  0.00000000000E+00 0.  1.
         21   -1    0    0  503  504 -0.00000000000E+00 -0.00000000000E+00 -0.32755281636E+02  0.32755281636E+02  0.00000000000E+00 0.  1.
         -6    2    1    2    0  504  0.62947511445E+02 -0.43723629557E+02  0.39803832566E+03  0.44194574415E+03  0.17608914533E+03 0.  0.
        -24    2    3    3    0    0  0.85373472632E+02  0.23767548643E+02  0.22370476075E+03  0.25360492350E+03  0.80113114055E+02 0.  0.
          6    2    1    2  502    0 -0.62947511445E+02  0.43723629557E+02  0.82208370619E+03  0.84368685096E+03  0.17352733945E+03 0.  0.
         24    2    5    5    0    0 -0.71507951664E+02  0.81336919493E+02  0.76198335675E+03  0.77211742510E+03  0.61786734438E+02 0.  0.
          4    1    6    6  501    0 -0.37230449230E+02  0.51250268531E+02  0.24254563036E+03  0.25068123021E+03  0.00000000000E+00 0. -1.
         -3    1    6    6    0  501 -0.34277502434E+02  0.30086650962E+02  0.51943772639E+03  0.52143619488E+03  0.00000000000E+00 0.  1.
          5    1    5    5  502    0  0.85604402194E+01 -0.37613289936E+02  0.60100349438E+02  0.71569425868E+02  0.47000000000E+01 0. -1.
         13    1    4    4    0    0  0.66247324000E+02  0.43115888040E+02  0.20724652541E+03  0.22180804772E+03  0.00000000000E+00 0. -1.
        -14    1    4    4    0    0  0.19126148633E+02 -0.19348339397E+02  0.16458235341E+02  0.31796875782E+02  0.00000000000E+00 0.  1.
         -5    1    3    3    0  504 -0.22425961188E+02 -0.67491178201E+02  0.17433356491E+03  0.18834082065E+03  0.47000000000E+01 0.  1.
<mgrwt>
<rscale>  2 0.19145640E+03</rscale>
<asrwt>0</asrwt>
<pdfrwt beam="1">  1       21 0.19275032E+00 0.19204565E+03</pdfrwt>
<pdfrwt beam="2">  1       21 0.50392751E-02 0.19204565E+03</pdfrwt>
<totfact> 0.39732005E+04</totfact>
</mgrwt>
</event>
<event>
12    1  0.1410528E-001  0.1772991E+03  0.7546771E-02  0.1170640E+00
         21   -1    0    0  502  503  0.00000000000E+00  0.00000000000E+00  0.45565705165E+02  0.45565705165E+02  0.00000000000E+00 0. -1.
         21   -1    0    0  503  504 -0.00000000000E+00 -0.00000000000E+00 -0.80422517486E+03  0.80422517486E+03  0.00000000000E+00 0. -1.
         -6    2    1    2    0  504 -0.34414317548E+02  0.62758955505E+00 -0.21623206599E+03  0.27912245533E+03  0.17311354536E+03 0.  0.
        -24    2    3    3    0    0 -0.44093328959E+02  0.60908298954E+02 -0.10492425040E+03  0.15208322124E+03  0.80412469924E+02 0.  0.
          6    2    1    2  502    0  0.34414317548E+02 -0.62758955505E+00 -0.54242740370E+03  0.57066842469E+03  0.17392591393E+03 0.  0.
         24    2    5    5    0    0  0.86748567267E+02  0.78684041911E+00 -0.29781204238E+03  0.32046922546E+03  0.80514463518E+02 0.  0.
          4    1    6    6  501    0  0.77644144430E+01  0.32245441380E+02 -0.91529444745E+02  0.97353448201E+02  0.00000000000E+00 0. -1.
         -3    1    6    6    0  501  0.78984152824E+02 -0.31458600961E+02 -0.20628259764E+03  0.22311577726E+03  0.00000000000E+00 0.  1.
          5    1    5    5  502    0 -0.52334249719E+02 -0.14144299742E+01 -0.24461536131E+03  0.25019919923E+03  0.47000000000E+01 0. -1.
         11    1    4    4    0    0  0.65976486969E+01  0.33261841866E+02 -0.18768019560E+01  0.33961764946E+02  0.00000000000E+00 0. -1.
        -12    1    4    4    0    0 -0.50690977656E+02  0.27646457088E+02 -0.10304744844E+03  0.11812145629E+03  0.00000000000E+00 0.  1.
         -5    1    3    3    0  504  0.96790114114E+01 -0.60280709399E+02 -0.11130781560E+03  0.12703923410E+03  0.47000000000E+01 0.  1.
<mgrwt>
<rscale>  2 0.17709953E+03</rscale>
<asrwt>0</asrwt>
<pdfrwt beam="1">  1       21 0.70101087E-02 0.17729908E+03</pdfrwt>
<pdfrwt beam="2">  1       21 0.12372695E+00 0.17729908E+03</pdfrwt>
<totfact> 0.74386556E+04</totfact>
</mgrwt>
</event>
<event>
12    1  0.1410528E-001  0.2174471E+03  0.7546771E-02  0.1136047E+00
         21   -1    0    0  502  503  0.00000000000E+00  0.00000000000E+00  0.11055189713E+03  0.11055189713E+03  0.00000000000E+00 0. -1.
         21   -1    0    0  503  504 -0.00000000000E+00 -0.00000000000E+00 -0.71509150515E+03  0.71509150515E+03  0.00000000000E+00 0.  1.
         -6    2    1    2    0  504  0.62938982493E+02 -0.11326715858E+03 -0.56567418222E+03  0.60602847892E+03  0.17462093830E+03 0.  0.
        -24    2    3    3    0    0 -0.80209337588E+01 -0.53305325819E+02 -0.43308618008E+03  0.44406428715E+03  0.81997918305E+02 0.  0.
          6    2    1    2  502    0 -0.62938982493E+02  0.11326715858E+03 -0.38865425804E+02  0.21961492337E+03  0.17300123847E+03 0.  0.
         24    2    5    5    0    0 -0.24383791095E+01 -0.69614576174E+01 -0.25806417309E+02  0.84308342351E+02  0.79921948367E+02 0.  0.
          4    1    6    6  501    0 -0.30974647955E+02  0.18039025006E+02 -0.29179674274E+02  0.46220002487E+02  0.00000000000E+00 0. -1.
         -3    1    6    6    0  501  0.28536268846E+02 -0.25000482624E+02  0.33732569647E+01  0.38088339864E+02  0.00000000000E+00 0.  1.
          5    1    5    5  502    0 -0.60500603383E+02  0.12022861620E+03 -0.13059008495E+02  0.13530658101E+03  0.47000000000E+01 0. -1.
         11    1    4    4    0    0 -0.40606202526E+02 -0.44383712774E+02 -0.21043469098E+03  0.21886419719E+03  0.00000000000E+00 0. -1.
        -12    1    4    4    0    0  0.32585268768E+02 -0.89216130455E+01 -0.22265148910E+03  0.22520008996E+03  0.00000000000E+00 0.  1.
         -5    1    3    3    0  504  0.70959916252E+02 -0.59961832762E+02 -0.13258800214E+03  0.16196419177E+03  0.47000000000E+01 0.  1.
<mgrwt>
<rscale>  2 0.21712172E+03</rscale>
<asrwt>0</asrwt>
<pdfrwt beam="1">  1       21 0.17007984E-01 0.21744709E+03</pdfrwt>
<pdfrwt beam="2">  1       21 0.11001408E+00 0.21744709E+03</pdfrwt>
<totfact> 0.20043995E+04</totfact>
</mgrwt>
</event>
<event>
12    1  0.1410528E-001  0.1937406E+03  0.7546771E-02  0.1155310E+00
         21   -1    0    0  502  503  0.00000000000E+00  0.00000000000E+00  0.58361894415E+02  0.58361894415E+02  0.00000000000E+00 0. -1.
         21   -1    0    0  503  504 -0.00000000000E+00 -0.00000000000E+00 -0.12617727344E+04  0.12617727344E+04  0.00000000000E+00 0. -1.
         -6    2    1    2    0  504 -0.87343472441E+02  0.12570464024E+02 -0.10655388517E+04  0.10830089907E+04  0.17247762381E+03 0.  0.
        -24    2    3    3    0    0 -0.72204289817E+02  0.17484627586E+02 -0.10597497728E+04  0.10654320942E+04  0.80974038086E+02 0.  0.
          6    2    1    2  502    0  0.87343472441E+02 -0.12570464024E+02 -0.13787198836E+03  0.23712563818E+03  0.17156043940E+03 0.  0.
         24    2    5    5    0    0  0.65452889770E+02  0.40422378705E+02 -0.13907400033E+03  0.17958457613E+03  0.83612157820E+02 0.  0.
          4    1    6    6  501    0  0.59788997880E+02 -0.82390177272E+01 -0.51956316965E+02  0.79637080265E+02  0.00000000000E+00 0. -1.
         -3    1    6    6    0  501  0.56638918895E+01  0.48661396432E+02 -0.87117683364E+02  0.99947495860E+02  0.00000000000E+00 0.  1.
          5    1    5    5  502    0  0.21890582671E+02 -0.52992842728E+02  0.12020119728E+01  0.57541062059E+02  0.47000000000E+01 0. -1.
         13    1    4    4    0    0 -0.76072620402E+02  0.32387053103E+02 -0.62943995378E+03  0.63484692659E+03  0.00000000000E+00 0. -1.
        -14    1    4    4    0    0  0.38683305859E+01 -0.14902425517E+02 -0.43030981900E+03  0.43058516765E+03  0.00000000000E+00 0.  1.
         -5    1    3    3    0  504 -0.15139182625E+02 -0.49141635627E+01 -0.57890788905E+01  0.17576896440E+02  0.47000000000E+01 0.  1.
<mgrwt>
<rscale>  2 0.19353628E+03</rscale>
<asrwt>0</asrwt>
<pdfrwt beam="1">  1       21 0.89787533E-02 0.19374062E+03</pdfrwt>
<pdfrwt beam="2">  1       21 0.19411888E+00 0.19374062E+03</pdfrwt>
<totfact> 0.14364551E+04</totfact>
</mgrwt>
</event>
<event>
12    1  0.1410528E-001  0.1864554E+03  0.7546771E-02  0.1161991E+00
         21   -1    0    0  502  503  0.00000000000E+00  0.00000000000E+00  0.49898887465E+02  0.49898887465E+02  0.00000000000E+00 0. -1.
         21   -1    0    0  503  504 -0.00000000000E+00 -0.00000000000E+00 -0.72967472397E+03  0.72967472397E+03  0.00000000000E+00 0. -1.
         -6    2    1    2    0  504 -0.54586096813E+02 -0.37160903823E+02 -0.42955909208E+03  0.46828048895E+03  0.17437037591E+03 0.  0.
        -24    2    3    3    0    0 -0.54532694398E+02 -0.89514709363E+02 -0.33596186068E+03  0.36093312972E+03  0.80097779912E+02 0.  0.
          6    2    1    2  502    0  0.54586096813E+02  0.37160903823E+02 -0.25021674442E+03  0.31129312249E+03  0.17301564722E+03 0.  0.
         24    2    5    5    0    0  0.63601638667E+02 -0.23173046875E+02 -0.86059725581E+02  0.13610441727E+03  0.80845392515E+02 0.  0.
          2    1    6    6  501    0  0.33800132963E+02 -0.23285441303E+02  0.40027092153E+01  0.41239331300E+02  0.00000000000E+00 0. -1.
         -1    1    6    6    0  501  0.29801505703E+02  0.11239442862E+00 -0.90062434796E+02  0.94865085970E+02  0.00000000000E+00 0.  1.
          5    1    5    5  502    0 -0.90155418538E+01  0.60333950698E+02 -0.16415701884E+03  0.17518870522E+03  0.47000000000E+01 0. -1.
         13    1    4    4    0    0 -0.59593601451E+01 -0.80620672685E+02 -0.23554237049E+03  0.24902894437E+03  0.00000000000E+00 0. -1.
        -14    1    4    4    0    0 -0.48573334253E+02 -0.88940366783E+01 -0.10041949019E+03  0.11190418535E+03  0.00000000000E+00 0.  1.
         -5    1    3    3    0  504 -0.53402414648E-01  0.52353805540E+02 -0.93597231406E+02  0.10734735923E+03  0.47000000000E+01 0.  1.
<mgrwt>
<rscale>  2 0.18613798E+03</rscale>
<asrwt>0</asrwt>
<pdfrwt beam="1">  1       21 0.76767525E-02 0.18645536E+03</pdfrwt>
<pdfrwt beam="2">  1       21 0.11225764E+00 0.18645536E+03</pdfrwt>
<totfact> 0.80377485E+04</totfact>
</mgrwt>
</event>
<event>
12    1  0.1410528E-001  0.2150134E+03  0.7546771E-02  0.1137705E+00
         21   -1    0    0  502  503  0.00000000000E+00  0.00000000000E+00  0.11693278742E+03  0.11693278742E+03  0.00000000000E+00 0. -1.
         21   -1    0    0  503  504 -0.00000000000E+00 -0.00000000000E+00 -0.77869165669E+03  0.77869165669E+03  0.00000000000E+00 0. -1.
         -6    2    1    2    0  504  0.55228568701E+02 -0.11486521184E+03 -0.64536367544E+03  0.68023896795E+03  0.17316630232E+03 0.  0.
        -24    2    3    3    0    0  0.39871877759E+02 -0.64982679513E+02 -0.60286199100E+03  0.61276617219E+03  0.78913156830E+02 0.  0.
          6    2    1    2  502    0 -0.55228568701E+02  0.11486521184E+03 -0.16395193837E+02  0.21538547616E+03  0.17285221800E+03 0.  0.
         24    2    5    5    0    0 -0.69842349737E+02  0.89108237708E+02 -0.69165698691E+02  0.15469115604E+03  0.79543874913E+02 0.  0.
          2    1    6    6  501    0 -0.70595679403E+02  0.96792749457E+02 -0.42799896457E+02  0.12721799179E+03  0.00000000000E+00 0. -1.
         -1    1    6    6    0  501  0.75332966596E+00 -0.76845117484E+01 -0.26365802234E+02  0.27473164249E+02  0.00000000000E+00 0.  1.
          5    1    5    5  502    0  0.14613781036E+02  0.25756974129E+02  0.52770504854E+02  0.60694320122E+02  0.47000000000E+01 0. -1.
         13    1    4    4    0    0  0.59962730037E+02 -0.25048912646E+02 -0.34913024472E+03  0.35512660390E+03  0.00000000000E+00 0. -1.
        -14    1    4    4    0    0 -0.20090852279E+02 -0.39933766868E+02 -0.25373174628E+03  0.25763956829E+03  0.00000000000E+00 0.  1.
         -5    1    3    3    0  504  0.15356690943E+02 -0.49882532324E+02 -0.42501684437E+02  0.67472795761E+02  0.47000000000E+01 0.  1.
<mgrwt>
<rscale>  2 0.21495019E+03</rscale>
<asrwt>0</asrwt>
<pdfrwt beam="1">  1       21 0.17989660E-01 0.21501344E+03</pdfrwt>
<pdfrwt beam="2">  1       21 0.11979872E+00 0.21501344E+03</pdfrwt>
<totfact> 0.14686040E+04</totfact>
</mgrwt>
</event>
<event>
12    1  0.1410528E-001  0.2602499E+03  0.7546771E-02  0.1107058E+00
         21   -1    0    0  502  503  0.00000000000E+00  0.00000000000E+00  0.18688399344E+04  0.18688399344E+04  0.00000000000E+00 0.  1.
         21   -1    0    0  503  504 -0.00000000000E+00 -0.00000000000E+00 -0.68160895788E+02  0.68160895788E+02  0.00000000000E+00 0.  1.
         -6    2    1    2    0  504  0.19344093660E+03 -0.95443309576E+01  0.23735052320E+03  0.35222900066E+03  0.17383759039E+03 0.  0.
        -24    2    3    3    0    0  0.91126243239E+02  0.48528708105E+02  0.17553256380E+03  0.21924657908E+03  0.81230251539E+02 0.  0.
          6    2    1    2  502    0 -0.19344093660E+03  0.95443309576E+01  0.15633285154E+04  0.15847718296E+04  0.17319126530E+03 0.  0.
         24    2    5    5    0    0 -0.14649716887E+03  0.71762994966E+02  0.11214113235E+04  0.11360093378E+04  0.79639884239E+02 0.  0.
          2    1    6    6  501    0 -0.26791463595E+02  0.53083981251E+02  0.42471175378E+03  0.42885401407E+03  0.00000000000E+00 0. -1.
         -1    1    6    6    0  501 -0.11970570527E+03  0.18679013716E+02  0.69669956971E+03  0.70715532372E+03  0.00000000000E+00 0.  1.
          5    1    5    5  502    0 -0.46943767738E+02 -0.62218664008E+02  0.44191719195E+03  0.44876249177E+03  0.47000000000E+01 0. -1.
         13    1    4    4    0    0  0.19978763932E+02  0.30501577900E+02  0.12481579805E+03  0.13003261401E+03  0.00000000000E+00 0. -1.
        -14    1    4    4    0    0  0.71147479307E+02  0.18027130205E+02  0.50716765751E+02  0.89213965070E+02  0.00000000000E+00 0.  1.
         -5    1    3    3    0  504  0.10231469337E+03 -0.58073039063E+02  0.61817959400E+02  0.13298242158E+03  0.47000000000E+01 0.  1.
<mgrwt>
<rscale>  2 0.26014199E+03</rscale>
<asrwt>0</asrwt>
<pdfrwt beam="1">  1       21 0.28751380E+00 0.26024988E+03</pdfrwt>
<pdfrwt beam="2">  1       21 0.10486293E-01 0.26024988E+03</pdfrwt>
<totfact> 0.28025531E+03</totfact>
</mgrwt>
</event>
<event>
12    1  0.1410528E-001  0.3412505E+03  0.7546771E-02  0.1066690E+00
         21   -1    0    0  502  503  0.00000000000E+00  0.00000000000E+00  0.35730891166E+03  0.35730891166E+03  0.00000000000E+00 0.  1.
         21   -1    0    0  503  504 -0.00000000000E+00 -0.00000000000E+00 -0.35922308240E+03  0.35922308240E+03  0.00000000000E+00 0.  1.
         -6    2    1    2    0  504 -0.20201953053E+02 -0.28911718823E+03  0.11418870412E+03  0.35984848344E+03  0.18015272257E+03 0.  0.
        -24    2    3    3    0    0  0.81768258298E+01 -0.44678084865E+02  0.28570007621E+02  0.99255924963E+02  0.83501506316E+02 0.  0.
          6    2    1    2  502    0  0.20201953053E+02  0.28911718823E+03 -0.11610287486E+03  0.35668351062E+03  0.17247139402E+03 0.  0.
         24    2    5    5    0    0 -0.65774519991E+01  0.29575530754E+03 -0.93137850763E+02  0.32048014758E+03  0.80736614609E+02 0.  0.
          4    1    6    6  501    0  0.71748910372E+00  0.69642152608E+02 -0.59819265259E+02  0.91808979444E+02  0.00000000000E+00 0. -1.
         -3    1    6    6    0  501 -0.72949411029E+01  0.22611315493E+03 -0.33318585504E+02  0.22867116814E+03  0.00000000000E+00 0.  1.
          5    1    5    5  502    0  0.26779405053E+02 -0.66381193082E+01 -0.22965024098E+02  0.36203363031E+02  0.47000000000E+01 0. -1.
         13    1    4    4    0    0 -0.12306241830E+02 -0.11412600594E+02  0.51356968095E+02  0.54029891839E+02  0.00000000000E+00 0. -1.
        -14    1    4    4    0    0  0.20483067659E+02 -0.33265484271E+02 -0.22786960473E+02  0.45226033124E+02  0.00000000000E+00 0.  1.
         -5    1    3    3    0  504 -0.28378778883E+02 -0.24443910337E+03  0.85618696498E+02  0.26059255848E+03  0.47000000000E+01 0.  1.
<mgrwt>
<rscale>  2 0.34024804E+03</rscale>
<asrwt>0</asrwt>
<pdfrwt beam="1">  1       21 0.54970602E-01 0.34125045E+03</pdfrwt>
<pdfrwt beam="2">  1       21 0.55265089E-01 0.34125045E+03</pdfrwt>
<totfact> 0.89082212E+03</totfact>
</mgrwt>
</event>
<event>
12    1  0.1410528E-001  0.1766914E+03  0.7546771E-02  0.1172283E+00
         21   -1    0    0  502  503  0.00000000000E+00  0.00000000000E+00  0.18552853887E+03  0.18552853887E+03  0.00000000000E+00 0. -1.
         21   -1    0    0  503  504 -0.00000000000E+00 -0.00000000000E+00 -0.18381814356E+03  0.18381814356E+03  0.00000000000E+00 0. -1.
         -6    2    1    2    0  504 -0.17315715915E+02  0.36682731477E+02 -0.60347265170E+02  0.18671276535E+03  0.17197211264E+03 0.  0.
        -24    2    3    3    0    0 -0.77405683585E+02  0.27491963084E+02 -0.41963098967E+02  0.12303119812E+03  0.81414532794E+02 0.  0.
          6    2    1    2  502    0  0.17315715915E+02 -0.36682731477E+02  0.62057660480E+02  0.18263391707E+03  0.16690877040E+03 0.  0.
         24    2    5    5    0    0  0.17330566017E+02 -0.40764246971E+02 -0.25607656119E+02  0.94747873110E+02  0.79745439100E+02 0.  0.
          4    1    6    6  501    0  0.10970261310E+02 -0.60596868379E+02 -0.36145681440E+02  0.71406143835E+02  0.00000000000E+00 0. -1.
         -3    1    6    6    0  501  0.63603047067E+01  0.19832621408E+02  0.10538025321E+02  0.23341729275E+02  0.00000000000E+00 0.  1.
          5    1    5    5  502    0 -0.14850101738E-01  0.40815154938E+01  0.87665316599E+02  0.87886043964E+02  0.47000000000E+01 0. -1.
         11    1    4    4    0    0 -0.27602695138E+02 -0.80931952440E+01 -0.53501003098E+02  0.60743443437E+02  0.00000000000E+00 0. -1.
        -12    1    4    4    0    0 -0.49802988447E+02  0.35585158328E+02  0.11537904131E+02  0.62287754681E+02  0.00000000000E+00 0.  1.
         -5    1    3    3    0  504  0.60089967670E+02  0.91907683930E+01 -0.18384166203E+02  0.63681567233E+02  0.47000000000E+01 0.  1.
<mgrwt>
<rscale>  2 0.17544732E+03</rscale>
<asrwt>0</asrwt>
<pdfrwt beam="1">  1       21 0.28542852E-01 0.17669144E+03</pdfrwt>
<pdfrwt beam="2">  1       21 0.28279714E-01 0.17669144E+03</pdfrwt>
<totfact> 0.14103919E+05</totfact>
</mgrwt>
</event>
<event>
12    1  0.1410528E-001  0.2903868E+03  0.7546771E-02  0.1090477E+00
         21   -1    0    0  502  503  0.00000000000E+00  0.00000000000E+00  0.87286060232E+02  0.87286060232E+02  0.00000000000E+00 0.  1.
         21   -1    0    0  503  504 -0.00000000000E+00 -0.00000000000E+00 -0.10415653139E+04  0.10415653139E+04  0.00000000000E+00 0. -1.
         -6    2    1    2    0  504  0.14956436030E+03 -0.17907915630E+03 -0.63536875377E+03  0.69754125216E+03  0.16861643782E+03 0.  0.
        -24    2    3    3    0    0  0.40723359131E+02 -0.32111613789E+02 -0.31036137231E+03  0.32458319810E+03  0.79627403221E+02 0.  0.
          6    2    1    2  502    0 -0.14956436030E+03  0.17907915630E+03 -0.31891049991E+03  0.43131012198E+03  0.17287473001E+03 0.  0.
         24    2    5    5    0    0 -0.13440273028E+03  0.20225301402E+03 -0.30971359203E+03  0.40175380589E+03  0.80704621125E+02 0.  0.
          4    1    6    6  501    0 -0.24709822181E+02  0.32946931225E+02 -0.11181021513E+03  0.11915368143E+03  0.00000000000E+00 0. -1.
         -3    1    6    6    0  501 -0.10969290810E+03  0.16930608280E+03 -0.19790337689E+03  0.28260012446E+03  0.00000000000E+00 0.  1.
          5    1    5    5  502    0 -0.15161630023E+02 -0.23173857717E+02 -0.91969078792E+01  0.29556316093E+02  0.47000000000E+01 0. -1.
         11    1    4    4    0    0  0.18354333373E+02 -0.41191337644E+02 -0.71689773457E+02  0.84693751062E+02  0.00000000000E+00 0. -1.
        -12    1    4    4    0    0  0.22369025757E+02  0.90797238549E+01 -0.23867159885E+03  0.23988944703E+03  0.00000000000E+00 0.  1.
         -5    1    3    3    0  504  0.10884100117E+03 -0.14696754252E+03 -0.32500738145E+03  0.37295805406E+03  0.47000000000E+01 0.  1.
<mgrwt>
<rscale>  2 0.28975610E+03</rscale>
<asrwt>0</asrwt>
<pdfrwt beam="1">  1       21 0.13428624E-01 0.29038684E+03</pdfrwt>
<pdfrwt beam="2">  1       21 0.16024083E+00 0.29038684E+03</pdfrwt>
<totfact> 0.11301244E+04</totfact>
</mgrwt>
</event>
<event>
12    1  0.1410528E-001  0.1839345E+03  0.7546771E-02  0.1165511E+00
         21   -1    0    0  502  503  0.00000000000E+00  0.00000000000E+00  0.13814282835E+03  0.13814282835E+03  0.00000000000E+00 0. -1.
         21   -1    0    0  503  504 -0.00000000000E+00 -0.00000000000E+00 -0.64097767079E+03  0.64097767079E+03  0.00000000000E+00 0. -1.
         -6    2    1    2    0  504 -0.42624329986E+02 -0.66474450109E+01 -0.55915877959E+03  0.58675549760E+03  0.17251797339E+03 0.  0.
        -24    2    3    3    0    0  0.40452111982E+02  0.12891864298E+02 -0.31909915611E+03  0.33193361345E+03  0.80951088800E+02 0.  0.
          6    2    1    2  502    0  0.42624329986E+02  0.66474450109E+01  0.56323937150E+02  0.19236500154E+03  0.17880404327E+03 0.  0.
         24    2    5    5    0    0 -0.43252009252E+02  0.22388248746E+02  0.44829705387E+02  0.10417925492E+03  0.80446533073E+02 0.  0.
          4    1    6    6  501    0 -0.42599189140E+02 -0.98887863866E+01  0.55059344530E+02  0.70313657505E+02  0.00000000000E+00 0. -1.
         -3    1    6    6    0  501 -0.65282011265E+00  0.32277035132E+02 -0.10229639143E+02  0.33865597412E+02  0.00000000000E+00 0.  1.
          5    1    5    5  502    0  0.85876339238E+02 -0.15740803735E+02  0.11494231763E+02  0.88185746620E+02  0.47000000000E+01 0. -1.
         13    1    4    4    0    0 -0.24239564229E+02 -0.29313932731E+01 -0.99902387094E+02  0.10284277557E+03  0.00000000000E+00 0. -1.
        -14    1    4    4    0    0  0.64691676212E+02  0.15823257571E+02 -0.21919676901E+03  0.22909083787E+03  0.00000000000E+00 0.  1.
         -5    1    3    3    0  504 -0.83076441968E+02 -0.19539309309E+02 -0.24005962348E+03  0.25482188416E+03  0.47000000000E+01 0.  1.
<mgrwt>
<rscale>  2 0.18238899E+03</rscale>
<asrwt>0</asrwt>
<pdfrwt beam="1">  1       21 0.21252743E-01 0.18393452E+03</pdfrwt>
<pdfrwt beam="2">  1       21 0.98611948E-01 0.18393452E+03</pdfrwt>
<totfact> 0.17576671E+04</totfact>
</mgrwt>
</event>
<event>
12    1  0.1410528E-001  0.1831810E+03  0.7546771E-02  0.1165062E+00
         21   -1    0    0  502  503  0.00000000000E+00  0.00000000000E+00  0.10783341802E+04  0.10783341802E+04  0.00000000000E+00 0.  1.
         21   -1    0    0  503  504 -0.00000000000E+00 -0.00000000000E+00 -0.40111193496E+02  0.40111193496E+02  0.00000000000E+00 0.  1.
         -6    2    1    2    0  504 -0.86196336698E+01  0.56255166505E+02  0.25254815301E+03  0.31198693489E+03  0.17411586978E+03 0.  0.
        -24    2    3    3    0    0  0.52500225045E+02 -0.46746124657E+01  0.10218388416E+03  0.13855228310E+03  0.77311469643E+02 0.  0.
          6    2    1    2  502    0  0.86196336698E+01 -0.56255166505E+02  0.78567483372E+03  0.80645843884E+03  0.17277536682E+03 0.  0.
         24    2    5    5    0    0  0.23284821306E+02 -0.10176013357E+03  0.53115813728E+03  0.54744761180E+03  0.81686064759E+02 0.  0.
          4    1    6    6  501    0  0.28884343772E+02 -0.52555836767E+02  0.12907489962E+03  0.14232621335E+03  0.00000000000E+00 0. -1.
         -3    1    6    6    0  501 -0.55995224664E+01 -0.49204296800E+02  0.40208323766E+03  0.40512139845E+03  0.00000000000E+00 0.  1.
          5    1    5    5  502    0 -0.14665187636E+02  0.45504967061E+02  0.25451669644E+03  0.25901082704E+03  0.47000000000E+01 0. -1.
         11    1    4    4    0    0  0.17936720816E+02 -0.69398436123E+00 -0.10379231178E+02  0.20734898306E+02  0.00000000000E+00 0. -1.
        -12    1    4    4    0    0  0.34563504229E+02 -0.39806281045E+01  0.11256311534E+03  0.11781738479E+03  0.00000000000E+00 0.  1.
         -5    1    3    3    0  504 -0.61119858715E+02  0.60929778971E+02  0.15036426885E+03  0.17343465179E+03  0.47000000000E+01 0.  1.
<mgrwt>
<rscale>  2 0.18286174E+03</rscale>
<asrwt>0</asrwt>
<pdfrwt beam="1">  1       21 0.16589754E+00 0.18318100E+03</pdfrwt>
<pdfrwt beam="2">  1       21 0.61709537E-02 0.18318100E+03</pdfrwt>
<totfact> 0.43119336E+04</totfact>
</mgrwt>
</event>
<event>
12    1  0.1410528E-001  0.1745690E+03  0.7546771E-02  0.1173963E+00
         21   -1    0    0  502  503  0.00000000000E+00  0.00000000000E+00  0.24895762257E+02  0.24895762257E+02  0.00000000000E+00 0.  1.
         21   -1    0    0  503  504 -0.00000000000E+00 -0.00000000000E+00 -0.14291795468E+04  0.14291795468E+04  0.00000000000E+00 0.  1.
         -6    2    1    2    0  504 -0.16105451824E+02 -0.19097760370E+02 -0.98653190711E+03  0.10013160388E+04  0.16960098975E+03 0.  0.
        -24    2    3    3    0    0  0.19751004909E+02  0.24845023437E+02 -0.83459875860E+03  0.83907416577E+03  0.80517019455E+02 0.  0.
          6    2    1    2  502    0  0.16105451824E+02  0.19097760370E+02 -0.41775187740E+03  0.45275927025E+03  0.17277214966E+03 0.  0.
         24    2    5    5    0    0 -0.14415198798E+01  0.70885380695E+02 -0.19216849954E+03  0.22059595662E+03  0.81896450973E+02 0.  0.
          2    1    6    6  501    0 -0.87026623077E+01  0.42341660251E+01  0.60040712415E+01  0.11389177523E+02  0.00000000000E+00 0. -1.
         -1    1    6    6    0  501  0.72611424279E+01  0.66651214670E+02 -0.19817257079E+03  0.20920677909E+03  0.00000000000E+00 0.  1.
          5    1    5    5  502    0  0.17546971704E+02 -0.51787620325E+02 -0.22558337786E+03  0.23216331364E+03  0.47000000000E+01 0. -1.
         13    1    4    4    0    0 -0.27082173322E+02  0.26281014049E+01 -0.14506180616E+03  0.14759159406E+03  0.00000000000E+00 0. -1.
        -14    1    4    4    0    0  0.46833178232E+02  0.22216922032E+02 -0.68953695244E+03  0.69148257172E+03  0.00000000000E+00 0.  1.
         -5    1    3    3    0  504 -0.35856456734E+02 -0.43942783807E+02 -0.15193314850E+03  0.16224187299E+03  0.47000000000E+01 0.  1.
<mgrwt>
<rscale>  2 0.17377915E+03</rscale>
<asrwt>0</asrwt>
<pdfrwt beam="1">  1       21 0.38301171E-02 0.17456897E+03</pdfrwt>
<pdfrwt beam="2">  1       21 0.21987378E+00 0.17456897E+03</pdfrwt>
<totfact> 0.43033458E+04</totfact>
</mgrwt>
</event>
<event>
12    1  0.1410528E-001  0.1932923E+03  0.7546771E-02  0.1155821E+00
         21   -1    0    0  502  503  0.00000000000E+00  0.00000000000E+00  0.11936297589E+03  0.11936297589E+03  0.00000000000E+00 0.  1.
         21   -1    0    0  503  504 -0.00000000000E+00 -0.00000000000E+00 -0.62184135021E+03  0.62184135021E+03  0.00000000000E+00 0.  1.
         -6    2    1    2    0  504  0.36294036656E+02  0.76524600715E+02 -0.51375872416E+03  0.54891705630E+03  0.17374877392E+03 0.  0.
        -24    2    3    3    0    0  0.91561691937E+02  0.37989904746E+02 -0.37495155084E+03  0.39455074561E+03  0.72490337887E+02 0.  0.
          6    2    1    2  502    0 -0.36294036656E+02 -0.76524600715E+02  0.11280349840E+02  0.19228726979E+03  0.17226106995E+03 0.  0.
         24    2    5    5    0    0 -0.49396649174E+02 -0.81735039385E+02  0.61958055855E+02  0.13947489422E+03  0.80584116429E+02 0.  0.
          2    1    6    6  501    0 -0.43297815191E+02 -0.12001677445E+02  0.52078452798E+02  0.68781584074E+02  0.00000000000E+00 0. -1.
         -1    1    6    6    0  501 -0.60988339832E+01 -0.69733361941E+02  0.98796030567E+01  0.70693310151E+02  0.00000000000E+00 0.  1.
          5    1    5    5  502    0  0.13102612519E+02  0.52104386699E+01 -0.50677706015E+02  0.52812375566E+02  0.47000000000E+01 0. -1.
         13    1    4    4    0    0  0.27053054302E+02  0.20711711697E+02 -0.37969277046E+02  0.51014789502E+02  0.00000000000E+00 0. -1.
        -14    1    4    4    0    0  0.64508637635E+02  0.17278193049E+02 -0.33698227379E+03  0.34353595610E+03  0.00000000000E+00 0.  1.
         -5    1    3    3    0  504 -0.55267655281E+02  0.38534695970E+02 -0.13880717332E+03  0.15436631070E+03  0.47000000000E+01 0.  1.
<mgrwt>
<rscale>  2 0.19295737E+03</rscale>
<asrwt>0</asrwt>
<pdfrwt beam="1">  1       21 0.18363535E-01 0.19329229E+03</pdfrwt>
<pdfrwt beam="2">  1       21 0.95667899E-01 0.19329229E+03</pdfrwt>
<totfact> 0.24647379E+04</totfact>
</mgrwt>
</event>
<event>
12    1  0.1410528E-001  0.1788298E+03  0.7546771E-02  0.1169755E+00
         21   -1    0    0  502  503  0.00000000000E+00  0.00000000000E+00  0.22654875094E+03  0.22654875094E+03  0.00000000000E+00 0. -1.
         21   -1    0    0  503  504 -0.00000000000E+00 -0.00000000000E+00 -0.36562614094E+03  0.36562614094E+03  0.00000000000E+00 0. -1.
         -6    2    1    2    0  504 -0.22275165637E+02  0.24116615123E+02 -0.30311174171E+03  0.35193300817E+03  0.17579055763E+03 0.  0.
        -24    2    3    3    0    0 -0.59222529950E+02  0.66789335512E+02 -0.16758556544E+03  0.20504698689E+03  0.77402982475E+02 0.  0.
          6    2    1    2  502    0  0.22275165637E+02 -0.24116615123E+02  0.16403435171E+03  0.24024188372E+03  0.17242708611E+03 0.  0.
         24    2    5    5    0    0  0.33361019436E+02 -0.50261466999E+02  0.17516022183E+03  0.20938212967E+03  0.97573563170E+02 0.  0.
          2    1    6    6  501    0  0.58020832321E+02 -0.54989269772E+02  0.88961922886E+02  0.11960125625E+03  0.00000000000E+00 0. -1.
         -1    1    6    6    0  501 -0.24659812884E+02  0.47278027730E+01  0.86198298943E+02  0.89780873415E+02  0.00000000000E+00 0.  1.
          5    1    5    5  502    0 -0.11085853799E+02  0.26144851876E+02 -0.11125870122E+02  0.30859754051E+02  0.47000000000E+01 0. -1.
         11    1    4    4    0    0 -0.71315242367E+01  0.49129795904E+02 -0.12797105395E+03  0.13726320022E+03  0.00000000000E+00 0. -1.
        -12    1    4    4    0    0 -0.52091005713E+02  0.17659539608E+02 -0.39614511491E+02  0.67783786675E+02  0.00000000000E+00 0.  1.
         -5    1    3    3    0  504  0.36947364313E+02 -0.42672720390E+02 -0.13552617626E+03  0.14688602128E+03  0.47000000000E+01 0.  1.
<mgrwt>
<rscale>  2 0.17799775E+03</rscale>
<asrwt>0</asrwt>
<pdfrwt beam="1">  1       21 0.34853654E-01 0.17882985E+03</pdfrwt>
<pdfrwt beam="2">  1       21 0.56250175E-01 0.17882985E+03</pdfrwt>
<totfact> 0.23787835E+04</totfact>
</mgrwt>
</event>
<event>
12    1  0.1410528E-001  0.1813123E+03  0.7546771E-02  0.1167394E+00
         21   -1    0    0  502  503  0.00000000000E+00  0.00000000000E+00  0.88957614806E+02  0.88957614806E+02  0.00000000000E+00 0. -1.
         21   -1    0    0  503  504 -0.00000000000E+00 -0.00000000000E+00 -0.60003568025E+03  0.60003568025E+03  0.00000000000E+00 0. -1.
         -6    2    1    2    0  504  0.13129578258E+02 -0.46850908718E+02 -0.47385358545E+03  0.50735723054E+03  0.17466180312E+03 0.  0.
        -24    2    3    3    0    0  0.25796713992E+02  0.32428533956E+02 -0.29821193836E+03  0.31417916618E+03  0.89783673429E+02 0.  0.
          6    2    1    2  502    0 -0.13129578258E+02  0.46850908718E+02 -0.37224479998E+02  0.18163606452E+03  0.17099299561E+03 0.  0.
         24    2    5    5    0    0 -0.68902059718E+02  0.18934899341E+02  0.83095031971E+00  0.10842282088E+03  0.81540133442E+02 0.  0.
          4    1    6    6  501    0 -0.46775278859E+02 -0.23621693827E+02  0.20916837436E+02  0.56421850554E+02  0.00000000000E+00 0. -1.
         -3    1    6    6    0  501 -0.22126780859E+02  0.42556593168E+02 -0.20085887116E+02  0.52000970322E+02  0.00000000000E+00 0.  1.
          5    1    5    5  502    0  0.55772481460E+02  0.27916009377E+02 -0.38055430318E+02  0.73213243641E+02  0.47000000000E+01 0. -1.
         11    1    4    4    0    0  0.32888476079E+01 -0.13705785219E+02 -0.22107235788E+03  0.22152122355E+03  0.00000000000E+00 0. -1.
        -12    1    4    4    0    0  0.22507866384E+02  0.46134319175E+02 -0.77139580483E+02  0.92657942628E+02  0.00000000000E+00 0.  1.
         -5    1    3    3    0  504 -0.12667135734E+02 -0.79279442674E+02 -0.17564164709E+03  0.19317806436E+03  0.47000000000E+01 0.  1.
<mgrwt>
<rscale>  2 0.18042287E+03</rscale>
<asrwt>0</asrwt>
<pdfrwt beam="1">  1       21 0.13685786E-01 0.18131227E+03</pdfrwt>
<pdfrwt beam="2">  1       21 0.92313186E-01 0.18131227E+03</pdfrwt>
<totfact> 0.46150330E+04</totfact>
</mgrwt>
</event>
<event>
12    1  0.1410528E-001  0.1896240E+03  0.7546771E-02  0.1159236E+00
         21   -1    0    0  502  503  0.00000000000E+00  0.00000000000E+00  0.70177493115E+02  0.70177493115E+02  0.00000000000E+00 0.  1.
         21   -1    0    0  503  504 -0.00000000000E+00 -0.00000000000E+00 -0.55716852648E+03  0.55716852648E+03  0.00000000000E+00 0.  1.
         -6    2    1    2    0  504  0.54163694543E+02 -0.56176494697E+02 -0.33854480830E+03  0.38803328860E+03  0.17282286154E+03 0.  0.
        -24    2    3    3    0    0  0.71582791029E+02 -0.57625403219E+02 -0.12991449458E+03  0.17861929178E+03  0.81131328277E+02 0.  0.
          6    2    1    2  502    0 -0.54163694543E+02  0.56176494697E+02 -0.14844622506E+03  0.23931273099E+03  0.17071847327E+03 0.  0.
         24    2    5    5    0    0 -0.94445104423E+02  0.41038837483E+02 -0.75413923560E+02  0.15441545359E+03  0.86906895636E+02 0.  0.
          2    1    6    6  501    0 -0.53334486834E+02  0.23542473132E+02 -0.90159247999E+02  0.10736622154E+03  0.00000000000E+00 0. -1.
         -1    1    6    6    0  501 -0.41110617589E+02  0.17496364351E+02  0.14745324439E+02  0.47049232054E+02  0.00000000000E+00 0.  1.
          5    1    5    5  502    0  0.40281409880E+02  0.15137657214E+02 -0.73032301502E+02  0.84897277404E+02  0.47000000000E+01 0. -1.
         11    1    4    4    0    0  0.33572066813E+02 -0.73448407046E+02 -0.77094760061E+02  0.11164835062E+03  0.00000000000E+00 0. -1.
        -12    1    4    4    0    0  0.38010724217E+02  0.15823003828E+02 -0.52819734517E+02  0.66970941161E+02  0.00000000000E+00 0.  1.
         -5    1    3    3    0  504 -0.17419096486E+02  0.14489085220E+01 -0.20863031372E+03  0.20941399681E+03  0.47000000000E+01 0.  1.
<mgrwt>
<rscale>  2 0.18914315E+03</rscale>
<asrwt>0</asrwt>
<pdfrwt beam="1">  1       21 0.10796537E-01 0.18962396E+03</pdfrwt>
<pdfrwt beam="2">  1       21 0.85718240E-01 0.18962396E+03</pdfrwt>
<totfact> 0.83378117E+04</totfact>
</mgrwt>
</event>
<event>
12    1  0.1410528E-001  0.1958387E+03  0.7546771E-02  0.1155483E+00
         21   -1    0    0  502  503  0.00000000000E+00  0.00000000000E+00  0.11748075551E+04  0.11748075551E+04  0.00000000000E+00 0.  1.
         21   -1    0    0  503  504 -0.00000000000E+00 -0.00000000000E+00 -0.34890015994E+02  0.34890015994E+02  0.00000000000E+00 0.  1.
         -6    2    1    2    0  504  0.31647888607E+02 -0.82698916245E+02  0.38189848244E+03  0.42918439674E+03  0.17467711903E+03 0.  0.
        -24    2    3    3    0    0 -0.25929326029E+02 -0.51250117394E+02  0.10015446438E+03  0.13986460083E+03  0.78944824708E+02 0.  0.
          6    2    1    2  502    0 -0.31647888607E+02  0.82698916245E+02  0.75801905665E+03  0.78051317433E+03  0.16360692366E+03 0.  0.
         24    2    5    5    0    0 -0.37610785690E+02  0.11791280548E+03  0.55958131034E+03  0.57883223002E+03  0.81225037646E+02 0.  0.
          2    1    6    6  501    0 -0.24183930300E+02  0.11901017205E+03  0.54726997441E+03  0.56058247245E+03  0.00000000000E+00 0. -1.
         -1    1    6    6    0  501 -0.13426855390E+02 -0.10973665636E+01  0.12311335930E+02  0.18249757571E+02  0.00000000000E+00 0.  1.
          5    1    5    5  502    0  0.59628970828E+01 -0.35213889238E+02  0.19843774631E+03  0.20168094431E+03  0.47000000000E+01 0. -1.
         13    1    4    4    0    0 -0.15088505473E+02 -0.71271520678E+02  0.63124012753E+02  0.96394676426E+02  0.00000000000E+00 0. -1.
        -14    1    4    4    0    0 -0.10840820556E+02  0.20021403284E+02  0.37030451631E+02  0.43469924405E+02  0.00000000000E+00 0.  1.
         -5    1    3    3    0  504  0.57577214636E+02 -0.31448798851E+02  0.28174401805E+03  0.28931979591E+03  0.47000000000E+01 0.  1.
<mgrwt>
<rscale>  2 0.19333961E+03</rscale>
<asrwt>0</asrwt>
<pdfrwt beam="1">  1       21 0.18073959E+00 0.19583870E+03</pdfrwt>
<pdfrwt beam="2">  1       21 0.53676957E-02 0.19583870E+03</pdfrwt>
<totfact> 0.42802016E+04</totfact>
</mgrwt>
</event>
<event>
12    1  0.1410528E-001  0.1896455E+03  0.7546771E-02  0.1161972E+00
         21   -1    0    0  502  503  0.00000000000E+00  0.00000000000E+00  0.85378380864E+02  0.85378380864E+02  0.00000000000E+00 0.  1.
         21   -1    0    0  503  504 -0.00000000000E+00 -0.00000000000E+00 -0.11807065257E+04  0.11807065257E+04  0.00000000000E+00 0.  1.
         -6    2    1    2    0  504 -0.34334006765E+00  0.35061583055E+02 -0.10717887174E+04  0.10884376328E+04  0.18637594599E+03 0.  0.
        -24    2    3    3    0    0 -0.33780242549E+02  0.48439947749E+02 -0.30760615439E+03  0.32339247942E+03  0.80458785736E+02 0.  0.
          6    2    1    2  502    0  0.34334006765E+00 -0.35061583055E+02 -0.23539427374E+02  0.17764727371E+03  0.17255438774E+03 0.  0.
         24    2    5    5    0    0 -0.21013117317E+02  0.10958535615E+02 -0.72078850432E+02  0.10727600695E+03  0.75836273550E+02 0.  0.
          4    1    6    6  501    0  0.10285570934E+02  0.20240844498E+01 -0.73934760447E+02  0.74674217034E+02  0.00000000000E+00 0. -1.
         -3    1    6    6    0  501 -0.31298688251E+02  0.89344511656E+01  0.18559100155E+01  0.32601789918E+02  0.00000000000E+00 0.  1.
          5    1    5    5  502    0  0.21356457385E+02 -0.46020118670E+02  0.48539423057E+02  0.70371266758E+02  0.47000000000E+01 0. -1.
         13    1    4    4    0    0  0.10113568483E+02  0.23014017163E+02 -0.22274754864E+02  0.33587109993E+02  0.00000000000E+00 0. -1.
        -14    1    4    4    0    0 -0.43893811032E+02  0.25425930586E+02 -0.28533139953E+03  0.28980536943E+03  0.00000000000E+00 0.  1.
         -5    1    3    3    0  504  0.33436902482E+02 -0.13378364694E+02 -0.76418256306E+03  0.76504515342E+03  0.47000000000E+01 0.  1.
<mgrwt>
<rscale>  2 0.18615939E+03</rscale>
<asrwt>0</asrwt>
<pdfrwt beam="1">  1       21 0.13135136E-01 0.18964553E+03</pdfrwt>
<pdfrwt beam="2">  1       21 0.18164715E+00 0.18964553E+03</pdfrwt>
<totfact> 0.88699076E+03</totfact>
</mgrwt>
</event>
<event>
12    1  0.1410528E-001  0.1763700E+03  0.7546771E-02  0.1172418E+00
         21   -1    0    0  502  503  0.00000000000E+00  0.00000000000E+00  0.33264934571E+03  0.33264934571E+03  0.00000000000E+00 0. -1.
         21   -1    0    0  503  504 -0.00000000000E+00 -0.00000000000E+00 -0.14362489662E+03  0.14362489662E+03  0.00000000000E+00 0. -1.
         -6    2    1    2    0  504 -0.11771150789E+02  0.46709799029E+01 -0.48491381288E+02  0.18291466611E+03  0.17591470369E+03 0.  0.
        -24    2    3    3    0    0 -0.57238908141E+02 -0.25956831548E+02 -0.70208932941E+02  0.12376129052E+03  0.80234114057E+02 0.  0.
          6    2    1    2  502    0  0.11771150789E+02 -0.46709799029E+01  0.23751583038E+03  0.29335957622E+03  0.17171398672E+03 0.  0.
         24    2    5    5    0    0 -0.41870162317E+02 -0.44571022628E+02  0.17220900057E+03  0.19978353281E+03  0.80733100727E+02 0.  0.
          2    1    6    6  501    0  0.16972266682E+02 -0.32805027221E+02  0.39172049903E+02  0.53839364231E+02  0.00000000000E+00 0. -1.
         -1    1    6    6    0  501 -0.58842428999E+02 -0.11765995408E+02  0.13303695067E+03  0.14594416858E+03  0.00000000000E+00 0.  1.
          5    1    5    5  502    0  0.53641313106E+02  0.39900042726E+02  0.65306829803E+02  0.93576043410E+02  0.47000000000E+01 0. -1.
         13    1    4    4    0    0 -0.65470513592E+02  0.11280258250E+01 -0.24334632665E+02  0.69855815357E+02  0.00000000000E+00 0. -1.
        -14    1    4    4    0    0  0.82316054508E+01 -0.27084857373E+02 -0.45874300276E+02  0.53905475168E+02  0.00000000000E+00 0.  1.
         -5    1    3    3    0  504  0.45467757352E+02  0.30627811451E+02  0.21717551653E+02  0.59153375582E+02  0.47000000000E+01 0.  1.
<mgrwt>
<rscale>  2 0.17531309E+03</rscale>
<asrwt>0</asrwt>
<pdfrwt beam="1">  1       21 0.51176822E-01 0.17636995E+03</pdfrwt>
<pdfrwt beam="2">  1       21 0.22096138E-01 0.17636995E+03</pdfrwt>
<totfact> 0.69978838E+04</totfact>
</mgrwt>
</event>
<event>
12    1  0.1410528E-001  0.2497865E+03  0.7546771E-02  0.1113745E+00
         21   -1    0    0  502  503  0.00000000000E+00  0.00000000000E+00  0.21999445504E+04  0.21999445504E+04  0.00000000000E+00 0.  1.
         21   -1    0    0  503  504 -0.00000000000E+00 -0.00000000000E+00 -0.32056621075E+02  0.32056621075E+02  0.00000000000E+00 0. -1.
         -6    2    1    2    0  504 -0.21404819968E+02 -0.17654243570E+03  0.69034178548E+03  0.73348994077E+03  0.17265663758E+03 0.  0.
        -24    2    3    3    0    0  0.77528060738E+01 -0.18175916757E+02  0.16829899248E+03  0.18715589533E+03  0.79450036716E+02 0.  0.
          6    2    1    2  502    0  0.21404819968E+02  0.17654243570E+03  0.14775461439E+04  0.14985112307E+04  0.17540782041E+03 0.  0.
         24    2    5    5    0    0  0.12091633828E+02  0.17301119595E+03  0.86448922987E+03  0.88535539827E+03  0.80208921854E+02 0.  0.
          2    1    6    6  501    0  0.33782308991E+02  0.63189173994E+02  0.22473716543E+03  0.23588325425E+03  0.00000000000E+00 0. -1.
         -1    1    6    6    0  501 -0.21690675163E+02  0.10982202196E+03  0.63975206444E+03  0.64947214402E+03  0.00000000000E+00 0.  1.
          5    1    5    5  502    0  0.93131861403E+01  0.35312397471E+01  0.61305691400E+03  0.61315583247E+03  0.47000000000E+01 0. -1.
         11    1    4    4    0    0 -0.61403858830E+01 -0.27138130629E+01 -0.75382257746E+01  0.10094254205E+02  0.00000000000E+00 0. -1.
        -12    1    4    4    0    0  0.13893191957E+02 -0.15462103694E+02  0.17583721826E+03  0.17706164113E+03  0.00000000000E+00 0.  1.
         -5    1    3    3    0  504 -0.29157626042E+02 -0.15836651894E+03  0.52204279300E+03  0.54633404543E+03  0.47000000000E+01 0.  1.
<mgrwt>
<rscale>  2 0.24930406E+03</rscale>
<asrwt>0</asrwt>
<pdfrwt beam="1">  1       21 0.33845289E+00 0.24978651E+03</pdfrwt>
<pdfrwt beam="2">  1       21 0.49317896E-02 0.24978651E+03</pdfrwt>
<totfact> 0.52883686E+03</totfact>
</mgrwt>
</event>
<event>
12    1  0.1410528E-001  0.2656023E+03  0.7546771E-02  0.1105947E+00
         21   -1    0    0  502  503  0.00000000000E+00  0.00000000000E+00  0.16735227050E+03  0.16735227050E+03  0.00000000000E+00 0. -1.
         21   -1    0    0  503  504 -0.00000000000E+00 -0.00000000000E+00 -0.51931769469E+03  0.51931769469E+03  0.00000000000E+00 0. -1.
         -6    2    1    2    0  504 -0.36605919559E+02 -0.17849804019E+03 -0.34459196979E+03  0.43507264106E+03  0.19324345696E+03 0.  0.
        -24    2    3    3    0    0 -0.43497621962E+02 -0.21210829903E+03 -0.30021590520E+03  0.37878347541E+03  0.80407449147E+02 0.  0.
          6    2    1    2  502    0  0.36605919559E+02  0.17849804019E+03 -0.73734544066E+01  0.25159732412E+03  0.17333580697E+03 0.  0.
         24    2    5    5    0    0  0.81635675637E+02  0.88679094756E+02 -0.31407277054E+02  0.14818148142E+03  0.80268106989E+02 0.  0.
          2    1    6    6  501    0  0.76496845398E+02  0.46813115395E+02  0.85366353226E+01  0.90089451499E+02  0.00000000000E+00 0. -1.
         -1    1    6    6    0  501  0.51388302392E+01  0.41865979361E+02 -0.39943912376E+02  0.58092029918E+02  0.00000000000E+00 0.  1.
          5    1    5    5  502    0 -0.45029756078E+02  0.89818945437E+02  0.24033822647E+02  0.10341584271E+03  0.47000000000E+01 0. -1.
         11    1    4    4    0    0 -0.56312743089E+02 -0.12405488233E+03 -0.13894198413E+03  0.19459088832E+03  0.00000000000E+00 0. -1.
        -12    1    4    4    0    0  0.12815121127E+02 -0.88053416694E+02 -0.16127392107E+03  0.18419258709E+03  0.00000000000E+00 0.  1.
         -5    1    3    3    0  504  0.68917024024E+01  0.33610258835E+02 -0.44376064590E+02  0.56289165649E+02  0.47000000000E+01 0.  1.
<mgrwt>
<rscale>  2 0.26200147E+03</rscale>
<asrwt>0</asrwt>
<pdfrwt beam="1">  1       21 0.25746503E-01 0.26560229E+03</pdfrwt>
<pdfrwt beam="2">  1       21 0.79895030E-01 0.26560229E+03</pdfrwt>
<totfact> 0.18988025E+04</totfact>
</mgrwt>
</event>
<event>
12    1  0.1410528E-001  0.2299784E+03  0.7546771E-02  0.1126663E+00
         21   -1    0    0  502  503  0.00000000000E+00  0.00000000000E+00  0.10401642565E+03  0.10401642565E+03  0.00000000000E+00 0.  1.
         21   -1    0    0  503  504 -0.00000000000E+00 -0.00000000000E+00 -0.58364024898E+03  0.58364024898E+03  0.00000000000E+00 0. -1.
         -6    2    1    2    0  504  0.12675037190E+03  0.82658150247E+02 -0.36330605532E+03  0.42997830210E+03  0.17318205410E+03 0.  0.
        -24    2    3    3    0    0 -0.67774563603E+01  0.18493241241E+02 -0.11922581767E+03  0.14441908078E+03  0.79083129729E+02 0.  0.
          6    2    1    2  502    0 -0.12675037190E+03 -0.82658150247E+02 -0.11631776800E+03  0.25767837253E+03  0.17311930551E+03 0.  0.
         24    2    5    5    0    0 -0.34237026966E+02  0.26612199262E+02 -0.52942794724E+02  0.10103481055E+03  0.74328394745E+02 0.  0.
          2    1    6    6  501    0  0.19968869026E+02  0.59919916807E+01 -0.34258929202E+02  0.40104038756E+02  0.00000000000E+00 0. -1.
         -1    1    6    6    0  501 -0.54205895992E+02  0.20620207581E+02 -0.18683865523E+02  0.60930771798E+02  0.00000000000E+00 0.  1.
          5    1    5    5  502    0 -0.92513344931E+02 -0.10927034951E+03 -0.63374973278E+02  0.15664356198E+03  0.47000000000E+01 0. -1.
         11    1    4    4    0    0  0.26473443271E+02  0.20645252821E+01 -0.98324286638E+02  0.10184680067E+03  0.00000000000E+00 0. -1.
        -12    1    4    4    0    0 -0.33250899632E+02  0.16428715959E+02 -0.20901531030E+02  0.42572280110E+02  0.00000000000E+00 0.  1.
         -5    1    3    3    0  504  0.13352782826E+03  0.64164909005E+02 -0.24408023766E+03  0.28555922132E+03  0.47000000000E+01 0.  1.
<mgrwt>
<rscale>  2 0.22996656E+03</rscale>
<asrwt>0</asrwt>
<pdfrwt beam="1">  1       21 0.16002527E-01 0.22997837E+03</pdfrwt>
<pdfrwt beam="2">  1       21 0.89790808E-01 0.22997837E+03</pdfrwt>
<totfact> 0.36114845E+04</totfact>
</mgrwt>
</event>
<event>
12    1  0.1410528E-001  0.2685004E+03  0.7546771E-02  0.1102607E+00
         21   -1    0    0  502  503  0.00000000000E+00  0.00000000000E+00  0.16023432465E+03  0.16023432465E+03  0.00000000000E+00 0. -1.
         21   -1    0    0  503  504 -0.00000000000E+00 -0.00000000000E+00 -0.14492699009E+04  0.14492699009E+04  0.00000000000E+00 0.  1.
         -6    2    1    2    0  504 -0.13528739784E+03 -0.14796322178E+03 -0.13133782832E+04  0.13399025965E+04  0.17372581315E+03 0.  0.
        -24    2    3    3    0    0 -0.93233614568E+02 -0.78015991509E+02 -0.45991906599E+03  0.48253694449E+03  0.80853903534E+02 0.  0.
          6    2    1    2  502    0  0.13528739784E+03  0.14796322178E+03  0.24342706959E+02  0.26960162911E+03  0.17859640540E+03 0.  0.
         24    2    5    5    0    0  0.71279579136E+02  0.12025289539E+03 -0.48477286879E+02  0.16865756269E+03  0.80955474524E+02 0.  0.
          4    1    6    6  501    0 -0.74415381967E+01  0.83923634579E+01  0.14284789403E+02  0.18162143691E+02  0.00000000000E+00 0. -1.
         -3    1    6    6    0  501  0.78721117333E+02  0.11186053194E+03 -0.62762076283E+02  0.15049541899E+03  0.00000000000E+00 0.  1.
          5    1    5    5  502    0  0.64007818700E+02  0.27710326386E+02  0.72819993838E+02  0.10094406642E+03  0.47000000000E+01 0. -1.
         11    1    4    4    0    0 -0.26990871889E+02 -0.45022863880E+02 -0.81448701815E+02  0.96899207761E+02  0.00000000000E+00 0. -1.
        -12    1    4    4    0    0 -0.66242742679E+02 -0.32993127629E+02 -0.37847036418E+03  0.38563773673E+03  0.00000000000E+00 0.  1.
         -5    1    3    3    0  504 -0.42053783268E+02 -0.69947230271E+02 -0.85345921723E+03  0.85736565197E+03  0.47000000000E+01 0.  1.
<mgrwt>
<rscale>  2 0.26769308E+03</rscale>
<asrwt>0</asrwt>
<pdfrwt beam="1">  1       21 0.24651435E-01 0.26850041E+03</pdfrwt>
<pdfrwt beam="2">  1       21 0.22296460E+00 0.26850041E+03</pdfrwt>
<totfact> 0.13951824E+03</totfact>
</mgrwt>
</event>
<event>
12    1  0.1410528E-001  0.2510160E+03  0.7546771E-02  0.1112814E+00
         21   -1    0    0  502  503  0.00000000000E+00  0.00000000000E+00  0.13526150417E+03  0.13526150417E+03  0.00000000000E+00 0. -1.
         21   -1    0    0  503  504 -0.00000000000E+00 -0.00000000000E+00 -0.71942673868E+03  0.71942673868E+03  0.00000000000E+00 0.  1.
         -6    2    1    2    0  504 -0.17954659208E+03 -0.21743774286E+02 -0.54704097728E+03  0.60188275478E+03  0.17406679534E+03 0.  0.
        -24    2    3    3    0    0 -0.23944133682E+02  0.28136985671E+01 -0.27347813892E+03  0.28617100166E+03  0.80760827667E+02 0.  0.
          6    2    1    2  502    0  0.17954659208E+03  0.21743774286E+02 -0.37124257236E+02  0.25280548806E+03  0.17269230982E+03 0.  0.
         24    2    5    5    0    0  0.72861305923E+02 -0.17282043943E+02  0.43773468539E+02  0.11326589939E+03  0.72839607861E+02 0.  0.
          2    1    6    6  501    0  0.41719331651E+02 -0.45950725719E+02  0.28091857064E+02  0.68125797323E+02  0.00000000000E+00 0. -1.
         -1    1    6    6    0  501  0.31141974272E+02  0.28668681776E+02  0.15681611474E+02  0.45140102069E+02  0.00000000000E+00 0.  1.
          5    1    5    5  502    0  0.10668528615E+03  0.39025818229E+02 -0.80897725775E+02  0.13953958867E+03  0.47000000000E+01 0. -1.
         11    1    4    4    0    0  0.24202688071E+02 -0.13038768408E+02 -0.50440553229E+02  0.57445878890E+02  0.00000000000E+00 0. -1.
        -12    1    4    4    0    0 -0.48146821753E+02  0.15852466975E+02 -0.22303758569E+03  0.22872512277E+03  0.00000000000E+00 0.  1.
         -5    1    3    3    0  504 -0.15560245840E+03 -0.24557472853E+02 -0.27356283835E+03  0.31571175312E+03  0.47000000000E+01 0.  1.
<mgrwt>
<rscale>  2 0.25077784E+03</rscale>
<asrwt>0</asrwt>
<pdfrwt beam="1">  1       21 0.20809462E-01 0.25101597E+03</pdfrwt>
<pdfrwt beam="2">  1       21 0.11068104E+00 0.25101597E+03</pdfrwt>
<totfact> 0.13304294E+04</totfact>
</mgrwt>
</event>
<event>
12    1  0.1410528E-001  0.2170990E+03  0.7546771E-02  0.1136151E+00
         21   -1    0    0  502  503  0.00000000000E+00  0.00000000000E+00  0.20437248437E+03  0.20437248437E+03  0.00000000000E+00 0. -1.
         21   -1    0    0  503  504 -0.00000000000E+00 -0.00000000000E+00 -0.48430281094E+03  0.48430281094E+03  0.00000000000E+00 0.  1.
         -6    2    1    2    0  504  0.45246948260E+02  0.12208720741E+03 -0.38948870791E+03  0.44590743613E+03  0.17372223652E+03 0.  0.
        -24    2    3    3    0    0  0.13438626669E+02  0.64913603335E+01 -0.86176323351E+02  0.11972549025E+03  0.81762459995E+02 0.  0.
          6    2    1    2  502    0 -0.45246948260E+02 -0.12208720741E+03  0.10955838134E+03  0.24276785918E+03  0.17314913222E+03 0.  0.
         24    2    5    5    0    0  0.33639541316E+02 -0.22734663472E+02  0.30262227546E+02  0.93088280644E+02  0.78109806772E+02 0.  0.
          4    1    6    6  501    0 -0.14173888278E+02  0.83011809603E+01  0.32096821428E+02  0.36055716052E+02  0.00000000000E+00 0. -1.
         -3    1    6    6    0  501  0.47813429594E+02 -0.31035844432E+02 -0.18345938817E+01  0.57032564592E+02  0.00000000000E+00 0.  1.
          5    1    5    5  502    0 -0.78886489576E+02 -0.99352543939E+02  0.79296153796E+02  0.14967957854E+03  0.47000000000E+01 0. -1.
         11    1    4    4    0    0 -0.25826074550E+02 -0.18866820121E+02 -0.16951356059E+02  0.36197948842E+02  0.00000000000E+00 0. -1.
        -12    1    4    4    0    0  0.39264701219E+02  0.25358180454E+02 -0.69224967292E+02  0.83527541412E+02  0.00000000000E+00 0.  1.
         -5    1    3    3    0  504  0.31808321590E+02  0.11559584708E+03 -0.30331238456E+03  0.32618194587E+03  0.47000000000E+01 0.  1.
<mgrwt>
<rscale>  2 0.21698436E+03</rscale>
<asrwt>0</asrwt>
<pdfrwt beam="1">  1       21 0.31441921E-01 0.21709903E+03</pdfrwt>
<pdfrwt beam="2">  1       21 0.74508124E-01 0.21709903E+03</pdfrwt>
<totfact> 0.15449238E+04</totfact>
</mgrwt>
</event>
<event>
12    1  0.1410528E-001  0.2002489E+03  0.7546771E-02  0.1150217E+00
         21   -1    0    0  502  503  0.00000000000E+00  0.00000000000E+00  0.20362142834E+03  0.20362142834E+03  0.00000000000E+00 0. -1.
         21   -1    0    0  503  504 -0.00000000000E+00 -0.00000000000E+00 -0.22796975123E+03  0.22796975123E+03  0.00000000000E+00 0.  1.
         -6    2    1    2    0  504  0.36449378514E+02 -0.93418712273E+02 -0.95849613033E+02  0.22200622779E+03  0.17333206242E+03 0.  0.
        -24    2    3    3    0    0 -0.35537325593E+02 -0.74598151589E+02 -0.92214423481E+02  0.14736305211E+03  0.79903588774E+02 0.  0.
          6    2    1    2  502    0 -0.36449378514E+02  0.93418712273E+02  0.71501290147E+02  0.20958495177E+03  0.16958126229E+03 0.  0.
         24    2    5    5    0    0  0.39498042976E+02  0.80435472874E+02  0.35819023846E+02  0.12454443517E+03  0.78729620641E+02 0.  0.
          4    1    6    6  501    0  0.59344098590E+02  0.67814653748E+02  0.43145738263E+02  0.99910480084E+02  0.00000000000E+00 0. -1.
         -3    1    6    6    0  501 -0.19846055614E+02  0.12620819126E+02 -0.73267144169E+01  0.24633955082E+02  0.00000000000E+00 0.  1.
          5    1    5    5  502    0 -0.75947421491E+02  0.12983239399E+02  0.35682266302E+02  0.85040516607E+02  0.47000000000E+01 0. -1.
         13    1    4    4    0    0  0.18225102409E+02 -0.49307523243E+02 -0.26839022228E+02  0.59023040589E+02  0.00000000000E+00 0. -1.
        -14    1    4    4    0    0 -0.53762428002E+02 -0.25290628345E+02 -0.65375401253E+02  0.88340011523E+02  0.00000000000E+00 0.  1.
         -5    1    3    3    0  504  0.71986704107E+02 -0.18820560684E+02 -0.36351895520E+01  0.74643175681E+02  0.47000000000E+01 0.  1.
<mgrwt>
<rscale>  2 0.19943451E+03</rscale>
<asrwt>0</asrwt>
<pdfrwt beam="1">  1       21 0.31326374E-01 0.20024889E+03</pdfrwt>
<pdfrwt beam="2">  1       21 0.35072269E-01 0.20024889E+03</pdfrwt>
<totfact> 0.76492539E+04</totfact>
</mgrwt>
</event>
<event>
12    1  0.1410528E-001  0.1785429E+03  0.7546771E-02  0.1170062E+00
         21   -1    0    0  502  503  0.00000000000E+00  0.00000000000E+00  0.11361177565E+03  0.11361177565E+03  0.00000000000E+00 0. -1.
         21   -1    0    0  503  504 -0.00000000000E+00 -0.00000000000E+00 -0.28207851930E+03  0.28207851930E+03  0.00000000000E+00 0. -1.
         -6    2    1    2    0  504  0.49079169201E+01 -0.28893477684E+02 -0.11420294391E+03  0.20908344242E+03  0.17266920047E+03 0.  0.
        -24    2    3    3    0    0  0.20681685085E+02  0.33824355022E+02 -0.11234825711E+03  0.14421535963E+03  0.81265736852E+02 0.  0.
          6    2    1    2  502    0 -0.49079169201E+01  0.28893477684E+02 -0.54263799730E+02  0.18660685253E+03  0.17612108548E+03 0.  0.
         24    2    5    5    0    0 -0.51947766981E+02  0.18993107391E+02 -0.85333493255E+02  0.12917706338E+03  0.79659274481E+02 0.  0.
          4    1    6    6  501    0  0.39487208896E+01  0.19082347789E+02 -0.67875908375E+02  0.70617755073E+02  0.00000000000E+00 0. -1.
         -3    1    6    6    0  501 -0.55896487870E+02 -0.89240397152E-01 -0.17457584880E+02  0.58559308312E+02  0.00000000000E+00 0.  1.
          5    1    5    5  502    0  0.47039850061E+02  0.99003702929E+01  0.31069693525E+02  0.57429789146E+02  0.47000000000E+01 0. -1.
         11    1    4    4    0    0 -0.14715486690E+02  0.66879151923E+01 -0.94988577799E+02  0.96354053731E+02  0.00000000000E+00 0. -1.
        -12    1    4    4    0    0  0.35397171775E+02  0.27136439830E+02 -0.17359679311E+02  0.47861305896E+02  0.00000000000E+00 0.  1.
         -5    1    3    3    0  504 -0.15773768165E+02 -0.62717832706E+02 -0.18546868040E+01  0.64868082788E+02  0.47000000000E+01 0.  1.
<mgrwt>
<rscale>  2 0.17768568E+03</rscale>
<asrwt>0</asrwt>
<pdfrwt beam="1">  1       21 0.17478735E-01 0.17854287E+03</pdfrwt>
<pdfrwt beam="2">  1       21 0.43396695E-01 0.17854287E+03</pdfrwt>
<totfact> 0.15198500E+05</totfact>
</mgrwt>
</event>
<event>
12    1  0.1410528E-001  0.1793436E+03  0.7546771E-02  0.1168469E+00
         21   -1    0    0  502  503  0.00000000000E+00  0.00000000000E+00  0.52961501471E+02  0.52961501471E+02  0.00000000000E+00 0. -1.
         21   -1    0    0  503  504 -0.00000000000E+00 -0.00000000000E+00 -0.65717569434E+03  0.65717569434E+03  0.00000000000E+00 0. -1.
         -6    2    1    2    0  504 -0.29676510263E+02  0.34996721771E+02 -0.40021262965E+03  0.43851105058E+03  0.17325220564E+03 0.  0.
        -24    2    3    3    0    0  0.34668974044E+02  0.30163946751E+02 -0.13879595333E+03  0.16920738236E+03  0.85176405991E+02 0.  0.
          6    2    1    2  502    0  0.29676510263E+02 -0.34996721771E+02 -0.20400156323E+03  0.27162614523E+03  0.17337433253E+03 0.  0.
         24    2    5    5    0    0 -0.39454793312E+02 -0.57436469806E+02 -0.13876207184E+03  0.17384598026E+03  0.78178536003E+02 0.  0.
          2    1    6    6  501    0 -0.38012522052E+02 -0.67198214366E+02 -0.69482142923E+02  0.10386683798E+03  0.00000000000E+00 0. -1.
         -1    1    6    6    0  501 -0.14422712597E+01  0.97617445595E+01 -0.69279928920E+02  0.69979142281E+02  0.00000000000E+00 0.  1.
          5    1    5    5  502    0  0.69131303575E+02  0.22439748035E+02 -0.65239491383E+02  0.97780164971E+02  0.47000000000E+01 0. -1.
         13    1    4    4    0    0 -0.61990245786E+01  0.27335940828E+02 -0.12158312954E+03  0.12477234852E+03  0.00000000000E+00 0. -1.
        -14    1    4    4    0    0  0.40867998622E+02  0.28280059222E+01 -0.17212823790E+02  0.44435033833E+02  0.00000000000E+00 0.  1.
         -5    1    3    3    0  504 -0.64345484306E+02  0.48327750202E+01 -0.26141667631E+03  0.26930366823E+03  0.47000000000E+01 0.  1.
<mgrwt>
<rscale>  2 0.17931407E+03</rscale>
<asrwt>0</asrwt>
<pdfrwt beam="1">  1       21 0.81479235E-02 0.17934359E+03</pdfrwt>
<pdfrwt beam="2">  1       21 0.10110395E+00 0.17934359E+03</pdfrwt>
<totfact> 0.93484795E+04</totfact>
</mgrwt>
</event>
<event>
12    1  0.1410528E-001  0.1733422E+03  0.7546771E-02  0.1174496E+00
         21   -1    0    0  502  503  0.00000000000E+00  0.00000000000E+00  0.15271974980E+03  0.15271974980E+03  0.00000000000E+00 0. -1.
         21   -1    0    0  503  504 -0.00000000000E+00 -0.00000000000E+00 -0.29788544223E+03  0.29788544223E+03  0.00000000000E+00 0. -1.
         -6    2    1    2    0  504 -0.56292824446E+01  0.13587241853E+02 -0.20416917137E+03  0.26782936687E+03  0.17271715972E+03 0.  0.
        -24    2    3    3    0    0  0.37911644114E+01 -0.58369070542E+02 -0.97734753319E+02  0.13892307898E+03  0.79537529154E+02 0.  0.
          6    2    1    2  502    0  0.56292824446E+01 -0.13587241853E+02  0.59003478933E+02  0.18277582516E+03  0.17236382966E+03 0.  0.
         24    2    5    5    0    0  0.66429299110E+02 -0.11020356682E+02  0.11523470351E+02  0.10544748533E+03  0.80324851397E+02 0.  0.
          2    1    6    6  501    0  0.58911929092E+02 -0.37701286062E+02  0.25445991674E+02  0.74427823106E+02  0.00000000000E+00 0. -1.
         -1    1    6    6    0  501  0.75173700175E+01  0.26680929379E+02 -0.13922521323E+02  0.31019662224E+02  0.00000000000E+00 0.  1.
          5    1    5    5  502    0 -0.60800016665E+02 -0.25668851702E+01  0.47480008582E+02  0.77328339830E+02  0.47000000000E+01 0. -1.
         13    1    4    4    0    0 -0.80810409015E+01  0.12088419522E+02 -0.52221003688E+02  0.54207622478E+02  0.00000000000E+00 0. -1.
        -14    1    4    4    0    0  0.11872205313E+02 -0.70457490065E+02 -0.45513749631E+02  0.84715456504E+02  0.00000000000E+00 0.  1.
         -5    1    3    3    0  504 -0.94204468560E+01  0.71956312395E+02 -0.10643441805E+03  0.12890628789E+03  0.47000000000E+01 0.  1.
<mgrwt>
<rscale>  2 0.17325412E+03</rscale>
<asrwt>0</asrwt>
<pdfrwt beam="1">  1       21 0.23495347E-01 0.17334220E+03</pdfrwt>
<pdfrwt beam="2">  1       21 0.45828529E-01 0.17334220E+03</pdfrwt>
<totfact> 0.78428328E+04</totfact>
</mgrwt>
</event>
<event>
12    1  0.1410528E-001  0.1744676E+03  0.7546771E-02  0.1173427E+00
         21   -1    0    0  502  503  0.00000000000E+00  0.00000000000E+00  0.13896025977E+04  0.13896025977E+04  0.00000000000E+00 0. -1.
         21   -1    0    0  503  504 -0.00000000000E+00 -0.00000000000E+00 -0.22116606411E+02  0.22116606411E+02  0.00000000000E+00 0. -1.
         -6    2    1    2    0  504 -0.55712063557E+01  0.13367129577E+02  0.76352026733E+03  0.78305909123E+03  0.17322997215E+03 0.  0.
        -24    2    3    3    0    0 -0.45376021161E+02 -0.29319382480E+02  0.62945061981E+03  0.63676034900E+03  0.79605588975E+02 0.  0.
          6    2    1    2  502    0  0.55712063557E+01 -0.13367129577E+02  0.60396572396E+03  0.62866011287E+03  0.17386553226E+03 0.  0.
         24    2    5    5    0    0 -0.60876752290E+02 -0.12349066795E+02  0.43984262355E+03  0.45153064116E+03  0.80993258983E+02 0.  0.
          4    1    6    6  501    0  0.24930719758E+01 -0.31555070940E+02  0.88201819121E+02  0.93709651617E+02  0.00000000000E+00 0. -1.
         -3    1    6    6    0  501 -0.63369824265E+02  0.19206004145E+02  0.35164080442E+03  0.35782098954E+03  0.00000000000E+00 0.  1.
          5    1    5    5  502    0  0.66447958645E+02 -0.10180627813E+01  0.16412310041E+03  0.17712947171E+03  0.47000000000E+01 0. -1.
         13    1    4    4    0    0 -0.61168283378E+01 -0.47407283978E+02  0.22593538560E+03  0.23093649480E+03  0.00000000000E+00 0. -1.
        -14    1    4    4    0    0 -0.39259192823E+02  0.18087901497E+02  0.40351523421E+03  0.40582385421E+03  0.00000000000E+00 0.  1.
         -5    1    3    3    0  504  0.39804814805E+02  0.42686512057E+02  0.13406964751E+03  0.14629874223E+03  0.47000000000E+01 0.  1.
<mgrwt>
<rscale>  2 0.17430904E+03</rscale>
<asrwt>0</asrwt>
<pdfrwt beam="1">  1       21 0.21378495E+00 0.17446760E+03</pdfrwt>
<pdfrwt beam="2">  1       21 0.34025559E-02 0.17446760E+03</pdfrwt>
<totfact> 0.57127464E+04</totfact>
</mgrwt>
</event>
<event>
12    1  0.1410528E-001  0.3570103E+03  0.7546771E-02  0.1059799E+00
         21   -1    0    0  502  503  0.00000000000E+00  0.00000000000E+00  0.28792436596E+03  0.28792436596E+03  0.00000000000E+00 0. -1.
         21   -1    0    0  503  504 -0.00000000000E+00 -0.00000000000E+00 -0.62575089976E+03  0.62575089976E+03  0.00000000000E+00 0.  1.
         -6    2    1    2    0  504 -0.21439064149E+02 -0.31131374315E+03 -0.41618187865E+03  0.54816750176E+03  0.17292881117E+03 0.  0.
        -24    2    3    3    0    0 -0.56720864516E+02 -0.13036977966E+03 -0.13042738980E+03  0.20807451263E+03  0.77911250007E+02 0.  0.
          6    2    1    2  502    0  0.21439064149E+02  0.31131374315E+03  0.78355344843E+02  0.36550776395E+03  0.17343726618E+03 0.  0.
         24    2    5    5    0    0  0.72353828559E+02  0.14518457014E+03  0.51496876183E+02  0.18962518182E+03  0.83619049326E+02 0.  0.
          4    1    6    6  501    0  0.34371597403E+02  0.13084289792E+03  0.60250557047E+02  0.14809253954E+03  0.00000000000E+00 0. -1.
         -3    1    6    6    0  501  0.37982231156E+02  0.14341672215E+02 -0.87536808643E+01  0.41532642273E+02  0.00000000000E+00 0.  1.
          5    1    5    5  502    0 -0.50914764410E+02  0.16612917301E+03  0.26858468661E+02  0.17588258214E+03  0.47000000000E+01 0. -1.
         11    1    4    4    0    0 -0.14978099719E+02  0.79731995141E+01 -0.83683568946E+01  0.18919428606E+02  0.00000000000E+00 0. -1.
        -12    1    4    4    0    0 -0.41742764798E+02 -0.13834297917E+03 -0.12205903290E+03  0.18915508402E+03  0.00000000000E+00 0.  1.
         -5    1    3    3    0  504  0.35281800368E+02 -0.18094396349E+03 -0.28575448885E+03  0.34009298913E+03  0.47000000000E+01 0.  1.
<mgrwt>
<rscale>  2 0.35694862E+03</rscale>
<asrwt>0</asrwt>
<pdfrwt beam="1">  1       21 0.44296056E-01 0.35701032E+03</pdfrwt>
<pdfrwt beam="2">  1       21 0.96269369E-01 0.35701032E+03</pdfrwt>
<totfact> 0.39828264E+03</totfact>
</mgrwt>
</event>
<event>
12    1  0.1410528E-001  0.1827534E+03  0.7546771E-02  0.1165269E+00
         21   -1    0    0  502  503  0.00000000000E+00  0.00000000000E+00  0.49490055166E+03  0.49490055166E+03  0.00000000000E+00 0. -1.
         21   -1    0    0  503  504 -0.00000000000E+00 -0.00000000000E+00 -0.67839927213E+02  0.67839927213E+02  0.00000000000E+00 0. -1.
         -6    2    1    2    0  504  0.16161731467E+02  0.56990033744E+02  0.23781892646E+03  0.29966021240E+03  0.17242196961E+03 0.  0.
        -24    2    3    3    0    0 -0.30753716719E+02  0.89386857533E+02  0.14727221475E+03  0.19255554177E+03  0.80328886687E+02 0.  0.
          6    2    1    2  502    0 -0.16161731467E+02 -0.56990033744E+02  0.18924169799E+03  0.26308026648E+03  0.17288649699E+03 0.  0.
         24    2    5    5    0    0 -0.54062581979E+02 -0.46407363151E+02  0.19458207584E+03  0.22309180536E+03  0.82652061417E+02 0.  0.
          4    1    6    6  501    0 -0.73859816909E+02 -0.22815298989E+02  0.12459193838E+03  0.14662524179E+03  0.00000000000E+00 0. -1.
         -3    1    6    6    0  501  0.19797234929E+02 -0.23592064161E+02  0.69990137464E+02  0.76466563571E+02  0.00000000000E+00 0.  1.
          5    1    5    5  502    0  0.37900850512E+02 -0.10582670594E+02 -0.53403778518E+01  0.39988461111E+02  0.47000000000E+01 0. -1.
         13    1    4    4    0    0 -0.51146157483E+02  0.63778450844E+02  0.66441536108E+02  0.10534751035E+03  0.00000000000E+00 0. -1.
        -14    1    4    4    0    0  0.20392440763E+02  0.25608406689E+02  0.80830678640E+02  0.87208031413E+02  0.00000000000E+00 0.  1.
         -5    1    3    3    0  504  0.46915448186E+02 -0.32396823788E+02  0.90546711709E+02  0.10710467063E+03  0.47000000000E+01 0.  1.
<mgrwt>
<rscale>  2 0.18264346E+03</rscale>
<asrwt>0</asrwt>
<pdfrwt beam="1">  1       21 0.76138544E-01 0.18275340E+03</pdfrwt>
<pdfrwt beam="2">  1       21 0.10436912E-01 0.18275340E+03</pdfrwt>
<totfact> 0.11607738E+05</totfact>
</mgrwt>
</event>
<event>
12    1  0.1410528E-001  0.2389042E+03  0.7546771E-02  0.1120623E+00
         21   -1    0    0  502  503  0.00000000000E+00  0.00000000000E+00  0.99043044425E+03  0.99043044425E+03  0.00000000000E+00 0.  1.
         21   -1    0    0  503  504 -0.00000000000E+00 -0.00000000000E+00 -0.61410542901E+02  0.61410542901E+02  0.00000000000E+00 0.  1.
         -6    2    1    2    0  504  0.57981821440E+02 -0.15410854963E+03  0.33103449004E+03  0.40789863173E+03  0.17229661484E+03 0.  0.
        -24    2    3    3    0    0  0.16801677242E+02 -0.84745172933E+02  0.11596912421E+03  0.17815467886E+03  0.10404908041E+03 0.  0.
          6    2    1    2  502    0 -0.57981821440E+02  0.15410854963E+03  0.59798541131E+03  0.64394235542E+03  0.17310074603E+03 0.  0.
         24    2    5    5    0    0 -0.43557830652E+02  0.13866486573E+03  0.59940079344E+03  0.62224783562E+03  0.82376138292E+02 0.  0.
          2    1    6    6  501    0  0.23719900514E+02  0.27889846624E+02  0.10770826806E+03  0.11376092577E+03  0.00000000000E+00 0. -1.
         -1    1    6    6    0  501 -0.67277731166E+02  0.11077501910E+03  0.49169252538E+03  0.50848690985E+03  0.00000000000E+00 0.  1.
          5    1    5    5  502    0 -0.14423990787E+02  0.15443683903E+02 -0.14153821305E+01  0.21694519799E+02  0.47000000000E+01 0. -1.
         13    1    4    4    0    0 -0.14633624505E+02  0.54643639859E+01  0.70766819165E+02  0.72470303812E+02  0.00000000000E+00 0. -1.
        -14    1    4    4    0    0  0.31435301747E+02 -0.90209536919E+02  0.45202305044E+02  0.10568437504E+03  0.00000000000E+00 0.  1.
         -5    1    3    3    0  504  0.41180144197E+02 -0.69363376696E+02  0.21506536583E+03  0.22974395287E+03  0.47000000000E+01 0.  1.
<mgrwt>
<rscale>  2 0.23875854E+03</rscale>
<asrwt>0</asrwt>
<pdfrwt beam="1">  1       21 0.15237390E+00 0.23890418E+03</pdfrwt>
<pdfrwt beam="2">  1       21 0.94477765E-02 0.23890418E+03</pdfrwt>
<totfact> 0.25010356E+04</totfact>
</mgrwt>
</event>
<event>
12    1  0.1410528E-001  0.2738871E+03  0.7546771E-02  0.1099207E+00
         21   -1    0    0  502  503  0.00000000000E+00  0.00000000000E+00  0.11787465650E+03  0.11787465650E+03  0.00000000000E+00 0.  1.
         21   -1    0    0  503  504 -0.00000000000E+00 -0.00000000000E+00 -0.12519086660E+04  0.12519086660E+04  0.00000000000E+00 0.  1.
         -6    2    1    2    0  504 -0.17525517824E+03  0.11839894431E+03 -0.10476085047E+04  0.10825839190E+04  0.17254470449E+03 0.  0.
        -24    2    3    3    0    0 -0.43235182300E+02  0.10587208119E+03 -0.52418356522E+03  0.54260062399E+03  0.81048433287E+02 0.  0.
          6    2    1    2  502    0  0.17525517824E+03 -0.11839894431E+03 -0.86425504814E+02  0.28719940351E+03  0.17401563717E+03 0.  0.
         24    2    5    5    0    0  0.10903822459E+03 -0.14620030140E+03 -0.46366672502E+02  0.20483193145E+03  0.80885037372E+02 0.  0.
          2    1    6    6  501    0  0.12229005897E+02 -0.47837156506E+02 -0.45011801476E+02  0.66813205281E+02  0.00000000000E+00 0. -1.
         -1    1    6    6    0  501  0.96809218689E+02 -0.98363144898E+02 -0.13548710255E+01  0.13801872617E+03  0.00000000000E+00 0.  1.
          5    1    5    5  502    0  0.66216953655E+02  0.27801357091E+02 -0.40058832312E+02  0.82367472060E+02  0.47000000000E+01 0. -1.
         13    1    4    4    0    0 -0.50321399295E+02  0.47514935810E+02 -0.16961014626E+03  0.18318710126E+03  0.00000000000E+00 0. -1.
        -14    1    4    4    0    0  0.70862169952E+01  0.58357145383E+02 -0.35457341896E+03  0.35941352273E+03  0.00000000000E+00 0.  1.
         -5    1    3    3    0  504 -0.13201999594E+03  0.12526863121E+02 -0.52342493948E+03  0.53998329502E+03  0.47000000000E+01 0.  1.
<mgrwt>
<rscale>  2 0.27365373E+03</rscale>
<asrwt>0</asrwt>
<pdfrwt beam="1">  1       21 0.18134562E-01 0.27388707E+03</pdfrwt>
<pdfrwt beam="2">  1       21 0.19260134E+00 0.27388707E+03</pdfrwt>
<totfact> 0.38907344E+03</totfact>
</mgrwt>
</event>
<event>
12    1  0.1410528E-001  0.2766962E+03  0.7546771E-02  0.1097563E+00
         21   -1    0    0  502  503  0.00000000000E+00  0.00000000000E+00  0.83700656260E+03  0.83700656260E+03  0.00000000000E+00 0.  1.
         21   -1    0    0  503  504 -0.00000000000E+00 -0.00000000000E+00 -0.99055263167E+02  0.99055263167E+02  0.00000000000E+00 0.  1.
         -6    2    1    2    0  504  0.43139805995E+02 -0.21026769896E+03  0.23857869597E+03  0.36534991593E+03  0.17460589568E+03 0.  0.
        -24    2    3    3    0    0  0.59789058124E+02 -0.94752075685E+02  0.19861720515E+03  0.24189924737E+03  0.80707895397E+02 0.  0.
          6    2    1    2  502    0 -0.43139805995E+02  0.21026769896E+03  0.49937260346E+03  0.57071190984E+03  0.17396993665E+03 0.  0.
         24    2    5    5    0    0  0.29587631960E+02  0.13979986223E+03  0.21564759203E+03  0.26941974539E+03  0.75257463518E+02 0.  0.
          2    1    6    6  501    0  0.47716357540E+02  0.57995586078E+02  0.12621042852E+03  0.14686528198E+03  0.00000000000E+00 0. -1.
         -1    1    6    6    0  501 -0.18128725580E+02  0.81804276150E+02  0.89437163506E+02  0.12255446342E+03  0.00000000000E+00 0.  1.
          5    1    5    5  502    0 -0.72727437955E+02  0.70467836736E+02  0.28372501143E+03  0.30129216444E+03  0.47000000000E+01 0. -1.
         13    1    4    4    0    0 -0.12643279680E+02 -0.10461528224E+02  0.70091599083E+02  0.71987001298E+02  0.00000000000E+00 0. -1.
        -14    1    4    4    0    0  0.72432337803E+02 -0.84290547461E+02  0.12852560607E+03  0.16991224607E+03  0.00000000000E+00 0.  1.
         -5    1    3    3    0  504 -0.16649252129E+02 -0.11551562328E+03  0.39961490824E+02  0.12345066856E+03  0.47000000000E+01 0.  1.
<mgrwt>
<rscale>  2 0.27659589E+03</rscale>
<asrwt>0</asrwt>
<pdfrwt beam="1">  1       21 0.12877024E+00 0.27669616E+03</pdfrwt>
<pdfrwt beam="2">  1       21 0.15239272E-01 0.27669616E+03</pdfrwt>
<totfact> 0.16074059E+04</totfact>
</mgrwt>
</event>
<event>
12    1  0.1410528E-001  0.1787710E+03  0.7546771E-02  0.1169616E+00
         21   -1    0    0  502  503  0.00000000000E+00  0.00000000000E+00  0.21176470149E+04  0.21176470149E+04  0.00000000000E+00 0. -1.
         21   -1    0    0  503  504 -0.00000000000E+00 -0.00000000000E+00 -0.22764907938E+02  0.22764907938E+02  0.00000000000E+00 0. -1.
         -6    2    1    2    0  504  0.23957874425E+02 -0.36577095841E+02  0.41276738833E+03  0.44882421029E+03  0.17074657006E+03 0.  0.
        -24    2    3    3    0    0  0.10151846847E+02  0.43285790977E+02  0.18483285442E+03  0.20686361673E+03  0.81563791959E+02 0.  0.
          6    2    1    2  502    0 -0.23957874425E+02  0.36577095841E+02  0.16821147186E+04  0.16915877125E+04  0.17334127873E+03 0.  0.
         24    2    5    5    0    0 -0.78625804717E+01  0.33354586195E+02  0.16656392278E+04  0.16678606214E+04  0.78934572235E+02 0.  0.
          4    1    6    6  501    0  0.29300576275E+02  0.18319265636E+02  0.12004199974E+04  0.12009172700E+04  0.00000000000E+00 0. -1.
         -3    1    6    6    0  501 -0.37163156746E+02  0.15035320559E+02  0.46521923036E+03  0.46694335136E+03  0.00000000000E+00 0.  1.
          5    1    5    5  502    0 -0.16095293953E+02  0.32225096463E+01  0.16475490868E+02  0.23727091166E+02  0.47000000000E+01 0. -1.
         13    1    4    4    0    0  0.22910533970E+02 -0.18469939328E+02  0.50098980155E+02  0.58102831585E+02  0.00000000000E+00 0. -1.
        -14    1    4    4    0    0 -0.12758687123E+02  0.61755730305E+02  0.13473387427E+03  0.14876078515E+03  0.00000000000E+00 0.  1.
         -5    1    3    3    0  504  0.13806027578E+02 -0.79862886818E+02  0.22793453390E+03  0.24196059356E+03  0.47000000000E+01 0.  1.
<mgrwt>
<rscale>  2 0.17813894E+03</rscale>
<asrwt>0</asrwt>
<pdfrwt beam="1">  1       21 0.32579169E+00 0.17877098E+03</pdfrwt>
<pdfrwt beam="2">  1       21 0.35022952E-02 0.17877098E+03</pdfrwt>
<totfact> 0.12046417E+04</totfact>
</mgrwt>
</event>
<event>
12    1  0.1410528E-001  0.1736482E+03  0.7546771E-02  0.1174725E+00
         21   -1    0    0  502  503  0.00000000000E+00  0.00000000000E+00  0.19104488796E+03  0.19104488796E+03  0.00000000000E+00 0.  1.
         21   -1    0    0  503  504 -0.00000000000E+00 -0.00000000000E+00 -0.15644439002E+03  0.15644439002E+03  0.00000000000E+00 0.  1.
         -6    2    1    2    0  504 -0.57181816589E+01 -0.19520195923E+01  0.47060387570E+01  0.17371199279E+03  0.17354308299E+03 0.  0.
        -24    2    3    3    0    0  0.41503431329E+01  0.58253051154E+02 -0.28599785304E+02  0.10404560030E+03  0.81221277422E+02 0.  0.
          6    2    1    2  502    0  0.57181816589E+01  0.19520195923E+01  0.29894459183E+02  0.17377728519E+03  0.17107997596E+03 0.  0.
         24    2    5    5    0    0 -0.72922602846E+01  0.57293128166E+02 -0.16536030144E+02  0.10022600894E+03  0.80225513278E+02 0.  0.
          2    1    6    6  501    0 -0.97067537964E+01 -0.18553026040E+02 -0.12163820784E+02  0.24215581359E+02  0.00000000000E+00 0. -1.
         -1    1    6    6    0  501  0.24144935119E+01  0.75846154207E+02 -0.43722093605E+01  0.76010427584E+02  0.00000000000E+00 0.  1.
          5    1    5    5  502    0  0.13010441943E+02 -0.55341108574E+02  0.46430489327E+02  0.73551276243E+02  0.47000000000E+01 0. -1.
         13    1    4    4    0    0 -0.32625756584E+02  0.52833707489E+02 -0.24070140809E+02  0.66597389726E+02  0.00000000000E+00 0. -1.
        -14    1    4    4    0    0  0.36776099717E+02  0.54193436650E+01 -0.45296444944E+01  0.37448210577E+02  0.00000000000E+00 0.  1.
         -5    1    3    3    0  504 -0.98685247918E+01 -0.60205070747E+02  0.33305824061E+02  0.69666392483E+02  0.47000000000E+01 0.  1.
<mgrwt>
<rscale>  2 0.17302954E+03</rscale>
<asrwt>0</asrwt>
<pdfrwt beam="1">  1       21 0.29391521E-01 0.17364824E+03</pdfrwt>
<pdfrwt beam="2">  1       21 0.24068368E-01 0.17364824E+03</pdfrwt>
<totfact> 0.18160841E+05</totfact>
</mgrwt>
</event>
<event>
12    1  0.1410528E-001  0.1892662E+03  0.7546771E-02  0.1159145E+00
         21   -1    0    0  502  503  0.00000000000E+00  0.00000000000E+00  0.31190986753E+03  0.31190986753E+03  0.00000000000E+00 0.  1.
         21   -1    0    0  503  504 -0.00000000000E+00 -0.00000000000E+00 -0.21382351922E+03  0.21382351922E+03  0.00000000000E+00 0.  1.
         -6    2    1    2    0  504  0.35362987593E+02 -0.69587920169E+02 -0.12984421767E+03  0.22952389603E+03  0.17242006398E+03 0.  0.
        -24    2    3    3    0    0 -0.46321123355E+02 -0.41433541993E+02 -0.63220493994E+02  0.12031870592E+03  0.81347251100E+02 0.  0.
          6    2    1    2  502    0 -0.35362987593E+02  0.69587920169E+02  0.22793056598E+03  0.29620949072E+03  0.17232150174E+03 0.  0.
         24    2    5    5    0    0  0.69675541849E+01 -0.25254764006E+02  0.12227149199E+03  0.14797677023E+03  0.79123048837E+02 0.  0.
          4    1    6    6  501    0  0.41446638752E+02 -0.11636926978E+02  0.85688080253E+02  0.95894155353E+02  0.00000000000E+00 0. -1.
         -3    1    6    6    0  501 -0.34479084567E+02 -0.13617837028E+02  0.36583411737E+02  0.52082614875E+02  0.00000000000E+00 0.  1.
          5    1    5    5  502    0 -0.42330541778E+02  0.94842684175E+02  0.10565907399E+03  0.14823272049E+03  0.47000000000E+01 0. -1.
         13    1    4    4    0    0  0.92943285120E+01  0.11209643288E+02  0.72344230286E+01  0.16259690086E+02  0.00000000000E+00 0. -1.
        -14    1    4    4    0    0 -0.55615451867E+02 -0.52643185281E+02 -0.70454917023E+02  0.10405901583E+03  0.00000000000E+00 0.  1.
         -5    1    3    3    0  504  0.81684110948E+02 -0.28154378176E+02 -0.66623723675E+02  0.10920519012E+03  0.47000000000E+01 0.  1.
<mgrwt>
<rscale>  2 0.18924376E+03</rscale>
<asrwt>0</asrwt>
<pdfrwt beam="1">  1       21 0.47986133E-01 0.18926621E+03</pdfrwt>
<pdfrwt beam="2">  1       21 0.32895926E-01 0.18926621E+03</pdfrwt>
<totfact> 0.36985274E+04</totfact>
</mgrwt>
</event>
<event>
12    1  0.1410528E-001  0.1871719E+03  0.7546771E-02  0.1161095E+00
         21   -1    0    0  502  503  0.00000000000E+00  0.00000000000E+00  0.23712802569E+03  0.23712802569E+03  0.00000000000E+00 0.  1.
         21   -1    0    0  503  504 -0.00000000000E+00 -0.00000000000E+00 -0.32494479336E+03  0.32494479336E+03  0.00000000000E+00 0.  1.
         -6    2    1    2    0  504  0.60698301644E+02 -0.37616036038E+02 -0.25157444227E+03  0.31356501616E+03  0.17301465073E+03 0.  0.
        -24    2    3    3    0    0  0.42686102290E+01 -0.58422613277E+02 -0.22764905332E+03  0.24866711199E+03  0.81116079379E+02 0.  0.
          6    2    1    2  502    0 -0.60698301644E+02  0.37616036038E+02  0.16375767460E+03  0.24850780289E+03  0.17274345752E+03 0.  0.
         24    2    5    5    0    0 -0.37446745689E+02 -0.27989095904E+02 -0.15488681627E+00  0.70367167487E+02  0.52591501386E+02 0.  0.
          2    1    6    6  501    0  0.61307983993E+00 -0.10900653189E+02 -0.21045568819E+02  0.23708987194E+02  0.00000000000E+00 0. -1.
         -1    1    6    6    0  501 -0.38059825529E+02 -0.17088442715E+02  0.20890682003E+02  0.46658180293E+02  0.00000000000E+00 0.  1.
          5    1    5    5  502    0 -0.23251555954E+02  0.65605131942E+02  0.16391256142E+03  0.17814063540E+03  0.47000000000E+01 0. -1.
         13    1    4    4    0    0  0.12011540352E+02  0.18726186658E+02 -0.43457256952E+02  0.48820900751E+02  0.00000000000E+00 0. -1.
        -14    1    4    4    0    0 -0.77429301228E+01 -0.77148799935E+02 -0.18419179637E+03  0.19984621124E+03  0.00000000000E+00 0.  1.
         -5    1    3    3    0  504  0.56429691415E+02  0.20806577240E+02 -0.23925388957E+02  0.64897904175E+02  0.47000000000E+01 0.  1.
<mgrwt>
<rscale>  2 0.18710920E+03</rscale>
<asrwt>0</asrwt>
<pdfrwt beam="1">  1       21 0.36481235E-01 0.18717190E+03</pdfrwt>
<pdfrwt beam="2">  1       21 0.49991507E-01 0.18717190E+03</pdfrwt>
<totfact> 0.27704435E+04</totfact>
</mgrwt>
</event>
<event>
12    1  0.1410528E-001  0.1970809E+03  0.7546771E-02  0.1152347E+00
         21   -1    0    0  502  503  0.00000000000E+00  0.00000000000E+00  0.26598810031E+03  0.26598810031E+03  0.00000000000E+00 0. -1.
         21   -1    0    0  503  504 -0.00000000000E+00 -0.00000000000E+00 -0.26141292346E+03  0.26141292346E+03  0.00000000000E+00 0.  1.
         -6    2    1    2    0  504 -0.80837655777E+02  0.48855540863E+02 -0.17322933137E+03  0.26196676846E+03  0.17232700330E+03 0.  0.
        -24    2    3    3    0    0 -0.10177915341E+03  0.55948431780E+02 -0.71828084468E+02  0.15807664238E+03  0.79622409285E+02 0.  0.
          6    2    1    2  502    0  0.80837655777E+02 -0.48855540863E+02  0.17780450822E+03  0.26543425531E+03  0.17297199277E+03 0.  0.
         24    2    5    5    0    0  0.93910791804E+02 -0.89823422807E+02  0.13032074924E+03  0.20119975054E+03  0.81304107100E+02 0.  0.
          4    1    6    6  501    0  0.73761580037E+02 -0.20397603322E+02  0.91016082264E+02  0.11891492817E+03  0.00000000000E+00 0. -1.
         -3    1    6    6    0  501  0.20149211767E+02 -0.69425819485E+02  0.39304666980E+02  0.82284822369E+02  0.00000000000E+00 0.  1.
          5    1    5    5  502    0 -0.13073136028E+02  0.40967881944E+02  0.47483758975E+02  0.64234504769E+02  0.47000000000E+01 0. -1.
         13    1    4    4    0    0 -0.10914443935E+02 -0.15095384508E+02  0.52476374065E+01  0.19352865891E+02  0.00000000000E+00 0. -1.
        -14    1    4    4    0    0 -0.90864709473E+02  0.71043816289E+02 -0.77075721874E+02  0.13872377649E+03  0.00000000000E+00 0.  1.
         -5    1    3    3    0  504  0.20941497631E+02 -0.70928909177E+01 -0.10140124690E+03  0.10389012608E+03  0.47000000000E+01 0.  1.
<mgrwt>
<rscale>  2 0.19693934E+03</rscale>
<asrwt>0</asrwt>
<pdfrwt beam="1">  1       21 0.40921246E-01 0.19708095E+03</pdfrwt>
<pdfrwt beam="2">  1       21 0.40217373E-01 0.19708095E+03</pdfrwt>
<totfact> 0.34190878E+04</totfact>
</mgrwt>
</event>
<event>
12    1  0.1410528E-001  0.2877086E+03  0.7546771E-02  0.1091846E+00
         21   -1    0    0  502  503  0.00000000000E+00  0.00000000000E+00  0.55262004048E+03  0.55262004048E+03  0.00000000000E+00 0. -1.
         21   -1    0    0  503  504 -0.00000000000E+00 -0.00000000000E+00 -0.15639323922E+03  0.15639323922E+03  0.00000000000E+00 0.  1.
         -6    2    1    2    0  504  0.10989570181E+03  0.20196104121E+03  0.11841589318E+03  0.30906935748E+03  0.16922238780E+03 0.  0.
        -24    2    3    3    0    0  0.26113819485E+02  0.12540009937E+03  0.95402557532E+01  0.15172586049E+03  0.80762638461E+02 0.  0.
          6    2    1    2  502    0 -0.10989570181E+03 -0.20196104121E+03  0.27781090809E+03  0.39994392222E+03  0.17294771703E+03 0.  0.
         24    2    5    5    0    0 -0.98042906051E+01 -0.11561193367E+03  0.81730002335E+02  0.16341851012E+03  0.81015880214E+02 0.  0.
          2    1    6    6  501    0  0.24202418655E+02 -0.36342158131E+01  0.13361730374E+02  0.27883694732E+02  0.00000000000E+00 0. -1.
         -1    1    6    6    0  501 -0.34006709260E+02 -0.11197771786E+03  0.68368271961E+02  0.13553481539E+03  0.00000000000E+00 0.  1.
          5    1    5    5  502    0 -0.10009141120E+03 -0.86349107541E+02  0.19608090575E+03  0.23652541210E+03  0.47000000000E+01 0. -1.
         13    1    4    4    0    0  0.10059379529E+02  0.23514406125E+00  0.22720634397E+02  0.24849016815E+02  0.00000000000E+00 0. -1.
        -14    1    4    4    0    0  0.16054439956E+02  0.12516495531E+03 -0.13180378644E+02  0.12687684367E+03  0.00000000000E+00 0.  1.
         -5    1    3    3    0  504  0.83781882321E+02  0.76560941846E+02  0.10887563743E+03  0.15734349699E+03  0.47000000000E+01 0.  1.
<mgrwt>
<rscale>  2 0.28715102E+03</rscale>
<asrwt>0</asrwt>
<pdfrwt beam="1">  1       21 0.85018467E-01 0.28770860E+03</pdfrwt>
<pdfrwt beam="2">  1       21 0.24060499E-01 0.28770860E+03</pdfrwt>
<totfact> 0.18570703E+04</totfact>
</mgrwt>
</event>
<event>
12    1  0.1410528E-001  0.1898463E+03  0.7546771E-02  0.1161479E+00
         21   -1    0    0  502  503  0.00000000000E+00  0.00000000000E+00  0.14642690199E+03  0.14642690199E+03  0.00000000000E+00 0. -1.
         21   -1    0    0  503  504 -0.00000000000E+00 -0.00000000000E+00 -0.23715182045E+03  0.23715182045E+03  0.00000000000E+00 0.  1.
         -6    2    1    2    0  504 -0.46775216990E+02 -0.62559449451E+02 -0.79072685108E+02  0.20565532417E+03  0.17303183866E+03 0.  0.
        -24    2    3    3    0    0 -0.80589649014E+02 -0.90895498879E+02 -0.68635715202E+02  0.16007717315E+03  0.78467552000E+02 0.  0.
          6    2    1    2  502    0  0.46775216990E+02  0.62559449451E+02 -0.11652233348E+02  0.17792339827E+03  0.15943448645E+03 0.  0.
         24    2    5    5    0    0  0.81196554427E+02  0.77475362280E+01 -0.10282985510E+02  0.11301469976E+03  0.77547906504E+02 0.  0.
          4    1    6    6  501    0  0.89242932661E+02 -0.95130290314E+01  0.29955759958E+01  0.89798509046E+02  0.00000000000E+00 0. -1.
         -3    1    6    6    0  501 -0.80463782346E+01  0.17260565259E+02 -0.13278561505E+02  0.23216190717E+02  0.00000000000E+00 0.  1.
          5    1    5    5  502    0 -0.34421337437E+02  0.54811913223E+02 -0.13692478383E+01  0.64908698506E+02  0.47000000000E+01 0. -1.
         13    1    4    4    0    0  0.14817785171E+02 -0.20512972098E+02 -0.60733765889E+01  0.26023733107E+02  0.00000000000E+00 0. -1.
        -14    1    4    4    0    0 -0.95407434185E+02 -0.70382526781E+02 -0.62562338613E+02  0.13405344004E+03  0.00000000000E+00 0.  1.
         -5    1    3    3    0  504  0.33814432024E+02  0.28336049427E+02 -0.10436969906E+02  0.45578151028E+02  0.47000000000E+01 0.  1.
<mgrwt>
<rscale>  2 0.18669237E+03</rscale>
<asrwt>0</asrwt>
<pdfrwt beam="1">  1       21 0.22527216E-01 0.18984631E+03</pdfrwt>
<pdfrwt beam="2">  1       21 0.36484895E-01 0.18984631E+03</pdfrwt>
<totfact> 0.13386667E+05</totfact>
</mgrwt>
</event>
<event>
12    1  0.1410528E-001  0.2348264E+03  0.7546771E-02  0.1123573E+00
         21   -1    0    0  502  503  0.00000000000E+00  0.00000000000E+00  0.51528884894E+02  0.51528884894E+02  0.00000000000E+00 0.  1.
         21   -1    0    0  503  504 -0.00000000000E+00 -0.00000000000E+00 -0.13824862595E+04  0.13824862595E+04  0.00000000000E+00 0. -1.
         -6    2    1    2    0  504 -0.15454659192E+03 -0.25699822573E+02 -0.10121882787E+04  0.10390709959E+04  0.17492367762E+03 0.  0.
        -24    2    3    3    0    0 -0.33529796525E+02 -0.41291696119E+02 -0.63993295495E+03  0.64730028827E+03  0.81573432763E+02 0.  0.
          6    2    1    2  502    0  0.15454659192E+03  0.25699822573E+02 -0.31876909587E+03  0.39494414848E+03  0.17269051502E+03 0.  0.
         24    2    5    5    0    0  0.12982037341E+03 -0.39649530996E+02 -0.25510135609E+03  0.30029957661E+03  0.81717312596E+02 0.  0.
          2    1    6    6  501    0  0.79595885750E+02 -0.20843941272E+02 -0.22323771066E+03  0.23791815898E+03  0.00000000000E+00 0. -1.
         -1    1    6    6    0  501  0.50224487657E+02 -0.18805589724E+02 -0.31863645430E+02  0.62381417629E+02  0.00000000000E+00 0.  1.
          5    1    5    5  502    0  0.24726218516E+02  0.65349353569E+02 -0.63667739787E+02  0.94644571865E+02  0.47000000000E+01 0. -1.
         13    1    4    4    0    0 -0.23609769589E+02  0.85627596735E+01 -0.44946247872E+03  0.45016359454E+03  0.00000000000E+00 0. -1.
        -14    1    4    4    0    0 -0.99200269353E+01 -0.49854455793E+02 -0.19047047624E+03  0.19713669373E+03  0.00000000000E+00 0.  1.
         -5    1    3    3    0  504 -0.12101679540E+03  0.15591873546E+02 -0.37225532379E+03  0.39177070766E+03  0.47000000000E+01 0.  1.
<mgrwt>
<rscale>  2 0.23441058E+03</rscale>
<asrwt>0</asrwt>
<pdfrwt beam="1">  1       21 0.79275191E-02 0.23482637E+03</pdfrwt>
<pdfrwt beam="2">  1       21 0.21269024E+00 0.23482637E+03</pdfrwt>
<totfact> 0.13169871E+04</totfact>
</mgrwt>
</event>
<event>
12    1  0.1410528E-001  0.1865008E+03  0.7546771E-02  0.1163199E+00
         21   -1    0    0  502  503  0.00000000000E+00  0.00000000000E+00  0.18085616875E+03  0.18085616875E+03  0.00000000000E+00 0. -1.
         21   -1    0    0  503  504 -0.00000000000E+00 -0.00000000000E+00 -0.35657086378E+03  0.35657086378E+03  0.00000000000E+00 0. -1.
         -6    2    1    2    0  504 -0.28421872414E+02 -0.39594169575E+02 -0.27471855155E+03  0.33204342643E+03  0.18001959163E+03 0.  0.
        -24    2    3    3    0    0 -0.70908687083E+02  0.75058151152E+01 -0.23267789346E+03  0.25580009943E+03  0.78805517567E+02 0.  0.
          6    2    1    2  502    0  0.28421872414E+02  0.39594169575E+02  0.99003856520E+02  0.20538360610E+03  0.17321997851E+03 0.  0.
         24    2    5    5    0    0  0.12974096159E+02  0.89701643721E+02  0.42249863072E+02  0.12797237611E+03  0.79857160361E+02 0.  0.
          2    1    6    6  501    0 -0.27172302548E+02  0.44996034512E+02 -0.31573451558E+01  0.52658769222E+02  0.00000000000E+00 0. -1.
         -1    1    6    6    0  501  0.40146398707E+02  0.44705609209E+02  0.45407208227E+02  0.75313606891E+02  0.00000000000E+00 0.  1.
          5    1    5    5  502    0  0.15447776254E+02 -0.50107474146E+02  0.56753993449E+02  0.77411229992E+02  0.47000000000E+01 0. -1.
         13    1    4    4    0    0  0.20901375204E+01  0.95612556651E+00 -0.12796541433E+03  0.12798605438E+03  0.00000000000E+00 0. -1.
        -14    1    4    4    0    0 -0.72998824604E+02  0.65496895487E+01 -0.10471247913E+03  0.12781404505E+03  0.00000000000E+00 0.  1.
         -5    1    3    3    0  504  0.42486814670E+02 -0.47099984690E+02 -0.42040658089E+02  0.76243326994E+02  0.47000000000E+01 0.  1.
<mgrwt>
<rscale>  2 0.18484013E+03</rscale>
<asrwt>0</asrwt>
<pdfrwt beam="1">  1       21 0.27824026E-01 0.18650082E+03</pdfrwt>
<pdfrwt beam="2">  1       21 0.54857056E-01 0.18650082E+03</pdfrwt>
<totfact> 0.38800886E+04</totfact>
</mgrwt>
</event>
<event>
12    1  0.1410528E-001  0.2161674E+03  0.7546771E-02  0.1136919E+00
         21   -1    0    0  502  503  0.00000000000E+00  0.00000000000E+00  0.23104276801E+04  0.23104276801E+04  0.00000000000E+00 0.  1.
         21   -1    0    0  503  504 -0.00000000000E+00 -0.00000000000E+00 -0.31865456504E+02  0.31865456504E+02  0.00000000000E+00 0. -1.
         -6    2    1    2    0  504  0.12842927264E+03 -0.12847344961E+02  0.42799117536E+03  0.47913948274E+03  0.17245018235E+03 0.  0.
        -24    2    3    3    0    0  0.15045599146E+03 -0.33479158324E+00  0.27046602782E+03  0.31952118040E+03  0.79402739672E+02 0.  0.
          6    2    1    2  502    0 -0.12842927264E+03  0.12847344961E+02  0.18505710483E+04  0.18631536539E+04  0.17340473176E+03 0.  0.
         24    2    5    5    0    0 -0.10346961599E+03 -0.22989767316E+02  0.17261052788E+04  0.17311646360E+04  0.79101659821E+02 0.  0.
          2    1    6    6  501    0 -0.43990524080E+02 -0.49670177531E+02  0.96058516564E+03  0.96287390306E+03  0.00000000000E+00 0. -1.
         -1    1    6    6    0  501 -0.59479091906E+02  0.26680410215E+02  0.76552011319E+03  0.76829073297E+03  0.00000000000E+00 0.  1.
          5    1    5    5  502    0 -0.24959656655E+02  0.35837112277E+02  0.12446576943E+03  0.13198901787E+03  0.47000000000E+01 0. -1.
         13    1    4    4    0    0  0.38767053746E+02  0.37485959030E+01  0.16976673634E+02  0.42486984773E+02  0.00000000000E+00 0. -1.
        -14    1    4    4    0    0  0.11168893772E+03 -0.40833874862E+01  0.25348935419E+03  0.27703419563E+03  0.00000000000E+00 0.  1.
         -5    1    3    3    0  504 -0.22026718822E+02 -0.12512553378E+02  0.15752514754E+03  0.15961830234E+03  0.47000000000E+01 0.  1.
<mgrwt>
<rscale>  2 0.21597588E+03</rscale>
<asrwt>0</asrwt>
<pdfrwt beam="1">  1       21 0.35545028E+00 0.21616737E+03</pdfrwt>
<pdfrwt beam="2">  1       21 0.49023797E-02 0.21616737E+03</pdfrwt>
<totfact> 0.43868402E+03</totfact>
</mgrwt>
</event>
<event>
12    1  0.1410528E-001  0.1811687E+03  0.7546771E-02  0.1167536E+00
         21   -1    0    0  502  503  0.00000000000E+00  0.00000000000E+00  0.12116344637E+03  0.12116344637E+03  0.00000000000E+00 0. -1.
         21   -1    0    0  503  504 -0.00000000000E+00 -0.00000000000E+00 -0.41708791277E+03  0.41708791277E+03  0.00000000000E+00 0. -1.
         -6    2    1    2    0  504  0.51852945592E+02  0.13287644368E+02 -0.31107094040E+03  0.35998226021E+03  0.17308035198E+03 0.  0.
        -24    2    3    3    0    0  0.84108085890E+02 -0.16548540916E+02 -0.28613260323E+03  0.30924171735E+03  0.80065902881E+02 0.  0.
          6    2    1    2  502    0 -0.51852945592E+02 -0.13287644368E+02  0.15146473995E+02  0.17826909893E+03  0.16936695811E+03 0.  0.
         24    2    5    5    0    0 -0.73536030131E+02  0.25538439142E+02  0.53459199773E+02  0.11938297261E+03  0.73038678169E+02 0.  0.
          2    1    6    6  501    0 -0.36288390280E+02  0.35663844965E+02  0.61639696675E+02  0.79926274234E+02  0.00000000000E+00 0. -1.
         -1    1    6    6    0  501 -0.37247639851E+02 -0.10125405823E+02 -0.81804969013E+01  0.39456698380E+02  0.00000000000E+00 0.  1.
          5    1    5    5  502    0  0.21683084539E+02 -0.38826083511E+02 -0.38312725778E+02  0.58886126316E+02  0.47000000000E+01 0. -1.
         13    1    4    4    0    0  0.34754313689E+02 -0.46232378941E+02 -0.17082897542E+03  0.18035474495E+03  0.00000000000E+00 0. -1.
        -14    1    4    4    0    0  0.49353772202E+02  0.29683838025E+02 -0.11530362781E+03  0.12888697240E+03  0.00000000000E+00 0.  1.
         -5    1    3    3    0  504 -0.32255140298E+02  0.29836185284E+02 -0.24938337173E+02  0.50740542852E+02  0.47000000000E+01 0.  1.
<mgrwt>
<rscale>  2 0.18027607E+03</rscale>
<asrwt>0</asrwt>
<pdfrwt beam="1">  1       21 0.18640530E-01 0.18116870E+03</pdfrwt>
<pdfrwt beam="2">  1       21 0.64167372E-01 0.18116870E+03</pdfrwt>
<totfact> 0.59291836E+04</totfact>
</mgrwt>
</event>
<event>
12    1  0.1410528E-001  0.2004224E+03  0.7546771E-02  0.1150095E+00
         21   -1    0    0  502  503  0.00000000000E+00  0.00000000000E+00  0.90776597547E+02  0.90776597547E+02  0.00000000000E+00 0.  1.
         21   -1    0    0  503  504 -0.00000000000E+00 -0.00000000000E+00 -0.81542593283E+03  0.81542593283E+03  0.00000000000E+00 0.  1.
         -6    2    1    2    0  504 -0.68920840722E+02 -0.75254554197E+02 -0.67011786639E+03  0.69849407703E+03  0.16859030391E+03 0.  0.
        -24    2    3    3    0    0  0.22186702194E+02 -0.23495693474E+02 -0.40287150951E+03  0.41140128835E+03  0.76819720919E+02 0.  0.
          6    2    1    2  502    0  0.68920840722E+02  0.75254554197E+02 -0.54531468890E+02  0.20770845335E+03  0.17249866747E+03 0.  0.
         24    2    5    5    0    0  0.16403476278E+02  0.86621110031E+01 -0.84204445976E+02  0.11773510936E+03  0.80168953175E+02 0.  0.
          2    1    6    6  501    0  0.39680559975E+02  0.23068198362E+02 -0.76643068454E+02  0.89335595132E+02  0.00000000000E+00 0. -1.
         -1    1    6    6    0  501 -0.23277083697E+02 -0.14406087359E+02 -0.75613775229E+01  0.28399514230E+02  0.00000000000E+00 0.  1.
          5    1    5    5  502    0  0.52517364445E+02  0.66592443194E+02  0.29672977086E+02  0.89973343986E+02  0.47000000000E+01 0. -1.
         11    1    4    4    0    0  0.25049089875E+02 -0.44816957678E+02 -0.17119478611E+03  0.17872792560E+03  0.00000000000E+00 0. -1.
        -12    1    4    4    0    0 -0.28623876814E+01  0.21321264204E+02 -0.23167672340E+03  0.23267336276E+03  0.00000000000E+00 0.  1.
         -5    1    3    3    0  504 -0.91107542916E+02 -0.51758860724E+02 -0.26724635689E+03  0.28709278867E+03  0.47000000000E+01 0.  1.
<mgrwt>
<rscale>  2 0.19957860E+03</rscale>
<asrwt>0</asrwt>
<pdfrwt beam="1">  1       21 0.13965631E-01 0.20042236E+03</pdfrwt>
<pdfrwt beam="2">  1       21 0.12545014E+00 0.20042236E+03</pdfrwt>
<totfact> 0.21009546E+04</totfact>
</mgrwt>
</event>
<event>
12    1  0.1410528E-001  0.1788780E+03  0.7546771E-02  0.1168923E+00
         21   -1    0    0  502  503  0.00000000000E+00  0.00000000000E+00  0.44651669163E+03  0.44651669163E+03  0.00000000000E+00 0.  1.
         21   -1    0    0  503  504 -0.00000000000E+00 -0.00000000000E+00 -0.76108775533E+02  0.76108775533E+02  0.00000000000E+00 0.  1.
         -6    2    1    2    0  504 -0.31642935519E+02  0.33494052400E+02  0.24867126644E+03  0.30625276298E+03  0.17271429925E+03 0.  0.
        -24    2    3    3    0    0  0.26406205159E+01  0.59076315464E+02  0.24355691086E+03  0.26291616146E+03  0.79422636607E+02 0.  0.
          6    2    1    2  502    0  0.31642935519E+02 -0.33494052400E+02  0.12173664966E+03  0.21637270418E+03  0.17284157003E+03 0.  0.
         24    2    5    5    0    0 -0.24240429857E+02 -0.54820964383E+02  0.28781665917E+02  0.10573588073E+03  0.82211651280E+02 0.  0.
          2    1    6    6  501    0  0.10824956841E+02 -0.36848979977E+02  0.48345254607E+02  0.61743749959E+02  0.00000000000E+00 0. -1.
         -1    1    6    6    0  501 -0.35065386698E+02 -0.17971984406E+02 -0.19563588690E+02  0.43992130776E+02  0.00000000000E+00 0.  1.
          5    1    5    5  502    0  0.55883365376E+02  0.21326911983E+02  0.92954983741E+02  0.11063682345E+03  0.47000000000E+01 0. -1.
         13    1    4    4    0    0  0.12466903725E+02 -0.15016384513E+02  0.23698438566E+02  0.30700675608E+02  0.00000000000E+00 0. -1.
        -14    1    4    4    0    0 -0.98262832095E+01  0.74092699977E+02  0.21985847229E+03  0.23221548585E+03  0.00000000000E+00 0.  1.
         -5    1    3    3    0  504 -0.34283556035E+02 -0.25582263064E+02  0.51143555777E+01  0.43336601515E+02  0.47000000000E+01 0.  1.
<mgrwt>
<rscale>  2 0.17884724E+03</rscale>
<asrwt>0</asrwt>
<pdfrwt beam="1">  1       21 0.68694874E-01 0.17887799E+03</pdfrwt>
<pdfrwt beam="2">  1       21 0.11709043E-01 0.17887799E+03</pdfrwt>
<totfact> 0.11901210E+05</totfact>
</mgrwt>
</event>
<event>
12    1  0.1410528E-001  0.2183008E+03  0.7546771E-02  0.1135853E+00
         21   -1    0    0  502  503  0.00000000000E+00  0.00000000000E+00  0.18309524398E+04  0.18309524398E+04  0.00000000000E+00 0. -1.
         21   -1    0    0  503  504 -0.00000000000E+00 -0.00000000000E+00 -0.29289195955E+02  0.29289195955E+02  0.00000000000E+00 0. -1.
         -6    2    1    2    0  504 -0.12989612324E+03  0.25269374157E+02  0.57705207985E+03  0.61696380740E+03  0.17361939027E+03 0.  0.
        -24    2    3    3    0    0 -0.15731916783E+03 -0.73982998055E+00  0.42683234261E+03  0.46199103066E+03  0.80622551408E+02 0.  0.
          6    2    1    2  502    0  0.12989612324E+03 -0.25269374157E+02  0.12246111640E+04  0.12432778284E+04  0.16898435251E+03 0.  0.
         24    2    5    5    0    0  0.13966804120E+03 -0.60761002604E+02  0.88914137136E+03  0.90576158009E+03  0.81440779326E+02 0.  0.
          2    1    6    6  501    0  0.14437436906E+03 -0.39163634157E+02  0.73758269588E+03  0.75259948309E+03  0.00000000000E+00 0. -1.
         -1    1    6    6    0  501 -0.47063278584E+01 -0.21597368447E+02  0.15155867548E+03  0.15316209701E+03  0.00000000000E+00 0.  1.
          5    1    5    5  502    0 -0.97719179586E+01  0.35491628447E+02  0.33546979264E+03  0.33751624827E+03  0.47000000000E+01 0. -1.
         13    1    4    4    0    0 -0.18513512692E+02 -0.26076561149E+02  0.12140836606E+03  0.12554970546E+03  0.00000000000E+00 0. -1.
        -14    1    4    4    0    0 -0.13880565514E+03  0.25336731168E+02  0.30542397656E+03  0.33644132520E+03  0.00000000000E+00 0.  1.
         -5    1    3    3    0  504  0.27423044591E+02  0.26009204138E+02  0.15021973723E+03  0.15497277673E+03  0.47000000000E+01 0.  1.
<mgrwt>
<rscale>  2 0.21737797E+03</rscale>
<asrwt>0</asrwt>
<pdfrwt beam="1">  1       21 0.28168490E+00 0.21830079E+03</pdfrwt>
<pdfrwt beam="2">  1       21 0.45060316E-02 0.21830079E+03</pdfrwt>
<totfact> 0.13620716E+04</totfact>
</mgrwt>
</event>
<event>
12    1  0.1410528E-001  0.2538170E+03  0.7546771E-02  0.1111070E+00
         21   -1    0    0  502  503  0.00000000000E+00  0.00000000000E+00  0.23385490944E+03  0.23385490944E+03  0.00000000000E+00 0. -1.
         21   -1    0    0  503  504 -0.00000000000E+00 -0.00000000000E+00 -0.27830427135E+03  0.27830427135E+03  0.00000000000E+00 0. -1.
         -6    2    1    2    0  504 -0.11695355927E+03 -0.14188373899E+03  0.80377585335E+01  0.25394421770E+03  0.17496836780E+03 0.  0.
        -24    2    3    3    0    0 -0.10084196412E+03 -0.10554340364E+03 -0.52870782041E+02  0.18105976267E+03  0.93160111008E+02 0.  0.
          6    2    1    2  502    0  0.11695355927E+03  0.14188373899E+03 -0.52487120441E+02  0.25821496309E+03  0.17352503836E+03 0.  0.
         24    2    5    5    0    0  0.86244736261E+01  0.15811781329E+02  0.67738614320E+01  0.81683710115E+02  0.79384817978E+02 0.  0.
          4    1    6    6  501    0 -0.18536903611E+02  0.27133249606E+02  0.29767653041E+02  0.44338958008E+02  0.00000000000E+00 0. -1.
         -3    1    6    6    0  501  0.27161377237E+02 -0.11321468277E+02 -0.22993791609E+02  0.37344752107E+02  0.00000000000E+00 0.  1.
          5    1    5    5  502    0  0.10832908564E+03  0.12607195766E+03 -0.59260981873E+02  0.17653125297E+03  0.47000000000E+01 0. -1.
         11    1    4    4    0    0 -0.68189135581E+02 -0.11934696413E+03 -0.46024168160E+02  0.14495406207E+03  0.00000000000E+00 0. -1.
        -12    1    4    4    0    0 -0.32652828541E+02  0.13803560481E+02 -0.68466138811E+01  0.36105700594E+02  0.00000000000E+00 0.  1.
         -5    1    3    3    0  504 -0.16111595145E+02 -0.36340335344E+02  0.60908540575E+02  0.72884455036E+02  0.47000000000E+01 0.  1.
<mgrwt>
<rscale>  2 0.25356842E+03</rscale>
<asrwt>0</asrwt>
<pdfrwt beam="1">  1       21 0.35977679E-01 0.25381698E+03</pdfrwt>
<pdfrwt beam="2">  1       21 0.42816041E-01 0.25381698E+03</pdfrwt>
<totfact> 0.37978431E+04</totfact>
</mgrwt>
</event>
<event>
12    1  0.1410528E-001  0.2140351E+03  0.7546771E-02  0.1138482E+00
         21   -1    0    0  502  503  0.00000000000E+00  0.00000000000E+00  0.34444352985E+03  0.34444352985E+03  0.00000000000E+00 0. -1.
         21   -1    0    0  503  504 -0.00000000000E+00 -0.00000000000E+00 -0.13784558598E+03  0.13784558598E+03  0.00000000000E+00 0. -1.
         -6    2    1    2    0  504 -0.10234957435E+03 -0.70850509538E+02  0.57104844323E+02  0.22152200169E+03  0.17411434150E+03 0.  0.
        -24    2    3    3    0    0 -0.85230421912E+02 -0.61120965134E+02 -0.27445384098E+02  0.13458201928E+03  0.79743799809E+02 0.  0.
          6    2    1    2  502    0  0.10234957435E+03  0.70850509538E+02  0.14949309954E+03  0.26076711414E+03  0.17365503430E+03 0.  0.
         24    2    5    5    0    0  0.37719777415E+02  0.66017711254E+02  0.13529206695E+02  0.11007326308E+03  0.78434456740E+02 0.  0.
          4    1    6    6  501    0 -0.11628786722E+02 -0.42268700485E+01  0.20499802953E+02  0.23944457232E+02  0.00000000000E+00 0. -1.
         -3    1    6    6    0  501  0.49348564137E+02  0.70244581302E+02 -0.69705962584E+01  0.86128805849E+02  0.00000000000E+00 0.  1.
          5    1    5    5  502    0  0.64629796930E+02  0.48327982843E+01  0.13596389284E+03  0.15069385106E+03  0.47000000000E+01 0. -1.
         13    1    4    4    0    0 -0.37955404470E+02  0.15741431417E+02 -0.13639340271E+02  0.43294768674E+02  0.00000000000E+00 0. -1.
        -14    1    4    4    0    0 -0.47275017442E+02 -0.76862396551E+02 -0.13806043827E+02  0.91287250610E+02  0.00000000000E+00 0.  1.
         -5    1    3    3    0  504 -0.17119152433E+02 -0.97295444042E+01  0.84550228421E+02  0.86939982404E+02  0.47000000000E+01 0.  1.
<mgrwt>
<rscale>  2 0.21394169E+03</rscale>
<asrwt>0</asrwt>
<pdfrwt beam="1">  1       21 0.52991312E-01 0.21403512E+03</pdfrwt>
<pdfrwt beam="2">  1       21 0.21207013E-01 0.21403512E+03</pdfrwt>
<totfact> 0.69125473E+04</totfact>
</mgrwt>
</event>
<event>
12    1  0.1410528E-001  0.3057705E+03  0.7546771E-02  0.1082468E+00
         21   -1    0    0  502  503  0.00000000000E+00  0.00000000000E+00  0.22810088662E+04  0.22810088662E+04  0.00000000000E+00 0. -1.
         21   -1    0    0  503  504 -0.00000000000E+00 -0.00000000000E+00 -0.61707306325E+02  0.61707306325E+02  0.00000000000E+00 0. -1.
         -6    2    1    2    0  504 -0.24920908478E+03  0.34508635969E+02  0.43029233897E+03  0.52787031497E+03  0.17378020186E+03 0.  0.
        -24    2    3    3    0    0 -0.23202977800E+03  0.77008880147E+02  0.33654803406E+03  0.42341226578E+03  0.79026464463E+02 0.  0.
          6    2    1    2  502    0  0.24920908478E+03 -0.34508635969E+02  0.17890092209E+04  0.18148458576E+04  0.17267159673E+03 0.  0.
         24    2    5    5    0    0  0.21816513945E+03 -0.13328945818E+02  0.10764115841E+04  0.11012424749E+04  0.79368767039E+02 0.  0.
          4    1    6    6  501    0  0.13182380460E+03  0.30370751545E+02  0.66233297264E+03  0.67600655666E+03  0.00000000000E+00 0. -1.
         -3    1    6    6    0  501  0.86341334854E+02 -0.43699697363E+02  0.41407861146E+03  0.42523591820E+03  0.00000000000E+00 0.  1.
          5    1    5    5  502    0  0.31043945325E+02 -0.21179690151E+02  0.71259763684E+03  0.71360338273E+03  0.47000000000E+01 0. -1.
         11    1    4    4    0    0 -0.18400605134E+03  0.60463650552E+02  0.31143243919E+03  0.36674820266E+03  0.00000000000E+00 0. -1.
        -12    1    4    4    0    0 -0.48023726659E+02  0.16545229595E+02  0.25115594862E+02  0.56664063125E+02  0.00000000000E+00 0.  1.
         -5    1    3    3    0  504 -0.17179306774E+02 -0.42500244178E+02  0.93744304912E+02  0.10445804919E+03  0.47000000000E+01 0.  1.
<mgrwt>
<rscale>  2 0.30561316E+03</rscale>
<asrwt>0</asrwt>
<pdfrwt beam="1">  1       21 0.35092438E+00 0.30577046E+03</pdfrwt>
<pdfrwt beam="2">  1       21 0.94934335E-02 0.30577046E+03</pdfrwt>
<totfact> 0.13547660E+03</totfact>
</mgrwt>
</event>
<event>
12    1  0.1410528E-001  0.2144322E+03  0.7546771E-02  0.1138271E+00
         21   -1    0    0  502  503  0.00000000000E+00  0.00000000000E+00  0.56751583417E+02  0.56751583417E+02  0.00000000000E+00 0.  1.
         21   -1    0    0  503  504 -0.00000000000E+00 -0.00000000000E+00 -0.10811198191E+04  0.10811198191E+04  0.00000000000E+00 0.  1.
         -6    2    1    2    0  504  0.10113589963E+03  0.75163131566E+02 -0.79947621374E+03  0.82773389388E+03  0.17350278439E+03 0.  0.
        -24    2    3    3    0    0  0.55884654463E+01  0.39409190376E+02 -0.19545244348E+03  0.21513740227E+03  0.80610972949E+02 0.  0.
          6    2    1    2  502    0 -0.10113589963E+03 -0.75163131566E+02 -0.22489202195E+03  0.31013750865E+03  0.17242646606E+03 0.  0.
         24    2    5    5    0    0 -0.72798416254E+02 -0.82331846902E+00 -0.52550592888E+02  0.12026102526E+03  0.80005388073E+02 0.  0.
          4    1    6    6  501    0 -0.59855439796E+02  0.31857862981E+02 -0.16239489548E+02  0.69723153455E+02  0.00000000000E+00 0. -1.
         -3    1    6    6    0  501 -0.12942976458E+02 -0.32681181450E+02 -0.36311103340E+02  0.50537871803E+02  0.00000000000E+00 0.  1.
          5    1    5    5  502    0 -0.28337483372E+02 -0.74339813097E+02 -0.17234142906E+03  0.18987648340E+03  0.47000000000E+01 0. -1.
         13    1    4    4    0    0  0.15621799790E+01 -0.20664553517E+02 -0.10116735489E+03  0.10326808739E+03  0.00000000000E+00 0. -1.
        -14    1    4    4    0    0  0.40262854674E+01  0.60073743893E+02 -0.94285088591E+02  0.11186931487E+03  0.00000000000E+00 0.  1.
         -5    1    3    3    0  504  0.95547434180E+02  0.35753941189E+02 -0.60402377026E+03  0.61259649161E+03  0.47000000000E+01 0.  1.
<mgrwt>
<rscale>  2 0.21421442E+03</rscale>
<asrwt>0</asrwt>
<pdfrwt beam="1">  1       21 0.87310129E-02 0.21443223E+03</pdfrwt>
<pdfrwt beam="2">  1       21 0.16632612E+00 0.21443223E+03</pdfrwt>
<totfact> 0.23001381E+04</totfact>
</mgrwt>
</event>
<event>
12    1  0.1410528E-001  0.1896393E+03  0.7546771E-02  0.1159077E+00
         21   -1    0    0  502  503  0.00000000000E+00  0.00000000000E+00  0.61008048473E+03  0.61008048473E+03  0.00000000000E+00 0.  1.
         21   -1    0    0  503  504 -0.00000000000E+00 -0.00000000000E+00 -0.70535174343E+02  0.70535174343E+02  0.00000000000E+00 0.  1.
         -6    2    1    2    0  504 -0.71148787293E+02 -0.30132878503E+02  0.13025797568E+03  0.23006569334E+03  0.17318470696E+03 0.  0.
        -24    2    3    3    0    0 -0.57949433416E+02  0.60266897937E+01  0.15471442336E+03  0.18421871792E+03  0.81274383512E+02 0.  0.
          6    2    1    2  502    0  0.71148787293E+02  0.30132878503E+02  0.40928733470E+03  0.45054996573E+03  0.17178186450E+03 0.  0.
         24    2    5    5    0    0  0.87124424541E+02  0.61997105626E+02  0.38373287361E+03  0.40644021128E+03  0.80674782933E+02 0.  0.
          2    1    6    6  501    0  0.56696595535E+02  0.66028526112E+01  0.94650153478E+02  0.11052942215E+03  0.00000000000E+00 0. -1.
         -1    1    6    6    0  501  0.30427829006E+02  0.55394253015E+02  0.28908272013E+03  0.29591078913E+03  0.00000000000E+00 0.  1.
          5    1    5    5  502    0 -0.15975637248E+02 -0.31864227123E+02  0.25554461093E+02  0.44109754447E+02  0.47000000000E+01 0. -1.
         13    1    4    4    0    0 -0.47895226372E+02  0.38570404934E+02  0.71525574427E+02  0.94326754652E+02  0.00000000000E+00 0. -1.
        -14    1    4    4    0    0 -0.10054207044E+02 -0.32543715141E+02  0.83188848929E+02  0.89891963270E+02  0.00000000000E+00 0.  1.
         -5    1    3    3    0  504 -0.13199353877E+02 -0.36159568297E+02 -0.24456447674E+02  0.45846975419E+02  0.47000000000E+01 0.  1.
<mgrwt>
<rscale>  2 0.18931847E+03</rscale>
<asrwt>0</asrwt>
<pdfrwt beam="1">  1       21 0.93858533E-01 0.18963935E+03</pdfrwt>
<pdfrwt beam="2">  1       21 0.10851566E-01 0.18963935E+03</pdfrwt>
<totfact> 0.66994372E+04</totfact>
</mgrwt>
</event>
<event>
12    1  0.1410528E-001  0.2475964E+03  0.7546771E-02  0.1115036E+00
         21   -1    0    0  502  503  0.00000000000E+00  0.00000000000E+00  0.47563196902E+03  0.47563196902E+03  0.00000000000E+00 0.  1.
         21   -1    0    0  503  504 -0.00000000000E+00 -0.00000000000E+00 -0.12920858472E+03  0.12920858472E+03  0.00000000000E+00 0. -1.
         -6    2    1    2    0  504  0.17278682947E+03 -0.38765908520E+02  0.14647197629E+03  0.28658821003E+03  0.17123281867E+03 0.  0.
        -24    2    3    3    0    0  0.64105471792E+02 -0.63139205422E+02  0.27556685758E+02  0.12358934062E+03  0.80117934380E+02 0.  0.
          6    2    1    2  502    0 -0.17278682947E+03  0.38765908520E+02  0.19995140801E+03  0.31825234371E+03  0.17304885036E+03 0.  0.
         24    2    5    5    0    0 -0.18525862890E+03  0.31067423000E+01  0.19029650249E+03  0.27897857234E+03  0.85357328550E+02 0.  0.
          4    1    6    6  501    0 -0.75076356537E+02 -0.15756652705E+02  0.27488569579E+02  0.81488360351E+02  0.00000000000E+00 0. -1.
         -3    1    6    6    0  501 -0.11018227237E+03  0.18863395005E+02  0.16280793291E+03  0.19749021199E+03  0.00000000000E+00 0.  1.
          5    1    5    5  502    0  0.12471799439E+02  0.35659166220E+02  0.96549055233E+01  0.39273771367E+02  0.47000000000E+01 0. -1.
         13    1    4    4    0    0  0.69596746252E+01 -0.46610082187E+02  0.41154232444E+02  0.62566825718E+02  0.00000000000E+00 0. -1.
        -14    1    4    4    0    0  0.57145797167E+02 -0.16529123234E+02 -0.13597546686E+02  0.61022514899E+02  0.00000000000E+00 0.  1.
         -5    1    3    3    0  504  0.10868135767E+03  0.24373296902E+02  0.11891529053E+03  0.16299886941E+03  0.47000000000E+01 0.  1.
<mgrwt>
<rscale>  2 0.24727936E+03</rscale>
<asrwt>0</asrwt>
<pdfrwt beam="1">  1       21 0.73174148E-01 0.24759642E+03</pdfrwt>
<pdfrwt beam="2">  1       21 0.19878244E-01 0.24759642E+03</pdfrwt>
<totfact> 0.38188890E+04</totfact>
</mgrwt>
</event>
<event>
12    1  0.1410528E-001  0.1903211E+03  0.7546771E-02  0.1158254E+00
         21   -1    0    0  502  503  0.00000000000E+00  0.00000000000E+00  0.92039134589E+02  0.92039134589E+02  0.00000000000E+00 0. -1.
         21   -1    0    0  503  504 -0.00000000000E+00 -0.00000000000E+00 -0.66028122047E+03  0.66028122047E+03  0.00000000000E+00 0. -1.
         -6    2    1    2    0  504 -0.53318628379E+02  0.57904501602E+02 -0.52369834513E+03  0.55720918103E+03  0.17328100673E+03 0.  0.
        -24    2    3    3    0    0 -0.44252092132E+02  0.67382275417E+02 -0.52995235008E+03  0.54193721803E+03  0.79673309433E+02 0.  0.
          6    2    1    2  502    0  0.53318628379E+02 -0.57904501602E+02 -0.44543740746E+02  0.19511117403E+03  0.17288267106E+03 0.  0.
         24    2    5    5    0    0  0.37753017304E+00 -0.61476995849E+02 -0.83380212407E+02  0.12918785398E+03  0.77185997746E+02 0.  0.
          4    1    6    6  501    0 -0.90628409853E-01  0.14838152483E+02 -0.37045368040E+02  0.39906619449E+02  0.00000000000E+00 0. -1.
         -3    1    6    6    0  501  0.46815858289E+00 -0.76315148332E+02 -0.46334844367E+02  0.89281234534E+02  0.00000000000E+00 0.  1.
          5    1    5    5  502    0  0.52941098206E+02  0.35724942474E+01  0.38836471661E+02  0.65923320042E+02  0.47000000000E+01 0. -1.
         11    1    4    4    0    0 -0.58183036305E+02  0.44374868529E+02 -0.24435010006E+03  0.25507129605E+03  0.00000000000E+00 0. -1.
        -12    1    4    4    0    0  0.13930944173E+02  0.23007406889E+02 -0.28560225002E+03  0.28686592198E+03  0.00000000000E+00 0.  1.
         -5    1    3    3    0  504 -0.90665362463E+01 -0.94777738158E+01  0.62540049461E+01  0.15271963000E+02  0.47000000000E+01 0.  1.
<mgrwt>
<rscale>  2 0.19023037E+03</rscale>
<asrwt>0</asrwt>
<pdfrwt beam="1">  1       21 0.14159867E-01 0.19032108E+03</pdfrwt>
<pdfrwt beam="2">  1       21 0.10158173E+00 0.19032108E+03</pdfrwt>
<totfact> 0.34492958E+04</totfact>
</mgrwt>
</event>
<event>
12    1  0.1410528E-001  0.2154830E+03  0.7546771E-02  0.1137485E+00
         21   -1    0    0  502  503  0.00000000000E+00  0.00000000000E+00  0.53293598261E+03  0.53293598261E+03  0.00000000000E+00 0. -1.
         21   -1    0    0  503  504 -0.00000000000E+00 -0.00000000000E+00 -0.16163655469E+03  0.16163655469E+03  0.00000000000E+00 0. -1.
         -6    2    1    2    0  504 -0.30586530611E+02  0.12369931646E+03 -0.50997759999E+02  0.22047566018E+03  0.17254474335E+03 0.  0.
        -24    2    3    3    0    0  0.45323958794E+02  0.88519895329E+02 -0.41294118142E+02  0.13611782274E+03  0.83263583657E+02 0.  0.
          6    2    1    2  502    0  0.30586530611E+02 -0.12369931646E+03  0.42229718791E+03  0.47409687712E+03  0.17376960962E+03 0.  0.
         24    2    5    5    0    0  0.27718882449E+02 -0.15881446102E+03  0.35558803909E+03  0.39850919744E+03  0.79852097193E+02 0.  0.
          4    1    6    6  501    0 -0.64915945357E+01 -0.99773258123E+02  0.27666628105E+03  0.29417864455E+03  0.00000000000E+00 0. -1.
         -3    1    6    6    0  501  0.34210476984E+02 -0.59041202892E+02  0.78921758034E+02  0.10433055289E+03  0.00000000000E+00 0.  1.
          5    1    5    5  502    0  0.28676481623E+01  0.35115144555E+02  0.66709148822E+02  0.75587679682E+02  0.47000000000E+01 0. -1.
         11    1    4    4    0    0  0.67237583969E+02  0.63506884196E+02 -0.14940189501E+02  0.93686852335E+02  0.00000000000E+00 0. -1.
        -12    1    4    4    0    0 -0.21913625175E+02  0.25013011133E+02 -0.26353928642E+02  0.42430970400E+02  0.00000000000E+00 0.  1.
         -5    1    3    3    0  504 -0.75910489405E+02  0.35179421131E+02 -0.97036418563E+01  0.84357837443E+02  0.47000000000E+01 0.  1.
<mgrwt>
<rscale>  2 0.21523597E+03</rscale>
<asrwt>0</asrwt>
<pdfrwt beam="1">  1       21 0.81990150E-01 0.21548302E+03</pdfrwt>
<pdfrwt beam="2">  1       21 0.24867162E-01 0.21548302E+03</pdfrwt>
<totfact> 0.19635122E+04</totfact>
</mgrwt>
</event>
<event>
12    1  0.1410528E-001  0.1798795E+03  0.7546771E-02  0.1168488E+00
         21   -1    0    0  502  503  0.00000000000E+00  0.00000000000E+00  0.51256351460E+02  0.51256351460E+02  0.00000000000E+00 0.  1.
         21   -1    0    0  503  504 -0.00000000000E+00 -0.00000000000E+00 -0.66669862021E+03  0.66669862021E+03  0.00000000000E+00 0.  1.
         -6    2    1    2    0  504 -0.14117254122E+02 -0.35693891934E+02 -0.39762754343E+03  0.43546622149E+03  0.17334882744E+03 0.  0.
        -24    2    3    3    0    0  0.28965244508E+02  0.23152451620E+02 -0.30525435445E+03  0.31767874388E+03  0.79778079691E+02 0.  0.
          6    2    1    2  502    0  0.14117254122E+02  0.35693891934E+02 -0.21781472532E+03  0.28248875018E+03  0.17573641805E+03 0.  0.
         24    2    5    5    0    0  0.30822730423E+02  0.15575342795E+02 -0.23519214131E+03  0.25074141101E+03  0.79770168927E+02 0.  0.
          4    1    6    6  501    0  0.52546462774E+02  0.29547262973E+02 -0.17946635235E+03  0.18932074140E+03  0.00000000000E+00 0. -1.
         -3    1    6    6    0  501 -0.21723732351E+02 -0.13971920177E+02 -0.55725788960E+02  0.61420669615E+02  0.00000000000E+00 0.  1.
          5    1    5    5  502    0 -0.16705476302E+02  0.20118549139E+02  0.17377415988E+02  0.31747339169E+02  0.47000000000E+01 0. -1.
         13    1    4    4    0    0 -0.80061928088E+01  0.28518889478E+02 -0.24498852899E+03  0.24677278115E+03  0.00000000000E+00 0. -1.
        -14    1    4    4    0    0  0.36971437317E+02 -0.53664378584E+01 -0.60265825457E+02  0.70905962729E+02  0.00000000000E+00 0.  1.
         -5    1    3    3    0  504 -0.43082498630E+02 -0.58846343554E+02 -0.92373188984E+02  0.11778747761E+03  0.47000000000E+01 0.  1.
<mgrwt>
<rscale>  2 0.17929369E+03</rscale>
<asrwt>0</asrwt>
<pdfrwt beam="1">  1       21 0.78855926E-02 0.17987951E+03</pdfrwt>
<pdfrwt beam="2">  1       21 0.10256902E+00 0.17987951E+03</pdfrwt>
<totfact> 0.95600942E+04</totfact>
</mgrwt>
</event>
<event>
12    1  0.1410528E-001  0.2216428E+03  0.7546771E-02  0.1132789E+00
         21   -1    0    0  502  503  0.00000000000E+00  0.00000000000E+00  0.28098107240E+03  0.28098107240E+03  0.00000000000E+00 0.  1.
         21   -1    0    0  503  504 -0.00000000000E+00 -0.00000000000E+00 -0.18526851028E+03  0.18526851028E+03  0.00000000000E+00 0. -1.
         -6    2    1    2    0  504  0.49888606822E+02 -0.12678516515E+03 -0.89240490916E+01  0.22114888529E+03  0.17396505287E+03 0.  0.
        -24    2    3    3    0    0  0.26265260139E+02 -0.14191827468E+03 -0.48562370157E+02  0.17235995202E+03  0.80740254428E+02 0.  0.
          6    2    1    2  502    0 -0.49888606822E+02  0.12678516515E+03  0.10463661121E+03  0.24510069740E+03  0.17482042291E+03 0.  0.
         24    2    5    5    0    0 -0.21727273939E+02  0.76869763587E+02  0.13849061206E+03  0.17837145826E+03  0.79092935896E+02 0.  0.
          2    1    6    6  501    0  0.15162266919E+02  0.90101118697E+01  0.78817780149E+02  0.80767065823E+02  0.00000000000E+00 0. -1.
         -1    1    6    6    0  501 -0.36889540857E+02  0.67859651717E+02  0.59672831907E+02  0.97604392440E+02  0.00000000000E+00 0.  1.
          5    1    5    5  502    0 -0.28161332883E+02  0.49915401559E+02 -0.33854000842E+02  0.66729239135E+02  0.47000000000E+01 0. -1.
         11    1    4    4    0    0  0.48916499003E+02 -0.72856826897E+02 -0.56066831211E+01  0.87933929719E+02  0.00000000000E+00 0. -1.
        -12    1    4    4    0    0 -0.22651238864E+02 -0.69061447785E+02 -0.42955687036E+02  0.84426022297E+02  0.00000000000E+00 0.  1.
         -5    1    3    3    0  504  0.23623346683E+02  0.15133109536E+02  0.39638321066E+02  0.48788933270E+02  0.47000000000E+01 0.  1.
<mgrwt>
<rscale>  2 0.22147410E+03</rscale>
<asrwt>0</asrwt>
<pdfrwt beam="1">  1       21 0.43227857E-01 0.22164280E+03</pdfrwt>
<pdfrwt beam="2">  1       21 0.28502848E-01 0.22164280E+03</pdfrwt>
<totfact> 0.59774882E+04</totfact>
</mgrwt>
</event>
<event>
12    1  0.1410528E-001  0.2411903E+03  0.7546771E-02  0.1119098E+00
         21   -1    0    0  502  503  0.00000000000E+00  0.00000000000E+00  0.20757705254E+03  0.20757705254E+03  0.00000000000E+00 0.  1.
         21   -1    0    0  503  504 -0.00000000000E+00 -0.00000000000E+00 -0.28208411710E+03  0.28208411710E+03  0.00000000000E+00 0. -1.
         -6    2    1    2    0  504  0.11730424850E+03  0.11997697509E+03 -0.60285745387E+02  0.24805197539E+03  0.17245477705E+03 0.  0.
        -24    2    3    3    0    0  0.12040554243E+02  0.16580466547E+02  0.16616779631E+02  0.81596661077E+02  0.77214059058E+02 0.  0.
          6    2    1    2  502    0 -0.11730424850E+03 -0.11997697509E+03 -0.14221319171E+02  0.24160919425E+03  0.17325702167E+03 0.  0.
         24    2    5    5    0    0 -0.13183707635E+03 -0.14325959677E+03 -0.23605580759E+02  0.21222488002E+03  0.81103942489E+02 0.  0.
          4    1    6    6  501    0 -0.13225909076E+03 -0.96647300805E+02 -0.12363772706E+02  0.16427425458E+03  0.00000000000E+00 0. -1.
         -3    1    6    6    0  501  0.42201441292E+00 -0.46612295967E+02 -0.11241808053E+02  0.47950625437E+02  0.00000000000E+00 0.  1.
          5    1    5    5  502    0  0.14532827844E+02  0.23282621682E+02  0.93842615882E+01  0.29384314235E+02  0.47000000000E+01 0. -1.
         11    1    4    4    0    0  0.43821905037E+02  0.79504375289E+01 -0.37583479901E+00  0.44538860221E+02  0.00000000000E+00 0. -1.
        -12    1    4    4    0    0 -0.31781350794E+02  0.86300290182E+01  0.16992614430E+02  0.37057800856E+02  0.00000000000E+00 0.  1.
         -5    1    3    3    0  504  0.10526369426E+03  0.10339650854E+03 -0.76902525018E+02  0.16645531431E+03  0.47000000000E+01 0.  1.
<mgrwt>
<rscale>  2 0.24104625E+03</rscale>
<asrwt>0</asrwt>
<pdfrwt beam="1">  1       21 0.31934931E-01 0.24119029E+03</pdfrwt>
<pdfrwt beam="2">  1       21 0.43397556E-01 0.24119029E+03</pdfrwt>
<totfact> 0.47069579E+04</totfact>
</mgrwt>
</event>
<event>
12    1  0.1410528E-001  0.2040207E+03  0.7546771E-02  0.1146545E+00
         21   -1    0    0  502  503  0.00000000000E+00  0.00000000000E+00  0.43285758568E+03  0.43285758568E+03  0.00000000000E+00 0. -1.
         21   -1    0    0  503  504 -0.00000000000E+00 -0.00000000000E+00 -0.16315171369E+03  0.16315171369E+03  0.00000000000E+00 0. -1.
         -6    2    1    2    0  504 -0.93919514873E+02  0.53701775382E+02 -0.56749154853E+02  0.21104520909E+03  0.17208967938E+03 0.  0.
        -24    2    3    3    0    0 -0.67067230708E+02  0.76008020003E+02 -0.93673807742E+02  0.16001449574E+03  0.80960632720E+02 0.  0.
          6    2    1    2  502    0  0.93919514873E+02 -0.53701775382E+02  0.32645502684E+03  0.38496409028E+03  0.17297314909E+03 0.  0.
         24    2    5    5    0    0  0.23654271791E+02  0.12275225323E+02  0.67296343404E+02  0.10842208225E+03  0.80723877219E+02 0.  0.
          2    1    6    6  501    0 -0.16610549478E+02  0.28386479925E+02  0.61530161417E+01  0.33459859596E+02  0.00000000000E+00 0. -1.
         -1    1    6    6    0  501  0.40264821269E+02 -0.16111254602E+02  0.61143327262E+02  0.74962222655E+02  0.00000000000E+00 0.  1.
          5    1    5    5  502    0  0.70265243081E+02 -0.65977000705E+02  0.25915868343E+03  0.27654200803E+03  0.47000000000E+01 0. -1.
         11    1    4    4    0    0  0.57368714311E+01  0.65409247618E+01 -0.49256515935E+02  0.50018993918E+02  0.00000000000E+00 0. -1.
        -12    1    4    4    0    0 -0.72804102139E+02  0.69467095241E+02 -0.44417291807E+02  0.10999550182E+03  0.00000000000E+00 0.  1.
         -5    1    3    3    0  504 -0.26852284165E+02 -0.22306244620E+02  0.36924652888E+02  0.51030713348E+02  0.47000000000E+01 0.  1.
<mgrwt>
<rscale>  2 0.20383337E+03</rscale>
<asrwt>0</asrwt>
<pdfrwt beam="1">  1       21 0.66593474E-01 0.20402075E+03</pdfrwt>
<pdfrwt beam="2">  1       21 0.25100264E-01 0.20402075E+03</pdfrwt>
<totfact> 0.30881296E+04</totfact>
</mgrwt>
</event>
<event>
12    1  0.1410528E-001  0.2473954E+03  0.7546771E-02  0.1114990E+00
         21   -1    0    0  502  503  0.00000000000E+00  0.00000000000E+00  0.29658694647E+03  0.29658694647E+03  0.00000000000E+00 0.  1.
         21   -1    0    0  503  504 -0.00000000000E+00 -0.00000000000E+00 -0.21417828906E+03  0.21417828906E+03  0.00000000000E+00 0.  1.
         -6    2    1    2    0  504  0.11776918980E+03 -0.13176881233E+03 -0.80146337203E+01  0.24752515950E+03  0.17312385239E+03 0.  0.
        -24    2    3    3    0    0  0.71118314944E+02 -0.19112491201E+02  0.42401037053E+02  0.11549644795E+03  0.78220710207E+02 0.  0.
          6    2    1    2  502    0 -0.11776918980E+03  0.13176881233E+03  0.90423291129E+02  0.26324007603E+03  0.17287673089E+03 0.  0.
         24    2    5    5    0    0 -0.16708012247E+02  0.76927530489E+02  0.96131204326E+02  0.14802029442E+03  0.80447476619E+02 0.  0.
          2    1    6    6  501    0  0.16278399849E+02  0.71868419704E+02  0.43115780359E+02  0.85375796150E+02  0.00000000000E+00 0. -1.
         -1    1    6    6    0  501 -0.32986412097E+02  0.50591107852E+01  0.53015423967E+02  0.62644498269E+02  0.00000000000E+00 0.  1.
          5    1    5    5  502    0 -0.10106117755E+03  0.54841281841E+02 -0.57079131967E+01  0.11521978161E+03  0.47000000000E+01 0. -1.
         11    1    4    4    0    0 -0.17901586298E+01 -0.27286224072E+02  0.30854881980E+02  0.41228223756E+02  0.00000000000E+00 0. -1.
        -12    1    4    4    0    0  0.72908473573E+02  0.81737328715E+01  0.11546155073E+02  0.74268224193E+02  0.00000000000E+00 0.  1.
         -5    1    3    3    0  504  0.46650874855E+02 -0.11265632113E+03 -0.50415670774E+02  0.13202871155E+03  0.47000000000E+01 0.  1.
<mgrwt>
<rscale>  2 0.24735214E+03</rscale>
<asrwt>0</asrwt>
<pdfrwt beam="1">  1       21 0.45628761E-01 0.24739537E+03</pdfrwt>
<pdfrwt beam="2">  1       21 0.32950506E-01 0.24739537E+03</pdfrwt>
<totfact> 0.39794176E+04</totfact>
</mgrwt>
</event>
<event>
12    1  0.1410528E-001  0.2497461E+03  0.7546771E-02  0.1113530E+00
         21   -1    0    0  502  503  0.00000000000E+00  0.00000000000E+00  0.42997469434E+03  0.42997469434E+03  0.00000000000E+00 0. -1.
         21   -1    0    0  503  504 -0.00000000000E+00 -0.00000000000E+00 -0.28754830732E+03  0.28754830732E+03  0.00000000000E+00 0. -1.
         -6    2    1    2    0  504 -0.17872044626E+03 -0.28500341903E+02 -0.18151062874E+03  0.30873811238E+03  0.17210417279E+03 0.  0.
        -24    2    3    3    0    0 -0.12615768950E+03 -0.22437280149E+02 -0.40400191785E+02  0.15796062887E+03  0.83067385993E+02 0.  0.
          6    2    1    2  502    0  0.17872044626E+03  0.28500341903E+02  0.32393701576E+03  0.40878488928E+03  0.17151276374E+03 0.  0.
         24    2    5    5    0    0  0.10817291573E+03  0.69878078820E+02  0.27372666091E+03  0.31270033845E+03  0.79188958642E+02 0.  0.
          4    1    6    6  501    0  0.11847029875E+03  0.61578319025E+02  0.21979832310E+03  0.25717387873E+03  0.00000000000E+00 0. -1.
         -3    1    6    6    0  501 -0.10297383021E+02  0.82997597944E+01  0.53928337811E+02  0.55526459718E+02  0.00000000000E+00 0.  1.
          5    1    5    5  502    0  0.70547530523E+02 -0.41377736916E+02  0.50210354846E+02  0.96084550834E+02  0.47000000000E+01 0. -1.
         13    1    4    4    0    0 -0.10498876619E+03 -0.14369620957E+02 -0.65161974122E+02  0.12439939672E+03  0.00000000000E+00 0. -1.
        -14    1    4    4    0    0 -0.21168923315E+02 -0.80676591918E+01  0.24761782337E+02  0.33561232153E+02  0.00000000000E+00 0.  1.
         -5    1    3    3    0  504 -0.52562756753E+02 -0.60630617548E+01 -0.14111043696E+03  0.15077748351E+03  0.47000000000E+01 0.  1.
<mgrwt>
<rscale>  2 0.24964424E+03</rscale>
<asrwt>0</asrwt>
<pdfrwt beam="1">  1       21 0.66149954E-01 0.24974610E+03</pdfrwt>
<pdfrwt beam="2">  1       21 0.44238201E-01 0.24974610E+03</pdfrwt>
<totfact> 0.99340340E+03</totfact>
</mgrwt>
</event>
<event>
12    1  0.1410528E-001  0.2934818E+03  0.7546771E-02  0.1088840E+00
         21   -1    0    0  502  503  0.00000000000E+00  0.00000000000E+00  0.15218813008E+03  0.15218813008E+03  0.00000000000E+00 0.  1.
         21   -1    0    0  503  504 -0.00000000000E+00 -0.00000000000E+00 -0.89249996251E+03  0.89249996251E+03  0.00000000000E+00 0. -1.
         -6    2    1    2    0  504  0.20669379797E+03  0.10993694886E+03 -0.68731752217E+03  0.74646006715E+03  0.17317273668E+03 0.  0.
        -24    2    3    3    0    0  0.10571502561E+03  0.13780596098E+01 -0.42202400139E+03  0.44251190205E+03  0.80839099557E+02 0.  0.
          6    2    1    2  502    0 -0.20669379797E+03 -0.10993694886E+03 -0.52994310259E+02  0.29822802544E+03  0.17698333084E+03 0.  0.
         24    2    5    5    0    0 -0.56826773112E+02 -0.45401115861E+02 -0.77608871414E+02  0.13314330325E+03  0.80084073414E+02 0.  0.
          2    1    6    6  501    0  0.34341751566E+01 -0.42298926759E+02 -0.53198642287E+02  0.68052099932E+02  0.00000000000E+00 0. -1.
         -1    1    6    6    0  501 -0.60260948268E+02 -0.31021891021E+01 -0.24410229127E+02  0.65091203319E+02  0.00000000000E+00 0.  1.
          5    1    5    5  502    0 -0.14986702485E+03 -0.64535833001E+02  0.24614561155E+02  0.16508472219E+03  0.47000000000E+01 0. -1.
         13    1    4    4    0    0  0.87447072691E+02  0.13923775383E+02 -0.19214214919E+03  0.21156433428E+03  0.00000000000E+00 0. -1.
        -14    1    4    4    0    0  0.18267952918E+02 -0.12545715773E+02 -0.22988185220E+03  0.23094756777E+03  0.00000000000E+00 0.  1.
         -5    1    3    3    0  504  0.10097877236E+03  0.10855888925E+03 -0.26529352078E+03  0.30394816510E+03  0.47000000000E+01 0.  1.
<mgrwt>
<rscale>  2 0.29290959E+03</rscale>
<asrwt>0</asrwt>
<pdfrwt beam="1">  1       21 0.23413558E-01 0.29348179E+03</pdfrwt>
<pdfrwt beam="2">  1       21 0.13730769E+00 0.29348179E+03</pdfrwt>
<totfact> 0.60393801E+03</totfact>
</mgrwt>
</event>
<event>
12    1  0.1410528E-001  0.4288218E+03  0.7546771E-02  0.1034276E+00
         21   -1    0    0  502  503  0.00000000000E+00  0.00000000000E+00  0.27297362376E+03  0.27297362376E+03  0.00000000000E+00 0.  1.
         21   -1    0    0  503  504 -0.00000000000E+00 -0.00000000000E+00 -0.70925472591E+03  0.70925472591E+03  0.00000000000E+00 0.  1.
         -6    2    1    2    0  504  0.90041735628E+02 -0.38133765427E+03 -0.10665524390E+03  0.44135744181E+03  0.17290208115E+03 0.  0.
        -24    2    3    3    0    0 -0.14719322481E+02 -0.14552456888E+03 -0.12673252245E+02  0.16669875308E+03  0.78954444800E+02 0.  0.
          6    2    1    2  502    0 -0.90041735628E+02  0.38133765427E+03 -0.32962585826E+03  0.54087090787E+03  0.17424755902E+03 0.  0.
         24    2    5    5    0    0 -0.53416576902E+02  0.24979735205E+03 -0.13241260767E+03  0.30095548617E+03  0.88255641227E+02 0.  0.
          2    1    6    6  501    0 -0.27959166120E+02  0.23541119608E+03 -0.99976818116E+02  0.25728488174E+03  0.00000000000E+00 0. -1.
         -1    1    6    6    0  501 -0.25457410782E+02  0.14386155962E+02 -0.32435789558E+02  0.43670604430E+02  0.00000000000E+00 0.  1.
          5    1    5    5  502    0 -0.36625158726E+02  0.13154030223E+03 -0.19721325058E+03  0.23991542170E+03  0.47000000000E+01 0. -1.
         13    1    4    4    0    0  0.74359479000E+01  0.58294728351E+01 -0.99302723914E+01  0.13707165443E+02  0.00000000000E+00 0. -1.
        -14    1    4    4    0    0 -0.22155270381E+02 -0.15135404171E+03 -0.27429798533E+01  0.15299158763E+03  0.00000000000E+00 0.  1.
         -5    1    3    3    0  504  0.10476105811E+03 -0.23581308540E+03 -0.93981991653E+02  0.27465868873E+03  0.47000000000E+01 0.  1.
<mgrwt>
<rscale>  2 0.42868549E+03</rscale>
<asrwt>0</asrwt>
<pdfrwt beam="1">  1       21 0.41995942E-01 0.42882180E+03</pdfrwt>
<pdfrwt beam="2">  1       21 0.10911611E+00 0.42882180E+03</pdfrwt>
<totfact> 0.31846715E+03</totfact>
</mgrwt>
</event>
<event>
12    1  0.1410528E-001  0.1906918E+03  0.7546771E-02  0.1158173E+00
         21   -1    0    0  502  503  0.00000000000E+00  0.00000000000E+00  0.44390974676E+03  0.44390974676E+03  0.00000000000E+00 0.  1.
         21   -1    0    0  503  504 -0.00000000000E+00 -0.00000000000E+00 -0.20178243007E+03  0.20178243007E+03  0.00000000000E+00 0.  1.
         -6    2    1    2    0  504 -0.71212600773E+02  0.33584297088E+02 -0.12861483832E+03  0.22878318162E+03  0.17204891175E+03 0.  0.
        -24    2    3    3    0    0 -0.86067789706E+01  0.65510827955E+02 -0.11758297776E+03  0.15749093629E+03  0.81313548259E+02 0.  0.
          6    2    1    2  502    0  0.71212600773E+02 -0.33584297088E+02  0.37074215501E+03  0.41690899521E+03  0.17367851124E+03 0.  0.
         24    2    5    5    0    0  0.25782970120E+02 -0.84237428053E+02  0.19731765350E+03  0.23055519530E+03  0.80378702797E+02 0.  0.
          4    1    6    6  501    0  0.16880741835E+00 -0.16223527826E+02 -0.38387412754E+01  0.16672350933E+02  0.00000000000E+00 0. -1.
         -3    1    6    6    0  501  0.25614162701E+02 -0.68013900227E+02  0.20115639477E+03  0.21388284436E+03  0.00000000000E+00 0.  1.
          5    1    5    5  502    0  0.45429630654E+02  0.50653130965E+02  0.17342450152E+03  0.18635379992E+03  0.47000000000E+01 0. -1.
         13    1    4    4    0    0 -0.82287864602E+01  0.18387080543E+02  0.92643692810E+01  0.22172645211E+02  0.00000000000E+00 0. -1.
        -14    1    4    4    0    0 -0.37799251038E+00  0.47123747413E+02 -0.12684734704E+03  0.13531829108E+03  0.00000000000E+00 0.  1.
         -5    1    3    3    0  504 -0.62605821803E+02 -0.31926530867E+02 -0.11031860560E+02  0.71292245330E+02  0.47000000000E+01 0.  1.
<mgrwt>
<rscale>  2 0.19031997E+03</rscale>
<asrwt>0</asrwt>
<pdfrwt beam="1">  1       21 0.68293807E-01 0.19069181E+03</pdfrwt>
<pdfrwt beam="2">  1       21 0.31043451E-01 0.19069181E+03</pdfrwt>
<totfact> 0.19523627E+04</totfact>
</mgrwt>
</event>
<event>
12    1  0.1410528E-001  0.2107267E+03  0.7546771E-02  0.1141037E+00
         21   -1    0    0  502  503  0.00000000000E+00  0.00000000000E+00  0.31235616521E+03  0.31235616521E+03  0.00000000000E+00 0. -1.
         21   -1    0    0  503  504 -0.00000000000E+00 -0.00000000000E+00 -0.16834924835E+03  0.16834924835E+03  0.00000000000E+00 0.  1.
         -6    2    1    2    0  504  0.60332757575E+02 -0.10376774745E+03 -0.23037282004E+02  0.21198219115E+03  0.17319915114E+03 0.  0.
        -24    2    3    3    0    0  0.41008651192E+02  0.11763423080E+02  0.53098788400E+01  0.91373219761E+02  0.80627432559E+02 0.  0.
          6    2    1    2  502    0 -0.60332757575E+02  0.10376774745E+03  0.16704419886E+03  0.26872322241E+03  0.17291795407E+03 0.  0.
         24    2    5    5    0    0 -0.51076466597E+02  0.38701314161E+02  0.16240066152E+02  0.10415318836E+03  0.80483226448E+02 0.  0.
          2    1    6    6  501    0 -0.47879171135E+02  0.75949241446E+01  0.41609411033E+02  0.63886156465E+02  0.00000000000E+00 0. -1.
         -1    1    6    6    0  501 -0.31972954620E+01  0.31106390016E+02 -0.25369344881E+02  0.40267031897E+02  0.00000000000E+00 0.  1.
          5    1    5    5  502    0 -0.92562909779E+01  0.65066433293E+02  0.15080413271E+03  0.16457003405E+03  0.47000000000E+01 0. -1.
         11    1    4    4    0    0 -0.24165663122E+02 -0.12622975469E+01  0.58995525528E+01  0.24907376208E+02  0.00000000000E+00 0. -1.
        -12    1    4    4    0    0  0.65174314314E+02  0.13025720627E+02 -0.58967371289E+00  0.66465843553E+02  0.00000000000E+00 0.  1.
         -5    1    3    3    0  504  0.19324106383E+02 -0.11553117053E+03 -0.28347160844E+02  0.12060897139E+03  0.47000000000E+01 0.  1.
<mgrwt>
<rscale>  2 0.21066889E+03</rscale>
<asrwt>0</asrwt>
<pdfrwt beam="1">  1       21 0.48054795E-01 0.21072668E+03</pdfrwt>
<pdfrwt beam="2">  1       21 0.25899884E-01 0.21072668E+03</pdfrwt>
<totfact> 0.58089391E+04</totfact>
</mgrwt>
</event>
<event>
12    1  0.1410528E-001  0.1889916E+03  0.7546771E-02  0.1159729E+00
         21   -1    0    0  502  503  0.00000000000E+00  0.00000000000E+00  0.55561642410E+02  0.55561642410E+02  0.00000000000E+00 0. -1.
         21   -1    0    0  503  504 -0.00000000000E+00 -0.00000000000E+00 -0.11720132967E+04  0.11720132967E+04  0.00000000000E+00 0. -1.
         -6    2    1    2    0  504  0.22506112725E+02  0.70884824323E+02 -0.14249390945E+03  0.23545018627E+03  0.17204968049E+03 0.  0.
        -24    2    3    3    0    0  0.74347401684E+01 -0.24367107943E+02 -0.39277781660E+02  0.94114642592E+02  0.81644292558E+02 0.  0.
          6    2    1    2  502    0 -0.22506112725E+02 -0.70884824323E+02 -0.97395774485E+03  0.99212475285E+03  0.17374306613E+03 0.  0.
         24    2    5    5    0    0  0.43034355028E+02 -0.37129035177E+00 -0.45191621801E+03  0.46126021538E+03  0.81735088112E+02 0.  0.
          2    1    6    6  501    0  0.54062052119E+02 -0.28719908566E+02 -0.32811836316E+03  0.33378016548E+03  0.00000000000E+00 0. -1.
         -1    1    6    6    0  501 -0.11027697091E+02  0.28348618214E+02 -0.12379785485E+03  0.12748004990E+03  0.00000000000E+00 0.  1.
          5    1    5    5  502    0 -0.65540467754E+02 -0.70513533971E+02 -0.52204152685E+03  0.53086453747E+03  0.47000000000E+01 0. -1.
         11    1    4    4    0    0  0.26916974400E+02 -0.31821344784E+02 -0.54268977916E+02  0.68426920570E+02  0.00000000000E+00 0. -1.
        -12    1    4    4    0    0 -0.19482234231E+02  0.74542368407E+01  0.14991196256E+02  0.25687722022E+02  0.00000000000E+00 0.  1.
         -5    1    3    3    0  504  0.15071372557E+02  0.95251932266E+02 -0.10321612779E+03  0.14133554368E+03  0.47000000000E+01 0.  1.
<mgrwt>
<rscale>  2 0.18860153E+03</rscale>
<asrwt>0</asrwt>
<pdfrwt beam="1">  1       21 0.85479441E-02 0.18899163E+03</pdfrwt>
<pdfrwt beam="2">  1       21 0.18030976E+00 0.18899163E+03</pdfrwt>
<totfact> 0.19410144E+04</totfact>
</mgrwt>
</event>
<event>
12    1  0.1410528E-001  0.2978833E+03  0.7546771E-02  0.1086349E+00
         21   -1    0    0  502  503  0.00000000000E+00  0.00000000000E+00  0.13194582729E+04  0.13194582729E+04  0.00000000000E+00 0. -1.
         21   -1    0    0  503  504 -0.00000000000E+00 -0.00000000000E+00 -0.97251801064E+03  0.97251801064E+03  0.00000000000E+00 0. -1.
         -6    2    1    2    0  504 -0.43254382176E+02  0.23871476007E+03 -0.93224204134E+03  0.97856779680E+03  0.17223249121E+03 0.  0.
        -24    2    3    3    0    0 -0.51335849714E+02  0.10457453476E+03 -0.29349602564E+03  0.32582169552E+03  0.80303533017E+02 0.  0.
          6    2    1    2  502    0  0.43254382176E+02 -0.23871476007E+03  0.12791823036E+04  0.13134084867E+04  0.17285487819E+03 0.  0.
         24    2    5    5    0    0 -0.19952953516E+02 -0.50284570232E+02  0.49682709754E+03  0.50618927104E+03  0.80397480730E+02 0.  0.
          4    1    6    6  501    0  0.10573987632E+02  0.17631289656E+02  0.15419477916E+03  0.15555931830E+03  0.00000000000E+00 0. -1.
         -3    1    6    6    0  501 -0.30526941148E+02 -0.67915859888E+02  0.34263231838E+03  0.35062995274E+03  0.00000000000E+00 0.  1.
          5    1    5    5  502    0  0.63207335692E+02 -0.18843018984E+03  0.78235520603E+03  0.80721921566E+03  0.47000000000E+01 0. -1.
         11    1    4    4    0    0  0.53133596883E+01  0.38394768888E+02 -0.17205281825E+03  0.17636485573E+03  0.00000000000E+00 0. -1.
        -12    1    4    4    0    0 -0.56649209403E+02  0.66179765875E+02 -0.12144320739E+03  0.14945683979E+03  0.00000000000E+00 0.  1.
         -5    1    3    3    0  504  0.80814675389E+01  0.13414022531E+03 -0.63874601570E+03  0.65274610128E+03  0.47000000000E+01 0.  1.
<mgrwt>
<rscale>  2 0.29779312E+03</rscale>
<asrwt>0</asrwt>
<pdfrwt beam="1">  1       21 0.20299358E+00 0.29788334E+03</pdfrwt>
<pdfrwt beam="2">  1       21 0.14961816E+00 0.29788334E+03</pdfrwt>
<totfact> 0.33734260E+01</totfact>
</mgrwt>
</event>
<event>
12    1  0.1410528E-001  0.2195381E+03  0.7546771E-02  0.1134500E+00
         21   -1    0    0  502  503  0.00000000000E+00  0.00000000000E+00  0.60066556417E+03  0.60066556417E+03  0.00000000000E+00 0. -1.
         21   -1    0    0  503  504 -0.00000000000E+00 -0.00000000000E+00 -0.81069160828E+02  0.81069160828E+02  0.00000000000E+00 0.  1.
         -6    2    1    2    0  504 -0.37037268794E+01  0.13548526469E+03  0.21480094986E+03  0.30610557506E+03  0.17085432533E+03 0.  0.
        -24    2    3    3    0    0 -0.56486715079E+02  0.13174330231E+03  0.15966412628E+03  0.22954053448E+03  0.81542486238E+02 0.  0.
          6    2    1    2  502    0  0.37037268794E+01 -0.13548526469E+03  0.30479545348E+03  0.37562914994E+03  0.17270499495E+03 0.  0.
         24    2    5    5    0    0  0.75145664544E+01 -0.77483024193E+02  0.66568634622E+02  0.13036828958E+03  0.80649984903E+02 0.  0.
          4    1    6    6  501    0 -0.57308489952E+01  0.10446438941E+02 -0.79724796856E+01  0.14336357595E+02  0.00000000000E+00 0. -1.
         -3    1    6    6    0  501  0.13245415450E+02 -0.87929463134E+02  0.74541114307E+02  0.11603193198E+03  0.00000000000E+00 0.  1.
          5    1    5    5  502    0 -0.38108395750E+01 -0.58002240493E+02  0.23822681886E+03  0.24526086036E+03  0.47000000000E+01 0. -1.
         11    1    4    4    0    0 -0.27825504924E+02  0.93635056782E+02  0.15281526102E+03  0.18136782124E+03  0.00000000000E+00 0. -1.
        -12    1    4    4    0    0 -0.28661210155E+02  0.38108245526E+02  0.68488652650E+01  0.48172713231E+02  0.00000000000E+00 0.  1.
         -5    1    3    3    0  504  0.52782988199E+02  0.37419623778E+01  0.55136823578E+02  0.76565040586E+02  0.47000000000E+01 0.  1.
<mgrwt>
<rscale>  2 0.21917400E+03</rscale>
<asrwt>0</asrwt>
<pdfrwt beam="1">  1       21 0.92410084E-01 0.21953813E+03</pdfrwt>
<pdfrwt beam="2">  1       21 0.12472179E-01 0.21953813E+03</pdfrwt>
<totfact> 0.53406707E+04</totfact>
</mgrwt>
</event>
<event>
12    1  0.1410528E-001  0.2421360E+03  0.7546771E-02  0.1118984E+00
         21   -1    0    0  502  503  0.00000000000E+00  0.00000000000E+00  0.53550779856E+03  0.53550779856E+03  0.00000000000E+00 0.  1.
         21   -1    0    0  503  504 -0.00000000000E+00 -0.00000000000E+00 -0.11219770217E+03  0.11219770217E+03  0.00000000000E+00 0. -1.
         -6    2    1    2    0  504  0.16187711843E+03 -0.48827397080E+02  0.14937143931E+03  0.28450252204E+03  0.17332496067E+03 0.  0.
        -24    2    3    3    0    0  0.42708101041E+02  0.14379457499E+02  0.15779671766E+02  0.94594092722E+02  0.81659620648E+02 0.  0.
          6    2    1    2  502    0 -0.16187711843E+03  0.48827397080E+02  0.27393865708E+03  0.36320297869E+03  0.16818352984E+03 0.  0.
         24    2    5    5    0    0 -0.47967855820E+02  0.66025296467E+02  0.88175359061E+02  0.14456816732E+03  0.80404017881E+02 0.  0.
          2    1    6    6  501    0  0.19694330660E+01  0.22071770913E+02 -0.11318275987E+02  0.24882626653E+02  0.00000000000E+00 0. -1.
         -1    1    6    6    0  501 -0.49937288886E+02  0.43953525554E+02  0.99493635048E+02  0.11968554067E+03  0.00000000000E+00 0.  1.
          5    1    5    5  502    0 -0.11390926261E+03 -0.17197899387E+02  0.18576329802E+03  0.21863481137E+03  0.47000000000E+01 0. -1.
         13    1    4    4    0    0 -0.20612142844E+02 -0.10631344346E+02 -0.43563205392E+01  0.23597954230E+02  0.00000000000E+00 0. -1.
        -14    1    4    4    0    0  0.63320243885E+02  0.25010801845E+02  0.20135992305E+02  0.70996138492E+02  0.00000000000E+00 0.  1.
         -5    1    3    3    0  504  0.11916901739E+03 -0.63206854579E+02  0.13359176754E+03  0.18990842932E+03  0.47000000000E+01 0.  1.
<mgrwt>
<rscale>  2 0.24121750E+03</rscale>
<asrwt>0</asrwt>
<pdfrwt beam="1">  1       21 0.82385814E-01 0.24213603E+03</pdfrwt>
<pdfrwt beam="2">  1       21 0.17261185E-01 0.24213603E+03</pdfrwt>
<totfact> 0.38089510E+04</totfact>
</mgrwt>
</event>
<event>
12    1  0.1410528E-001  0.4398241E+03  0.7546771E-02  0.1030809E+00
         21   -1    0    0  502  503  0.00000000000E+00  0.00000000000E+00  0.13938648701E+04  0.13938648701E+04  0.00000000000E+00 0. -1.
         21   -1    0    0  503  504 -0.00000000000E+00 -0.00000000000E+00 -0.18401156910E+03  0.18401156910E+03  0.00000000000E+00 0. -1.
         -6    2    1    2    0  504  0.32863000657E+03  0.23506553411E+03  0.21370333357E+03  0.48899316137E+03  0.17375762010E+03 0.  0.
        -24    2    3    3    0    0  0.16662854926E+03  0.12344044436E+03  0.39770709817E+02  0.22635409261E+03  0.81558869235E+02 0.  0.
          6    2    1    2  502    0 -0.32863000657E+03 -0.23506553411E+03  0.99614996739E+03  0.10888832778E+04  0.17348933274E+03 0.  0.
         24    2    5    5    0    0 -0.14482815749E+03 -0.18341292181E+03  0.51472406387E+03  0.57096040451E+03  0.80246037326E+02 0.  0.
          4    1    6    6  501    0 -0.13527074734E+03 -0.13153178730E+03  0.34494287741E+03  0.39317219488E+03  0.00000000000E+00 0. -1.
         -3    1    6    6    0  501 -0.95574101532E+01 -0.51881134513E+02  0.16978118646E+03  0.17778820963E+03  0.00000000000E+00 0.  1.
          5    1    5    5  502    0 -0.18380184908E+03 -0.51652612298E+02  0.48142590352E+03  0.51792287327E+03  0.47000000000E+01 0. -1.
         13    1    4    4    0    0  0.15021397741E+03  0.91827765773E+02  0.59243195921E+02  0.18575880555E+03  0.00000000000E+00 0. -1.
        -14    1    4    4    0    0  0.16414571846E+02  0.31612678590E+02 -0.19472486105E+02  0.40595287062E+02  0.00000000000E+00 0.  1.
         -5    1    3    3    0  504  0.16200145731E+03  0.11162508975E+03  0.17393262375E+03  0.26263906876E+03  0.47000000000E+01 0.  1.
<mgrwt>
<rscale>  2 0.43979757E+03</rscale>
<asrwt>0</asrwt>
<pdfrwt beam="1">  1       21 0.21444074E+00 0.43982405E+03</pdfrwt>
<pdfrwt beam="2">  1       21 0.28309473E-01 0.43982405E+03</pdfrwt>
<totfact> 0.10857530E+03</totfact>
</mgrwt>
</event>
<event>
12    1  0.1410528E-001  0.1901126E+03  0.7546771E-02  0.1158592E+00
         21   -1    0    0  502  503  0.00000000000E+00  0.00000000000E+00  0.30258953941E+03  0.30258953941E+03  0.00000000000E+00 0. -1.
         21   -1    0    0  503  504 -0.00000000000E+00 -0.00000000000E+00 -0.38922705698E+03  0.38922705698E+03  0.00000000000E+00 0.  1.
         -6    2    1    2    0  504 -0.72746051286E+02  0.23339885481E+02 -0.33168017081E+03  0.38230163265E+03  0.17408637049E+03 0.  0.
        -24    2    3    3    0    0  0.10726556345E+02  0.15387571767E+02 -0.69220677420E+02  0.10673314536E+03  0.79048249571E+02 0.  0.
          6    2    1    2  502    0  0.72746051286E+02 -0.23339885481E+02  0.24504265324E+03  0.30951496373E+03  0.17296494625E+03 0.  0.
         24    2    5    5    0    0  0.96248914961E+02 -0.60870010789E+02  0.15734895160E+03  0.21116268762E+03  0.82837046253E+02 0.  0.
          2    1    6    6  501    0  0.95912040139E+02 -0.21699319543E+02  0.90285687353E+02  0.13349713575E+03  0.00000000000E+00 0. -1.
         -1    1    6    6    0  501  0.33687482170E+00 -0.39170691245E+02  0.67063264243E+02  0.77665551876E+02  0.00000000000E+00 0.  1.
          5    1    5    5  502    0 -0.23502863675E+02  0.37530125308E+02  0.87693701649E+02  0.98352276107E+02  0.47000000000E+01 0. -1.
         11    1    4    4    0    0 -0.28200144175E+02  0.10115727663E+02 -0.34942841663E+01  0.30162660683E+02  0.00000000000E+00 0. -1.
        -12    1    4    4    0    0  0.38926700520E+02  0.52718441043E+01 -0.65726393253E+02  0.76570484678E+02  0.00000000000E+00 0.  1.
         -5    1    3    3    0  504 -0.83472607631E+02  0.79523137140E+01 -0.26245949339E+03  0.27556848729E+03  0.47000000000E+01 0.  1.
<mgrwt>
<rscale>  2 0.18985550E+03</rscale>
<asrwt>0</asrwt>
<pdfrwt beam="1">  1       21 0.46552237E-01 0.19011261E+03</pdfrwt>
<pdfrwt beam="2">  1       21 0.59881086E-01 0.19011261E+03</pdfrwt>
<totfact> 0.11519494E+04</totfact>
</mgrwt>
</event>
<event>
12    1  0.1410528E-001  0.1873676E+03  0.7546771E-02  0.1160983E+00
         21   -1    0    0  502  503  0.00000000000E+00  0.00000000000E+00  0.72679685482E+03  0.72679685482E+03  0.00000000000E+00 0.  1.
         21   -1    0    0  503  504 -0.00000000000E+00 -0.00000000000E+00 -0.16495010493E+03  0.16495010493E+03  0.00000000000E+00 0.  1.
         -6    2    1    2    0  504  0.54341962651E+01  0.73462517247E+02 -0.94131840205E+02  0.20968413535E+03  0.17227989246E+03 0.  0.
        -24    2    3    3    0    0 -0.30717013977E+02  0.71631317272E+02 -0.31712454425E+01  0.11167299774E+03  0.79913835253E+02 0.  0.
          6    2    1    2  502    0 -0.54341962651E+01 -0.73462517247E+02  0.65597859009E+03  0.68206282440E+03  0.17168434361E+03 0.  0.
         24    2    5    5    0    0 -0.20771298813E+02  0.14957443479E+02  0.43952013424E+03  0.44769202998E+03  0.81209810562E+02 0.  0.
          4    1    6    6  501    0  0.20568087962E+02  0.10677504895E+02  0.32566774995E+03  0.32649125365E+03  0.00000000000E+00 0. -1.
         -3    1    6    6    0  501 -0.41339386775E+02  0.42799385834E+01  0.11385238430E+03  0.12120077633E+03  0.00000000000E+00 0.  1.
          5    1    5    5  502    0  0.15337102548E+02 -0.88419960726E+02  0.21645845585E+03  0.23437079442E+03  0.47000000000E+01 0. -1.
         11    1    4    4    0    0  0.12305013981E+02  0.11125938729E+02  0.26874423806E+02  0.31582187013E+02  0.00000000000E+00 0. -1.
        -12    1    4    4    0    0 -0.43022027959E+02  0.60505378543E+02 -0.30045669248E+02  0.80090810727E+02  0.00000000000E+00 0.  1.
         -5    1    3    3    0  504  0.36151210243E+02  0.18311999750E+01 -0.90960594763E+02  0.98011137607E+02  0.47000000000E+01 0.  1.
<mgrwt>
<rscale>  2 0.18723063E+03</rscale>
<asrwt>0</asrwt>
<pdfrwt beam="1">  1       21 0.11181490E+00 0.18736764E+03</pdfrwt>
<pdfrwt beam="2">  1       21 0.25376940E-01 0.18736764E+03</pdfrwt>
<totfact> 0.92752541E+03</totfact>
</mgrwt>
</event>
<event>
12    1  0.1410528E-001  0.2027096E+03  0.7546771E-02  0.1147676E+00
         21   -1    0    0  502  503  0.00000000000E+00  0.00000000000E+00  0.75250051086E+03  0.75250051086E+03  0.00000000000E+00 0.  1.
         21   -1    0    0  503  504 -0.00000000000E+00 -0.00000000000E+00 -0.11063445112E+03  0.11063445112E+03  0.00000000000E+00 0. -1.
         -6    2    1    2    0  504  0.86002503357E+02  0.59912670414E+02  0.12714254290E+02  0.20213330317E+03  0.17236664796E+03 0.  0.
        -24    2    3    3    0    0  0.80557010269E+02  0.81173758607E+02 -0.39941673695E+02  0.14489324711E+03  0.79499086598E+02 0.  0.
          6    2    1    2  502    0 -0.86002503357E+02 -0.59912670414E+02  0.62915180544E+03  0.66100165881E+03  0.17350861649E+03 0.  0.
         24    2    5    5    0    0 -0.12601233768E+02 -0.62000278712E+02  0.19047887122E+03  0.21620042488E+03  0.80359179212E+02 0.  0.
          2    1    6    6  501    0 -0.46906138300E+02 -0.36469827012E+02  0.10606532998E+03  0.12157338655E+03  0.00000000000E+00 0. -1.
         -1    1    6    6    0  501  0.34304904532E+02 -0.25530451700E+02  0.84413541233E+02  0.94627038327E+02  0.00000000000E+00 0.  1.
          5    1    5    5  502    0 -0.73401269589E+02  0.20876082977E+01  0.43867293422E+03  0.44480123393E+03  0.47000000000E+01 0. -1.
         11    1    4    4    0    0 -0.10283983971E+02  0.60961428375E+01 -0.22878743438E+02  0.25813953302E+02  0.00000000000E+00 0. -1.
        -12    1    4    4    0    0  0.90840994240E+02  0.75077615770E+02 -0.17062930258E+02  0.11907929381E+03  0.00000000000E+00 0.  1.
         -5    1    3    3    0  504  0.54454930876E+01 -0.21261088193E+02  0.52655927986E+02  0.57240056064E+02  0.47000000000E+01 0.  1.
<mgrwt>
<rscale>  2 0.20246505E+03</rscale>
<asrwt>0</asrwt>
<pdfrwt beam="1">  1       21 0.11576931E+00 0.20270964E+03</pdfrwt>
<pdfrwt beam="2">  1       21 0.17020685E-01 0.20270964E+03</pdfrwt>
<totfact> 0.17837592E+04</totfact>
</mgrwt>
</event>
<event>
12    1  0.1410528E-001  0.1850047E+03  0.7546771E-02  0.1163122E+00
         21   -1    0    0  502  503  0.00000000000E+00  0.00000000000E+00  0.27141264268E+03  0.27141264268E+03  0.00000000000E+00 0.  1.
         21   -1    0    0  503  504 -0.00000000000E+00 -0.00000000000E+00 -0.27784460084E+03  0.27784460084E+03  0.00000000000E+00 0.  1.
         -6    2    1    2    0  504 -0.60906670941E+02  0.14207201320E+02 -0.20631505315E+03  0.27689718549E+03  0.17376617347E+03 0.  0.
        -24    2    3    3    0    0 -0.15319584853E+02  0.16193303537E+02 -0.20773056374E+02  0.85768826558E+02  0.80173929544E+02 0.  0.
          6    2    1    2  502    0  0.60906670941E+02 -0.14207201320E+02  0.19988309498E+03  0.27236005803E+03  0.17411284392E+03 0.  0.
         24    2    5    5    0    0  0.59709672222E+02  0.31623989480E+02  0.52124276650E+02  0.11758057214E+03  0.80888374085E+02 0.  0.
          2    1    6    6  501    0  0.73082233280E+02  0.40150713028E+02  0.26590575047E+02  0.87522290070E+02  0.00000000000E+00 0. -1.
         -1    1    6    6    0  501 -0.13372561058E+02 -0.85267235475E+01  0.25533701603E+02  0.30058282075E+02  0.00000000000E+00 0.  1.
          5    1    5    5  502    0  0.11969987191E+01 -0.45831190800E+02  0.14775881833E+03  0.15477948589E+03  0.47000000000E+01 0. -1.
         13    1    4    4    0    0 -0.23469889635E+02 -0.28847417226E+02 -0.59870142378E+01  0.37667672341E+02  0.00000000000E+00 0. -1.
        -14    1    4    4    0    0  0.81503047829E+01  0.45040720763E+02 -0.14786042136E+02  0.48101154217E+02  0.00000000000E+00 0.  1.
         -5    1    3    3    0  504 -0.45587086088E+02 -0.19861022170E+01 -0.18554199677E+03  0.19112835893E+03  0.47000000000E+01 0.  1.
<mgrwt>
<rscale>  2 0.18492312E+03</rscale>
<asrwt>0</asrwt>
<pdfrwt beam="1">  1       21 0.41755791E-01 0.18500473E+03</pdfrwt>
<pdfrwt beam="2">  1       21 0.42745323E-01 0.18500473E+03</pdfrwt>
<totfact> 0.29185704E+04</totfact>
</mgrwt>
</event>
<event>
12    1  0.1410528E-001  0.1906911E+03  0.7546771E-02  0.1157984E+00
         21   -1    0    0  502  503  0.00000000000E+00  0.00000000000E+00  0.27880044197E+03  0.27880044197E+03  0.00000000000E+00 0.  1.
         21   -1    0    0  503  504 -0.00000000000E+00 -0.00000000000E+00 -0.33369906858E+03  0.33369906858E+03  0.00000000000E+00 0.  1.
         -6    2    1    2    0  504 -0.61284268270E+02 -0.51871038370E+02 -0.26671037398E+03  0.32749542831E+03  0.17225697610E+03 0.  0.
        -24    2    3    3    0    0 -0.84864871676E+02 -0.56020007835E+02 -0.27231687657E+03  0.30245982015E+03  0.83577352298E+02 0.  0.
          6    2    1    2  502    0  0.61284268270E+02  0.51871038370E+02  0.21181174737E+03  0.28500408224E+03  0.17296457559E+03 0.  0.
         24    2    5    5    0    0  0.10255946028E+03  0.28645902886E+02  0.19140127886E+03  0.23321870188E+03  0.80109192450E+02 0.  0.
          2    1    6    6  501    0  0.10114883306E+03  0.17438511060E+02  0.10776722927E+03  0.14882527945E+03  0.00000000000E+00 0. -1.
         -1    1    6    6    0  501  0.14106272195E+01  0.11207391826E+02  0.83634049586E+02  0.84393422439E+02  0.00000000000E+00 0.  1.
          5    1    5    5  502    0 -0.41275192006E+02  0.23225135484E+02  0.20410468515E+02  0.51785380354E+02  0.47000000000E+01 0. -1.
         13    1    4    4    0    0  0.64084958626E+01 -0.19332386935E+02 -0.11593996685E+03  0.11771527478E+03  0.00000000000E+00 0. -1.
        -14    1    4    4    0    0 -0.91273367539E+02 -0.36687620900E+02 -0.15637690972E+03  0.18474454537E+03  0.00000000000E+00 0.  1.
         -5    1    3    3    0  504  0.23580603406E+02  0.41489694653E+01  0.56065025890E+01  0.25035608159E+02  0.47000000000E+01 0.  1.
<mgrwt>
<rscale>  2 0.19053054E+03</rscale>
<asrwt>0</asrwt>
<pdfrwt beam="1">  1       21 0.42892376E-01 0.19069114E+03</pdfrwt>
<pdfrwt beam="2">  1       21 0.51338318E-01 0.19069114E+03</pdfrwt>
<totfact> 0.18872276E+04</totfact>
</mgrwt>
</event>
<event>
12    1  0.1410528E-001  0.1916952E+03  0.7546771E-02  0.1159588E+00
         21   -1    0    0  502  503  0.00000000000E+00  0.00000000000E+00  0.29727943741E+03  0.29727943741E+03  0.00000000000E+00 0. -1.
         21   -1    0    0  503  504 -0.00000000000E+00 -0.00000000000E+00 -0.11656140684E+03  0.11656140684E+03  0.00000000000E+00 0. -1.
         -6    2    1    2    0  504  0.21402133066E+02 -0.48070115185E+02  0.10266718043E+03  0.21745712763E+03  0.18433194282E+03 0.  0.
        -24    2    3    3    0    0  0.66920468531E+02 -0.82413105240E+02  0.61567158100E+02  0.14701096616E+03  0.80940967327E+02 0.  0.
          6    2    1    2  502    0 -0.21402133066E+02  0.48070115185E+02  0.78050850135E+02  0.19638371662E+03  0.17235382697E+03 0.  0.
         24    2    5    5    0    0  0.39983430460E+02  0.39041043364E+02  0.89634414562E+02  0.13309090097E+03  0.80969017962E+02 0.  0.
          2    1    6    6  501    0  0.38638430747E+02  0.61955254316E+02  0.54459055394E+02  0.91088806021E+02  0.00000000000E+00 0. -1.
         -1    1    6    6    0  501  0.13449997129E+01 -0.22914210952E+02  0.35175359168E+02  0.42002094952E+02  0.00000000000E+00 0.  1.
          5    1    5    5  502    0 -0.61385563525E+02  0.90290718211E+01 -0.11583564427E+02  0.63292815644E+02  0.47000000000E+01 0. -1.
         11    1    4    4    0    0  0.34305660252E+02 -0.27492422191E+02 -0.15770637166E+02  0.46705723417E+02  0.00000000000E+00 0. -1.
        -12    1    4    4    0    0  0.32614808279E+02 -0.54920683049E+02  0.77337795266E+02  0.10030524275E+03  0.00000000000E+00 0.  1.
         -5    1    3    3    0  504 -0.45518335465E+02  0.34342990055E+02  0.41100022333E+02  0.70446161466E+02  0.47000000000E+01 0.  1.
<mgrwt>
<rscale>  2 0.18875630E+03</rscale>
<asrwt>0</asrwt>
<pdfrwt beam="1">  1       21 0.45735298E-01 0.19169521E+03</pdfrwt>
<pdfrwt beam="2">  1       21 0.17932524E-01 0.19169521E+03</pdfrwt>
<totfact> 0.12962606E+05</totfact>
</mgrwt>
</event>
<event>
12    1  0.1410528E-001  0.2100459E+03  0.7546771E-02  0.1141765E+00
         21   -1    0    0  502  503  0.00000000000E+00  0.00000000000E+00  0.31513206073E+02  0.31513206073E+02  0.00000000000E+00 0.  1.
         21   -1    0    0  503  504 -0.00000000000E+00 -0.00000000000E+00 -0.14911549533E+04  0.14911549533E+04  0.00000000000E+00 0. -1.
         -6    2    1    2    0  504 -0.88379448470E+02  0.75794119105E+02 -0.92792473796E+03  0.95140085953E+03  0.17482448570E+03 0.  0.
        -24    2    3    3    0    0 -0.10697004525E+03  0.10673783187E+03 -0.81006284120E+03  0.82804511238E+03  0.81371654181E+02 0.  0.
          6    2    1    2  502    0  0.88379448470E+02 -0.75794119105E+02 -0.53171700926E+03  0.57126729983E+03  0.17340033022E+03 0.  0.
         24    2    5    5    0    0  0.20295721744E+02 -0.56186392730E+02 -0.89085043832E+02  0.12297609582E+03  0.60151043709E+02 0.  0.
          2    1    6    6  501    0  0.37370121159E+02 -0.53548502461E+02 -0.80588060734E+02  0.10372272463E+03  0.00000000000E+00 0. -1.
         -1    1    6    6    0  501 -0.17074399416E+02 -0.26378902692E+01 -0.84969830979E+01  0.19253371192E+02  0.00000000000E+00 0.  1.
          5    1    5    5  502    0  0.68083726726E+02 -0.19607726375E+02 -0.44263196543E+03  0.44829120401E+03  0.47000000000E+01 0. -1.
         11    1    4    4    0    0 -0.30236045980E+01 -0.40443122203E+01 -0.17472877565E+03  0.17480172678E+03  0.00000000000E+00 0. -1.
        -12    1    4    4    0    0 -0.10394644065E+03  0.11078214409E+03 -0.63533406556E+03  0.65324338560E+03  0.00000000000E+00 0.  1.
         -5    1    3    3    0  504  0.18590596780E+02 -0.30943712769E+02 -0.11786189675E+03  0.12335574715E+03  0.47000000000E+01 0.  1.
<mgrwt>
<rscale>  2 0.20974930E+03</rscale>
<asrwt>0</asrwt>
<pdfrwt beam="1">  1       21 0.48481832E-02 0.21004589E+03</pdfrwt>
<pdfrwt beam="2">  1       21 0.22940857E+00 0.21004589E+03</pdfrwt>
<totfact> 0.24652178E+04</totfact>
</mgrwt>
</event>
<event>
12    1  0.1410528E-001  0.2258483E+03  0.7546771E-02  0.1129658E+00
         21   -1    0    0  502  503  0.00000000000E+00  0.00000000000E+00  0.17230140184E+03  0.17230140184E+03  0.00000000000E+00 0.  1.
         21   -1    0    0  503  504 -0.00000000000E+00 -0.00000000000E+00 -0.50984164882E+03  0.50984164882E+03  0.00000000000E+00 0.  1.
         -6    2    1    2    0  504 -0.13419473076E+03  0.57201538453E+02 -0.38979822583E+03  0.45032774873E+03  0.17196564382E+03 0.  0.
        -24    2    3    3    0    0 -0.88311169649E+02 -0.31142383771E+02 -0.25344953060E+03  0.28144019305E+03  0.78760440259E+02 0.  0.
          6    2    1    2  502    0  0.13419473076E+03 -0.57201538453E+02  0.52257978857E+02  0.23181530193E+03  0.17241576520E+03 0.  0.
         24    2    5    5    0    0  0.82355502029E+02  0.24338949573E+02 -0.72128789807E+01  0.11825901740E+03  0.80983679796E+02 0.  0.
          2    1    6    6  501    0 -0.74271485908E+00  0.33025121030E+02 -0.10445285787E+02  0.34645551513E+02  0.00000000000E+00 0. -1.
         -1    1    6    6    0  501  0.83098216888E+02 -0.86861714572E+01  0.32324068061E+01  0.83613465891E+02  0.00000000000E+00 0.  1.
          5    1    5    5  502    0  0.51839228731E+02 -0.81540488026E+02  0.59470857838E+02  0.11355628452E+03  0.47000000000E+01 0. -1.
         11    1    4    4    0    0 -0.77722620703E+02 -0.25361500886E+02 -0.10781760270E+03  0.13530944885E+03  0.00000000000E+00 0. -1.
        -12    1    4    4    0    0 -0.10588548946E+02 -0.57808828842E+01 -0.14563192790E+03  0.14613074420E+03  0.00000000000E+00 0.  1.
         -5    1    3    3    0  504 -0.45883561111E+02  0.88343922223E+02 -0.13634869523E+03  0.16888755568E+03  0.47000000000E+01 0.  1.
<mgrwt>
<rscale>  2 0.22576235E+03</rscale>
<asrwt>0</asrwt>
<pdfrwt beam="1">  1       21 0.26507908E-01 0.22584826E+03</pdfrwt>
<pdfrwt beam="2">  1       21 0.78437177E-01 0.22584826E+03</pdfrwt>
<totfact> 0.19093227E+04</totfact>
</mgrwt>
</event>
<event>
12    1  0.1410528E-001  0.1827475E+03  0.7546771E-02  0.1165236E+00
         21   -1    0    0  502  503  0.00000000000E+00  0.00000000000E+00  0.17271203242E+02  0.17271203242E+02  0.00000000000E+00 0. -1.
         21   -1    0    0  503  504 -0.00000000000E+00 -0.00000000000E+00 -0.21385856529E+04  0.21385856529E+04  0.00000000000E+00 0.  1.
         -6    2    1    2    0  504 -0.42810504961E+02  0.40079012710E+02 -0.13974417579E+04  0.14093403142E+04  0.17308260393E+03 0.  0.
        -24    2    3    3    0    0 -0.71335144817E+02  0.77442082380E+02 -0.88749874866E+03  0.89721375096E+03  0.79072795778E+02 0.  0.
          6    2    1    2  502    0  0.42810504961E+02 -0.40079012710E+02 -0.72387269174E+03  0.74651654197E+03  0.17278948751E+03 0.  0.
         24    2    5    5    0    0  0.26019080710E+02  0.54529490877E+01 -0.66333239296E+03  0.66878412113E+03  0.80966720990E+02 0.  0.
          4    1    6    6  501    0  0.16971860831E+02 -0.26235697175E+02 -0.54650946371E+03  0.54740200017E+03  0.00000000000E+00 0. -1.
         -3    1    6    6    0  501  0.90472198786E+01  0.31688646263E+02 -0.11682292925E+03  0.12138212096E+03  0.00000000000E+00 0.  1.
          5    1    5    5  502    0  0.16791424251E+02 -0.45531961797E+02 -0.60540298774E+02  0.77732420837E+02  0.47000000000E+01 0. -1.
         13    1    4    4    0    0 -0.88224614869E+02  0.67543275909E+02 -0.71047585492E+03  0.71911168619E+03  0.00000000000E+00 0. -1.
        -14    1    4    4    0    0  0.16889470052E+02  0.98988064719E+01 -0.17702289374E+03  0.17810206477E+03  0.00000000000E+00 0.  1.
         -5    1    3    3    0  504  0.28524639856E+02 -0.37363069671E+02 -0.50994300926E+03  0.51212656321E+03  0.47000000000E+01 0.  1.
<mgrwt>
<rscale>  2 0.18267808E+03</rscale>
<asrwt>0</asrwt>
<pdfrwt beam="1">  1       21 0.26571077E-02 0.18274752E+03</pdfrwt>
<pdfrwt beam="2">  1       21 0.32901323E+00 0.18274752E+03</pdfrwt>
<totfact> 0.18137895E+04</totfact>
</mgrwt>
</event>
<event>
12    1  0.1410528E-001  0.2273775E+03  0.7546771E-02  0.1128937E+00
         21   -1    0    0  502  503  0.00000000000E+00  0.00000000000E+00  0.27400347214E+03  0.27400347214E+03  0.00000000000E+00 0.  1.
         21   -1    0    0  503  504 -0.00000000000E+00 -0.00000000000E+00 -0.19908630120E+03  0.19908630120E+03  0.00000000000E+00 0.  1.
         -6    2    1    2    0  504 -0.14039827809E+03  0.32325324526E+02 -0.21806110251E+02  0.22599483025E+03  0.17274708032E+03 0.  0.
        -24    2    3    3    0    0 -0.27431983010E+02  0.32556278065E+02  0.40573224961E+02  0.96864242759E+02  0.76967980409E+02 0.  0.
          6    2    1    2  502    0  0.14039827809E+03 -0.32325324526E+02  0.96723281190E+02  0.24709494309E+03  0.17590882491E+03 0.  0.
         24    2    5    5    0    0  0.53883151382E+02 -0.66925869405E+02  0.61236151305E+01  0.11704705058E+03  0.79246750026E+02 0.  0.
          2    1    6    6  501    0  0.69155594101E+01  0.34479679091E+01 -0.25559334419E+02  0.26701929155E+02  0.00000000000E+00 0. -1.
         -1    1    6    6    0  501  0.46967591972E+02 -0.70373837314E+02  0.31682949549E+02  0.90345121429E+02  0.00000000000E+00 0.  1.
          5    1    5    5  502    0  0.86515126711E+02  0.34600544879E+02  0.90599666060E+02  0.13004789251E+03  0.47000000000E+01 0. -1.
         11    1    4    4    0    0  0.51550597091E+01 -0.10868860194E+01 -0.19779450126E+02  0.20469064685E+02  0.00000000000E+00 0. -1.
        -12    1    4    4    0    0 -0.32587042719E+02  0.33643164085E+02  0.60352675087E+02  0.76395178074E+02  0.00000000000E+00 0.  1.
         -5    1    3    3    0  504 -0.11296629508E+03 -0.23095353944E+00 -0.62379335212E+02  0.12913058749E+03  0.47000000000E+01 0.  1.
<mgrwt>
<rscale>  2 0.22676573E+03</rscale>
<asrwt>0</asrwt>
<pdfrwt beam="1">  1       21 0.42154381E-01 0.22737748E+03</pdfrwt>
<pdfrwt beam="2">  1       21 0.30628662E-01 0.22737748E+03</pdfrwt>
<totfact> 0.54550987E+04</totfact>
</mgrwt>
</event>
<event>
12    1  0.1410528E-001  0.1794959E+03  0.7546771E-02  0.1168316E+00
         21   -1    0    0  502  503  0.00000000000E+00  0.00000000000E+00  0.14501256303E+03  0.14501256303E+03  0.00000000000E+00 0.  1.
         21   -1    0    0  503  504 -0.00000000000E+00 -0.00000000000E+00 -0.28288945720E+03  0.28288945720E+03  0.00000000000E+00 0.  1.
         -6    2    1    2    0  504  0.47123462915E+02 -0.63179380313E+01 -0.16816702975E+03  0.24596532181E+03  0.17308452426E+03 0.  0.
        -24    2    3    3    0    0 -0.17810996141E+02  0.29238875822E+02 -0.36037595136E+02  0.94436286716E+02  0.80295457796E+02 0.  0.
          6    2    1    2  502    0 -0.47123462915E+02  0.63179380313E+01  0.30290135573E+02  0.18193669842E+03  0.17298246391E+03 0.  0.
         24    2    5    5    0    0 -0.77730621039E+02  0.40245141460E+02  0.54085158282E+02  0.13020521510E+03  0.79790180066E+02 0.  0.
          2    1    6    6  501    0 -0.87071616204E+02  0.35146470219E+02  0.22054250235E+02  0.96452738016E+02  0.00000000000E+00 0. -1.
         -1    1    6    6    0  501  0.93409951653E+01  0.50986712407E+01  0.32030908047E+02  0.33752477085E+02  0.00000000000E+00 0.  1.
          5    1    5    5  502    0  0.30607158124E+02 -0.33927203429E+02 -0.23795022710E+02  0.51731483322E+02  0.47000000000E+01 0. -1.
         13    1    4    4    0    0 -0.36974504540E+02 -0.12105882916E+02 -0.48299249061E+01  0.39204522210E+02  0.00000000000E+00 0. -1.
        -14    1    4    4    0    0  0.19163508399E+02  0.41344758738E+02 -0.31207670230E+02  0.55231764506E+02  0.00000000000E+00 0.  1.
         -5    1    3    3    0  504  0.64934459056E+02 -0.35556813854E+02 -0.13212943461E+03  0.15152903509E+03  0.47000000000E+01 0.  1.
<mgrwt>
<rscale>  2 0.17947132E+03</rscale>
<asrwt>0</asrwt>
<pdfrwt beam="1">  1       21 0.22309625E-01 0.17949593E+03</pdfrwt>
<pdfrwt beam="2">  1       21 0.43521455E-01 0.17949593E+03</pdfrwt>
<totfact> 0.95884573E+04</totfact>
</mgrwt>
</event>
<event>
12    1  0.1410528E-001  0.2613201E+03  0.7546771E-02  0.1106816E+00
         21   -1    0    0  502  503  0.00000000000E+00  0.00000000000E+00  0.15192136035E+03  0.15192136035E+03  0.00000000000E+00 0.  1.
         21   -1    0    0  503  504 -0.00000000000E+00 -0.00000000000E+00 -0.47255339469E+03  0.47255339469E+03  0.00000000000E+00 0. -1.
         -6    2    1    2    0  504  0.85071983579E+02  0.17310216739E+03 -0.84731871780E+02  0.27471377841E+03  0.17631383158E+03 0.  0.
        -24    2    3    3    0    0  0.88486551071E+02  0.18691745622E+03 -0.37897088003E+02  0.22553951229E+03  0.81632574179E+02 0.  0.
          6    2    1    2  502    0 -0.85071983579E+02 -0.17310216739E+03 -0.23590016257E+03  0.34976097663E+03  0.17170396423E+03 0.  0.
         24    2    5    5    0    0 -0.77645955646E+02 -0.19999601118E+03 -0.19972452201E+03  0.30383503958E+03  0.79990922406E+02 0.  0.
          2    1    6    6  501    0 -0.27608390037E+02 -0.16626614943E+03 -0.15056679772E+03  0.22600224827E+03  0.00000000000E+00 0. -1.
         -1    1    6    6    0  501 -0.50037565609E+02 -0.33729861750E+02 -0.49157724293E+02  0.77832791312E+02  0.00000000000E+00 0.  1.
          5    1    5    5  502    0 -0.74260279327E+01  0.26893843791E+02 -0.36175640551E+02  0.45925937051E+02  0.47000000000E+01 0. -1.
         11    1    4    4    0    0  0.36008431141E+02  0.15594494900E+03 -0.16244592187E+02  0.16087051006E+03  0.00000000000E+00 0. -1.
        -12    1    4    4    0    0  0.52478119929E+02  0.30972507217E+02 -0.21652495816E+02  0.64669002232E+02  0.00000000000E+00 0.  1.
         -5    1    3    3    0  504 -0.34145674918E+01 -0.13815288828E+02 -0.46834783777E+02  0.49174266115E+02  0.47000000000E+01 0.  1.
<mgrwt>
<rscale>  2 0.26054464E+03</rscale>
<asrwt>0</asrwt>
<pdfrwt beam="1">  1       21 0.23372517E-01 0.26132005E+03</pdfrwt>
<pdfrwt beam="2">  1       21 0.72700522E-01 0.26132005E+03</pdfrwt>
<totfact> 0.28346900E+04</totfact>
</mgrwt>
</event>
<event>
12    1  0.1410528E-001  0.2033358E+03  0.7546771E-02  0.1147129E+00
         21   -1    0    0  502  503  0.00000000000E+00  0.00000000000E+00  0.30477072720E+03  0.30477072720E+03  0.00000000000E+00 0.  1.
         21   -1    0    0  503  504 -0.00000000000E+00 -0.00000000000E+00 -0.14075435080E+03  0.14075435080E+03  0.00000000000E+00 0.  1.
         -6    2    1    2    0  504  0.10076559241E+03 -0.35929592192E+02  0.37522932828E+02  0.20676896266E+03  0.17291845830E+03 0.  0.
        -24    2    3    3    0    0  0.10282738009E+03 -0.81372257824E+02  0.44825495403E+02  0.16045801095E+03  0.80885930784E+02 0.  0.
          6    2    1    2  502    0 -0.10076559241E+03  0.35929592192E+02  0.12649344358E+03  0.23875611535E+03  0.17192804058E+03 0.  0.
         24    2    5    5    0    0 -0.66680912805E+02 -0.84585191923E+01  0.40723738039E+01  0.10406729569E+03  0.79344357859E+02 0.  0.
          2    1    6    6  501    0 -0.32772019569E+02 -0.12711656586E+02 -0.36732720815E+02  0.50841757034E+02  0.00000000000E+00 0. -1.
         -1    1    6    6    0  501 -0.33908893235E+02  0.42531373937E+01  0.40805094619E+02  0.53225538654E+02  0.00000000000E+00 0.  1.
          5    1    5    5  502    0 -0.34084679604E+02  0.44388111385E+02  0.12242106977E+03  0.13468881966E+03  0.47000000000E+01 0. -1.
         11    1    4    4    0    0 -0.89935148192E+01 -0.28778022881E+02  0.13132080587E+02  0.32886310986E+02  0.00000000000E+00 0. -1.
        -12    1    4    4    0    0  0.11182089491E+03 -0.52594234942E+02  0.31693414816E+02  0.12757169996E+03  0.00000000000E+00 0.  1.
         -5    1    3    3    0  504 -0.20617876832E+01  0.45442665631E+02 -0.73025625745E+01  0.46310951710E+02  0.47000000000E+01 0.  1.
<mgrwt>
<rscale>  2 0.20312504E+03</rscale>
<asrwt>0</asrwt>
<pdfrwt beam="1">  1       21 0.46887804E-01 0.20333577E+03</pdfrwt>
<pdfrwt beam="2">  1       21 0.21654516E-01 0.20333577E+03</pdfrwt>
<totfact> 0.86200675E+04</totfact>
</mgrwt>
</event>
<event>
12    1  0.1410528E-001  0.1980512E+03  0.7546771E-02  0.1151564E+00
         21   -1    0    0  502  503  0.00000000000E+00  0.00000000000E+00  0.45533610473E+03  0.45533610473E+03  0.00000000000E+00 0.  1.
         21   -1    0    0  503  504 -0.00000000000E+00 -0.00000000000E+00 -0.85889409115E+02  0.85889409115E+02  0.00000000000E+00 0.  1.
         -6    2    1    2    0  504 -0.68642119945E+02 -0.67226146899E+02  0.17553063574E+03  0.26404737327E+03  0.17227569704E+03 0.  0.
        -24    2    3    3    0    0 -0.44204660753E+02 -0.66100430219E+02  0.30473308878E+02  0.11686661799E+03  0.80036647474E+02 0.  0.
          6    2    1    2  502    0  0.68642119945E+02  0.67226146899E+02  0.19391605987E+03  0.27717814057E+03  0.17318541473E+03 0.  0.
         24    2    5    5    0    0  0.97151106274E+02  0.82911971578E+02  0.10877048254E+03  0.18590565437E+03  0.80107190526E+02 0.  0.
          2    1    6    6  501    0  0.64353322814E+02  0.29286406758E+02  0.99949911358E+02  0.12242968822E+03  0.00000000000E+00 0. -1.
         -1    1    6    6    0  501  0.32797783460E+02  0.53625564819E+02  0.88205711771E+01  0.63475966144E+02  0.00000000000E+00 0.  1.
          5    1    5    5  502    0 -0.28508986329E+02 -0.15685824679E+02  0.85145577339E+02  0.91272486203E+02  0.47000000000E+01 0. -1.
         11    1    4    4    0    0  0.22506838438E+02 -0.20366131543E+02  0.17241408251E+02  0.34908498234E+02  0.00000000000E+00 0. -1.
        -12    1    4    4    0    0 -0.66711499191E+02 -0.45734298676E+02  0.13231900628E+02  0.81958119755E+02  0.00000000000E+00 0.  1.
         -5    1    3    3    0  504 -0.24437459191E+02 -0.11257166795E+01  0.14505732686E+03  0.14718075528E+03  0.47000000000E+01 0.  1.
<mgrwt>
<rscale>  2 0.19785216E+03</rscale>
<asrwt>0</asrwt>
<pdfrwt beam="1">  1       21 0.70051707E-01 0.19805121E+03</pdfrwt>
<pdfrwt beam="2">  1       21 0.13213755E-01 0.19805121E+03</pdfrwt>
<totfact> 0.91101380E+04</totfact>
</mgrwt>
</event>
<event>
12    1  0.1410528E-001  0.1899302E+03  0.7546771E-02  0.1159059E+00
         21   -1    0    0  502  503  0.00000000000E+00  0.00000000000E+00  0.55812067509E+02  0.55812067509E+02  0.00000000000E+00 0.  1.
         21   -1    0    0  503  504 -0.00000000000E+00 -0.00000000000E+00 -0.79330794849E+03  0.79330794849E+03  0.00000000000E+00 0. -1.
         -6    2    1    2    0  504 -0.24168846004E+02  0.71314693600E+02 -0.55453429425E+03  0.58539966481E+03  0.17179803673E+03 0.  0.
        -24    2    3    3    0    0  0.60309095879E+01 -0.21197798790E+02 -0.33855372871E+03  0.34846026079E+03  0.79499733237E+02 0.  0.
          6    2    1    2  502    0  0.24168846004E+02 -0.71314693600E+02 -0.18296158674E+03  0.26372035119E+03  0.17436617439E+03 0.  0.
         24    2    5    5    0    0 -0.43790304580E+02 -0.62049686826E+02 -0.15254671469E+03  0.18854428492E+03  0.80688864176E+02 0.  0.
          2    1    6    6  501    0 -0.13438054365E+02 -0.18848192424E+02 -0.12842941438E+03  0.13049885111E+03  0.00000000000E+00 0. -1.
         -1    1    6    6    0  501 -0.30352250216E+02 -0.43201494402E+02 -0.24117300308E+02  0.58045433808E+02  0.00000000000E+00 0.  1.
          5    1    5    5  502    0  0.67959150585E+02 -0.92650067744E+01 -0.30414872048E+02  0.75176066274E+02  0.47000000000E+01 0. -1.
         11    1    4    4    0    0 -0.34587242848E+02 -0.11435900954E+01 -0.10505383204E+03  0.11060692922E+03  0.00000000000E+00 0. -1.
        -12    1    4    4    0    0  0.40618152435E+02 -0.20054208695E+02 -0.23349989667E+03  0.23785333157E+03  0.00000000000E+00 0.  1.
         -5    1    3    3    0  504 -0.30199755592E+02  0.92512492391E+02 -0.21598056554E+03  0.23693940402E+03  0.47000000000E+01 0.  1.
<mgrwt>
<rscale>  2 0.18933871E+03</rscale>
<asrwt>0</asrwt>
<pdfrwt beam="1">  1       21 0.85864723E-02 0.18993020E+03</pdfrwt>
<pdfrwt beam="2">  1       21 0.12204737E+00 0.18993020E+03</pdfrwt>
<totfact> 0.53784260E+04</totfact>
</mgrwt>
</event>
<event>
12    1  0.1410528E-001  0.1961300E+03  0.7546771E-02  0.1154818E+00
         21   -1    0    0  502  503  0.00000000000E+00  0.00000000000E+00  0.99017654750E+03  0.99017654750E+03  0.00000000000E+00 0. -1.
         21   -1    0    0  503  504 -0.00000000000E+00 -0.00000000000E+00 -0.74413571710E+02  0.74413571710E+02  0.00000000000E+00 0. -1.
         -6    2    1    2    0  504  0.15733629980E+02  0.70950701010E+02  0.86676167082E+02  0.21442882921E+03  0.18216864651E+03 0.  0.
        -24    2    3    3    0    0  0.39777772773E+02  0.11759562650E+01  0.10417071817E+03  0.13843682223E+03  0.82033902410E+02 0.  0.
          6    2    1    2  502    0 -0.15733629980E+02 -0.70950701010E+02  0.82908680871E+03  0.85016129000E+03  0.17351580203E+03 0.  0.
         24    2    5    5    0    0 -0.28788141521E+01  0.15523985371E+02  0.21816936905E+03  0.23300221346E+03  0.80267528890E+02 0.  0.
          2    1    6    6  501    0 -0.49886717043E+01  0.30356526306E+02  0.21562176330E+03  0.21780530376E+03  0.00000000000E+00 0. -1.
         -1    1    6    6    0  501  0.21098575522E+01 -0.14832540936E+02  0.25476057442E+01  0.15196909703E+02  0.00000000000E+00 0.  1.
          5    1    5    5  502    0 -0.12854815828E+02 -0.86474686381E+02  0.61091743966E+03  0.61715907654E+03  0.47000000000E+01 0. -1.
         11    1    4    4    0    0  0.10575704758E+01  0.12904692308E+02  0.96367651616E+02  0.97233604360E+02  0.00000000000E+00 0. -1.
        -12    1    4    4    0    0  0.38720202297E+02 -0.11728736043E+02  0.78030665556E+01  0.41203217869E+02  0.00000000000E+00 0.  1.
         -5    1    3    3    0  504 -0.24044142793E+02  0.69774744745E+02 -0.17494551090E+02  0.75992006979E+02  0.47000000000E+01 0.  1.
<mgrwt>
<rscale>  2 0.19409616E+03</rscale>
<asrwt>0</asrwt>
<pdfrwt beam="1">  1       21 0.15233484E+00 0.19612997E+03</pdfrwt>
<pdfrwt beam="2">  1       21 0.11448243E-01 0.19612997E+03</pdfrwt>
<totfact> 0.18273144E+04</totfact>
</mgrwt>
</event>
<event>
12    1  0.1410528E-001  0.2791933E+03  0.7546771E-02  0.1096294E+00
         21   -1    0    0  502  503  0.00000000000E+00  0.00000000000E+00  0.21004026672E+03  0.21004026672E+03  0.00000000000E+00 0. -1.
         21   -1    0    0  503  504 -0.00000000000E+00 -0.00000000000E+00 -0.63850235236E+03  0.63850235236E+03  0.00000000000E+00 0.  1.
         -6    2    1    2    0  504  0.19111316098E+03 -0.10479685417E+03 -0.48933441360E+03  0.56279033706E+03  0.17256353672E+03 0.  0.
        -24    2    3    3    0    0  0.89772394207E+02 -0.79931155197E+02 -0.39964539312E+03  0.42511512364E+03  0.80983675941E+02 0.  0.
          6    2    1    2  502    0 -0.19111316098E+03  0.10479685417E+03  0.60872327964E+02  0.28575228202E+03  0.17447723467E+03 0.  0.
         24    2    5    5    0    0 -0.16448331137E+03  0.33392860084E+02 -0.37598859488E+01  0.18571682661E+03  0.79415112671E+02 0.  0.
          2    1    6    6  501    0 -0.15944079147E+03  0.13613919012E+02  0.11196449677E+02  0.16041217304E+03  0.00000000000E+00 0. -1.
         -1    1    6    6    0  501 -0.50425199013E+01  0.19778941072E+02 -0.14956335626E+02  0.25304653569E+02  0.00000000000E+00 0.  1.
          5    1    5    5  502    0 -0.26629849612E+02  0.71403994091E+02  0.64632213913E+02  0.10003545540E+03  0.47000000000E+01 0. -1.
         13    1    4    4    0    0  0.36299709961E+02 -0.33080207192E+02 -0.57305563623E+02  0.75471164516E+02  0.00000000000E+00 0. -1.
        -14    1    4    4    0    0  0.53472684246E+02 -0.46850948004E+02 -0.34233982950E+03  0.34964395912E+03  0.00000000000E+00 0.  1.
         -5    1    3    3    0  504  0.10134076678E+03 -0.24865698978E+02 -0.89689020482E+02  0.13767521342E+03  0.47000000000E+01 0.  1.
<mgrwt>
<rscale>  2 0.27889489E+03</rscale>
<asrwt>0</asrwt>
<pdfrwt beam="1">  1       21 0.32313887E-01 0.27919335E+03</pdfrwt>
<pdfrwt beam="2">  1       21 0.98231131E-01 0.27919335E+03</pdfrwt>
<totfact> 0.74720401E+03</totfact>
</mgrwt>
</event>
<event>
12    1  0.1410528E-001  0.1915492E+03  0.7546771E-02  0.1157167E+00
         21   -1    0    0  502  503  0.00000000000E+00  0.00000000000E+00  0.51162839739E+03  0.51162839739E+03  0.00000000000E+00 0. -1.
         21   -1    0    0  503  504 -0.00000000000E+00 -0.00000000000E+00 -0.83383405667E+02  0.83383405667E+02  0.00000000000E+00 0. -1.
         -6    2    1    2    0  504 -0.75928230026E+02  0.23535944436E+02  0.10186603842E+03  0.21657513580E+03  0.17380754548E+03 0.  0.
        -24    2    3    3    0    0 -0.10976378720E+03 -0.25036988849E+01  0.41273432629E+02  0.14230224821E+03  0.80573420658E+02 0.  0.
          6    2    1    2  502    0  0.75928230026E+02 -0.23535944436E+02  0.32637895331E+03  0.37843666726E+03  0.17427579629E+03 0.  0.
         24    2    5    5    0    0  0.24266079734E+02 -0.68815896018E+01  0.50230264310E+02  0.96964583846E+02  0.79011721705E+02 0.  0.
          2    1    6    6  501    0  0.29026267441E+01 -0.27428811152E+02 -0.10399335086E+02  0.29477297933E+02  0.00000000000E+00 0. -1.
         -1    1    6    6    0  501  0.21363452990E+02  0.20547221550E+02  0.60629599395E+02  0.67487285913E+02  0.00000000000E+00 0.  1.
          5    1    5    5  502    0  0.51662150291E+02 -0.16654354834E+02  0.27614868900E+03  0.28147208342E+03  0.47000000000E+01 0. -1.
         13    1    4    4    0    0 -0.35390604498E+02  0.27822230085E+02 -0.11164995713E+02  0.46381337873E+02  0.00000000000E+00 0. -1.
        -14    1    4    4    0    0 -0.74373182703E+02 -0.30325928970E+02  0.52438428342E+02  0.95920910339E+02  0.00000000000E+00 0.  1.
         -5    1    3    3    0  504  0.33835557176E+02  0.26039643321E+02  0.60592605790E+02  0.74272887584E+02  0.47000000000E+01 0.  1.
<mgrwt>
<rscale>  2 0.19144261E+03</rscale>
<asrwt>0</asrwt>
<pdfrwt beam="1">  1       21 0.78712059E-01 0.19154918E+03</pdfrwt>
<pdfrwt beam="2">  1       21 0.12828217E-01 0.19154918E+03</pdfrwt>
<totfact> 0.74313571E+04</totfact>
</mgrwt>
</event>
<event>
12    1  0.1410528E-001  0.1944734E+03  0.7546771E-02  0.1155210E+00
         21   -1    0    0  502  503  0.00000000000E+00  0.00000000000E+00  0.11081801008E+03  0.11081801008E+03  0.00000000000E+00 0. -1.
         21   -1    0    0  503  504 -0.00000000000E+00 -0.00000000000E+00 -0.34303655058E+03  0.34303655058E+03  0.00000000000E+00 0. -1.
         -6    2    1    2    0  504  0.45960444899E+02  0.70375366310E+02 -0.14864817422E+03  0.24218518356E+03  0.17173330707E+03 0.  0.
        -24    2    3    3    0    0  0.18382226966E+02  0.36204259808E+02 -0.26598098879E+01  0.89663332193E+02  0.79898584811E+02 0.  0.
          6    2    1    2  502    0 -0.45960444899E+02 -0.70375366310E+02 -0.83570366283E+02  0.21166937711E+03  0.17537064865E+03 0.  0.
         24    2    5    5    0    0 -0.12924788885E+00 -0.10002279247E+03 -0.87488927181E+02  0.15674293888E+03  0.83123166392E+02 0.  0.
          2    1    6    6  501    0 -0.41333582864E+02 -0.42410542905E+02 -0.39357740651E+02  0.71106616929E+02  0.00000000000E+00 0. -1.
         -1    1    6    6    0  501  0.41204334975E+02 -0.57612249563E+02 -0.48131186530E+02  0.85636321950E+02  0.00000000000E+00 0.  1.
          5    1    5    5  502    0 -0.45831197010E+02  0.29647426158E+02  0.39185608978E+01  0.54926438230E+02  0.47000000000E+01 0. -1.
         13    1    4    4    0    0 -0.30922492605E+02  0.15421357240E+02  0.70950070687E+01  0.35275457947E+02  0.00000000000E+00 0. -1.
        -14    1    4    4    0    0  0.49304719571E+02  0.20782902567E+02 -0.97548169565E+01  0.54387874246E+02  0.00000000000E+00 0.  1.
         -5    1    3    3    0  504  0.27578217933E+02  0.34171106503E+02 -0.14598836433E+03  0.15252185136E+03  0.47000000000E+01 0.  1.
<mgrwt>
<rscale>  2 0.19364983E+03</rscale>
<asrwt>0</asrwt>
<pdfrwt beam="1">  1       21 0.17048925E-01 0.19447344E+03</pdfrwt>
<pdfrwt beam="2">  1       21 0.52774854E-01 0.19447344E+03</pdfrwt>
<totfact> 0.10553319E+05</totfact>
</mgrwt>
</event>
<event>
12    1  0.1410528E-001  0.2624610E+03  0.7546771E-02  0.1106141E+00
         21   -1    0    0  502  503  0.00000000000E+00  0.00000000000E+00  0.19923522863E+03  0.19923522863E+03  0.00000000000E+00 0.  1.
         21   -1    0    0  503  504 -0.00000000000E+00 -0.00000000000E+00 -0.65980464650E+03  0.65980464650E+03  0.00000000000E+00 0. -1.
         -6    2    1    2    0  504 -0.16551485099E+03  0.98564386489E+02  0.68692970355E+02  0.26827387701E+03  0.17361464434E+03 0.  0.
        -24    2    3    3    0    0 -0.15131161850E+03  0.13600717450E+03  0.54872323766E+02  0.22565000507E+03  0.80708087990E+02 0.  0.
          6    2    1    2  502    0  0.16551485099E+03 -0.98564386489E+02 -0.52926238823E+03  0.59076599812E+03  0.17825735541E+03 0.  0.
         24    2    5    5    0    0  0.16624178342E+03 -0.52911677040E+02 -0.29294842962E+03  0.35003570226E+03  0.79184811169E+02 0.  0.
          2    1    6    6  501    0  0.62047730256E+02 -0.61418353078E+01 -0.17534856757E+03  0.18610417276E+03  0.00000000000E+00 0. -1.
         -1    1    6    6    0  501  0.10419405316E+03 -0.46769841732E+02 -0.11759986205E+03  0.16393152950E+03  0.00000000000E+00 0.  1.
          5    1    5    5  502    0 -0.72693242186E+00 -0.45652709449E+02 -0.23631395861E+03  0.24073029586E+03  0.47000000000E+01 0. -1.
         13    1    4    4    0    0 -0.24340374960E+02  0.73135170332E+02  0.22798325278E+02  0.80380163151E+02  0.00000000000E+00 0. -1.
        -14    1    4    4    0    0 -0.12697124354E+03  0.62872004165E+02  0.32073998488E+02  0.14526984192E+03  0.00000000000E+00 0.  1.
         -5    1    3    3    0  504 -0.14203232499E+02 -0.37442788008E+02  0.13820646589E+02  0.42623871942E+02  0.47000000000E+01 0.  1.
<mgrwt>
<rscale>  2 0.26167479E+03</rscale>
<asrwt>0</asrwt>
<pdfrwt beam="1">  1       21 0.30651574E-01 0.26246102E+03</pdfrwt>
<pdfrwt beam="2">  1       21 0.10150841E+00 0.26246102E+03</pdfrwt>
<totfact> 0.77367602E+03</totfact>
</mgrwt>
</event>
<event>
12    1  0.1410528E-001  0.1981980E+03  0.7546771E-02  0.1151313E+00
         21   -1    0    0  502  503  0.00000000000E+00  0.00000000000E+00  0.97152616623E+02  0.97152616623E+02  0.00000000000E+00 0. -1.
         21   -1    0    0  503  504 -0.00000000000E+00 -0.00000000000E+00 -0.40411921874E+03  0.40411921874E+03  0.00000000000E+00 0. -1.
         -6    2    1    2    0  504  0.59080520862E+02 -0.77742726481E+02 -0.14764509208E+03  0.24697711108E+03  0.17223292576E+03 0.  0.
        -24    2    3    3    0    0  0.14539195542E+02 -0.66982079931E+02 -0.16786199242E+03  0.19667269542E+03  0.76187357109E+02 0.  0.
          6    2    1    2  502    0 -0.59080520862E+02  0.77742726481E+02 -0.15932151004E+03  0.25429472428E+03  0.17247615421E+03 0.  0.
         24    2    5    5    0    0  0.67578843601E+01  0.27350854103E+02 -0.14828010207E+03  0.17052098679E+03  0.79351622812E+02 0.  0.
          4    1    6    6  501    0 -0.34786699840E+02  0.61546526993E+00 -0.62483003640E+02  0.71516564705E+02  0.00000000000E+00 0. -1.
         -3    1    6    6    0  501  0.41544584200E+02  0.26735388833E+02 -0.85797098435E+02  0.99004422084E+02  0.00000000000E+00 0.  1.
          5    1    5    5  502    0 -0.65838405222E+02  0.50391872378E+02 -0.11041407964E+02  0.83773737494E+02  0.47000000000E+01 0. -1.
         11    1    4    4    0    0 -0.78012244292E+01 -0.38823591497E+01 -0.10332066317E+03  0.10368746912E+03  0.00000000000E+00 0. -1.
        -12    1    4    4    0    0  0.22340419972E+02 -0.63099720782E+02 -0.64541329254E+02  0.92985226295E+02  0.00000000000E+00 0.  1.
         -5    1    3    3    0  504  0.44541325320E+02 -0.10760646549E+02  0.20216900346E+02  0.50304415661E+02  0.47000000000E+01 0.  1.
<mgrwt>
<rscale>  2 0.19814511E+03</rscale>
<asrwt>0</asrwt>
<pdfrwt beam="1">  1       21 0.14946557E-01 0.19819804E+03</pdfrwt>
<pdfrwt beam="2">  1       21 0.62172187E-01 0.19819804E+03</pdfrwt>
<totfact> 0.94550386E+04</totfact>
</mgrwt>
</event>
<event>
12    1  0.1410528E-001  0.2589172E+03  0.7546771E-02  0.1108009E+00
         21   -1    0    0  502  503  0.00000000000E+00  0.00000000000E+00  0.71821089346E+02  0.71821089346E+02  0.00000000000E+00 0. -1.
         21   -1    0    0  503  504 -0.00000000000E+00 -0.00000000000E+00 -0.13244542133E+04  0.13244542133E+04  0.00000000000E+00 0.  1.
         -6    2    1    2    0  504  0.18800558634E+03  0.40736578838E+02 -0.24571247958E+03  0.35694921478E+03  0.17329901893E+03 0.  0.
        -24    2    3    3    0    0  0.64040678178E+02  0.54391959460E+02 -0.56262098238E+02  0.13008514785E+03  0.81835373019E+02 0.  0.
          6    2    1    2  502    0 -0.18800558634E+03 -0.40736578838E+02 -0.10069206444E+04  0.10393260879E+04  0.17118400478E+03 0.  0.
         24    2    5    5    0    0 -0.20343032268E+03 -0.38805101044E+02 -0.76384351109E+03  0.79570704956E+03  0.82480708230E+02 0.  0.
          2    1    6    6  501    0 -0.16938106045E+03  0.11313094699E+01 -0.54837928775E+03  0.57394343513E+03  0.00000000000E+00 0. -1.
         -1    1    6    6    0  501 -0.34049262231E+02 -0.39936410514E+02 -0.21546422334E+03  0.22176361442E+03  0.00000000000E+00 0.  1.
          5    1    5    5  502    0  0.15424736337E+02 -0.19314777937E+01 -0.24307713332E+03  0.24361903833E+03  0.47000000000E+01 0. -1.
         13    1    4    4    0    0  0.18046092543E+02  0.66849621309E+02 -0.38532264935E+02  0.79241837222E+02  0.00000000000E+00 0. -1.
        -14    1    4    4    0    0  0.45994585635E+02 -0.12457661849E+02 -0.17729833303E+02  0.50843310626E+02  0.00000000000E+00 0.  1.
         -5    1    3    3    0  504  0.12396490817E+03 -0.13655380622E+02 -0.18945038134E+03  0.22686406694E+03  0.47000000000E+01 0.  1.
<mgrwt>
<rscale>  2 0.25856377E+03</rscale>
<asrwt>0</asrwt>
<pdfrwt beam="1">  1       21 0.11049398E-01 0.25891721E+03</pdfrwt>
<pdfrwt beam="2">  1       21 0.20376219E+00 0.25891721E+03</pdfrwt>
<totfact> 0.82088421E+03</totfact>
</mgrwt>
</event>
<event>
12    1  0.1410528E-001  0.2021319E+03  0.7546771E-02  0.1148298E+00
         21   -1    0    0  502  503  0.00000000000E+00  0.00000000000E+00  0.86686273360E+02  0.86686273360E+02  0.00000000000E+00 0.  1.
         21   -1    0    0  503  504 -0.00000000000E+00 -0.00000000000E+00 -0.60591324328E+03  0.60591324328E+03  0.00000000000E+00 0.  1.
         -6    2    1    2    0  504  0.80641942314E+02 -0.62216148380E+02 -0.42596086095E+03  0.47148694797E+03  0.17459471660E+03 0.  0.
        -24    2    3    3    0    0  0.76198662847E+02 -0.10466539235E+03 -0.27203852020E+03  0.31168751734E+03  0.79894126319E+02 0.  0.
          6    2    1    2  502    0 -0.80641942314E+02  0.62216148380E+02 -0.93266108971E+02  0.22111256867E+03  0.17267955572E+03 0.  0.
         24    2    5    5    0    0  0.13828735580E+02 -0.52925609442E+00 -0.33086199401E+02  0.92639200692E+02  0.85415518931E+02 0.  0.
          4    1    6    6  501    0  0.20659916657E+02 -0.40613182510E+02 -0.13620613564E+02  0.47558215523E+02  0.00000000000E+00 0. -1.
         -3    1    6    6    0  501 -0.68311810766E+01  0.40083926416E+02 -0.19465585838E+02  0.45080985169E+02  0.00000000000E+00 0.  1.
          5    1    5    5  502    0 -0.94470677894E+02  0.62745404474E+02 -0.60179909570E+02  0.12847336798E+03  0.47000000000E+01 0. -1.
         13    1    4    4    0    0 -0.10743796884E+02 -0.25280196752E+02 -0.21558698855E+02  0.34918405113E+02  0.00000000000E+00 0. -1.
        -14    1    4    4    0    0  0.86942459731E+02 -0.79385195596E+02 -0.25047982134E+03  0.27676911223E+03  0.00000000000E+00 0.  1.
         -5    1    3    3    0  504  0.44432794669E+01  0.42449243968E+02 -0.15392234075E+03  0.15979943063E+03  0.47000000000E+01 0.  1.
<mgrwt>
<rscale>  2 0.20171760E+03</rscale>
<asrwt>0</asrwt>
<pdfrwt beam="1">  1       21 0.13336349E-01 0.20213186E+03</pdfrwt>
<pdfrwt beam="2">  1       21 0.93217425E-01 0.20213186E+03</pdfrwt>
<totfact> 0.46773637E+04</totfact>
</mgrwt>
</event>
<event>
12    1  0.1410528E-001  0.2373599E+03  0.7546771E-02  0.1121958E+00
         21   -1    0    0  502  503  0.00000000000E+00  0.00000000000E+00  0.12472030543E+03  0.12472030543E+03  0.00000000000E+00 0. -1.
         21   -1    0    0  503  504 -0.00000000000E+00 -0.00000000000E+00 -0.61553375650E+03  0.61553375650E+03  0.00000000000E+00 0. -1.
         -6    2    1    2    0  504 -0.13989414038E+03 -0.79642220924E+02 -0.52797584100E+02  0.24316107668E+03  0.17443185047E+03 0.  0.
        -24    2    3    3    0    0 -0.11802128341E+01 -0.39113855707E+02  0.58088935706E+01  0.87145336105E+02  0.77648436879E+02 0.  0.
          6    2    1    2  502    0  0.13989414038E+03  0.79642220924E+02 -0.43801586697E+03  0.49709298525E+03  0.17126086068E+03 0.  0.
         24    2    5    5    0    0  0.56865665039E+02  0.49446419096E+02 -0.92953573549E+02  0.14086891180E+03  0.74330553971E+02 0.  0.
          4    1    6    6  501    0  0.24506350201E+02  0.64223888985E+02 -0.72171729552E+02  0.99669592470E+02  0.00000000000E+00 0. -1.
         -3    1    6    6    0  501  0.32359314838E+02 -0.14777469889E+02 -0.20781843997E+02  0.41199319327E+02  0.00000000000E+00 0.  1.
          5    1    5    5  502    0  0.83028475344E+02  0.30195801829E+02 -0.34506229342E+03  0.35622407345E+03  0.47000000000E+01 0. -1.
         11    1    4    4    0    0  0.31267180686E+02  0.46355897511E+01  0.80935085979E+01  0.32628670855E+02  0.00000000000E+00 0. -1.
        -12    1    4    4    0    0 -0.32447393520E+02 -0.43749445458E+02 -0.22846150273E+01  0.54516665250E+02  0.00000000000E+00 0.  1.
         -5    1    3    3    0  504 -0.13871392755E+03 -0.40528365217E+02 -0.58606477671E+02  0.15601574058E+03  0.47000000000E+01 0.  1.
<mgrwt>
<rscale>  2 0.23677765E+03</rscale>
<asrwt>0</asrwt>
<pdfrwt beam="1">  1       21 0.19187739E-01 0.23735990E+03</pdfrwt>
<pdfrwt beam="2">  1       21 0.94697500E-01 0.23735990E+03</pdfrwt>
<totfact> 0.22696072E+04</totfact>
</mgrwt>
</event>
<event>
12    1  0.1410528E-001  0.2413337E+03  0.7546771E-02  0.1119713E+00
         21   -1    0    0  502  503  0.00000000000E+00  0.00000000000E+00  0.47644251292E+03  0.47644251292E+03  0.00000000000E+00 0. -1.
         21   -1    0    0  503  504 -0.00000000000E+00 -0.00000000000E+00 -0.12036324339E+03  0.12036324339E+03  0.00000000000E+00 0.  1.
         -6    2    1    2    0  504  0.10863640937E+03  0.12277740427E+03  0.15611384489E+03  0.28339208000E+03  0.17047984632E+03 0.  0.
        -24    2    3    3    0    0  0.23079271521E+00  0.96531424474E+01  0.37424455741E+02  0.86775352756E+02  0.77692570649E+02 0.  0.
          6    2    1    2  502    0 -0.10863640937E+03 -0.12277740427E+03  0.19996542464E+03  0.31341367631E+03  0.17710392712E+03 0.  0.
         24    2    5    5    0    0  0.15763708662E+01 -0.54796335529E+01  0.72038641176E+02  0.10776111524E+03  0.79939857436E+02 0.  0.
          2    1    6    6  501    0  0.20611962715E+02  0.30078637652E+02  0.49742562006E+02  0.61675764485E+02  0.00000000000E+00 0. -1.
         -1    1    6    6    0  501 -0.19035591849E+02 -0.35558271205E+02  0.22296079170E+02  0.46085350758E+02  0.00000000000E+00 0.  1.
          5    1    5    5  502    0 -0.11021278024E+03 -0.11729777072E+03  0.12792678346E+03  0.20565256106E+03  0.47000000000E+01 0. -1.
         13    1    4    4    0    0  0.29955757668E+02 -0.20107776288E+02  0.14619065189E+02  0.38927973897E+02  0.00000000000E+00 0. -1.
        -14    1    4    4    0    0 -0.29724964953E+02  0.29760918736E+02  0.22805390551E+02  0.47847378859E+02  0.00000000000E+00 0.  1.
         -5    1    3    3    0  504  0.10840561666E+03  0.11312426182E+03  0.11868938914E+03  0.19661672724E+03  0.47000000000E+01 0.  1.
<mgrwt>
<rscale>  2 0.24012001E+03</rscale>
<asrwt>0</asrwt>
<pdfrwt beam="1">  1       21 0.73298847E-01 0.24133371E+03</pdfrwt>
<pdfrwt beam="2">  1       21 0.18517422E-01 0.24133371E+03</pdfrwt>
<totfact> 0.43557984E+04</totfact>
</mgrwt>
</event>
<event>
12    1  0.1410528E-001  0.1968033E+03  0.7546771E-02  0.1152520E+00
         21   -1    0    0  502  503  0.00000000000E+00  0.00000000000E+00  0.44115873647E+02  0.44115873647E+02  0.00000000000E+00 0.  1.
         21   -1    0    0  503  504 -0.00000000000E+00 -0.00000000000E+00 -0.88390342651E+03  0.88390342651E+03  0.00000000000E+00 0.  1.
         -6    2    1    2    0  504  0.81593790334E+02 -0.45201009518E+02 -0.46176532453E+03  0.50195491288E+03  0.17329409035E+03 0.  0.
        -24    2    3    3    0    0  0.49897010512E+02  0.36523774356E+02 -0.31517479712E+03  0.33109093518E+03  0.80388785715E+02 0.  0.
          6    2    1    2  502    0 -0.81593790334E+02  0.45201009518E+02 -0.37802222833E+03  0.42606438727E+03  0.17300109567E+03 0.  0.
         24    2    5    5    0    0  0.24807729552E+02  0.20141690473E+02 -0.16607192401E+03  0.18753918020E+03  0.81055222073E+02 0.  0.
          4    1    6    6  501    0  0.35091162651E+02 -0.72878236361E+01 -0.25596349123E+02  0.44041743358E+02  0.00000000000E+00 0. -1.
         -3    1    6    6    0  501 -0.10283433099E+02  0.27429514109E+02 -0.14047557489E+03  0.14349743685E+03  0.00000000000E+00 0.  1.
          5    1    5    5  502    0 -0.10640151989E+03  0.25059319045E+02 -0.21195030432E+03  0.23852520707E+03  0.47000000000E+01 0. -1.
         11    1    4    4    0    0  0.21515757028E+00 -0.11938802814E+02 -0.16744507967E+03  0.16787029520E+03  0.00000000000E+00 0. -1.
        -12    1    4    4    0    0  0.49681852942E+02  0.48462577170E+02 -0.14772971745E+03  0.16322063998E+03  0.00000000000E+00 0.  1.
         -5    1    3    3    0  504  0.31696779823E+02 -0.81724783874E+02 -0.14659052741E+03  0.17086397770E+03  0.47000000000E+01 0.  1.
<mgrwt>
<rscale>  2 0.19673873E+03</rscale>
<asrwt>0</asrwt>
<pdfrwt beam="1">  1       21 0.67870573E-02 0.19680325E+03</pdfrwt>
<pdfrwt beam="2">  1       21 0.13598515E+00 0.19680325E+03</pdfrwt>
<totfact> 0.61393134E+04</totfact>
</mgrwt>
</event>
<event>
12    1  0.1410528E-001  0.1826870E+03  0.7546771E-02  0.1166125E+00
         21   -1    0    0  502  503  0.00000000000E+00  0.00000000000E+00  0.22577591686E+03  0.22577591686E+03  0.00000000000E+00 0. -1.
         21   -1    0    0  503  504 -0.00000000000E+00 -0.00000000000E+00 -0.26787282885E+03  0.26787282885E+03  0.00000000000E+00 0. -1.
         -6    2    1    2    0  504  0.18802509446E+02  0.53395852255E+02 -0.18822149866E+03  0.25971084183E+03  0.16975787879E+03 0.  0.
        -24    2    3    3    0    0 -0.26823315197E+02 -0.15928836198E+02 -0.55684900134E+02  0.10326382764E+03  0.81175069659E+02 0.  0.
          6    2    1    2  502    0 -0.18802509446E+02 -0.53395852255E+02  0.14612458667E+03  0.23393790387E+03  0.17369483769E+03 0.  0.
         24    2    5    5    0    0  0.16752559128E+02 -0.90913821771E+02  0.67656304119E+02  0.13985750047E+03  0.80229506568E+02 0.  0.
          2    1    6    6  501    0 -0.13769359197E+02 -0.56015645889E+02  0.73164987129E+02  0.93169003314E+02  0.00000000000E+00 0. -1.
         -1    1    6    6    0  501  0.30521918325E+02 -0.34898175881E+02 -0.55086830096E+01  0.46688497155E+02  0.00000000000E+00 0.  1.
          5    1    5    5  502    0 -0.35555068574E+02  0.37517969515E+02  0.78468282552E+02  0.94080403403E+02  0.47000000000E+01 0. -1.
         13    1    4    4    0    0  0.39586933234E+01  0.21871144332E+02 -0.49326484079E+02  0.54102867195E+02  0.00000000000E+00 0. -1.
        -14    1    4    4    0    0 -0.30782008521E+02 -0.37799980530E+02 -0.63584160550E+01  0.49160960440E+02  0.00000000000E+00 0.  1.
         -5    1    3    3    0  504  0.45625824644E+02  0.69324688453E+02 -0.13253659852E+03  0.15644701420E+03  0.47000000000E+01 0.  1.
<mgrwt>
<rscale>  2 0.18174501E+03</rscale>
<asrwt>0</asrwt>
<pdfrwt beam="1">  1       21 0.34734757E-01 0.18268702E+03</pdfrwt>
<pdfrwt beam="2">  1       21 0.41211204E-01 0.18268702E+03</pdfrwt>
<totfact> 0.45519202E+04</totfact>
</mgrwt>
</event>
<event>
12    1  0.1410528E-001  0.1802406E+03  0.7546771E-02  0.1168089E+00
         21   -1    0    0  502  503  0.00000000000E+00  0.00000000000E+00  0.72702332546E+03  0.72702332546E+03  0.00000000000E+00 0. -1.
         21   -1    0    0  503  504 -0.00000000000E+00 -0.00000000000E+00 -0.45253256065E+02  0.45253256065E+02  0.00000000000E+00 0. -1.
         -6    2    1    2    0  504  0.35076197289E+02 -0.22774921722E+02  0.27879821645E+03  0.33083238938E+03  0.17312593016E+03 0.  0.
        -24    2    3    3    0    0  0.56388093297E+02  0.40256867640E+02  0.13839668820E+03  0.17539146003E+03  0.82512353560E+02 0.  0.
          6    2    1    2  502    0 -0.35076197289E+02  0.22774921722E+02  0.40297185295E+03  0.44144419215E+03  0.17532148709E+03 0.  0.
         24    2    5    5    0    0 -0.35697903209E+02 -0.39778460938E+02  0.13603378871E+03  0.16723381244E+03  0.81272935860E+02 0.  0.
          4    1    6    6  501    0 -0.17754523742E+02 -0.29740902140E+02  0.14172847503E+03  0.14589964019E+03  0.00000000000E+00 0. -1.
         -3    1    6    6    0  501 -0.17943379467E+02 -0.10037558798E+02 -0.56946863168E+01  0.21334172249E+02  0.00000000000E+00 0.  1.
          5    1    5    5  502    0  0.62170592048E+00  0.62553382661E+02  0.26693806424E+03  0.27421037971E+03  0.47000000000E+01 0. -1.
         13    1    4    4    0    0  0.88715271240E+01 -0.11223835128E+02 -0.55153100059E+01  0.15332876865E+02  0.00000000000E+00 0. -1.
        -14    1    4    4    0    0  0.47516566173E+02  0.51480702768E+02  0.14391199820E+03  0.16005858317E+03  0.00000000000E+00 0.  1.
         -5    1    3    3    0  504 -0.21311896008E+02 -0.63031789362E+02  0.14040152825E+03  0.15544092935E+03  0.47000000000E+01 0.  1.
<mgrwt>
<rscale>  2 0.17970445E+03</rscale>
<asrwt>0</asrwt>
<pdfrwt beam="1">  1       21 0.11184973E+00 0.18024056E+03</pdfrwt>
<pdfrwt beam="2">  1       21 0.69620399E-02 0.18024056E+03</pdfrwt>
<totfact> 0.96285347E+04</totfact>
</mgrwt>
</event>
<event>
12    1  0.1410528E-001  0.2020460E+03  0.7546771E-02  0.1148596E+00
         21   -1    0    0  502  503  0.00000000000E+00  0.00000000000E+00  0.42271595950E+03  0.42271595950E+03  0.00000000000E+00 0.  1.
         21   -1    0    0  503  504 -0.00000000000E+00 -0.00000000000E+00 -0.10257391054E+03  0.10257391054E+03  0.00000000000E+00 0.  1.
         -6    2    1    2    0  504 -0.10350968476E+03  0.15361557506E+02  0.88989019140E+02  0.21828124680E+03  0.16963910189E+03 0.  0.
        -24    2    3    3    0    0 -0.48476644691E+02 -0.31465543109E+02  0.10576984336E+03  0.14395023771E+03  0.78704165638E+02 0.  0.
          6    2    1    2  502    0  0.10350968476E+03 -0.15361557506E+02  0.23115302982E+03  0.30700862323E+03  0.17283616305E+03 0.  0.
         24    2    5    5    0    0  0.12701001754E+03 -0.30637427195E+02  0.23300959021E+03  0.27852784635E+03  0.78829534802E+02 0.  0.
          2    1    6    6  501    0  0.11470537629E+03  0.23561826148E+01  0.15411072379E+03  0.19212753611E+03  0.00000000000E+00 0. -1.
         -1    1    6    6    0  501  0.12304641248E+02 -0.32993609810E+02  0.78898866427E+02  0.86400310231E+02  0.00000000000E+00 0.  1.
          5    1    5    5  502    0 -0.23500332784E+02  0.15275869689E+02 -0.18565603938E+01  0.28480776889E+02  0.47000000000E+01 0. -1.
         11    1    4    4    0    0  0.18600961864E+02 -0.22807332439E+02  0.39521913888E+02  0.49276281035E+02  0.00000000000E+00 0. -1.
        -12    1    4    4    0    0 -0.67077606555E+02 -0.86582106695E+01  0.66247929471E+02  0.94673956674E+02  0.00000000000E+00 0.  1.
         -5    1    3    3    0  504 -0.55033040068E+02  0.46827100615E+02 -0.16780824218E+02  0.74331009091E+02  0.47000000000E+01 0.  1.
<mgrwt>
<rscale>  2 0.20136049E+03</rscale>
<asrwt>0</asrwt>
<pdfrwt beam="1">  1       21 0.65033224E-01 0.20204596E+03</pdfrwt>
<pdfrwt beam="2">  1       21 0.15780602E-01 0.20204596E+03</pdfrwt>
<totfact> 0.77530347E+04</totfact>
</mgrwt>
</event>
<event>
12    1  0.1410528E-001  0.1811917E+03  0.7546771E-02  0.1166796E+00
         21   -1    0    0  502  503  0.00000000000E+00  0.00000000000E+00  0.43947690166E+03  0.43947690166E+03  0.00000000000E+00 0. -1.
         21   -1    0    0  503  504 -0.00000000000E+00 -0.00000000000E+00 -0.74467574691E+02  0.74467574691E+02  0.00000000000E+00 0. -1.
         -6    2    1    2    0  504 -0.52760332225E+02 -0.10388006922E+02  0.18460581652E+03  0.25825746495E+03  0.17241243392E+03 0.  0.
        -24    2    3    3    0    0 -0.72480562225E+01 -0.53359248389E+02  0.16974569668E+03  0.19375313935E+03  0.76334355042E+02 0.  0.
          6    2    1    2  502    0  0.52760332225E+02  0.10388006922E+02  0.18040351045E+03  0.25568701140E+03  0.17302848861E+03 0.  0.
         24    2    5    5    0    0  0.22930474107E+02  0.15031651281E+02  0.20139959550E+03  0.21861533143E+03  0.80492912037E+02 0.  0.
          2    1    6    6  501    0 -0.54606734277E+00 -0.24665838536E+02  0.13815514003E+03  0.14034081551E+03  0.00000000000E+00 0. -1.
         -1    1    6    6    0  501  0.23476541450E+02  0.39697489817E+02  0.63244455467E+02  0.78274515927E+02  0.00000000000E+00 0.  1.
          5    1    5    5  502    0  0.29829858118E+02 -0.46436443596E+01 -0.20996085043E+02  0.37071679965E+02  0.47000000000E+01 0. -1.
         13    1    4    4    0    0  0.10272186998E+02  0.79823027943E+01  0.93223828266E+02  0.94127132859E+02  0.00000000000E+00 0. -1.
        -14    1    4    4    0    0 -0.17520243220E+02 -0.61341551183E+02  0.76521868409E+02  0.99626006489E+02  0.00000000000E+00 0.  1.
         -5    1    3    3    0  504 -0.45512276003E+02  0.42971241467E+02  0.14860119840E+02  0.64504325606E+02  0.47000000000E+01 0.  1.
<mgrwt>
<rscale>  2 0.18104444E+03</rscale>
<asrwt>0</asrwt>
<pdfrwt beam="1">  1       21 0.67611829E-01 0.18119167E+03</pdfrwt>
<pdfrwt beam="2">  1       21 0.11456550E-01 0.18119167E+03</pdfrwt>
<totfact> 0.12799939E+05</totfact>
</mgrwt>
</event>
<event>
12    1  0.1410528E-001  0.2369889E+03  0.7546771E-02  0.1122046E+00
         21   -1    0    0  502  503  0.00000000000E+00  0.00000000000E+00  0.57082207028E+02  0.57082207028E+02  0.00000000000E+00 0. -1.
         21   -1    0    0  503  504 -0.00000000000E+00 -0.00000000000E+00 -0.11524022436E+04  0.11524022436E+04  0.00000000000E+00 0.  1.
         -6    2    1    2    0  504  0.41931990932E+02 -0.15437110427E+03 -0.78139725422E+03  0.81615094882E+03  0.17300859130E+03 0.  0.
        -24    2    3    3    0    0  0.85730587371E+02 -0.11528744447E+03 -0.44060367068E+03  0.47030675544E+03  0.80099445279E+02 0.  0.
          6    2    1    2  502    0 -0.41931990932E+02  0.15437110427E+03 -0.31392278237E+03  0.39333350182E+03  0.17485708641E+03 0.  0.
         24    2    5    5    0    0 -0.40870797351E+02  0.36824894614E+01 -0.11986659644E+03  0.14759364331E+03  0.75709311174E+02 0.  0.
          4    1    6    6  501    0 -0.47604535560E+02 -0.20084258039E+02 -0.10896234082E+03  0.12059171176E+03  0.00000000000E+00 0. -1.
         -3    1    6    6    0  501  0.67337382094E+01  0.23766747500E+02 -0.10904255618E+02  0.27001931553E+02  0.00000000000E+00 0.  1.
          5    1    5    5  502    0 -0.10611935815E+01  0.15068861481E+03 -0.19405618593E+03  0.24573985851E+03  0.47000000000E+01 0. -1.
         13    1    4    4    0    0  0.77938618685E+02 -0.40257245016E+02 -0.20681714104E+03  0.22465173911E+03  0.00000000000E+00 0. -1.
        -14    1    4    4    0    0  0.77919686858E+01 -0.75030199452E+02 -0.23378652964E+03  0.24565501632E+03  0.00000000000E+00 0.  1.
         -5    1    3    3    0  504 -0.43798596438E+02 -0.39083659801E+02 -0.34079358354E+03  0.34584419338E+03  0.47000000000E+01 0.  1.
<mgrwt>
<rscale>  2 0.23664801E+03</rscale>
<asrwt>0</asrwt>
<pdfrwt beam="1">  1       21 0.87818779E-02 0.23698888E+03</pdfrwt>
<pdfrwt beam="2">  1       21 0.17729265E+00 0.23698888E+03</pdfrwt>
<totfact> 0.18791468E+04</totfact>
</mgrwt>
</event>
<event>
12    1  0.1410528E-001  0.2048640E+03  0.7546771E-02  0.1146512E+00
         21   -1    0    0  502  503  0.00000000000E+00  0.00000000000E+00  0.37297236737E+03  0.37297236737E+03  0.00000000000E+00 0.  1.
         21   -1    0    0  503  504 -0.00000000000E+00 -0.00000000000E+00 -0.24727972596E+03  0.24727972596E+03  0.00000000000E+00 0. -1.
         -6    2    1    2    0  504 -0.45350315900E+02 -0.10068577091E+03 -0.16817605632E+03  0.26202300927E+03  0.16786481422E+03 0.  0.
        -24    2    3    3    0    0 -0.79430256322E+02 -0.10834393790E+03 -0.16311833402E+03  0.22641738590E+03  0.81299860047E+02 0.  0.
          6    2    1    2  502    0  0.45350315900E+02  0.10068577091E+03  0.29386869773E+03  0.35822908407E+03  0.17255430899E+03 0.  0.
         24    2    5    5    0    0  0.96914732445E+02  0.77861419861E+02  0.21775307558E+03  0.26338437947E+03  0.80622970412E+02 0.  0.
          4    1    6    6  501    0  0.70002643048E+02  0.93565619659E+02  0.17675044221E+03  0.21188585143E+03  0.00000000000E+00 0. -1.
         -3    1    6    6    0  501  0.26912089397E+02 -0.15704199798E+02  0.41002633369E+02  0.51498528039E+02  0.00000000000E+00 0.  1.
          5    1    5    5  502    0 -0.51564416545E+02  0.22824351053E+02  0.76115622153E+02  0.94844704598E+02  0.47000000000E+01 0. -1.
         13    1    4    4    0    0 -0.15150190759E+02 -0.39432468835E+02 -0.11091446041E+03  0.11868641626E+03  0.00000000000E+00 0. -1.
        -14    1    4    4    0    0 -0.64280065563E+02 -0.68911469067E+02 -0.52203873614E+02  0.10773096963E+03  0.00000000000E+00 0.  1.
         -5    1    3    3    0  504  0.34079940422E+02  0.76581669884E+01 -0.50577222953E+01  0.35605623371E+02  0.47000000000E+01 0.  1.
<mgrwt>
<rscale>  2 0.20387335E+03</rscale>
<asrwt>0</asrwt>
<pdfrwt beam="1">  1       21 0.57380364E-01 0.20486402E+03</pdfrwt>
<pdfrwt beam="2">  1       21 0.38043035E-01 0.20486402E+03</pdfrwt>
<totfact> 0.18856282E+04</totfact>
</mgrwt>
</event>
<event>
12    1  0.1410528E-001  0.4370844E+03  0.7546771E-02  0.1032127E+00
         21   -1    0    0  502  503  0.00000000000E+00  0.00000000000E+00  0.36912647402E+03  0.36912647402E+03  0.00000000000E+00 0. -1.
         21   -1    0    0  503  504 -0.00000000000E+00 -0.00000000000E+00 -0.63465568102E+03  0.63465568102E+03  0.00000000000E+00 0.  1.
         -6    2    1    2    0  504 -0.15272349094E+03 -0.37144417075E+03 -0.35419923980E+03  0.55779430394E+03  0.15614783817E+03 0.  0.
        -24    2    3    3    0    0 -0.70107523379E+02 -0.28326869664E+03 -0.20989183586E+03  0.36952048961E+03  0.85642221773E+02 0.  0.
          6    2    1    2  502    0  0.15272349094E+03  0.37144417075E+03  0.88670032790E+02  0.44598785110E+03  0.17247478642E+03 0.  0.
         24    2    5    5    0    0  0.13601255608E+03  0.31326469433E+03  0.12798559308E+03  0.37365590725E+03  0.81266480559E+02 0.  0.
          2    1    6    6  501    0  0.10937681605E+03  0.26191863608E+03  0.71278054120E+02  0.29265204734E+03  0.00000000000E+00 0. -1.
         -1    1    6    6    0  501  0.26635740027E+02  0.51346058252E+02  0.56707538965E+02  0.81003859910E+02  0.00000000000E+00 0.  1.
          5    1    5    5  502    0  0.16710934858E+02  0.58179476416E+02 -0.39315560295E+02  0.72331943850E+02  0.47000000000E+01 0. -1.
         11    1    4    4    0    0  0.14505993173E+02 -0.60773653319E+02 -0.68229757953E+02  0.92515731884E+02  0.00000000000E+00 0. -1.
        -12    1    4    4    0    0 -0.84613516552E+02 -0.22249504333E+03 -0.14166207791E+03  0.27700475773E+03  0.00000000000E+00 0.  1.
         -5    1    3    3    0  504 -0.82615967558E+02 -0.88175474102E+02 -0.14430740394E+03  0.18827381432E+03  0.47000000000E+01 0.  1.
<mgrwt>
<rscale>  2 0.43553080E+03</rscale>
<asrwt>0</asrwt>
<pdfrwt beam="1">  1       21 0.56788689E-01 0.43708442E+03</pdfrwt>
<pdfrwt beam="2">  1       21 0.97639335E-01 0.43708442E+03</pdfrwt>
<totfact> 0.21985596E+03</totfact>
</mgrwt>
</event>
<event>
12    1  0.1410528E-001  0.2013489E+03  0.7546771E-02  0.1151912E+00
         21   -1    0    0  502  503  0.00000000000E+00  0.00000000000E+00  0.88393496744E+03  0.88393496744E+03  0.00000000000E+00 0. -1.
         21   -1    0    0  503  504 -0.00000000000E+00 -0.00000000000E+00 -0.68254803102E+02  0.68254803102E+02  0.00000000000E+00 0.  1.
         -6    2    1    2    0  504  0.10345054357E+03  0.22968306366E+01  0.10545862301E+03  0.21397841327E+03  0.15478355786E+03 0.  0.
        -24    2    3    3    0    0  0.46031761427E+02  0.54898089164E+02  0.68148682165E+02  0.12750338435E+03  0.80499359543E+02 0.  0.
          6    2    1    2  502    0 -0.10345054357E+03 -0.22968306366E+01  0.71022154133E+03  0.73821135727E+03  0.17272544641E+03 0.  0.
         24    2    5    5    0    0 -0.41354888432E+02  0.27964616513E+02  0.17430144843E+03  0.19783735573E+03  0.79160456179E+02 0.  0.
          2    1    6    6  501    0 -0.60565763084E+02  0.19175837916E+02  0.85270507785E+02  0.10633430263E+03  0.00000000000E+00 0. -1.
         -1    1    6    6    0  501  0.19210874652E+02  0.87887785968E+01  0.89030940649E+02  0.91503053102E+02  0.00000000000E+00 0.  1.
          5    1    5    5  502    0 -0.62095655134E+02 -0.30261447149E+02  0.53592009290E+03  0.54037400154E+03  0.47000000000E+01 0. -1.
         13    1    4    4    0    0 -0.21726608292E+02  0.22842644625E+02  0.11539474091E+02  0.33570692332E+02  0.00000000000E+00 0. -1.
        -14    1    4    4    0    0  0.67758369719E+02  0.32055444539E+02  0.56609208074E+02  0.93932692021E+02  0.00000000000E+00 0.  1.
         -5    1    3    3    0  504  0.57418782138E+02 -0.52601258528E+02  0.37309940843E+02  0.86475028920E+02  0.47000000000E+01 0.  1.
<mgrwt>
<rscale>  2 0.19744616E+03</rscale>
<asrwt>0</asrwt>
<pdfrwt beam="1">  1       21 0.13598999E+00 0.20134888E+03</pdfrwt>
<pdfrwt beam="2">  1       21 0.10500740E-01 0.20134888E+03</pdfrwt>
<totfact> 0.28544404E+04</totfact>
</mgrwt>
</event>
<event>
12    1  0.1410528E-001  0.2737490E+03  0.7546771E-02  0.1100010E+00
         21   -1    0    0  502  503  0.00000000000E+00  0.00000000000E+00  0.18154186020E+04  0.18154186020E+04  0.00000000000E+00 0.  1.
         21   -1    0    0  503  504 -0.00000000000E+00 -0.00000000000E+00 -0.41462447789E+02  0.41462447789E+02  0.00000000000E+00 0.  1.
         -6    2    1    2    0  504 -0.20806538632E+03  0.37453504055E+02  0.72704740570E+03  0.77477363255E+03  0.16426284306E+03 0.  0.
        -24    2    3    3    0    0 -0.21123858102E+03  0.66196672596E+02  0.60346706842E+03  0.64776800801E+03  0.80169520156E+02 0.  0.
          6    2    1    2  502    0  0.20806538632E+03 -0.37453504055E+02  0.10469087485E+04  0.10821074172E+04  0.17390964546E+03 0.  0.
         24    2    5    5    0    0  0.12943244461E+03 -0.55477397718E+02  0.89958107138E+03  0.91407309124E+03  0.80330646528E+02 0.  0.
          4    1    6    6  501    0  0.11918899027E+03 -0.68576624584E+02  0.67424739890E+03  0.68812667712E+03  0.00000000000E+00 0. -1.
         -3    1    6    6    0  501  0.10243454344E+02  0.13099226867E+02  0.22533367248E+03  0.22594641412E+03  0.00000000000E+00 0.  1.
          5    1    5    5  502    0  0.78632941708E+02  0.18023893663E+02  0.14732767713E+03  0.16803432599E+03  0.47000000000E+01 0. -1.
         11    1    4    4    0    0 -0.36158891942E+01  0.45780280427E+00 -0.21168247868E+01  0.42148766590E+01  0.00000000000E+00 0. -1.
        -12    1    4    4    0    0 -0.20762269182E+03  0.65738869792E+02  0.60558389320E+03  0.64355313135E+03  0.00000000000E+00 0.  1.
         -5    1    3    3    0  504  0.31731946970E+01 -0.28743168541E+02  0.12358033729E+03  0.12700562455E+03  0.47000000000E+01 0.  1.
<mgrwt>
<rscale>  2 0.27223024E+03</rscale>
<asrwt>0</asrwt>
<pdfrwt beam="1">  1       21 0.27929511E+00 0.27374904E+03</pdfrwt>
<pdfrwt beam="2">  1       21 0.63788395E-02 0.27374904E+03</pdfrwt>
<totfact> 0.74161069E+03</totfact>
</mgrwt>
</event>
<event>
12    1  0.1410528E-001  0.3003518E+03  0.7546771E-02  0.1086000E+00
         21   -1    0    0  502  503  0.00000000000E+00  0.00000000000E+00  0.79469706662E+03  0.79469706662E+03  0.00000000000E+00 0.  1.
         21   -1    0    0  503  504 -0.00000000000E+00 -0.00000000000E+00 -0.11074207287E+03  0.11074207287E+03  0.00000000000E+00 0. -1.
         -6    2    1    2    0  504 -0.16621426710E+03  0.16745321476E+03  0.33543486343E+03  0.44535491044E+03  0.17365680790E+03 0.  0.
        -24    2    3    3    0    0 -0.13694536207E+03  0.14693700862E+03  0.34690796431E+03  0.40752231127E+03  0.73381072431E+02 0.  0.
          6    2    1    2  502    0  0.16621426710E+03 -0.16745321476E+03  0.34852013032E+03  0.46008422906E+03  0.18585869596E+03 0.  0.
         24    2    5    5    0    0  0.15083074969E+03 -0.47389630162E+02  0.21282136495E+03  0.27818271208E+03  0.84243669329E+02 0.  0.
          2    1    6    6  501    0  0.13032778203E+02 -0.16905243729E+02 -0.16862069982E+01  0.21412236391E+02  0.00000000000E+00 0. -1.
         -1    1    6    6    0  501  0.13779797149E+03 -0.30484386432E+02  0.21450757195E+03  0.25677047569E+03  0.00000000000E+00 0.  1.
          5    1    5    5  502    0  0.15383517406E+02 -0.12006358460E+03  0.13569876537E+03  0.18190151697E+03  0.47000000000E+01 0. -1.
         13    1    4    4    0    0 -0.46069314137E+02  0.60426435667E+02  0.69147374401E+02  0.10273799306E+03  0.00000000000E+00 0. -1.
        -14    1    4    4    0    0 -0.90876047937E+02  0.86510572950E+02  0.27776058991E+03  0.30478431821E+03  0.00000000000E+00 0.  1.
         -5    1    3    3    0  504 -0.29268905026E+02  0.20516206141E+02 -0.11473100879E+02  0.37832599166E+02  0.47000000000E+01 0.  1.
<mgrwt>
<rscale>  2 0.29848608E+03</rscale>
<asrwt>0</asrwt>
<pdfrwt beam="1">  1       21 0.12226108E+00 0.30035182E+03</pdfrwt>
<pdfrwt beam="2">  1       21 0.17037242E-01 0.30035182E+03</pdfrwt>
<totfact> 0.14757905E+04</totfact>
</mgrwt>
</event>
<event>
12    1  0.1410528E-001  0.1871150E+03  0.7546771E-02  0.1161312E+00
         21   -1    0    0  502  503  0.00000000000E+00  0.00000000000E+00  0.16209688304E+03  0.16209688304E+03  0.00000000000E+00 0. -1.
         21   -1    0    0  503  504 -0.00000000000E+00 -0.00000000000E+00 -0.21494125991E+03  0.21494125991E+03  0.00000000000E+00 0. -1.
         -6    2    1    2    0  504  0.46212046745E+02  0.52576958594E+02 -0.23339940635E+02  0.18856504864E+03  0.17352848441E+03 0.  0.
        -24    2    3    3    0    0  0.76402259776E+02  0.62342055662E+01 -0.58441834881E+02  0.12288908119E+03  0.76224061778E+02 0.  0.
          6    2    1    2  502    0 -0.46212046745E+02 -0.52576958594E+02 -0.29504436233E+02  0.18847309431E+03  0.17248682756E+03 0.  0.
         24    2    5    5    0    0 -0.63187255001E+02 -0.74024923265E+02 -0.65068978140E+02  0.14336101694E+03  0.82741107093E+02 0.  0.
          2    1    6    6  501    0 -0.64318137973E+02 -0.65913359116E+02 -0.15829416673E+02  0.93444979611E+02  0.00000000000E+00 0. -1.
         -1    1    6    6    0  501  0.11308829719E+01 -0.81115641485E+01 -0.49239561466E+02  0.49916037329E+02  0.00000000000E+00 0.  1.
          5    1    5    5  502    0  0.16975208256E+02  0.21447964671E+02  0.35564541907E+02  0.45112077373E+02  0.47000000000E+01 0. -1.
         13    1    4    4    0    0 -0.42435239463E+01  0.24801690309E+02 -0.16723480604E+02  0.30212681794E+02  0.00000000000E+00 0. -1.
        -14    1    4    4    0    0  0.80645783722E+02 -0.18567484742E+02 -0.41718354276E+02  0.92676399398E+02  0.00000000000E+00 0.  1.
         -5    1    3    3    0  504 -0.30190213031E+02  0.46342753028E+02  0.35101894246E+02  0.65675967452E+02  0.47000000000E+01 0.  1.
<mgrwt>
<rscale>  2 0.18687313E+03</rscale>
<asrwt>0</asrwt>
<pdfrwt beam="1">  1       21 0.24937982E-01 0.18711500E+03</pdfrwt>
<pdfrwt beam="2">  1       21 0.33067886E-01 0.18711500E+03</pdfrwt>
<totfact> 0.13424833E+05</totfact>
</mgrwt>
</event>
<event>
12    1  0.1410528E-001  0.2343900E+03  0.7546771E-02  0.1123605E+00
         21   -1    0    0  502  503  0.00000000000E+00  0.00000000000E+00  0.73356733600E+03  0.73356733600E+03  0.00000000000E+00 0.  1.
         21   -1    0    0  503  504 -0.00000000000E+00 -0.00000000000E+00 -0.16520404318E+03  0.16520404318E+03  0.00000000000E+00 0. -1.
         -6    2    1    2    0  504 -0.47518958453E+02 -0.15059445838E+03 -0.48112944065E+02  0.23927709684E+03  0.17321065607E+03 0.  0.
        -24    2    3    3    0    0 -0.43989563164E+02 -0.18105604579E+03 -0.45694671773E+02  0.20815952979E+03  0.80783744835E+02 0.  0.
          6    2    1    2  502    0  0.47518958453E+02  0.15059445838E+03  0.61647623689E+03  0.65949428234E+03  0.17306939500E+03 0.  0.
         24    2    5    5    0    0 -0.12334630206E+01  0.11040884434E+03  0.22136588391E+03  0.25933685931E+03  0.77853180398E+02 0.  0.
          2    1    6    6  501    0 -0.34592873915E+02  0.61701501312E+02  0.83965469781E+02  0.10979044724E+03  0.00000000000E+00 0. -1.
         -1    1    6    6    0  501  0.33359410895E+02  0.48707343031E+02  0.13740041413E+03  0.14954641207E+03  0.00000000000E+00 0.  1.
          5    1    5    5  502    0  0.48752421473E+02  0.40185614039E+02  0.39511035298E+03  0.40015742303E+03  0.47000000000E+01 0. -1.
         13    1    4    4    0    0  0.17858411594E+02 -0.67338599915E+02  0.33126339962E+01  0.69745132068E+02  0.00000000000E+00 0. -1.
        -14    1    4    4    0    0 -0.61847974758E+02 -0.11371744587E+03 -0.49007305769E+02  0.13841439772E+03  0.00000000000E+00 0.  1.
         -5    1    3    3    0  504 -0.35293952884E+01  0.30461587404E+02 -0.24182722919E+01  0.31117567050E+02  0.47000000000E+01 0.  1.
<mgrwt>
<rscale>  2 0.23436391E+03</rscale>
<asrwt>0</asrwt>
<pdfrwt beam="1">  1       21 0.11285651E+00 0.23439000E+03</pdfrwt>
<pdfrwt beam="2">  1       21 0.25416007E-01 0.23439000E+03</pdfrwt>
<totfact> 0.87532101E+03</totfact>
</mgrwt>
</event>
<event>
12    1  0.1410528E-001  0.2036116E+03  0.7546771E-02  0.1147210E+00
         21   -1    0    0  502  503  0.00000000000E+00  0.00000000000E+00  0.99590398899E+02  0.99590398899E+02  0.00000000000E+00 0. -1.
         21   -1    0    0  503  504 -0.00000000000E+00 -0.00000000000E+00 -0.56679662141E+03  0.56679662141E+03  0.00000000000E+00 0. -1.
         -6    2    1    2    0  504 -0.10393573437E+03  0.26249827775E+02 -0.40896582822E+03  0.45684869813E+03  0.17310688603E+03 0.  0.
        -24    2    3    3    0    0 -0.11567203453E+02 -0.39867468859E+02 -0.19753297179E+03  0.21678748677E+03  0.79084285471E+02 0.  0.
          6    2    1    2  502    0  0.10393573437E+03 -0.26249827775E+02 -0.58240394282E+02  0.20953832217E+03  0.17036042556E+03 0.  0.
         24    2    5    5    0    0  0.61442638155E+02 -0.15975644245E+02 -0.10094505740E+03  0.14824394783E+03  0.88067840116E+02 0.  0.
          2    1    6    6  501    0  0.51651468618E+02 -0.48488878383E+02 -0.48830317666E+02  0.86043276673E+02  0.00000000000E+00 0. -1.
         -1    1    6    6    0  501  0.97911695361E+01  0.32513234137E+02 -0.52114739737E+02  0.62200671161E+02  0.00000000000E+00 0.  1.
          5    1    5    5  502    0  0.42493096217E+02 -0.10274183530E+02  0.42704663122E+02  0.61294374340E+02  0.47000000000E+01 0. -1.
         11    1    4    4    0    0 -0.19015126092E+02 -0.84481182033E+01 -0.17765511547E+03  0.17886946574E+03  0.00000000000E+00 0. -1.
        -12    1    4    4    0    0  0.74479226393E+01 -0.31419350656E+02 -0.19877856321E+02  0.37918021035E+02  0.00000000000E+00 0.  1.
         -5    1    3    3    0  504 -0.92368530918E+02  0.66117296635E+02 -0.21143285643E+03  0.24006121136E+03  0.47000000000E+01 0.  1.
<mgrwt>
<rscale>  2 0.20302664E+03</rscale>
<asrwt>0</asrwt>
<pdfrwt beam="1">  1       21 0.15321600E-01 0.20361160E+03</pdfrwt>
<pdfrwt beam="2">  1       21 0.87199480E-01 0.20361160E+03</pdfrwt>
<totfact> 0.42405420E+04</totfact>
</mgrwt>
</event>
<event>
12    1  0.1410528E-001  0.1927949E+03  0.7546771E-02  0.1155989E+00
         21   -1    0    0  502  503  0.00000000000E+00  0.00000000000E+00  0.27562038955E+02  0.27562038955E+02  0.00000000000E+00 0.  1.
         21   -1    0    0  503  504 -0.00000000000E+00 -0.00000000000E+00 -0.13583098923E+04  0.13583098923E+04  0.00000000000E+00 0. -1.
         -6    2    1    2    0  504 -0.83953940221E+02  0.29462842430E+01 -0.72644194645E+03  0.75159015160E+03  0.17353071705E+03 0.  0.
        -24    2    3    3    0    0 -0.10218412017E+03 -0.24072106409E+02 -0.69157316870E+03  0.70362918251E+03  0.76154567182E+02 0.  0.
          6    2    1    2  502    0  0.83953940221E+02 -0.29462842430E+01 -0.60430590689E+03  0.63428177964E+03  0.17340934870E+03 0.  0.
         24    2    5    5    0    0  0.71612319384E+02 -0.36189319282E+02 -0.58021865991E+03  0.59115753530E+03  0.79847023156E+02 0.  0.
          2    1    6    6  501    0  0.77182082190E+02 -0.40414736690E+01 -0.46618121855E+03  0.47254453319E+03  0.00000000000E+00 0. -1.
         -1    1    6    6    0  501 -0.55697628062E+01 -0.32147845613E+02 -0.11403744137E+03  0.11861300211E+03  0.00000000000E+00 0.  1.
          5    1    5    5  502    0  0.12341620837E+02  0.33243035039E+02 -0.24087246972E+02  0.43124244343E+02  0.47000000000E+01 0. -1.
         13    1    4    4    0    0 -0.23084025523E+02 -0.42560360415E+02 -0.24939871239E+03  0.25405506146E+03  0.00000000000E+00 0. -1.
        -14    1    4    4    0    0 -0.79100094642E+02  0.18488254006E+02 -0.44217445631E+03  0.44957412106E+03  0.00000000000E+00 0.  1.
         -5    1    3    3    0  504  0.18230179945E+02  0.27018390652E+02 -0.34868777749E+02  0.47960969089E+02  0.47000000000E+01 0.  1.
<mgrwt>
<rscale>  2 0.19276754E+03</rscale>
<asrwt>0</asrwt>
<pdfrwt beam="1">  1       21 0.42403133E-02 0.19279485E+03</pdfrwt>
<pdfrwt beam="2">  1       21 0.20897077E+00 0.19279485E+03</pdfrwt>
<totfact> 0.41842163E+04</totfact>
</mgrwt>
</event>
<event>
12    1  0.1410528E-001  0.1773019E+03  0.7546771E-02  0.1170741E+00
         21   -1    0    0  502  503  0.00000000000E+00  0.00000000000E+00  0.66319339360E+02  0.66319339360E+02  0.00000000000E+00 0.  1.
         21   -1    0    0  503  504 -0.00000000000E+00 -0.00000000000E+00 -0.47841446129E+03  0.47841446129E+03  0.00000000000E+00 0.  1.
         -6    2    1    2    0  504 -0.16068566352E+02  0.22915508658E+02 -0.24117951007E+03  0.29933844474E+03  0.17507892238E+03 0.  0.
        -24    2    3    3    0    0 -0.14500073388E+02 -0.39823641412E+00 -0.25775377290E+03  0.27030764958E+03  0.80117459155E+02 0.  0.
          6    2    1    2  502    0  0.16068566352E+02 -0.22915508658E+02 -0.17091561185E+03  0.24539535590E+03  0.17384882790E+03 0.  0.
         24    2    5    5    0    0  0.46152336550E+02 -0.69908981081E+02 -0.90172517337E+02  0.14713571520E+03  0.80625876730E+02 0.  0.
          4    1    6    6  501    0  0.12247108234E+02 -0.38919401124E+02  0.53430114999E+01  0.41149231047E+02  0.00000000000E+00 0. -1.
         -3    1    6    6    0  501  0.33905228317E+02 -0.30989579958E+02 -0.95515528837E+02  0.10598648415E+03  0.00000000000E+00 0.  1.
          5    1    5    5  502    0 -0.30083770198E+02  0.46993472424E+02 -0.80743094517E+02  0.98259640707E+02  0.47000000000E+01 0. -1.
         11    1    4    4    0    0  0.19417942357E+02  0.32821181321E+01 -0.13962814355E+02  0.24141022545E+02  0.00000000000E+00 0. -1.
        -12    1    4    4    0    0 -0.33918015746E+02 -0.36803545462E+01 -0.24379095854E+03  0.24616662704E+03  0.00000000000E+00 0.  1.
         -5    1    3    3    0  504 -0.15684929637E+01  0.23313745072E+02  0.16574262823E+02  0.29030795159E+02  0.47000000000E+01 0.  1.
<mgrwt>
<rscale>  2 0.17699743E+03</rscale>
<asrwt>0</asrwt>
<pdfrwt beam="1">  1       21 0.10202976E-01 0.17730186E+03</pdfrwt>
<pdfrwt beam="2">  1       21 0.73602222E-01 0.17730186E+03</pdfrwt>
<totfact> 0.13055833E+05</totfact>
</mgrwt>
</event>
<event>
12    1  0.1410528E-001  0.2000046E+03  0.7546771E-02  0.1149818E+00
         21   -1    0    0  502  503  0.00000000000E+00  0.00000000000E+00  0.10797205879E+04  0.10797205879E+04  0.00000000000E+00 0.  1.
         21   -1    0    0  503  504 -0.00000000000E+00 -0.00000000000E+00 -0.39502851634E+02  0.39502851634E+02  0.00000000000E+00 0.  1.
         -6    2    1    2    0  504 -0.52707710717E+02 -0.84478594939E+02  0.66116599163E+03  0.69064196472E+03  0.17300612466E+03 0.  0.
        -24    2    3    3    0    0  0.97159135133E+01  0.11605771067E+01  0.17431176898E+03  0.19236503291E+03  0.80771078798E+02 0.  0.
          6    2    1    2  502    0  0.52707710717E+02  0.84478594939E+02  0.37905174459E+03  0.42858147477E+03  0.17345639126E+03 0.  0.
         24    2    5    5    0    0  0.77012174267E+01  0.98358062747E+02  0.35290330796E+03  0.37450694469E+03  0.77337504456E+02 0.  0.
          4    1    6    6  501    0 -0.12292966901E+02  0.36601861023E+02  0.24912755505E+03  0.25210186821E+03  0.00000000000E+00 0. -1.
         -3    1    6    6    0  501  0.19994184328E+02  0.61756201724E+02  0.10377575291E+03  0.12240507649E+03  0.00000000000E+00 0.  1.
          5    1    5    5  502    0  0.45006493290E+02 -0.13879467808E+02  0.26148436626E+02  0.54074530076E+02  0.47000000000E+01 0. -1.
         11    1    4    4    0    0 -0.17085592046E+02  0.30419849426E+02  0.12086140817E+03  0.12579652093E+03  0.00000000000E+00 0. -1.
        -12    1    4    4    0    0  0.26801505559E+02 -0.29259272319E+02  0.53450360807E+02  0.66568511981E+02  0.00000000000E+00 0.  1.
         -5    1    3    3    0  504 -0.62423624231E+02 -0.85639172045E+02  0.48685422266E+03  0.49827693181E+03  0.47000000000E+01 0.  1.
<mgrwt>
<rscale>  2 0.19990697E+03</rscale>
<asrwt>0</asrwt>
<pdfrwt beam="1">  1       21 0.16611084E+00 0.20000464E+03</pdfrwt>
<pdfrwt beam="2">  1       21 0.60773626E-02 0.20000464E+03</pdfrwt>
<totfact> 0.43660357E+04</totfact>
</mgrwt>
</event>
<event>
12    1  0.1410528E-001  0.1774978E+03  0.7546771E-02  0.1170554E+00
         21   -1    0    0  502  503  0.00000000000E+00  0.00000000000E+00  0.57050985928E+03  0.57050985928E+03  0.00000000000E+00 0.  1.
         21   -1    0    0  503  504 -0.00000000000E+00 -0.00000000000E+00 -0.59013052090E+02  0.59013052090E+02  0.00000000000E+00 0.  1.
         -6    2    1    2    0  504  0.99209325465E+01 -0.33146119906E+02  0.17119200261E+03  0.24570938448E+03  0.17282739858E+03 0.  0.
        -24    2    3    3    0    0  0.61396701582E+02 -0.10700543435E+02  0.15488085897E+03  0.18704336273E+03  0.84339092203E+02 0.  0.
          6    2    1    2  502    0 -0.99209325465E+01  0.33146119906E+02  0.34030480458E+03  0.38381352689E+03  0.17409300167E+03 0.  0.
         24    2    5    5    0    0  0.33585511425E+02  0.52527387856E+02  0.31318363054E+03  0.32880359782E+03  0.78362659792E+02 0.  0.
          2    1    6    6  501    0  0.49121300052E+02  0.23414502284E+02  0.26417234550E+03  0.26971868523E+03  0.00000000000E+00 0. -1.
         -1    1    6    6    0  501 -0.15535788627E+02  0.29112885572E+02  0.49011285042E+02  0.59084912592E+02  0.00000000000E+00 0.  1.
          5    1    5    5  502    0 -0.43506443972E+02 -0.19381267950E+02  0.27121174045E+02  0.55009929068E+02  0.47000000000E+01 0. -1.
         11    1    4    4    0    0  0.60927688407E+01 -0.47135330997E+01  0.12237074115E+03  0.12261295819E+03  0.00000000000E+00 0. -1.
        -12    1    4    4    0    0  0.55303932742E+02 -0.59870103350E+01  0.32510117818E+02  0.64430404546E+02  0.00000000000E+00 0.  1.
         -5    1    3    3    0  504 -0.51475769036E+02 -0.22445576472E+02  0.16311143640E+02  0.58666021749E+02  0.47000000000E+01 0.  1.
<mgrwt>
<rscale>  2 0.17718668E+03</rscale>
<asrwt>0</asrwt>
<pdfrwt beam="1">  1       21 0.87770744E-01 0.17749778E+03</pdfrwt>
<pdfrwt beam="2">  1       21 0.90789315E-02 0.17749778E+03</pdfrwt>
<totfact> 0.10772622E+05</totfact>
</mgrwt>
</event>
<event>
12    1  0.1410528E-001  0.2016315E+03  0.7546771E-02  0.1148611E+00
         21   -1    0    0  502  503  0.00000000000E+00  0.00000000000E+00  0.88729856115E+02  0.88729856115E+02  0.00000000000E+00 0.  1.
         21   -1    0    0  503  504 -0.00000000000E+00 -0.00000000000E+00 -0.88856172241E+03  0.88856172241E+03  0.00000000000E+00 0.  1.
         -6    2    1    2    0  504  0.54910330614E+02  0.88527450577E+02 -0.74160764313E+03  0.76852922562E+03  0.17263551307E+03 0.  0.
        -24    2    3    3    0    0 -0.18231169345E+02 -0.55701411205E+01 -0.25175502275E+03  0.26436485216E+03  0.78388657139E+02 0.  0.
          6    2    1    2  502    0 -0.54910330614E+02 -0.88527450577E+02 -0.58224223172E+02  0.20876235291E+03  0.17128749492E+03 0.  0.
         24    2    5    5    0    0  0.28267745962E-01 -0.10781021333E+03 -0.66591847737E+02  0.14975233961E+03  0.79801291558E+02 0.  0.
          2    1    6    6  501    0  0.10514483452E+02  0.56983228732E+00  0.11624935928E+02  0.15684967530E+02  0.00000000000E+00 0. -1.
         -1    1    6    6    0  501 -0.10486215706E+02 -0.10838004562E+03 -0.78216783665E+02  0.13406737208E+03  0.00000000000E+00 0.  1.
          5    1    5    5  502    0 -0.54938598360E+02  0.19282762756E+02  0.83676245652E+01  0.59010013304E+02  0.47000000000E+01 0. -1.
         13    1    4    4    0    0 -0.64091952414E+00 -0.40755310644E+02 -0.11232024005E+03  0.11948741544E+03  0.00000000000E+00 0. -1.
        -14    1    4    4    0    0 -0.17590249821E+02  0.35185169523E+02 -0.13943478270E+03  0.14487743671E+03  0.00000000000E+00 0.  1.
         -5    1    3    3    0  504  0.73141499959E+02  0.94097591698E+02 -0.48985262038E+03  0.50416437346E+03  0.47000000000E+01 0.  1.
<mgrwt>
<rscale>  2 0.20134267E+03</rscale>
<asrwt>0</asrwt>
<pdfrwt beam="1">  1       21 0.13650747E-01 0.20163153E+03</pdfrwt>
<pdfrwt beam="2">  1       21 0.13670180E+00 0.20163153E+03</pdfrwt>
<totfact> 0.17602967E+04</totfact>
</mgrwt>
</event>
<event>
12    1  0.1410528E-001  0.2512135E+03  0.7546771E-02  0.1112553E+00
         21   -1    0    0  502  503  0.00000000000E+00  0.00000000000E+00  0.39555467272E+02  0.39555467272E+02  0.00000000000E+00 0.  1.
         21   -1    0    0  503  504 -0.00000000000E+00 -0.00000000000E+00 -0.16392887789E+04  0.16392887789E+04  0.00000000000E+00 0. -1.
         -6    2    1    2    0  504 -0.15089714010E+03 -0.10024154440E+03 -0.66191549607E+03  0.70798329259E+03  0.17403995097E+03 0.  0.
        -24    2    3    3    0    0 -0.77224205484E+02 -0.57860887524E+02 -0.56586869720E+03  0.57964429249E+03  0.80427999676E+02 0.  0.
          6    2    1    2  502    0  0.15089714010E+03  0.10024154440E+03 -0.93781781552E+03  0.97086095354E+03  0.17392648418E+03 0.  0.
         24    2    5    5    0    0  0.94877082749E+02  0.48990282143E+02 -0.30042252354E+03  0.32894212149E+03  0.80916735385E+02 0.  0.
          2    1    6    6  501    0  0.10657062499E+03  0.48659481284E+02 -0.29170949676E+03  0.31435564848E+03  0.00000000000E+00 0. -1.
         -1    1    6    6    0  501 -0.11693542240E+02  0.33080085962E+00 -0.87130267810E+01  0.14586473015E+02  0.00000000000E+00 0.  1.
          5    1    5    5  502    0  0.56020057351E+02  0.51251262261E+02 -0.63739529198E+03  0.64191883205E+03  0.47000000000E+01 0. -1.
         13    1    4    4    0    0 -0.62736283654E+02  0.29173175864E+01 -0.26254680845E+03  0.26995403063E+03  0.00000000000E+00 0. -1.
        -14    1    4    4    0    0 -0.14487921830E+02 -0.60778205110E+02 -0.30332188875E+03  0.30969026186E+03  0.00000000000E+00 0.  1.
         -5    1    3    3    0  504 -0.73672934617E+02 -0.42380656880E+02 -0.96046798877E+02  0.12833900010E+03  0.47000000000E+01 0.  1.
<mgrwt>
<rscale>  2 0.25119384E+03</rscale>
<asrwt>0</asrwt>
<pdfrwt beam="1">  1       21 0.60854577E-02 0.25121349E+03</pdfrwt>
<pdfrwt beam="2">  1       21 0.25219822E+00 0.25121349E+03</pdfrwt>
<totfact> 0.11828722E+04</totfact>
</mgrwt>
</event>
<event>
12    1  0.1410528E-001  0.1900506E+03  0.7546771E-02  0.1158711E+00
         21   -1    0    0  502  503  0.00000000000E+00  0.00000000000E+00  0.30947452700E+03  0.30947452700E+03  0.00000000000E+00 0.  1.
         21   -1    0    0  503  504 -0.00000000000E+00 -0.00000000000E+00 -0.12152631535E+03  0.12152631535E+03  0.00000000000E+00 0.  1.
         -6    2    1    2    0  504  0.74282010524E+02  0.12244382449E+02  0.47959558291E+02  0.19600857605E+03  0.17450358353E+03 0.  0.
        -24    2    3    3    0    0  0.11586051027E+02  0.47637790587E+02 -0.28905891983E+02  0.90586262844E+02  0.70474993823E+02 0.  0.
          6    2    1    2  502    0 -0.74282010524E+02 -0.12244382449E+02  0.13998865337E+03  0.23499226630E+03  0.17308032863E+03 0.  0.
         24    2    5    5    0    0 -0.94868100954E+02 -0.39348935907E+02  0.53243727551E+02  0.14169051877E+03  0.81810838213E+02 0.  0.
          4    1    6    6  501    0 -0.41193884291E+02 -0.44562881383E+02  0.62341707265E+02  0.87001580243E+02  0.00000000000E+00 0. -1.
         -3    1    6    6    0  501 -0.53674216664E+02  0.52139454765E+01 -0.90979797142E+01  0.54688938523E+02  0.00000000000E+00 0.  1.
          5    1    5    5  502    0  0.20586090430E+02  0.27104553457E+02  0.86744925817E+02  0.93301747530E+02  0.47000000000E+01 0. -1.
         13    1    4    4    0    0  0.16971780703E+02  0.24527760621E+02  0.20216478216E+02  0.36032740290E+02  0.00000000000E+00 0. -1.
        -14    1    4    4    0    0 -0.53857296757E+01  0.23110029966E+02 -0.49122370199E+02  0.54553522555E+02  0.00000000000E+00 0.  1.
         -5    1    3    3    0  504  0.62695959497E+02 -0.35393408137E+02  0.76865450273E+02  0.10542231321E+03  0.47000000000E+01 0.  1.
<mgrwt>
<rscale>  2 0.18972329E+03</rscale>
<asrwt>0</asrwt>
<pdfrwt beam="1">  1       21 0.47611465E-01 0.19005063E+03</pdfrwt>
<pdfrwt beam="2">  1       21 0.18696356E-01 0.19005063E+03</pdfrwt>
<totfact> 0.11050083E+05</totfact>
</mgrwt>
</event>
<event>
12    1  0.1410528E-001  0.2165380E+03  0.7546771E-02  0.1136729E+00
         21   -1    0    0  502  503  0.00000000000E+00  0.00000000000E+00  0.14414659280E+03  0.14414659280E+03  0.00000000000E+00 0.  1.
         21   -1    0    0  503  504 -0.00000000000E+00 -0.00000000000E+00 -0.53043654729E+03  0.53043654729E+03  0.00000000000E+00 0.  1.
         -6    2    1    2    0  504  0.61850701034E+02 -0.11529714211E+03 -0.40420397516E+03  0.45855157872E+03  0.17253914517E+03 0.  0.
        -24    2    3    3    0    0 -0.14923066588E+01 -0.22054911802E+02 -0.27203711764E+03  0.28477983659E+03  0.81281706681E+02 0.  0.
          6    2    1    2  502    0 -0.61850701034E+02  0.11529714211E+03  0.17914020673E+02  0.21603156137E+03  0.17096719912E+03 0.  0.
         24    2    5    5    0    0 -0.37861086469E+02  0.13239678249E+03 -0.26366935361E+02  0.16263874935E+03  0.82424375208E+02 0.  0.
          4    1    6    6  501    0  0.25448924158E+02  0.24460959142E+02 -0.75794375575E+01  0.36103104252E+02  0.00000000000E+00 0. -1.
         -3    1    6    6    0  501 -0.63310010627E+02  0.10793582334E+03 -0.18787497804E+02  0.12653564510E+03  0.00000000000E+00 0.  1.
          5    1    5    5  502    0 -0.23989614565E+02 -0.17099640379E+02  0.44280956034E+02  0.53392812020E+02  0.47000000000E+01 0. -1.
         13    1    4    4    0    0  0.16743344601E+02  0.24229334116E+02 -0.15226877508E+03  0.15509087686E+03  0.00000000000E+00 0. -1.
        -14    1    4    4    0    0 -0.18235651260E+02 -0.46284245917E+02 -0.11976834256E+03  0.12968895973E+03  0.00000000000E+00 0.  1.
         -5    1    3    3    0  504  0.63343007693E+02 -0.93242230306E+02 -0.13216685752E+03  0.17377174213E+03  0.47000000000E+01 0.  1.
<mgrwt>
<rscale>  2 0.21622469E+03</rscale>
<asrwt>0</asrwt>
<pdfrwt beam="1">  1       21 0.22176399E-01 0.21653798E+03</pdfrwt>
<pdfrwt beam="2">  1       21 0.81605624E-01 0.21653798E+03</pdfrwt>
<totfact> 0.24662448E+04</totfact>
</mgrwt>
</event>
<event>
12    1  0.1410528E-001  0.1970642E+03  0.7546771E-02  0.1152650E+00
         21   -1    0    0  502  503  0.00000000000E+00  0.00000000000E+00  0.24338939046E+03  0.24338939046E+03  0.00000000000E+00 0.  1.
         21   -1    0    0  503  504 -0.00000000000E+00 -0.00000000000E+00 -0.16389039101E+03  0.16389039101E+03  0.00000000000E+00 0. -1.
         -6    2    1    2    0  504  0.57414404416E+02  0.74372486850E+02  0.14078562782E+01  0.19706927438E+03  0.17322423679E+03 0.  0.
        -24    2    3    3    0    0  0.47804477736E+02 -0.80865937122E+01 -0.43334151416E+02  0.10264582438E+03  0.79420749770E+02 0.  0.
          6    2    1    2  502    0 -0.57414404416E+02 -0.74372486850E+02  0.78091143171E+02  0.21021050709E+03  0.17106300014E+03 0.  0.
         24    2    5    5    0    0  0.31355645405E+02 -0.16786799709E+02  0.34097129807E+02  0.95520506132E+02  0.81832632167E+02 0.  0.
          2    1    6    6  501    0  0.17704589998E+02 -0.39561228692E+02 -0.95963219655E+01  0.44391809131E+02  0.00000000000E+00 0. -1.
         -1    1    6    6    0  501  0.13651055407E+02  0.22774428983E+02  0.43693451772E+02  0.51128697001E+02  0.00000000000E+00 0.  1.
          5    1    5    5  502    0 -0.88770049821E+02 -0.57585687141E+02  0.43994013364E+02  0.11469000096E+03  0.47000000000E+01 0. -1.
         13    1    4    4    0    0  0.59960303166E+02  0.14509075671E+02 -0.13234549447E+02  0.63094409671E+02  0.00000000000E+00 0. -1.
        -14    1    4    4    0    0 -0.12155825430E+02 -0.22595669383E+02 -0.30099601969E+02  0.39551414708E+02  0.00000000000E+00 0.  1.
         -5    1    3    3    0  504  0.96099266796E+01  0.82459080562E+02  0.44742007694E+02  0.94423450003E+02  0.47000000000E+01 0.  1.
<mgrwt>
<rscale>  2 0.19658826E+03</rscale>
<asrwt>0</asrwt>
<pdfrwt beam="1">  1       21 0.37444522E-01 0.19706425E+03</pdfrwt>
<pdfrwt beam="2">  1       21 0.25213906E-01 0.19706425E+03</pdfrwt>
<totfact> 0.10232837E+05</totfact>
</mgrwt>
</event>
<event>
12    1  0.1410528E-001  0.2389228E+03  0.7546771E-02  0.1120651E+00
         21   -1    0    0  502  503  0.00000000000E+00  0.00000000000E+00  0.34378468292E+03  0.34378468292E+03  0.00000000000E+00 0.  1.
         21   -1    0    0  503  504 -0.00000000000E+00 -0.00000000000E+00 -0.17895910595E+03  0.17895910595E+03  0.00000000000E+00 0.  1.
         -6    2    1    2    0  504  0.11341473393E+03 -0.11898070222E+03  0.10536422515E+02  0.23833344538E+03  0.17225709161E+03 0.  0.
        -24    2    3    3    0    0  0.92853071321E+02 -0.14190376492E+03 -0.26717549565E+02  0.18977217266E+03  0.80878172006E+02 0.  0.
          6    2    1    2  502    0 -0.11341473393E+03  0.11898070222E+03  0.15428915445E+03  0.28441034349E+03  0.17339201517E+03 0.  0.
         24    2    5    5    0    0 -0.13014736217E+03  0.84929282381E+02  0.16904846735E+03  0.24342977055E+03  0.80804393401E+02 0.  0.
          2    1    6    6  501    0 -0.45740364967E+02 -0.11064268469E+02  0.39570562227E+02  0.61485188615E+02  0.00000000000E+00 0. -1.
         -1    1    6    6    0  501 -0.84406997199E+02  0.95993550851E+02  0.12947790512E+03  0.18194458193E+03  0.00000000000E+00 0.  1.
          5    1    5    5  502    0  0.16732628236E+02  0.34051419844E+02 -0.14759312895E+02  0.40980572936E+02  0.47000000000E+01 0. -1.
         13    1    4    4    0    0  0.79142314090E+01 -0.20026979365E+02 -0.34881521802E+02  0.40993115575E+02  0.00000000000E+00 0. -1.
        -14    1    4    4    0    0  0.84938839912E+02 -0.12187678556E+03  0.81639722369E+01  0.14877905708E+03  0.00000000000E+00 0.  1.
         -5    1    3    3    0  504  0.20561662609E+02  0.22923062696E+02  0.37253972080E+02  0.48561272722E+02  0.47000000000E+01 0.  1.
<mgrwt>
<rscale>  2 0.23871694E+03</rscale>
<asrwt>0</asrwt>
<pdfrwt beam="1">  1       21 0.52889951E-01 0.23892279E+03</pdfrwt>
<pdfrwt beam="2">  1       21 0.27532170E-01 0.23892279E+03</pdfrwt>
<totfact> 0.41707416E+04</totfact>
</mgrwt>
</event>
<event>
12    1  0.1410528E-001  0.2407473E+03  0.7546771E-02  0.1119432E+00
         21   -1    0    0  502  503  0.00000000000E+00  0.00000000000E+00  0.89899796684E+03  0.89899796684E+03  0.00000000000E+00 0. -1.
         21   -1    0    0  503  504 -0.00000000000E+00 -0.00000000000E+00 -0.11422429172E+03  0.11422429172E+03  0.00000000000E+00 0.  1.
         -6    2    1    2    0  504 -0.12909637242E+03  0.10226656573E+03  0.57674010508E+02  0.24755921921E+03  0.17559883738E+03 0.  0.
        -24    2    3    3    0    0 -0.54794671806E+02 -0.14002930301E+02  0.46547503385E+02  0.10904847023E+03  0.80785894026E+02 0.  0.
          6    2    1    2  502    0  0.12909637242E+03 -0.10226656573E+03  0.72709966461E+03  0.76566303935E+03  0.17447533842E+03 0.  0.
         24    2    5    5    0    0  0.36362975112E+02 -0.29716308137E+02  0.14585943049E+03  0.17259868988E+03  0.79435567332E+02 0.  0.
          2    1    6    6  501    0  0.56224186499E+02 -0.46777951204E+00  0.99619256765E+02  0.11439132084E+03  0.00000000000E+00 0. -1.
         -1    1    6    6    0  501 -0.19861211387E+02 -0.29248528625E+02  0.46240173723E+02  0.58207369038E+02  0.00000000000E+00 0.  1.
          5    1    5    5  502    0  0.92733397306E+02 -0.72550257592E+02  0.58124023412E+03  0.59306434947E+03  0.47000000000E+01 0. -1.
         11    1    4    4    0    0 -0.59046627824E+02  0.10459371653E+02  0.56413580436E+02  0.82331007345E+02  0.00000000000E+00 0. -1.
        -12    1    4    4    0    0  0.42519560182E+01 -0.24462301955E+02 -0.98660770503E+01  0.26717462890E+02  0.00000000000E+00 0.  1.
         -5    1    3    3    0  504 -0.74301700611E+02  0.11626949603E+03  0.11126507123E+02  0.13851074898E+03  0.47000000000E+01 0.  1.
<mgrwt>
<rscale>  2 0.24054251E+03</rscale>
<asrwt>0</asrwt>
<pdfrwt beam="1">  1       21 0.13830738E+00 0.24074733E+03</pdfrwt>
<pdfrwt beam="2">  1       21 0.17572969E-01 0.24074733E+03</pdfrwt>
<totfact> 0.10488373E+04</totfact>
</mgrwt>
</event>
<event>
12    1  0.1410528E-001  0.2124848E+03  0.7546771E-02  0.1139725E+00
         21   -1    0    0  502  503  0.00000000000E+00  0.00000000000E+00  0.34839944526E+03  0.34839944526E+03  0.00000000000E+00 0. -1.
         21   -1    0    0  503  504 -0.00000000000E+00 -0.00000000000E+00 -0.13699238752E+03  0.13699238752E+03  0.00000000000E+00 0.  1.
         -6    2    1    2    0  504 -0.11430323446E+03 -0.44959513379E+02  0.16355546192E+03  0.26814206316E+03  0.17338739765E+03 0.  0.
        -24    2    3    3    0    0 -0.75428200487E+02  0.70852263337E+01  0.16914716708E+03  0.20277173071E+03  0.82255679335E+02 0.  0.
          6    2    1    2  502    0  0.11430323446E+03  0.44959513379E+02  0.47851595814E+02  0.21724976962E+03  0.17268786850E+03 0.  0.
         24    2    5    5    0    0  0.87307465734E+02  0.31111717374E+02 -0.36592580443E+02  0.12739743583E+03  0.79376049170E+02 0.  0.
          4    1    6    6  501    0  0.70787514671E+02  0.14043436511E+02  0.12142721682E+02  0.73181527944E+02  0.00000000000E+00 0. -1.
         -3    1    6    6    0  501  0.16519951063E+02  0.17068280863E+02 -0.48735302125E+02  0.54215907887E+02  0.00000000000E+00 0.  1.
          5    1    5    5  502    0  0.26995768723E+02  0.13847796005E+02  0.84444176257E+02  0.89852333787E+02  0.47000000000E+01 0. -1.
         11    1    4    4    0    0  0.13646744482E+02  0.16910460913E+02  0.25973703622E+02  0.33864887466E+02  0.00000000000E+00 0. -1.
        -12    1    4    4    0    0 -0.89074944969E+02 -0.98252345797E+01  0.14317346346E+03  0.16890684325E+03  0.00000000000E+00 0.  1.
         -5    1    3    3    0  504 -0.38875033970E+02 -0.52044739712E+02 -0.55917051644E+01  0.65370332449E+02  0.47000000000E+01 0.  1.
<mgrwt>
<rscale>  2 0.21234202E+03</rscale>
<asrwt>0</asrwt>
<pdfrwt beam="1">  1       21 0.53599914E-01 0.21248477E+03</pdfrwt>
<pdfrwt beam="2">  1       21 0.21075752E-01 0.21248477E+03</pdfrwt>
<totfact> 0.68317790E+04</totfact>
</mgrwt>
</event>
<event>
12    1  0.1410528E-001  0.2838718E+03  0.7546771E-02  0.1093635E+00
         21   -1    0    0  502  503  0.00000000000E+00  0.00000000000E+00  0.81871421229E+03  0.81871421229E+03  0.00000000000E+00 0.  1.
         21   -1    0    0  503  504 -0.00000000000E+00 -0.00000000000E+00 -0.10662750322E+03  0.10662750322E+03  0.00000000000E+00 0.  1.
         -6    2    1    2    0  504  0.14465358473E+03  0.17318551646E+03  0.22671154268E+03  0.36304975614E+03  0.17172396210E+03 0.  0.
        -24    2    3    3    0    0  0.15200824956E+01  0.63247718512E+02  0.10151996533E+03  0.14334873220E+03  0.78993487798E+02 0.  0.
          6    2    1    2  502    0 -0.14465358473E+03 -0.17318551646E+03  0.48537516639E+03  0.56229195937E+03  0.17223621202E+03 0.  0.
         24    2    5    5    0    0 -0.35259947741E+02 -0.14518381930E+03  0.30833194214E+03  0.35225040131E+03  0.81793357783E+02 0.  0.
          4    1    6    6  501    0  0.21754313262E+02 -0.45280615771E+02  0.57836537669E+02  0.76607110634E+02  0.00000000000E+00 0. -1.
         -3    1    6    6    0  501 -0.57014261003E+02 -0.99903203528E+02  0.25049540447E+03  0.27564329068E+03  0.00000000000E+00 0.  1.
          5    1    5    5  502    0 -0.10939363699E+03 -0.28001697163E+02  0.17704322425E+03  0.21004155806E+03  0.47000000000E+01 0. -1.
         13    1    4    4    0    0  0.56008147237E+01  0.79239343201E+02  0.62814450437E+02  0.10127140673E+03  0.00000000000E+00 0. -1.
        -14    1    4    4    0    0 -0.40807322281E+01 -0.15991624689E+02  0.38705514896E+02  0.42077325474E+02  0.00000000000E+00 0.  1.
         -5    1    3    3    0  504  0.14313350224E+03  0.10993779795E+03  0.12519157735E+03  0.21970102394E+03  0.47000000000E+01 0.  1.
<mgrwt>
<rscale>  2 0.28379413E+03</rscale>
<asrwt>0</asrwt>
<pdfrwt beam="1">  1       21 0.12595603E+00 0.28387179E+03</pdfrwt>
<pdfrwt beam="2">  1       21 0.16404232E-01 0.28387179E+03</pdfrwt>
<totfact> 0.14792250E+04</totfact>
</mgrwt>
</event>
<event>
12    1  0.1410528E-001  0.3641737E+03  0.7546771E-02  0.1056956E+00
         21   -1    0    0  502  503  0.00000000000E+00  0.00000000000E+00  0.59173464562E+03  0.59173464562E+03  0.00000000000E+00 0. -1.
         21   -1    0    0  503  504 -0.00000000000E+00 -0.00000000000E+00 -0.28680219077E+03  0.28680219077E+03  0.00000000000E+00 0.  1.
         -6    2    1    2    0  504  0.26952474123E+03 -0.17405293390E+03  0.35792074766E+03  0.51052837838E+03  0.17202893241E+03 0.  0.
        -24    2    3    3    0    0  0.26247522428E+03 -0.19100664702E+03  0.35948831803E+03  0.49151071936E+03  0.83511399702E+02 0.  0.
          6    2    1    2  502    0 -0.26952474123E+03  0.17405293390E+03 -0.52988292801E+02  0.36800845801E+03  0.17229177595E+03 0.  0.
         24    2    5    5    0    0 -0.10717319764E+03  0.14013398323E+03 -0.57380190627E+02  0.20202683949E+03  0.79992062410E+02 0.  0.
          4    1    6    6  501    0  0.19215293828E+01  0.28681071566E+02  0.12228277018E+02  0.31238228186E+02  0.00000000000E+00 0. -1.
         -3    1    6    6    0  501 -0.10909472702E+03  0.11145291166E+03 -0.69608467645E+02  0.17078861130E+03  0.00000000000E+00 0.  1.
          5    1    5    5  502    0 -0.16235154360E+03  0.33918950669E+02  0.43918978262E+01  0.16598161853E+03  0.47000000000E+01 0. -1.
         13    1    4    4    0    0  0.78036980185E+02 -0.93319106581E+02  0.93591008855E+02  0.15348453625E+03  0.00000000000E+00 0. -1.
        -14    1    4    4    0    0  0.18443824409E+03 -0.97687540435E+02  0.26589730917E+03  0.33802618310E+03  0.00000000000E+00 0.  1.
         -5    1    3    3    0  504  0.70495169548E+01  0.16953713117E+02 -0.15675703653E+01  0.19017659020E+02  0.47000000000E+01 0.  1.
<mgrwt>
<rscale>  2 0.36414260E+03</rscale>
<asrwt>0</asrwt>
<pdfrwt beam="1">  1       21 0.91036099E-01 0.36417368E+03</pdfrwt>
<pdfrwt beam="2">  1       21 0.44123414E-01 0.36417368E+03</pdfrwt>
<totfact> 0.45713177E+03</totfact>
</mgrwt>
</event>
<event>
12    1  0.1410528E-001  0.1812041E+03  0.7546771E-02  0.1166817E+00
         21   -1    0    0  502  503  0.00000000000E+00  0.00000000000E+00  0.20838253774E+03  0.20838253774E+03  0.00000000000E+00 0.  1.
         21   -1    0    0  503  504 -0.00000000000E+00 -0.00000000000E+00 -0.16699559338E+03  0.16699559338E+03  0.00000000000E+00 0.  1.
         -6    2    1    2    0  504 -0.16142907956E+02 -0.50565408625E+02 -0.25403288682E+02  0.18225673168E+03  0.17249560905E+03 0.  0.
        -24    2    3    3    0    0 -0.34547402628E+02  0.64406520712E+00 -0.69151379648E+02  0.11227729829E+03  0.81426903147E+02 0.  0.
          6    2    1    2  502    0  0.16142907956E+02  0.50565408625E+02  0.66790233048E+02  0.19312139944E+03  0.17325555017E+03 0.  0.
         24    2    5    5    0    0  0.17123001540E+02  0.44002834284E+02  0.11284691148E+03  0.14635243972E+03  0.80344038832E+02 0.  0.
          2    1    6    6  501    0  0.28945553724E+02 -0.15081333131E+02  0.45332020942E+02  0.55859500643E+02  0.00000000000E+00 0. -1.
         -1    1    6    6    0  501 -0.11822552184E+02  0.59084167414E+02  0.67514890534E+02  0.90492939078E+02  0.00000000000E+00 0.  1.
          5    1    5    5  502    0 -0.98009358392E+00  0.65625743410E+01 -0.46056678427E+02  0.46768959719E+02  0.47000000000E+01 0. -1.
         13    1    4    4    0    0 -0.17305822785E+02  0.36473291162E+02 -0.11019233702E+02  0.41847532565E+02  0.00000000000E+00 0. -1.
        -14    1    4    4    0    0 -0.17241579843E+02 -0.35829225955E+02 -0.58132145947E+02  0.70429765727E+02  0.00000000000E+00 0.  1.
         -5    1    3    3    0  504  0.18404494672E+02 -0.51209473832E+02  0.43748090966E+02  0.69979433389E+02  0.47000000000E+01 0.  1.
<mgrwt>
<rscale>  2 0.18102225E+03</rscale>
<asrwt>0</asrwt>
<pdfrwt beam="1">  1       21 0.32058852E-01 0.18120414E+03</pdfrwt>
<pdfrwt beam="2">  1       21 0.25691630E-01 0.18120414E+03</pdfrwt>
<totfact> 0.13506003E+05</totfact>
</mgrwt>
</event>
<event>
12    1  0.1410528E-001  0.1961036E+03  0.7546771E-02  0.1153304E+00
         21   -1    0    0  502  503  0.00000000000E+00  0.00000000000E+00  0.75664711767E+02  0.75664711767E+02  0.00000000000E+00 0. -1.
         21   -1    0    0  503  504 -0.00000000000E+00 -0.00000000000E+00 -0.21016845649E+04  0.21016845649E+04  0.00000000000E+00 0. -1.
         -6    2    1    2    0  504 -0.82959184887E+02  0.34737773381E+02 -0.19624626522E+04  0.19722363683E+04  0.17426328340E+03 0.  0.
        -24    2    3    3    0    0 -0.84427930902E+02  0.83258831645E+02 -0.12628829403E+04  0.12709587388E+04  0.80016787836E+02 0.  0.
          6    2    1    2  502    0  0.82959184887E+02 -0.34737773381E+02 -0.63557200957E+02  0.20511290838E+03  0.17304001888E+03 0.  0.
         24    2    5    5    0    0  0.51218550797E+02  0.11388178035E+02  0.23120826216E+02  0.10181604666E+03  0.84136224116E+02 0.  0.
          2    1    6    6  501    0  0.72401316278E+02 -0.17813353467E+01  0.25449857531E+02  0.76764698936E+02  0.00000000000E+00 0. -1.
         -1    1    6    6    0  501 -0.21182765481E+02  0.13169513381E+02 -0.23290313147E+01  0.25051347728E+02  0.00000000000E+00 0.  1.
          5    1    5    5  502    0  0.31740634090E+02 -0.46125951416E+02 -0.86678027173E+02  0.10329686172E+03  0.47000000000E+01 0. -1.
         13    1    4    4    0    0 -0.10337668437E+02  0.58612642212E+02 -0.72486745542E+03  0.72730676963E+03  0.00000000000E+00 0. -1.
        -14    1    4    4    0    0 -0.74090262465E+02  0.24646189432E+02 -0.53801548488E+03  0.54365196920E+03  0.00000000000E+00 0.  1.
         -5    1    3    3    0  504  0.14687460145E+01 -0.48521058263E+02 -0.69957971187E+03  0.70127762945E+03  0.47000000000E+01 0.  1.
<mgrwt>
<rscale>  2 0.19583150E+03</rscale>
<asrwt>0</asrwt>
<pdfrwt beam="1">  1       21 0.11640724E-01 0.19610362E+03</pdfrwt>
<pdfrwt beam="2">  1       21 0.32333611E+00 0.19610362E+03</pdfrwt>
<totfact> 0.15438576E+03</totfact>
</mgrwt>
</event>
<event>
12    1  0.1410528E-001  0.1932346E+03  0.7546771E-02  0.1155921E+00
         21   -1    0    0  502  503  0.00000000000E+00  0.00000000000E+00  0.58278087587E+03  0.58278087587E+03  0.00000000000E+00 0.  1.
         21   -1    0    0  503  504 -0.00000000000E+00 -0.00000000000E+00 -0.11069869026E+03  0.11069869026E+03  0.00000000000E+00 0.  1.
         -6    2    1    2    0  504  0.78341133135E+02  0.29623475840E+02  0.10313468361E+02  0.19350964261E+03  0.17413997442E+03 0.  0.
        -24    2    3    3    0    0  0.61474242346E+02  0.27002916823E+02  0.74802114737E+02  0.12663487273E+03  0.77024636539E+02 0.  0.
          6    2    1    2  502    0 -0.78341133135E+02 -0.29623475840E+02  0.46176871725E+03  0.49996992352E+03  0.17240850541E+03 0.  0.
         24    2    5    5    0    0  0.85706749183E+01  0.24756092934E+02  0.26266840227E+03  0.27597477781E+03  0.80505079525E+02 0.  0.
          4    1    6    6  501    0  0.40282925621E+02  0.32067236902E+02  0.14415034461E+03  0.15306973453E+03  0.00000000000E+00 0. -1.
         -3    1    6    6    0  501 -0.31712250702E+02 -0.73111439683E+01  0.11851805766E+03  0.12290504327E+03  0.00000000000E+00 0.  1.
          5    1    5    5  502    0 -0.86911808054E+02 -0.54379568774E+02  0.19910031498E+03  0.22399514572E+03  0.47000000000E+01 0. -1.
         13    1    4    4    0    0  0.42172138329E+01 -0.22191815871E+02  0.36175032730E+01  0.22876798598E+02  0.00000000000E+00 0. -1.
        -14    1    4    4    0    0  0.57257028513E+02  0.49194732694E+02  0.71184611464E+02  0.10375807413E+03  0.00000000000E+00 0.  1.
         -5    1    3    3    0  504  0.16866890790E+02  0.26205590165E+01 -0.64488646376E+02  0.66874769875E+02  0.47000000000E+01 0.  1.
<mgrwt>
<rscale>  2 0.19284370E+03</rscale>
<asrwt>0</asrwt>
<pdfrwt beam="1">  1       21 0.89658595E-01 0.19323461E+03</pdfrwt>
<pdfrwt beam="2">  1       21 0.17030568E-01 0.19323461E+03</pdfrwt>
<totfact> 0.32947088E+04</totfact>
</mgrwt>
</event>
<event>
12    1  0.1410528E-001  0.1920496E+03  0.7546771E-02  0.1156835E+00
         21   -1    0    0  502  503  0.00000000000E+00  0.00000000000E+00  0.13174471495E+03  0.13174471495E+03  0.00000000000E+00 0.  1.
         21   -1    0    0  503  504 -0.00000000000E+00 -0.00000000000E+00 -0.50829654489E+03  0.50829654489E+03  0.00000000000E+00 0.  1.
         -6    2    1    2    0  504  0.67786950684E+02  0.46896092228E+02 -0.40315505782E+03  0.44615782883E+03  0.17241952740E+03 0.  0.
        -24    2    3    3    0    0  0.46891285045E+02  0.15185113053E+02 -0.86398307009E+02  0.12709804724E+03  0.79119314242E+02 0.  0.
          6    2    1    2  502    0 -0.67786950684E+02 -0.46896092228E+02  0.26603227884E+02  0.19388343101E+03  0.17346105885E+03 0.  0.
         24    2    5    5    0    0 -0.11303156905E+03 -0.48433400348E+02  0.19419117328E+02  0.14780588494E+03  0.79671498260E+02 0.  0.
          2    1    6    6  501    0 -0.82936173974E+02 -0.28429175962E+01  0.36374792950E+02  0.90606935144E+02  0.00000000000E+00 0. -1.
         -1    1    6    6    0  501 -0.30095395074E+02 -0.45590482752E+02 -0.16955675623E+02  0.57198949798E+02  0.00000000000E+00 0.  1.
          5    1    5    5  502    0  0.45244618364E+02  0.15373081202E+01  0.71841105564E+01  0.46077546068E+02  0.47000000000E+01 0. -1.
         13    1    4    4    0    0  0.98424057068E+01  0.31593920657E+02 -0.16165843390E+01  0.33130984252E+02  0.00000000000E+00 0. -1.
        -14    1    4    4    0    0  0.37048879338E+02 -0.16408807604E+02 -0.84781722670E+02  0.93967062986E+02  0.00000000000E+00 0.  1.
         -5    1    3    3    0  504  0.20895665639E+02  0.31710979174E+02 -0.31675675081E+03  0.31905978159E+03  0.47000000000E+01 0.  1.
<mgrwt>
<rscale>  2 0.19181413E+03</rscale>
<asrwt>0</asrwt>
<pdfrwt beam="1">  1       21 0.20268417E-01 0.19204961E+03</pdfrwt>
<pdfrwt beam="2">  1       21 0.78199470E-01 0.19204961E+03</pdfrwt>
<totfact> 0.32609563E+04</totfact>
</mgrwt>
</event>
<event>
12    1  0.1410528E-001  0.2699590E+03  0.7546771E-02  0.1101343E+00
         21   -1    0    0  502  503  0.00000000000E+00  0.00000000000E+00  0.17570840163E+03  0.17570840163E+03  0.00000000000E+00 0.  1.
         21   -1    0    0  503  504 -0.00000000000E+00 -0.00000000000E+00 -0.43896123908E+03  0.43896123908E+03  0.00000000000E+00 0.  1.
         -6    2    1    2    0  504  0.69793672745E+02  0.19510275951E+03 -0.20435054611E+03  0.33835945885E+03  0.17260282202E+03 0.  0.
        -24    2    3    3    0    0  0.25483201264E+02  0.14658891429E+03 -0.58982675629E+02  0.17876334727E+03  0.79622075861E+02 0.  0.
          6    2    1    2  502    0 -0.69793672745E+02 -0.19510275951E+03 -0.58902291340E+02  0.27631018186E+03  0.17303639257E+03 0.  0.
         24    2    5    5    0    0 -0.67171017648E+02 -0.18552719797E+03  0.30265344820E+01  0.21341471966E+03  0.81267434174E+02 0.  0.
          4    1    6    6  501    0 -0.67596122783E+01 -0.64498155646E+02  0.36016444491E+02  0.74181458018E+02  0.00000000000E+00 0. -1.
         -3    1    6    6    0  501 -0.60411405370E+02 -0.12102904232E+03 -0.32989910009E+02  0.13923326164E+03  0.00000000000E+00 0.  1.
          5    1    5    5  502    0 -0.26226550970E+01 -0.95755615418E+01 -0.61928825822E+02  0.62895462208E+02  0.47000000000E+01 0. -1.
         13    1    4    4    0    0 -0.32718874064E+01  0.29826228924E+02  0.18930210064E+02  0.35477627205E+02  0.00000000000E+00 0. -1.
        -14    1    4    4    0    0  0.28755088671E+02  0.11676268536E+03 -0.77912885693E+02  0.14328572006E+03  0.00000000000E+00 0.  1.
         -5    1    3    3    0  504  0.44310471481E+02  0.48513845225E+02 -0.14536787049E+03  0.15959611158E+03  0.47000000000E+01 0.  1.
<mgrwt>
<rscale>  2 0.26988950E+03</rscale>
<asrwt>0</asrwt>
<pdfrwt beam="1">  1       21 0.27032062E-01 0.26995895E+03</pdfrwt>
<pdfrwt beam="2">  1       21 0.67532497E-01 0.26995895E+03</pdfrwt>
<totfact> 0.25148294E+04</totfact>
</mgrwt>
</event>
<event>
12    1  0.1410528E-001  0.2198987E+03  0.7546771E-02  0.1134856E+00
         21   -1    0    0  502  503  0.00000000000E+00  0.00000000000E+00  0.25850114805E+03  0.25850114805E+03  0.00000000000E+00 0. -1.
         21   -1    0    0  503  504 -0.00000000000E+00 -0.00000000000E+00 -0.20940460303E+03  0.20940460303E+03  0.00000000000E+00 0. -1.
         -6    2    1    2    0  504 -0.94391045913E+02 -0.86375031058E+02  0.10779418361E+03  0.24489801371E+03  0.17884388600E+03 0.  0.
        -24    2    3    3    0    0 -0.86947207126E+02 -0.11516303234E+03  0.38874518566E+02  0.16969050089E+03  0.80382193652E+02 0.  0.
          6    2    1    2  502    0  0.94391045913E+02  0.86375031058E+02 -0.58697638598E+02  0.22300773737E+03  0.17296451258E+03 0.  0.
         24    2    5    5    0    0  0.28874271956E+02  0.29647376676E+02  0.33224263176E+02  0.96587009374E+02  0.80700112711E+02 0.  0.
          2    1    6    6  501    0  0.43377658122E+02 -0.68475808551E+01 -0.18208083900E+01  0.43952541803E+02  0.00000000000E+00 0. -1.
         -1    1    6    6    0  501 -0.14503386166E+02  0.36494957531E+02  0.35045071566E+02  0.52634467572E+02  0.00000000000E+00 0.  1.
          5    1    5    5  502    0  0.65516773957E+02  0.56727654382E+02 -0.91921901774E+02  0.12642072800E+03  0.47000000000E+01 0. -1.
         13    1    4    4    0    0 -0.54956780680E+02 -0.87744161706E+02  0.62944934393E+02  0.12116662256E+03  0.00000000000E+00 0. -1.
        -14    1    4    4    0    0 -0.31990426446E+02 -0.27418870631E+02 -0.24070415827E+02  0.48523878338E+02  0.00000000000E+00 0.  1.
         -5    1    3    3    0  504 -0.74438387867E+01  0.28788001278E+02  0.68919665044E+02  0.75207512812E+02  0.47000000000E+01 0.  1.
<mgrwt>
<rscale>  2 0.21870034E+03</rscale>
<asrwt>0</asrwt>
<pdfrwt beam="1">  1       21 0.39769407E-01 0.21989873E+03</pdfrwt>
<pdfrwt beam="2">  1       21 0.32216093E-01 0.21989873E+03</pdfrwt>
<totfact> 0.55783469E+04</totfact>
</mgrwt>
</event>
<event>
12    1  0.1410528E-001  0.2693469E+03  0.7546771E-02  0.1102545E+00
         21   -1    0    0  502  503  0.00000000000E+00  0.00000000000E+00  0.62980784233E+03  0.62980784233E+03  0.00000000000E+00 0. -1.
         21   -1    0    0  503  504 -0.00000000000E+00 -0.00000000000E+00 -0.41663685530E+03  0.41663685530E+03  0.00000000000E+00 0. -1.
         -6    2    1    2    0  504  0.12150082956E+03  0.16585414118E+03 -0.34071231616E+03  0.43054335120E+03  0.16435524679E+03 0.  0.
        -24    2    3    3    0    0  0.98870210971E+02  0.17376357007E+03 -0.34373472240E+03  0.40592772806E+03  0.81576124740E+02 0.  0.
          6    2    1    2  502    0 -0.12150082956E+03 -0.16585414118E+03  0.55388330320E+03  0.61590134643E+03  0.17400490578E+03 0.  0.
         24    2    5    5    0    0 -0.99551040845E+02 -0.10020085109E+03  0.21188383878E+03  0.26693448355E+03  0.80053963538E+02 0.  0.
          2    1    6    6  501    0 -0.10944427994E+03 -0.68518169667E+02  0.17093827206E+03  0.21422577538E+03  0.00000000000E+00 0. -1.
         -1    1    6    6    0  501  0.98932390923E+01 -0.31682681423E+02  0.40945566723E+02  0.52708708162E+02  0.00000000000E+00 0.  1.
          5    1    5    5  502    0 -0.21949788716E+02 -0.65653290092E+02  0.34199946442E+03  0.34896686288E+03  0.47000000000E+01 0. -1.
         11    1    4    4    0    0  0.76459284623E+02  0.11604794927E+03 -0.15940814956E+03  0.21148074825E+03  0.00000000000E+00 0. -1.
        -12    1    4    4    0    0  0.22410926348E+02  0.57715620805E+02 -0.18432657284E+03  0.19444697981E+03  0.00000000000E+00 0.  1.
         -5    1    3    3    0  504  0.22630618591E+02 -0.79094288881E+01  0.30224062325E+01  0.24615623140E+02  0.47000000000E+01 0.  1.
<mgrwt>
<rscale>  2 0.26780093E+03</rscale>
<asrwt>0</asrwt>
<pdfrwt beam="1">  1       21 0.96893514E-01 0.26934690E+03</pdfrwt>
<pdfrwt beam="2">  1       21 0.64097978E-01 0.26934690E+03</pdfrwt>
<totfact> 0.18704374E+03</totfact>
</mgrwt>
</event>
<event>
12    1  0.1410528E-001  0.2071894E+03  0.7546771E-02  0.1145384E+00
         21   -1    0    0  502  503  0.00000000000E+00  0.00000000000E+00  0.19110710106E+03  0.19110710106E+03  0.00000000000E+00 0. -1.
         21   -1    0    0  503  504 -0.00000000000E+00 -0.00000000000E+00 -0.31831020218E+03  0.31831020218E+03  0.00000000000E+00 0.  1.
         -6    2    1    2    0  504  0.83665434722E+02  0.76701286157E+02 -0.20851395247E+03  0.29394813803E+03  0.17333334131E+03 0.  0.
        -24    2    3    3    0    0  0.11859836841E+03  0.26955466829E+02 -0.14408768913E+03  0.20524757543E+03  0.81074872060E+02 0.  0.
          6    2    1    2  502    0 -0.83665434722E+02 -0.76701286157E+02  0.81310851343E+02  0.21546916521E+03  0.16411128647E+03 0.  0.
         24    2    5    5    0    0 -0.10926527541E+03 -0.21324053718E+02  0.62284982035E+02  0.15139059298E+03  0.81523475018E+02 0.  0.
          4    1    6    6  501    0 -0.97690931530E+02  0.12317817492E+02  0.60921543453E+02  0.11578722377E+03  0.00000000000E+00 0. -1.
         -3    1    6    6    0  501 -0.11574343882E+02 -0.33641871210E+02  0.13634385817E+01  0.35603369217E+02  0.00000000000E+00 0.  1.
          5    1    5    5  502    0  0.25599840690E+02 -0.55377232439E+02  0.19025869309E+02  0.64078572229E+02  0.47000000000E+01 0. -1.
         13    1    4    4    0    0  0.15427141839E+02 -0.11911090429E+02  0.47151854416E+01  0.20052524885E+02  0.00000000000E+00 0. -1.
        -14    1    4    4    0    0  0.10317122658E+03  0.38866557258E+02 -0.14880287458E+03  0.18519505055E+03  0.00000000000E+00 0.  1.
         -5    1    3    3    0  504 -0.34932933693E+02  0.49745819328E+02 -0.64426263335E+02  0.88700562593E+02  0.47000000000E+01 0.  1.
<mgrwt>
<rscale>  2 0.20524952E+03</rscale>
<asrwt>0</asrwt>
<pdfrwt beam="1">  1       21 0.29401093E-01 0.20718938E+03</pdfrwt>
<pdfrwt beam="2">  1       21 0.48970800E-01 0.20718938E+03</pdfrwt>
<totfact> 0.43778494E+04</totfact>
</mgrwt>
</event>
<event>
12    1  0.1410528E-001  0.1798857E+03  0.7546771E-02  0.1168304E+00
         21   -1    0    0  502  503  0.00000000000E+00  0.00000000000E+00  0.87093210499E+02  0.87093210499E+02  0.00000000000E+00 0. -1.
         21   -1    0    0  503  504 -0.00000000000E+00 -0.00000000000E+00 -0.53803091709E+03  0.53803091709E+03  0.00000000000E+00 0. -1.
         -6    2    1    2    0  504 -0.13482344954E+02  0.37163864779E+02 -0.40036297510E+03  0.43826410201E+03  0.17384471464E+03 0.  0.
        -24    2    3    3    0    0 -0.48396408187E+02 -0.25264163357E+02 -0.29826506366E+03  0.31351505781E+03  0.79681572512E+02 0.  0.
          6    2    1    2  502    0  0.13482344954E+02 -0.37163864779E+02 -0.50574731497E+02  0.18686002559E+03  0.17548771816E+03 0.  0.
         24    2    5    5    0    0 -0.50526459624E+02 -0.57759659860E+02 -0.48088685792E+02  0.11940941950E+03  0.77826642829E+02 0.  0.
          2    1    6    6  501    0  0.14630046586E+02 -0.34967281285E+02 -0.29188989293E+02  0.47840841543E+02  0.00000000000E+00 0. -1.
         -1    1    6    6    0  501 -0.65156506210E+02 -0.22792378575E+02 -0.18899696500E+02  0.71568577954E+02  0.00000000000E+00 0.  1.
          5    1    5    5  502    0  0.64008804578E+02  0.20595795081E+02 -0.24860457051E+01  0.67450606089E+02  0.47000000000E+01 0. -1.
         13    1    4    4    0    0 -0.34730915873E+02 -0.19765644355E+02 -0.29591196575E+03  0.29859807215E+03  0.00000000000E+00 0. -1.
        -14    1    4    4    0    0 -0.13665492313E+02 -0.54985190023E+01 -0.23530979021E+01  0.14916985658E+02  0.00000000000E+00 0.  1.
         -5    1    3    3    0  504  0.34914063233E+02  0.62428028136E+02 -0.10209791144E+03  0.12474904420E+03  0.47000000000E+01 0.  1.
<mgrwt>
<rscale>  2 0.17948374E+03</rscale>
<asrwt>0</asrwt>
<pdfrwt beam="1">  1       21 0.13398955E-01 0.17988570E+03</pdfrwt>
<pdfrwt beam="2">  1       21 0.82773987E-01 0.17988570E+03</pdfrwt>
<totfact> 0.61638208E+04</totfact>
</mgrwt>
</event>
<event>
12    1  0.1410528E-001  0.2076529E+03  0.7546771E-02  0.1143703E+00
         21   -1    0    0  502  503  0.00000000000E+00  0.00000000000E+00  0.53057961396E+03  0.53057961396E+03  0.00000000000E+00 0. -1.
         21   -1    0    0  503  504 -0.00000000000E+00 -0.00000000000E+00 -0.16256777837E+03  0.16256777837E+03  0.00000000000E+00 0. -1.
         -6    2    1    2    0  504 -0.54550478832E+02  0.10016513195E+03 -0.61563699570E+02  0.21658674720E+03  0.17352498828E+03 0.  0.
        -24    2    3    3    0    0  0.14178424686E+02  0.92925265450E+02 -0.76849873155E+02  0.14565131918E+03  0.80450426282E+02 0.  0.
          6    2    1    2  502    0  0.54550478832E+02 -0.10016513195E+03  0.42957553517E+03  0.47656064513E+03  0.17194795629E+03 0.  0.
         24    2    5    5    0    0  0.43904486189E+02  0.95467515621E+01  0.24469091977E+03  0.26125981942E+03  0.79776579584E+02 0.  0.
          2    1    6    6  501    0  0.59350468807E+02 -0.11205402749E+02  0.20634927592E+03  0.21500712284E+03  0.00000000000E+00 0. -1.
         -1    1    6    6    0  501 -0.15445982618E+02  0.20752154311E+02  0.38341643852E+02  0.46252696579E+02  0.00000000000E+00 0.  1.
          5    1    5    5  502    0  0.10645992643E+02 -0.10971188351E+03  0.18488461539E+03  0.21530082571E+03  0.47000000000E+01 0. -1.
         11    1    4    4    0    0  0.39112811281E+02  0.28220472886E+02 -0.54542652765E+02  0.72808708729E+02  0.00000000000E+00 0. -1.
        -12    1    4    4    0    0 -0.24934386594E+02  0.64704792564E+02 -0.22307220391E+02  0.72842610450E+02  0.00000000000E+00 0.  1.
         -5    1    3    3    0  504 -0.68728903518E+02  0.72398664994E+01  0.15286173586E+02  0.70935428022E+02  0.47000000000E+01 0.  1.
<mgrwt>
<rscale>  2 0.20732312E+03</rscale>
<asrwt>0</asrwt>
<pdfrwt beam="1">  1       21 0.81627632E-01 0.20765291E+03</pdfrwt>
<pdfrwt beam="2">  1       21 0.25010428E-01 0.20765291E+03</pdfrwt>
<totfact> 0.19707051E+04</totfact>
</mgrwt>
</event>
<event>
12    1  0.1410528E-001  0.1764151E+03  0.7546771E-02  0.1172954E+00
         21   -1    0    0  502  503  0.00000000000E+00  0.00000000000E+00  0.21869158990E+02  0.21869158990E+02  0.00000000000E+00 0.  1.
         21   -1    0    0  503  504 -0.00000000000E+00 -0.00000000000E+00 -0.16741192234E+04  0.16741192234E+04  0.00000000000E+00 0.  1.
         -6    2    1    2    0  504  0.33516898283E+02  0.34566354724E+02 -0.11991976865E+04  0.12121045300E+04  0.16971766298E+03 0.  0.
        -24    2    3    3    0    0 -0.37604807564E+01  0.45614378516E+02 -0.11171529806E+04  0.11211920140E+04  0.83342290216E+02 0.  0.
          6    2    1    2  502    0 -0.33516898283E+02 -0.34566354724E+02 -0.45305237791E+03  0.48388385233E+03  0.16299972414E+03 0.  0.
         24    2    5    5    0    0 -0.19244361743E+00 -0.38437006287E+02 -0.12104932218E+03  0.15015698761E+03  0.80104569418E+02 0.  0.
          2    1    6    6  501    0  0.29823253376E+02 -0.45937974110E+02 -0.57124145246E+02  0.79138434893E+02  0.00000000000E+00 0. -1.
         -1    1    6    6    0  501 -0.30015696993E+02  0.75009678230E+01 -0.63925176935E+02  0.71018552720E+02  0.00000000000E+00 0.  1.
          5    1    5    5  502    0 -0.33324454666E+02  0.38706515625E+01 -0.33200305573E+03  0.33372686472E+03  0.47000000000E+01 0. -1.
         13    1    4    4    0    0  0.10032623633E+02  0.52591394470E+02 -0.36748467406E+03  0.37136436821E+03  0.00000000000E+00 0. -1.
        -14    1    4    4    0    0 -0.13793104389E+02 -0.69770159546E+01 -0.74966830658E+03  0.74982764578E+03  0.00000000000E+00 0.  1.
         -5    1    3    3    0  504  0.37277379039E+02 -0.11048023792E+02 -0.82044705840E+02  0.90912516048E+02  0.47000000000E+01 0.  1.
<mgrwt>
<rscale>  2 0.17477927E+03</rscale>
<asrwt>0</asrwt>
<pdfrwt beam="1">  1       21 0.33644871E-02 0.17641514E+03</pdfrwt>
<pdfrwt beam="2">  1       21 0.25755672E+00 0.17641514E+03</pdfrwt>
<totfact> 0.31856272E+04</totfact>
</mgrwt>
</event>
<event>
12    1  0.1410528E-001  0.3423952E+03  0.7546771E-02  0.1065808E+00
         21   -1    0    0  502  503  0.00000000000E+00  0.00000000000E+00  0.47252516427E+03  0.47252516427E+03  0.00000000000E+00 0. -1.
         21   -1    0    0  503  504 -0.00000000000E+00 -0.00000000000E+00 -0.28573164808E+03  0.28573164808E+03  0.00000000000E+00 0. -1.
         -6    2    1    2    0  504 -0.27753542887E+03 -0.10339229929E+03 -0.44566108932E+02  0.34502355795E+03  0.17128699789E+03 0.  0.
        -24    2    3    3    0    0 -0.16808823240E+03 -0.11087147213E+03  0.19541989770E+01  0.22577232782E+03  0.10209401506E+03 0.  0.
          6    2    1    2  502    0  0.27753542887E+03  0.10339229929E+03  0.23135962512E+03  0.41323325440E+03  0.17180967545E+03 0.  0.
         24    2    5    5    0    0  0.14962554755E+03  0.68059416573E+02  0.20930851271E+03  0.27863127857E+03  0.82495134642E+02 0.  0.
          4    1    6    6  501    0  0.11142996090E+03  0.64172218513E+02  0.10036025136E+03  0.16311618518E+03  0.00000000000E+00 0. -1.
         -3    1    6    6    0  501  0.38195586641E+02  0.38871980602E+01  0.10894826135E+03  0.11551509338E+03  0.00000000000E+00 0.  1.
          5    1    5    5  502    0  0.12790988132E+03  0.35332882719E+02  0.22051112411E+02  0.13460197584E+03  0.47000000000E+01 0. -1.
         11    1    4    4    0    0 -0.10469514694E+03 -0.81662934049E+01  0.34338054623E+01  0.10506927791E+03  0.00000000000E+00 0. -1.
        -12    1    4    4    0    0 -0.63393085463E+02 -0.10270517873E+03 -0.14796064853E+01  0.12070304991E+03  0.00000000000E+00 0.  1.
         -5    1    3    3    0  504 -0.10944719646E+03  0.74791728386E+01 -0.46520307909E+02  0.11925123013E+03  0.47000000000E+01 0.  1.
<mgrwt>
<rscale>  2 0.34232965E+03</rscale>
<asrwt>0</asrwt>
<pdfrwt beam="1">  1       21 0.72696179E-01 0.34239516E+03</pdfrwt>
<pdfrwt beam="2">  1       21 0.43958715E-01 0.34239516E+03</pdfrwt>
<totfact> 0.78083892E+03</totfact>
</mgrwt>
</event>
<event>
12    1  0.1410528E-001  0.1801135E+03  0.7546771E-02  0.1167740E+00
         21   -1    0    0  502  503  0.00000000000E+00  0.00000000000E+00  0.84529397295E+02  0.84529397295E+02  0.00000000000E+00 0. -1.
         21   -1    0    0  503  504 -0.00000000000E+00 -0.00000000000E+00 -0.57261802039E+03  0.57261802039E+03  0.00000000000E+00 0. -1.
         -6    2    1    2    0  504 -0.20398807643E+02 -0.50403354260E+02 -0.43285026442E+03  0.46875386318E+03  0.17150575315E+03 0.  0.
        -24    2    3    3    0    0  0.42587631023E+02 -0.17810722690E+00 -0.15478665829E+03  0.17921746486E+03  0.79663367296E+02 0.  0.
          6    2    1    2  502    0  0.20398807643E+02  0.50403354260E+02 -0.55238358673E+02  0.18839355451E+03  0.17170977152E+03 0.  0.
         24    2    5    5    0    0  0.70063583856E+02  0.12974189214E+02 -0.54679752284E+01  0.10860186659E+03  0.81775493302E+02 0.  0.
          2    1    6    6  501    0  0.33380047570E+02 -0.53996941762E+01  0.36607250944E+02  0.49834476968E+02  0.00000000000E+00 0. -1.
         -1    1    6    6    0  501  0.36683536286E+02  0.18373883390E+02 -0.42075226173E+02  0.58767389620E+02  0.00000000000E+00 0.  1.
          5    1    5    5  502    0 -0.49664776213E+02  0.37429165046E+02 -0.49770383445E+02  0.79791687917E+02  0.47000000000E+01 0. -1.
         13    1    4    4    0    0 -0.19920463314E+02 -0.90202489144E+01 -0.17140627093E+02  0.27784723253E+02  0.00000000000E+00 0. -1.
        -14    1    4    4    0    0  0.62508094337E+02  0.88421416875E+01 -0.13764603119E+03  0.15143274161E+03  0.00000000000E+00 0.  1.
         -5    1    3    3    0  504 -0.62986438666E+02 -0.50225247033E+02 -0.27806360613E+03  0.28953639832E+03  0.47000000000E+01 0.  1.
<mgrwt>
<rscale>  2 0.18006481E+03</rscale>
<asrwt>0</asrwt>
<pdfrwt beam="1">  1       21 0.13004522E-01 0.18011345E+03</pdfrwt>
<pdfrwt beam="2">  1       21 0.88095085E-01 0.18011345E+03</pdfrwt>
<totfact> 0.56405778E+04</totfact>
</mgrwt>
</event>
<event>
12    1  0.1410528E-001  0.1849106E+03  0.7546771E-02  0.1163845E+00
         21   -1    0    0  502  503  0.00000000000E+00  0.00000000000E+00  0.40079042315E+02  0.40079042315E+02  0.00000000000E+00 0.  1.
         21   -1    0    0  503  504 -0.00000000000E+00 -0.00000000000E+00 -0.94408207631E+03  0.94408207631E+03  0.00000000000E+00 0.  1.
         -6    2    1    2    0  504 -0.45422694463E+02  0.33767769745E+02 -0.28471391334E+03  0.33785549478E+03  0.17286075164E+03 0.  0.
        -24    2    3    3    0    0 -0.74408733836E+02 -0.12401156654E+02 -0.24877293303E+03  0.27239096767E+03  0.81353664371E+02 0.  0.
          6    2    1    2  502    0  0.45422694463E+02 -0.33767769745E+02 -0.61928912065E+03  0.64630562384E+03  0.17603539703E+03 0.  0.
         24    2    5    5    0    0  0.95475268922E+01 -0.84416696929E+02 -0.34417820536E+03  0.36424100858E+03  0.83639352537E+02 0.  0.
          4    1    6    6  501    0 -0.23657709140E+02 -0.82585981657E+02 -0.25299276393E+03  0.26718059467E+03  0.00000000000E+00 0. -1.
         -3    1    6    6    0  501  0.33205236033E+02 -0.18307152722E+01 -0.91185441431E+02  0.97060413904E+02  0.00000000000E+00 0.  1.
          5    1    5    5  502    0  0.35875167571E+02  0.50648927184E+02 -0.27511091529E+03  0.28206461526E+03  0.47000000000E+01 0. -1.
         11    1    4    4    0    0 -0.31889175359E+02  0.33609645686E+02 -0.81169227028E+02  0.93461067855E+02  0.00000000000E+00 0. -1.
        -12    1    4    4    0    0 -0.42519558477E+02 -0.46010802340E+02 -0.16760370600E+03  0.17892989982E+03  0.00000000000E+00 0.  1.
         -5    1    3    3    0  504  0.28986039373E+02  0.46168926400E+02 -0.35940980318E+02  0.65464527109E+02  0.47000000000E+01 0.  1.
<mgrwt>
<rscale>  2 0.18415105E+03</rscale>
<asrwt>0</asrwt>
<pdfrwt beam="1">  1       21 0.61660071E-02 0.18491064E+03</pdfrwt>
<pdfrwt beam="2">  1       21 0.14524338E+00 0.18491064E+03</pdfrwt>
<totfact> 0.61450843E+04</totfact>
</mgrwt>
</event>
<event>
12    1  0.1410528E-001  0.1950191E+03  0.7546771E-02  0.1154026E+00
         21   -1    0    0  502  503  0.00000000000E+00  0.00000000000E+00  0.16470767127E+03  0.16470767127E+03  0.00000000000E+00 0.  1.
         21   -1    0    0  503  504 -0.00000000000E+00 -0.00000000000E+00 -0.24594831878E+03  0.24594831878E+03  0.00000000000E+00 0.  1.
         -6    2    1    2    0  504 -0.82926984003E+02  0.35030745743E+02 -0.91529467011E+02  0.21536566178E+03  0.17291815150E+03 0.  0.
        -24    2    3    3    0    0 -0.67825798090E+02  0.35033515687E+02  0.11794910805E+02  0.11083785268E+03  0.79487254060E+02 0.  0.
          6    2    1    2  502    0  0.82926984003E+02 -0.35030745743E+02  0.10288819506E+02  0.19529032827E+03  0.17299830833E+03 0.  0.
         24    2    5    5    0    0 -0.11935612929E+02  0.20388555712E+02  0.80191648783E-01  0.84852484423E+02  0.81497151006E+02 0.  0.
          2    1    6    6  501    0  0.20527327919E+02  0.31021238345E+02 -0.22900457090E+02  0.43682025536E+02  0.00000000000E+00 0. -1.
         -1    1    6    6    0  501 -0.32462940849E+02 -0.10632682633E+02  0.22980648739E+02  0.41170458887E+02  0.00000000000E+00 0.  1.
          5    1    5    5  502    0  0.94862596933E+02 -0.55419301455E+02  0.10208627857E+02  0.11043784385E+03  0.47000000000E+01 0. -1.
         13    1    4    4    0    0 -0.65805172153E+02  0.26721013767E+02 -0.23274783170E+02  0.74739874167E+02  0.00000000000E+00 0. -1.
        -14    1    4    4    0    0 -0.20206259374E+01  0.83125019201E+01  0.35069693975E+02  0.36097978514E+02  0.00000000000E+00 0.  1.
         -5    1    3    3    0  504 -0.15101185913E+02 -0.27699447304E-02 -0.10332437782E+03  0.10452780910E+03  0.47000000000E+01 0.  1.
<mgrwt>
<rscale>  2 0.19500133E+03</rscale>
<asrwt>0</asrwt>
<pdfrwt beam="1">  1       21 0.25339642E-01 0.19501911E+03</pdfrwt>
<pdfrwt beam="2">  1       21 0.37838203E-01 0.19501911E+03</pdfrwt>
<totfact> 0.99341647E+04</totfact>
</mgrwt>
</event>
<event>
12    1  0.1410528E-001  0.1977983E+03  0.7546771E-02  0.1154013E+00
         21   -1    0    0  502  503  0.00000000000E+00  0.00000000000E+00  0.37239275231E+03  0.37239275231E+03  0.00000000000E+00 0. -1.
         21   -1    0    0  503  504 -0.00000000000E+00 -0.00000000000E+00 -0.16918155572E+03  0.16918155572E+03  0.00000000000E+00 0. -1.
         -6    2    1    2    0  504  0.62317887982E+02 -0.61113083385E+02 -0.74009266290E+02  0.20102273759E+03  0.16527081233E+03 0.  0.
        -24    2    3    3    0    0  0.93316799025E+02 -0.11501380676E+02 -0.28166402715E+02  0.12655185958E+03  0.79885669446E+02 0.  0.
          6    2    1    2  502    0 -0.62317887982E+02  0.61113083385E+02  0.27722046288E+03  0.34055157044E+03  0.17749889849E+03 0.  0.
         24    2    5    5    0    0  0.11125092521E+02  0.66354425577E+02  0.86231628000E+02  0.13580741765E+03  0.80505177122E+02 0.  0.
          2    1    6    6  501    0 -0.20555374296E+02  0.69253963369E+02  0.51563326020E+02  0.88754782660E+02  0.00000000000E+00 0. -1.
         -1    1    6    6    0  501  0.31680466817E+02 -0.28995377922E+01  0.34668301980E+02  0.47052634988E+02  0.00000000000E+00 0.  1.
          5    1    5    5  502    0 -0.73442980503E+02 -0.52413421917E+01  0.19098883488E+03  0.20474415279E+03  0.47000000000E+01 0. -1.
         13    1    4    4    0    0  0.48001034754E+02  0.28012085184E+02 -0.35553970081E+02  0.65976215732E+02  0.00000000000E+00 0. -1.
        -14    1    4    4    0    0  0.45315764271E+02 -0.39513465860E+02  0.73875673658E+01  0.60575643845E+02  0.00000000000E+00 0.  1.
         -5    1    3    3    0  504 -0.30998911043E+02 -0.49611702709E+02 -0.45842863575E+02  0.74470878015E+02  0.47000000000E+01 0.  1.
<mgrwt>
<rscale>  2 0.19501640E+03</rscale>
<asrwt>0</asrwt>
<pdfrwt beam="1">  1       21 0.57291192E-01 0.19779835E+03</pdfrwt>
<pdfrwt beam="2">  1       21 0.26027932E-01 0.19779835E+03</pdfrwt>
<totfact> 0.40004363E+04</totfact>
</mgrwt>
</event>
<event>
12    1  0.1410528E-001  0.2213713E+03  0.7546771E-02  0.1132872E+00
         21   -1    0    0  502  503  0.00000000000E+00  0.00000000000E+00  0.16006572425E+03  0.16006572425E+03  0.00000000000E+00 0. -1.
         21   -1    0    0  503  504 -0.00000000000E+00 -0.00000000000E+00 -0.53240783406E+03  0.53240783406E+03  0.00000000000E+00 0. -1.
         -6    2    1    2    0  504 -0.11823498033E+03 -0.64691631062E+02 -0.41189627387E+03  0.46759626183E+03  0.17556538937E+03 0.  0.
        -24    2    3    3    0    0 -0.14657476137E+03 -0.59088347642E+02 -0.39711797689E+03  0.43480864166E+03  0.79876616077E+02 0.  0.
          6    2    1    2  502    0  0.11823498033E+03  0.64691631062E+02  0.39554164066E+02  0.22487729647E+03  0.17561534350E+03 0.  0.
         24    2    5    5    0    0  0.18642249858E+02 -0.26314583375E+02  0.23143300263E+02  0.88891085851E+02  0.79536293720E+02 0.  0.
          4    1    6    6  501    0  0.30789057392E+02 -0.17407506643E+02 -0.21761269633E+02  0.41527583588E+02  0.00000000000E+00 0. -1.
         -3    1    6    6    0  501 -0.12146807534E+02 -0.89070767318E+01  0.44904569896E+02  0.47363502264E+02  0.00000000000E+00 0.  1.
          5    1    5    5  502    0  0.99592730470E+02  0.91006214437E+02  0.16410863803E+02  0.13598621062E+03  0.47000000000E+01 0. -1.
         11    1    4    4    0    0 -0.59360441763E+02  0.15287512884E+02 -0.16281530900E+03  0.17397182226E+03  0.00000000000E+00 0. -1.
        -12    1    4    4    0    0 -0.87214319610E+02 -0.74375860526E+02 -0.23430266789E+03  0.26083681940E+03  0.00000000000E+00 0.  1.
         -5    1    3    3    0  504  0.28339781045E+02 -0.56032834200E+01 -0.14778296989E+02  0.32787620174E+02  0.47000000000E+01 0.  1.
<mgrwt>
<rscale>  2 0.22136142E+03</rscale>
<asrwt>0</asrwt>
<pdfrwt beam="1">  1       21 0.24625496E-01 0.22137133E+03</pdfrwt>
<pdfrwt beam="2">  1       21 0.81908898E-01 0.22137133E+03</pdfrwt>
<totfact> 0.19984083E+04</totfact>
</mgrwt>
</event>
<event>
12    1  0.1410528E-001  0.1878347E+03  0.7546771E-02  0.1160973E+00
         21   -1    0    0  502  503  0.00000000000E+00  0.00000000000E+00  0.55029986194E+03  0.55029986194E+03  0.00000000000E+00 0. -1.
         21   -1    0    0  503  504 -0.00000000000E+00 -0.00000000000E+00 -0.82226150202E+02  0.82226150202E+02  0.00000000000E+00 0. -1.
         -6    2    1    2    0  504 -0.67508030297E+02  0.14816949452E+01  0.81208022829E+02  0.20247142221E+03  0.17274375318E+03 0.  0.
        -24    2    3    3    0    0 -0.97224517942E+00  0.32320484141E+02 -0.78434364930E+01  0.87014529699E+02  0.80401803008E+02 0.  0.
          6    2    1    2  502    0  0.67508030297E+02 -0.14816949452E+01  0.38686568891E+03  0.43005458993E+03  0.17527794925E+03 0.  0.
         24    2    5    5    0    0 -0.18926406240E+02  0.35635193075E+02  0.24110812424E+03  0.25651516256E+03  0.77709878454E+02 0.  0.
          4    1    6    6  501    0  0.35302245053E+00 -0.10337189106E+02  0.16628279813E+03  0.16660417479E+03  0.00000000000E+00 0. -1.
         -3    1    6    6    0  501 -0.19279428691E+02  0.45972382181E+02  0.74825326108E+02  0.89910987767E+02  0.00000000000E+00 0.  1.
          5    1    5    5  502    0  0.86434436537E+02 -0.37116888020E+02  0.14575756467E+03  0.17353942737E+03  0.47000000000E+01 0. -1.
         13    1    4    4    0    0 -0.38594357448E+02  0.24330908780E+02  0.62558769580E+01  0.46050554235E+02  0.00000000000E+00 0. -1.
        -14    1    4    4    0    0  0.37622112268E+02  0.79895753617E+01 -0.14099313451E+02  0.40963975464E+02  0.00000000000E+00 0.  1.
         -5    1    3    3    0  504 -0.66535785117E+02 -0.30838789196E+02  0.89051459322E+02  0.11545689251E+03  0.47000000000E+01 0.  1.
<mgrwt>
<rscale>  2 0.18724130E+03</rscale>
<asrwt>0</asrwt>
<pdfrwt beam="1">  1       21 0.84661515E-01 0.18783474E+03</pdfrwt>
<pdfrwt beam="2">  1       21 0.12650177E-01 0.18783474E+03</pdfrwt>
<totfact> 0.64697459E+04</totfact>
</mgrwt>
</event>
<event>
12    1  0.1410528E-001  0.2071531E+03  0.7546771E-02  0.1143943E+00
         21   -1    0    0  502  503  0.00000000000E+00  0.00000000000E+00  0.13748052962E+03  0.13748052962E+03  0.00000000000E+00 0. -1.
         21   -1    0    0  503  504 -0.00000000000E+00 -0.00000000000E+00 -0.56026518369E+03  0.56026518369E+03  0.00000000000E+00 0. -1.
         -6    2    1    2    0  504 -0.24222797209E+02 -0.11177461697E+03 -0.44377778357E+03  0.48953159261E+03  0.17211086565E+03 0.  0.
        -24    2    3    3    0    0 -0.57668592658E+02 -0.54378241118E+02 -0.38334631959E+03  0.39960374913E+03  0.80287582425E+02 0.  0.
          6    2    1    2  502    0  0.24222797209E+02  0.11177461697E+03  0.20993129499E+02  0.20821412070E+03  0.17271971418E+03 0.  0.
         24    2    5    5    0    0  0.52526727004E+02  0.30657238266E+02 -0.33884427013E+02  0.10616130212E+03  0.80144521751E+02 0.  0.
          2    1    6    6  501    0 -0.57082516626E+01  0.35409116370E+02 -0.31417531046E+02  0.47680718495E+02  0.00000000000E+00 0. -1.
         -1    1    6    6    0  501  0.58234978667E+02 -0.47518781039E+01 -0.24668959665E+01  0.58480583628E+02  0.00000000000E+00 0.  1.
          5    1    5    5  502    0 -0.28303929795E+02  0.81117378707E+02  0.54877556512E+02  0.10205281857E+03  0.47000000000E+01 0. -1.
         13    1    4    4    0    0 -0.62311092526E+02 -0.71584778440E+02 -0.32848997962E+03  0.34192502024E+03  0.00000000000E+00 0. -1.
        -14    1    4    4    0    0  0.46424998683E+01  0.17206537323E+02 -0.54856339967E+02  0.57678728889E+02  0.00000000000E+00 0.  1.
         -5    1    3    3    0  504  0.33445795449E+02 -0.57396375856E+02 -0.60431463980E+02  0.89927843482E+02  0.47000000000E+01 0.  1.
<mgrwt>
<rscale>  2 0.20702614E+03</rscale>
<asrwt>0</asrwt>
<pdfrwt beam="1">  1       21 0.21150850E-01 0.20715310E+03</pdfrwt>
<pdfrwt beam="2">  1       21 0.86194646E-01 0.20715310E+03</pdfrwt>
<totfact> 0.23919483E+04</totfact>
</mgrwt>
</event>
<event>
12    1  0.1410528E-001  0.1758569E+03  0.7546771E-02  0.1172123E+00
         21   -1    0    0  502  503  0.00000000000E+00  0.00000000000E+00  0.83097584581E+02  0.83097584581E+02  0.00000000000E+00 0.  1.
         21   -1    0    0  503  504 -0.00000000000E+00 -0.00000000000E+00 -0.62259855779E+03  0.62259855779E+03  0.00000000000E+00 0.  1.
         -6    2    1    2    0  504 -0.19075087922E+02 -0.23649442127E+02 -0.49401917164E+03  0.52405292517E+03  0.17220154278E+03 0.  0.
        -24    2    3    3    0    0 -0.49688285697E+02  0.26889143260E+02 -0.18752921932E+03  0.21188390466E+03  0.80843238395E+02 0.  0.
          6    2    1    2  502    0  0.19075087922E+02  0.23649442127E+02 -0.45481801571E+02  0.18164321721E+03  0.17321232344E+03 0.  0.
         24    2    5    5    0    0 -0.20947188356E+02  0.68270179493E+00  0.34195336489E+02  0.89448911043E+02  0.79953335561E+02 0.  0.
          4    1    6    6  501    0 -0.32225135436E+02  0.25138723108E+02  0.44675785699E+02  0.60550314460E+02  0.00000000000E+00 0. -1.
         -3    1    6    6    0  501  0.11277947080E+02 -0.24456021313E+02 -0.10480449210E+02  0.28898596583E+02  0.00000000000E+00 0.  1.
          5    1    5    5  502    0  0.40022276278E+02  0.22966740332E+02 -0.79677138060E+02  0.92194306165E+02  0.47000000000E+01 0. -1.
         13    1    4    4    0    0 -0.92885416162E+01 -0.26611299821E+02 -0.32745434561E+02  0.43205344208E+02  0.00000000000E+00 0. -1.
        -14    1    4    4    0    0 -0.40399744081E+02  0.53500443081E+02 -0.15478378476E+03  0.16867856045E+03  0.00000000000E+00 0.  1.
         -5    1    3    3    0  504  0.30613197775E+02 -0.50538585386E+02 -0.30648995232E+03  0.31216902051E+03  0.47000000000E+01 0.  1.
<mgrwt>
<rscale>  2 0.17560754E+03</rscale>
<asrwt>0</asrwt>
<pdfrwt beam="1">  1       21 0.12784244E-01 0.17585694E+03</pdfrwt>
<pdfrwt beam="2">  1       21 0.95784394E-01 0.17585694E+03</pdfrwt>
<totfact> 0.48005965E+04</totfact>
</mgrwt>
</event>
<event>
12    1  0.1410528E-001  0.1876245E+03  0.7546771E-02  0.1162315E+00
         21   -1    0    0  502  503  0.00000000000E+00  0.00000000000E+00  0.10057812120E+03  0.10057812120E+03  0.00000000000E+00 0. -1.
         21   -1    0    0  503  504 -0.00000000000E+00 -0.00000000000E+00 -0.61898796959E+03  0.61898796959E+03  0.00000000000E+00 0. -1.
         -6    2    1    2    0  504 -0.40195310557E+02  0.22326122872E+02 -0.50494430495E+03  0.53867587043E+03  0.18190333567E+03 0.  0.
        -24    2    3    3    0    0 -0.15617436058E+02 -0.38883638461E+02 -0.42672047604E+03  0.43624655721E+03  0.80404305584E+02 0.  0.
          6    2    1    2  502    0  0.40195310557E+02 -0.22326122872E+02 -0.13465543441E+02  0.18089022036E+03  0.17443002095E+03 0.  0.
         24    2    5    5    0    0  0.87660178735E+02  0.83889905765E+01  0.86259181933E+01  0.12000956184E+03  0.81075312946E+02 0.  0.
          4    1    6    6  501    0  0.86547527937E+02  0.34775099385E+02  0.58835623594E+01  0.93458003591E+02  0.00000000000E+00 0. -1.
         -3    1    6    6    0  501  0.11126507979E+01 -0.26386108808E+02  0.27423558339E+01  0.26551558247E+02  0.00000000000E+00 0.  1.
          5    1    5    5  502    0 -0.47464868178E+02 -0.30715113448E+02 -0.22091461634E+02  0.60880658525E+02  0.47000000000E+01 0. -1.
         11    1    4    4    0    0 -0.39872807573E+02 -0.48606803430E+02 -0.33629212173E+03  0.34211818610E+03  0.00000000000E+00 0. -1.
        -12    1    4    4    0    0  0.24255371515E+02  0.97231649694E+01 -0.90428354313E+02  0.94128371111E+02  0.00000000000E+00 0.  1.
         -5    1    3    3    0  504 -0.24577874499E+02  0.61209761333E+02 -0.78223828907E+02  0.10242931322E+03  0.47000000000E+01 0.  1.
<mgrwt>
<rscale>  2 0.18578867E+03</rscale>
<asrwt>0</asrwt>
<pdfrwt beam="1">  1       21 0.15473557E-01 0.18762447E+03</pdfrwt>
<pdfrwt beam="2">  1       21 0.95228919E-01 0.18762447E+03</pdfrwt>
<totfact> 0.34237093E+04</totfact>
</mgrwt>
</event>
<event>
12    1  0.1410528E-001  0.1990939E+03  0.7546771E-02  0.1151739E+00
         21   -1    0    0  502  503  0.00000000000E+00  0.00000000000E+00  0.60946912808E+02  0.60946912808E+02  0.00000000000E+00 0. -1.
         21   -1    0    0  503  504 -0.00000000000E+00 -0.00000000000E+00 -0.90356788649E+03  0.90356788649E+03  0.00000000000E+00 0.  1.
         -6    2    1    2    0  504  0.79696465651E+02 -0.58537904312E+02 -0.69006010916E+03  0.71820703884E+03  0.17280099394E+03 0.  0.
        -24    2    3    3    0    0  0.11904899639E+02 -0.44783163187E+02 -0.58491286368E+03  0.59225894414E+03  0.80624689017E+02 0.  0.
          6    2    1    2  502    0 -0.79696465651E+02  0.58537904312E+02 -0.15256086452E+03  0.24630776046E+03  0.16617605904E+03 0.  0.
         24    2    5    5    0    0 -0.10849220380E+03  0.78009335667E+02 -0.11227948717E+03  0.19289418039E+03  0.82130791136E+02 0.  0.
          4    1    6    6  501    0 -0.33641865724E+02  0.74055832619E+02 -0.50318105674E+02  0.95644933127E+02  0.00000000000E+00 0. -1.
         -3    1    6    6    0  501 -0.74850338073E+02  0.39535030481E+01 -0.61961381497E+02  0.97249247262E+02  0.00000000000E+00 0.  1.
          5    1    5    5  502    0  0.28795738146E+02 -0.19471431355E+02 -0.40281377355E+02  0.53413580071E+02  0.47000000000E+01 0. -1.
         13    1    4    4    0    0  0.13764985013E+01 -0.36787619712E+01  0.15796021475E+01  0.42335777670E+01  0.00000000000E+00 0. -1.
        -14    1    4    4    0    0  0.10528401138E+02 -0.41104401216E+02 -0.58649246582E+03  0.58802536637E+03  0.00000000000E+00 0.  1.
         -5    1    3    3    0  504  0.67791566011E+02 -0.13754741125E+02 -0.10514724548E+03  0.12594809470E+03  0.47000000000E+01 0.  1.
<mgrwt>
<rscale>  2 0.19764775E+03</rscale>
<asrwt>0</asrwt>
<pdfrwt beam="1">  1       21 0.93764475E-02 0.19909394E+03</pdfrwt>
<pdfrwt beam="2">  1       21 0.13901045E+00 0.19909394E+03</pdfrwt>
<totfact> 0.32998865E+04</totfact>
</mgrwt>
</event>
<event>
12    1  0.1410528E-001  0.1970160E+03  0.7546771E-02  0.1152498E+00
         21   -1    0    0  502  503  0.00000000000E+00  0.00000000000E+00  0.94243034064E+03  0.94243034064E+03  0.00000000000E+00 0. -1.
         21   -1    0    0  503  504 -0.00000000000E+00 -0.00000000000E+00 -0.42081659326E+02  0.42081659326E+02  0.00000000000E+00 0. -1.
         -6    2    1    2    0  504 -0.90379179324E+02  0.24692072430E+02  0.52882856829E+03  0.56398556713E+03  0.17216843728E+03 0.  0.
        -24    2    3    3    0    0 -0.11834541219E+03  0.89616702721E+01  0.50228010119E+03  0.52207534358E+03  0.78685552678E+02 0.  0.
          6    2    1    2  502    0  0.90379179324E+02 -0.24692072430E+02  0.37152011302E+03  0.42052643283E+03  0.17331241109E+03 0.  0.
         24    2    5    5    0    0 -0.15164397548E+02  0.18042204459E+02  0.15003254064E+03  0.17143909924E+03  0.79536918480E+02 0.  0.
          4    1    6    6  501    0 -0.19665997771E+00  0.47892251134E+02  0.10471590800E+03  0.11514828606E+03  0.00000000000E+00 0. -1.
         -3    1    6    6    0  501 -0.14967737570E+02 -0.29850046675E+02  0.45316632640E+02  0.56290813178E+02  0.00000000000E+00 0.  1.
          5    1    5    5  502    0  0.10554357687E+03 -0.42734276890E+02  0.22148757238E+03  0.24908733360E+03  0.47000000000E+01 0. -1.
         13    1    4    4    0    0 -0.34686332760E+02  0.34067043953E+02  0.11126143673E+03  0.12141998381E+03  0.00000000000E+00 0. -1.
        -14    1    4    4    0    0 -0.83659079429E+02 -0.25105373681E+02  0.39101866446E+03  0.40065535977E+03  0.00000000000E+00 0.  1.
         -5    1    3    3    0  504  0.27966232865E+02  0.15730402158E+02  0.26548467101E+02  0.41910223552E+02  0.47000000000E+01 0.  1.
<mgrwt>
<rscale>  2 0.19676408E+03</rscale>
<asrwt>0</asrwt>
<pdfrwt beam="1">  1       21 0.14498927E+00 0.19701595E+03</pdfrwt>
<pdfrwt beam="2">  1       21 0.64741021E-02 0.19701595E+03</pdfrwt>
<totfact> 0.56408898E+04</totfact>
</mgrwt>
</event>
<event>
12    1  0.1410528E-001  0.2416405E+03  0.7546771E-02  0.1121560E+00
         21   -1    0    0  502  503  0.00000000000E+00  0.00000000000E+00  0.64049976870E+03  0.64049976870E+03  0.00000000000E+00 0.  1.
         21   -1    0    0  503  504 -0.00000000000E+00 -0.00000000000E+00 -0.92703800110E+02  0.92703800110E+02  0.00000000000E+00 0.  1.
         -6    2    1    2    0  504  0.15937703090E+03 -0.19337183876E+01  0.15924537414E+03  0.27564297409E+03  0.15879289257E+03 0.  0.
        -24    2    3    3    0    0  0.11545536536E+03 -0.38302345216E+02  0.16327284676E+03  0.21828357854E+03  0.78693628287E+02 0.  0.
          6    2    1    2  502    0 -0.15937703090E+03  0.19337183876E+01  0.38855059445E+03  0.45756059472E+03  0.18161871090E+03 0.  0.
         24    2    5    5    0    0 -0.81299532414E+02 -0.48584704122E+02  0.31399387368E+03  0.33827521676E+03  0.82872686221E+02 0.  0.
          2    1    6    6  501    0  0.16614200074E+02 -0.59975859642E+01  0.64912278444E+02  0.67272628716E+02  0.00000000000E+00 0. -1.
         -1    1    6    6    0  501 -0.97913732488E+02 -0.42587118157E+02  0.24908159524E+03  0.27100258805E+03  0.00000000000E+00 0.  1.
          5    1    5    5  502    0 -0.78077498491E+02  0.50518422509E+02  0.74556720769E+02  0.11928537796E+03  0.47000000000E+01 0. -1.
         11    1    4    4    0    0  0.21182806429E+02  0.23305752848E+02  0.45452402709E+02  0.55297290314E+02  0.00000000000E+00 0. -1.
        -12    1    4    4    0    0  0.94272558926E+02 -0.61608098065E+02  0.11782044405E+03  0.16298628823E+03  0.00000000000E+00 0.  1.
         -5    1    3    3    0  504  0.43921665550E+02  0.36368626829E+02 -0.40274726161E+01  0.57359395549E+02  0.47000000000E+01 0.  1.
<mgrwt>
<rscale>  2 0.23736546E+03</rscale>
<asrwt>0</asrwt>
<pdfrwt beam="1">  1       21 0.98538423E-01 0.24164050E+03</pdfrwt>
<pdfrwt beam="2">  1       21 0.14262123E-01 0.24164050E+03</pdfrwt>
<totfact> 0.35643219E+04</totfact>
</mgrwt>
</event>
<event>
12    1  0.1410528E-001  0.2393504E+03  0.7546771E-02  0.1120902E+00
         21   -1    0    0  502  503  0.00000000000E+00  0.00000000000E+00  0.43971235448E+03  0.43971235448E+03  0.00000000000E+00 0.  1.
         21   -1    0    0  503  504 -0.00000000000E+00 -0.00000000000E+00 -0.14954430380E+03  0.14954430380E+03  0.00000000000E+00 0.  1.
         -6    2    1    2    0  504  0.74735459007E+02  0.14898571012E+03  0.25556484297E+03  0.34741787162E+03  0.16614348590E+03 0.  0.
        -24    2    3    3    0    0  0.81254120996E+02  0.60995864374E+02  0.21363675380E+03  0.24961827770E+03  0.79661121876E+02 0.  0.
          6    2    1    2  502    0 -0.74735459007E+02 -0.14898571012E+03  0.34603207718E+02  0.24183878666E+03  0.17177452109E+03 0.  0.
         24    2    5    5    0    0 -0.41831488055E+02 -0.87912391178E+02 -0.46752857511E+02  0.13481766285E+03  0.80693931718E+02 0.  0.
          4    1    6    6  501    0  0.14176150347E+01 -0.81111107576E+02 -0.20151098249E+02  0.83588804066E+02  0.00000000000E+00 0. -1.
         -3    1    6    6    0  501 -0.43249103090E+02 -0.68012836018E+01 -0.26601759262E+02  0.51228858786E+02  0.00000000000E+00 0.  1.
          5    1    5    5  502    0 -0.32903970952E+02 -0.61073318945E+02  0.81356065229E+02  0.10702112381E+03  0.47000000000E+01 0. -1.
         11    1    4    4    0    0  0.35860312842E+02 -0.16352801614E+02  0.66588477536E+02  0.77378301212E+02  0.00000000000E+00 0. -1.
        -12    1    4    4    0    0  0.45393808154E+02  0.77348665988E+02  0.14704827627E+03  0.17223997649E+03  0.00000000000E+00 0.  1.
         -5    1    3    3    0  504 -0.65186619895E+01  0.87989845749E+02  0.41928089166E+02  0.97799593917E+02  0.47000000000E+01 0.  1.
<mgrwt>
<rscale>  2 0.23834191E+03</rscale>
<asrwt>0</asrwt>
<pdfrwt beam="1">  1       21 0.67648054E-01 0.23935041E+03</pdfrwt>
<pdfrwt beam="2">  1       21 0.23006816E-01 0.23935041E+03</pdfrwt>
<totfact> 0.34613367E+04</totfact>
</mgrwt>
</event>
<event>
12    1  0.1410528E-001  0.1770076E+03  0.7546771E-02  0.1170947E+00
         21   -1    0    0  502  503  0.00000000000E+00  0.00000000000E+00  0.21827587233E+03  0.21827587233E+03  0.00000000000E+00 0.  1.
         21   -1    0    0  503  504 -0.00000000000E+00 -0.00000000000E+00 -0.16558834099E+03  0.16558834099E+03  0.00000000000E+00 0.  1.
         -6    2    1    2    0  504  0.31312019469E+02  0.66991893705E+01 -0.44859502104E+02  0.18175755850E+03  0.17319963465E+03 0.  0.
        -24    2    3    3    0    0  0.20193188951E+02 -0.63666608834E+02 -0.19765849343E+02  0.10608222991E+03  0.80009679049E+02 0.  0.
          6    2    1    2  502    0 -0.31312019469E+02 -0.66991893705E+01  0.97547033444E+02  0.20210665481E+03  0.17408720368E+03 0.  0.
         24    2    5    5    0    0 -0.71806856906E+02  0.25338555096E+02  0.10327632928E+03  0.14994187972E+03  0.77577703183E+02 0.  0.
          2    1    6    6  501    0 -0.63650682045E+02  0.47027620727E+02  0.98376699483E+02  0.12625759952E+03  0.00000000000E+00 0. -1.
         -1    1    6    6    0  501 -0.81561748614E+01 -0.21689065631E+02  0.48996297972E+01  0.23684280197E+02  0.00000000000E+00 0.  1.
          5    1    5    5  502    0  0.40494837437E+02 -0.32037744466E+02 -0.57292958361E+01  0.52164775091E+02  0.47000000000E+01 0. -1.
         11    1    4    4    0    0 -0.26386735543E+02 -0.25075945513E+02  0.11256307702E+02  0.38102064499E+02  0.00000000000E+00 0. -1.
        -12    1    4    4    0    0  0.46579924493E+02 -0.38590663321E+02 -0.31022157045E+02  0.67980165409E+02  0.00000000000E+00 0.  1.
         -5    1    3    3    0  504  0.11118830519E+02  0.70365798205E+02 -0.25093652761E+02  0.75675328595E+02  0.47000000000E+01 0.  1.
<mgrwt>
<rscale>  2 0.17678894E+03</rscale>
<asrwt>0</asrwt>
<pdfrwt beam="1">  1       21 0.33580903E-01 0.17700756E+03</pdfrwt>
<pdfrwt beam="2">  1       21 0.25475129E-01 0.17700756E+03</pdfrwt>
<totfact> 0.12548181E+05</totfact>
</mgrwt>
</event>
<event>
12    1  0.1410528E-001  0.2275417E+03  0.7546771E-02  0.1128446E+00
         21   -1    0    0  502  503  0.00000000000E+00  0.00000000000E+00  0.64129485434E+02  0.64129485434E+02  0.00000000000E+00 0. -1.
         21   -1    0    0  503  504 -0.00000000000E+00 -0.00000000000E+00 -0.10421928626E+04  0.10421928626E+04  0.00000000000E+00 0. -1.
         -6    2    1    2    0  504 -0.10773997906E+03 -0.10107811711E+03 -0.75202051584E+03  0.78558786284E+03  0.17259416317E+03 0.  0.
        -24    2    3    3    0    0 -0.44368821878E+02 -0.12720891500E+03 -0.59878743717E+03  0.61765576776E+03  0.69293232893E+02 0.  0.
          6    2    1    2  502    0  0.10773997906E+03  0.10107811711E+03 -0.22604286133E+03  0.32073448519E+03  0.17306226043E+03 0.  0.
         24    2    5    5    0    0  0.55565271861E+02  0.43000906193E+02 -0.31370329992E+02  0.11093780515E+03  0.79915715832E+02 0.  0.
          2    1    6    6  501    0  0.22129293200E+02  0.63436682030E+02 -0.18384539619E+02  0.69655649746E+02  0.00000000000E+00 0. -1.
         -1    1    6    6    0  501  0.33435978661E+02 -0.20435775837E+02 -0.12985790373E+02  0.41282155403E+02  0.00000000000E+00 0.  1.
          5    1    5    5  502    0  0.52174707198E+02  0.58077210918E+02 -0.19467253133E+03  0.20979668004E+03  0.47000000000E+01 0. -1.
         11    1    4    4    0    0 -0.56944713480E+02 -0.10441937839E+03 -0.40421648007E+03  0.42135148005E+03  0.00000000000E+00 0. -1.
        -12    1    4    4    0    0  0.12575891602E+02 -0.22789536614E+02 -0.19457095709E+03  0.19630428771E+03  0.00000000000E+00 0.  1.
         -5    1    3    3    0  504 -0.63371157181E+02  0.26130797894E+02 -0.15323307867E+03  0.16793209508E+03  0.47000000000E+01 0.  1.
<mgrwt>
<rscale>  2 0.22745271E+03</rscale>
<asrwt>0</asrwt>
<pdfrwt beam="1">  1       21 0.98660751E-02 0.22754172E+03</pdfrwt>
<pdfrwt beam="2">  1       21 0.16033736E+00 0.22754172E+03</pdfrwt>
<totfact> 0.20326847E+04</totfact>
</mgrwt>
</event>
<event>
12    1  0.1410528E-001  0.1910243E+03  0.7546771E-02  0.1157678E+00
         21   -1    0    0  502  503  0.00000000000E+00  0.00000000000E+00  0.76112249500E+02  0.76112249500E+02  0.00000000000E+00 0. -1.
         21   -1    0    0  503  504 -0.00000000000E+00 -0.00000000000E+00 -0.68567931705E+03  0.68567931705E+03  0.00000000000E+00 0. -1.
         -6    2    1    2    0  504 -0.24181312214E+02  0.77630904353E+02 -0.51412273179E+03  0.54825025845E+03  0.17217685496E+03 0.  0.
        -24    2    3    3    0    0 -0.77243411486E+02  0.28963578071E+02 -0.35435934445E+03  0.37294901784E+03  0.81945051330E+02 0.  0.
          6    2    1    2  502    0  0.24181312214E+02 -0.77630904353E+02 -0.95444335761E+02  0.21354130809E+03  0.17285536110E+03 0.  0.
         24    2    5    5    0    0 -0.90610969202E+01 -0.88186474945E+02 -0.88332082773E+01  0.12005304552E+03  0.80472046879E+02 0.  0.
          4    1    6    6  501    0 -0.20963180623E+02 -0.61035296894E+02  0.30024952228E+02  0.71177666196E+02  0.00000000000E+00 0. -1.
         -3    1    6    6    0  501  0.11902083703E+02 -0.27151178051E+02 -0.38858160505E+02  0.48875379322E+02  0.00000000000E+00 0.  1.
          5    1    5    5  502    0  0.33242409134E+02  0.10555570592E+02 -0.86611127483E+02  0.93488262576E+02  0.47000000000E+01 0. -1.
         11    1    4    4    0    0 -0.54260144636E+02  0.55664256981E+02 -0.19896631425E+03  0.21361242241E+03  0.00000000000E+00 0. -1.
        -12    1    4    4    0    0 -0.22983266850E+02 -0.26700678910E+02 -0.15539303020E+03  0.15933659543E+03  0.00000000000E+00 0.  1.
         -5    1    3    3    0  504  0.53062099272E+02  0.48667326282E+02 -0.15976338734E+03  0.17530124062E+03  0.47000000000E+01 0.  1.
<mgrwt>
<rscale>  2 0.19087064E+03</rscale>
<asrwt>0</asrwt>
<pdfrwt beam="1">  1       21 0.11709577E-01 0.19102426E+03</pdfrwt>
<pdfrwt beam="2">  1       21 0.10548913E+00 0.19102426E+03</pdfrwt>
<totfact> 0.44334463E+04</totfact>
</mgrwt>
</event>
<event>
12    1  0.1410528E-001  0.1820641E+03  0.7546771E-02  0.1165987E+00
         21   -1    0    0  502  503  0.00000000000E+00  0.00000000000E+00  0.33621390958E+03  0.33621390958E+03  0.00000000000E+00 0.  1.
         21   -1    0    0  503  504 -0.00000000000E+00 -0.00000000000E+00 -0.99336798193E+02  0.99336798193E+02  0.00000000000E+00 0.  1.
         -6    2    1    2    0  504  0.34521014104E+02 -0.43038658825E+02  0.14182743708E+03  0.23078640594E+03  0.17350307401E+03 0.  0.
        -24    2    3    3    0    0  0.48924791674E+02 -0.38824800749E+02  0.14027814097E+02  0.10202282786E+03  0.79441031223E+02 0.  0.
          6    2    1    2  502    0 -0.34521014104E+02  0.43038658825E+02  0.95049674314E+02  0.20476430183E+03  0.17277138695E+03 0.  0.
         24    2    5    5    0    0 -0.73760089560E+02  0.67404474605E+02  0.43082616380E+02  0.13507884330E+03  0.80039165807E+02 0.  0.
          4    1    6    6  501    0 -0.35560268652E+01  0.39657068166E+02 -0.12051369634E+02  0.41600046786E+02  0.00000000000E+00 0. -1.
         -3    1    6    6    0  501 -0.70204062695E+02  0.27747406439E+02  0.55133986014E+02  0.93478796509E+02  0.00000000000E+00 0.  1.
          5    1    5    5  502    0  0.39239075456E+02 -0.24365815780E+02  0.51967057934E+02  0.69685458537E+02  0.47000000000E+01 0. -1.
         11    1    4    4    0    0 -0.18231082845E+02 -0.20745402773E+02  0.16967874671E+02  0.32413776219E+02  0.00000000000E+00 0. -1.
        -12    1    4    4    0    0  0.67155874519E+02 -0.18079397976E+02 -0.29400605745E+01  0.69609051637E+02  0.00000000000E+00 0.  1.
         -5    1    3    3    0  504 -0.14403777571E+02 -0.42138580763E+01  0.12779962298E+03  0.12876357809E+03  0.47000000000E+01 0.  1.
<mgrwt>
<rscale>  2 0.18188958E+03</rscale>
<asrwt>0</asrwt>
<pdfrwt beam="1">  1       21 0.51725216E-01 0.18206412E+03</pdfrwt>
<pdfrwt beam="2">  1       21 0.15282584E-01 0.18206412E+03</pdfrwt>
<totfact> 0.13507196E+05</totfact>
</mgrwt>
</event>
<event>
12    1  0.1410528E-001  0.2025200E+03  0.7546771E-02  0.1147919E+00
         21   -1    0    0  502  503  0.00000000000E+00  0.00000000000E+00  0.33672764845E+03  0.33672764845E+03  0.00000000000E+00 0. -1.
         21   -1    0    0  503  504 -0.00000000000E+00 -0.00000000000E+00 -0.24997618617E+04  0.24997618617E+04  0.00000000000E+00 0. -1.
         -6    2    1    2    0  504  0.34215067611E+02 -0.98182223449E+02 -0.24648398346E+04  0.24730325334E+04  0.17217456645E+03 0.  0.
        -24    2    3    3    0    0  0.38059647575E+02 -0.10592855118E+03 -0.24556674716E+04  0.24595785886E+04  0.80961149021E+02 0.  0.
          6    2    1    2  502    0 -0.34215067611E+02  0.98182223449E+02  0.30180562130E+03  0.36345697676E+03  0.17379275317E+03 0.  0.
         24    2    5    5    0    0  0.31541542776E+02  0.56441602063E+02  0.24732923153E+03  0.26829407261E+03  0.81421356323E+02 0.  0.
          4    1    6    6  501    0  0.13075747385E+02  0.75619012664E+02  0.17024408743E+03  0.18674115655E+03  0.00000000000E+00 0. -1.
         -3    1    6    6    0  501  0.18465795392E+02 -0.19177410601E+02  0.77085144103E+02  0.81552916062E+02  0.00000000000E+00 0.  1.
          5    1    5    5  502    0 -0.65756610387E+02  0.41740621386E+02  0.54476389775E+02  0.95162904150E+02  0.47000000000E+01 0. -1.
         11    1    4    4    0    0  0.57675407718E+02 -0.97111992774E+02 -0.17873554210E+04  0.17909205992E+04  0.00000000000E+00 0. -1.
        -12    1    4    4    0    0 -0.19615760143E+02 -0.88165584012E+01 -0.66831205063E+03  0.66865798938E+03  0.00000000000E+00 0.  1.
         -5    1    3    3    0  504 -0.38445799648E+01  0.77463277266E+01 -0.91723629455E+01  0.13453944788E+02  0.47000000000E+01 0.  1.
<mgrwt>
<rscale>  2 0.20217235E+03</rscale>
<asrwt>0</asrwt>
<pdfrwt beam="1">  1       21 0.51804252E-01 0.20251998E+03</pdfrwt>
<pdfrwt beam="2">  1       21 0.38457876E+00 0.20251998E+03</pdfrwt>
<totfact> 0.37665467E+01</totfact>
</mgrwt>
</event>
<event>
12    1  0.1410528E-001  0.2182252E+03  0.7546771E-02  0.1136006E+00
         21   -1    0    0  502  503  0.00000000000E+00  0.00000000000E+00  0.36657788106E+03  0.36657788106E+03  0.00000000000E+00 0.  1.
         21   -1    0    0  503  504 -0.00000000000E+00 -0.00000000000E+00 -0.17190520039E+03  0.17190520039E+03  0.00000000000E+00 0.  1.
         -6    2    1    2    0  504  0.11795743378E+03  0.59352378595E+02 -0.38891999569E+02  0.22166372952E+03  0.17373992151E+03 0.  0.
        -24    2    3    3    0    0  0.11038494870E+03  0.42580624593E+02 -0.88527475311E+02  0.16851860073E+03  0.81015173987E+02 0.  0.
          6    2    1    2  502    0 -0.11795743378E+03 -0.59352378595E+02  0.23356468024E+03  0.31681935192E+03  0.16847961559E+03 0.  0.
         24    2    5    5    0    0 -0.14204035528E+03 -0.57137684400E+02  0.23665300364E+03  0.29198953679E+03  0.76243478137E+02 0.  0.
          2    1    6    6  501    0 -0.77553604095E+02 -0.61510712537E+02  0.18271675896E+03  0.20780650439E+03  0.00000000000E+00 0. -1.
         -1    1    6    6    0  501 -0.64486751183E+02  0.43730281375E+01  0.53936244683E+02  0.84183032398E+02  0.00000000000E+00 0.  1.
          5    1    5    5  502    0  0.24082921494E+02 -0.22146941950E+01 -0.30883234030E+01  0.24829815132E+02  0.47000000000E+01 0. -1.
         11    1    4    4    0    0 -0.69752276867E+01  0.15435176471E+02 -0.30327555082E+02  0.34736998593E+02  0.00000000000E+00 0. -1.
        -12    1    4    4    0    0  0.11736017638E+03  0.27145448122E+02 -0.58199920228E+02  0.13378160213E+03  0.00000000000E+00 0.  1.
         -5    1    3    3    0  504  0.75724850859E+01  0.16771754001E+02  0.49635475742E+02  0.53145128796E+02  0.47000000000E+01 0.  1.
<mgrwt>
<rscale>  2 0.21717655E+03</rscale>
<asrwt>0</asrwt>
<pdfrwt beam="1">  1       21 0.56396597E-01 0.21822516E+03</pdfrwt>
<pdfrwt beam="2">  1       21 0.26446954E-01 0.21822516E+03</pdfrwt>
<totfact> 0.39708634E+04</totfact>
</mgrwt>
</event>
<event>
12    1  0.1410528E-001  0.2247141E+03  0.7546771E-02  0.1131574E+00
         21   -1    0    0  502  503  0.00000000000E+00  0.00000000000E+00  0.10240404215E+03  0.10240404215E+03  0.00000000000E+00 0.  1.
         21   -1    0    0  503  504 -0.00000000000E+00 -0.00000000000E+00 -0.10008240866E+04  0.10008240866E+04  0.00000000000E+00 0. -1.
         -6    2    1    2    0  504  0.93800862368E+01 -0.13262187138E+03 -0.84428907169E+03  0.87208624881E+03  0.17330274667E+03 0.  0.
        -24    2    3    3    0    0  0.29111800201E+02 -0.29415096123E+01 -0.38979665400E+03  0.39901988507E+03  0.80120458201E+02 0.  0.
          6    2    1    2  502    0 -0.93800862368E+01  0.13262187138E+03 -0.54130972714E+02  0.23114187989E+03  0.18116252275E+03 0.  0.
         24    2    5    5    0    0  0.63558049100E+02  0.10226919405E+03 -0.45373981351E+02  0.15151756511E+03  0.80001004338E+02 0.  0.
          2    1    6    6  501    0  0.49608713439E+02  0.10220396125E+03 -0.62312525917E+02  0.12957439959E+03  0.00000000000E+00 0. -1.
         -1    1    6    6    0  501  0.13949335660E+02  0.65232800998E-01  0.16938544566E+02  0.21943165512E+02  0.00000000000E+00 0.  1.
          5    1    5    5  502    0 -0.72938135336E+02  0.30352677327E+02 -0.87569913629E+01  0.79624314785E+02  0.47000000000E+01 0. -1.
         13    1    4    4    0    0  0.50782370008E+02  0.42571269752E+01 -0.34495433578E+03  0.34869824492E+03  0.00000000000E+00 0. -1.
        -14    1    4    4    0    0 -0.21670569808E+02 -0.71986365874E+01 -0.44842318216E+02  0.50321640151E+02  0.00000000000E+00 0.  1.
         -5    1    3    3    0  504 -0.19731713964E+02 -0.12968036177E+03 -0.45449241769E+03  0.47306636374E+03  0.47000000000E+01 0.  1.
<mgrwt>
<rscale>  2 0.22312555E+03</rscale>
<asrwt>0</asrwt>
<pdfrwt beam="1">  1       21 0.15754468E-01 0.22471405E+03</pdfrwt>
<pdfrwt beam="2">  1       21 0.15397293E+00 0.22471405E+03</pdfrwt>
<totfact> 0.97737211E+03</totfact>
</mgrwt>
</event>
<event>
12    1  0.1410528E-001  0.2255021E+03  0.7546771E-02  0.1129944E+00
         21   -1    0    0  502  503  0.00000000000E+00  0.00000000000E+00  0.11358679367E+04  0.11358679367E+04  0.00000000000E+00 0. -1.
         21   -1    0    0  503  504 -0.00000000000E+00 -0.00000000000E+00 -0.12652011180E+03  0.12652011180E+03  0.00000000000E+00 0. -1.
         -6    2    1    2    0  504 -0.30764617297E+02  0.14178744414E+03 -0.28223426970E+01  0.22551973911E+03  0.17262979499E+03 0.  0.
        -24    2    3    3    0    0 -0.68214706492E+02  0.34776597629E+02 -0.12065559588E+02  0.11167178125E+03  0.80388749675E+02 0.  0.
          6    2    1    2  502    0  0.30764617297E+02 -0.14178744414E+03  0.10121701676E+04  0.10368683094E+04  0.17192237153E+03 0.  0.
         24    2    5    5    0    0 -0.92245830754E+01 -0.13207918410E+03  0.94739631306E+03  0.95998444442E+03  0.80500656688E+02 0.  0.
          2    1    6    6  501    0 -0.14122522126E+02 -0.14178273238E+03  0.90819622695E+03  0.91930526784E+03  0.00000000000E+00 0. -1.
         -1    1    6    6    0  501  0.48979390504E+01  0.97035482860E+01  0.39200086108E+02  0.40679176579E+02  0.00000000000E+00 0.  1.
          5    1    5    5  502    0  0.39989200373E+02 -0.97082600434E+01  0.64773854533E+02  0.76883864956E+02  0.47000000000E+01 0. -1.
         11    1    4    4    0    0 -0.39462364209E+02  0.50319415133E+02 -0.33887640542E+02  0.72371913819E+02  0.00000000000E+00 0. -1.
        -12    1    4    4    0    0 -0.28752342283E+02 -0.15542817504E+02  0.21822080954E+02  0.39299867428E+02  0.00000000000E+00 0.  1.
         -5    1    3    3    0  504  0.37450089194E+02  0.10701084651E+03  0.92432168910E+01  0.11384795786E+03  0.47000000000E+01 0.  1.
<mgrwt>
<rscale>  2 0.22536668E+03</rscale>
<asrwt>0</asrwt>
<pdfrwt beam="1">  1       21 0.17474891E+00 0.22550208E+03</pdfrwt>
<pdfrwt beam="2">  1       21 0.19464633E-01 0.22550208E+03</pdfrwt>
<totfact> 0.46696008E+03</totfact>
</mgrwt>
</event>
<event>
12    1  0.1410528E-001  0.1769137E+03  0.7546771E-02  0.1171356E+00
         21   -1    0    0  502  503  0.00000000000E+00  0.00000000000E+00  0.16505557835E+03  0.16505557835E+03  0.00000000000E+00 0. -1.
         21   -1    0    0  503  504 -0.00000000000E+00 -0.00000000000E+00 -0.20299521612E+03  0.20299521612E+03  0.00000000000E+00 0. -1.
         -6    2    1    2    0  504  0.17476871820E+02  0.14976057850E+02 -0.69965385645E+02  0.18826168960E+03  0.17325583749E+03 0.  0.
        -24    2    3    3    0    0 -0.17070167205E+01  0.97365449640E+01 -0.11420062363E+03  0.13953469139E+03  0.79564021083E+02 0.  0.
          6    2    1    2  502    0 -0.17476871820E+02 -0.14976057850E+02  0.32025747875E+02  0.17978910487E+03  0.17541023444E+03 0.  0.
         24    2    5    5    0    0 -0.59739530962E+02 -0.67748759919E+02  0.19130245917E+02  0.11080016074E+03  0.61253598110E+02 0.  0.
          2    1    6    6  501    0 -0.52233924789E+02 -0.20006707514E+02  0.26532378417E+02  0.61908144447E+02  0.00000000000E+00 0. -1.
         -1    1    6    6    0  501 -0.75056061737E+01 -0.47742052405E+02 -0.74021324994E+01  0.48892016296E+02  0.00000000000E+00 0.  1.
          5    1    5    5  502    0  0.42262659143E+02  0.52772702070E+02  0.12895501957E+02  0.68988944131E+02  0.47000000000E+01 0. -1.
         13    1    4    4    0    0 -0.28436312325E+02  0.18133472361E+02 -0.10462468514E+03  0.10992620897E+03  0.00000000000E+00 0. -1.
        -14    1    4    4    0    0  0.26729295605E+02 -0.83969273972E+01 -0.95759384883E+01  0.29608482419E+02  0.00000000000E+00 0.  1.
         -5    1    3    3    0  504  0.19183888540E+02  0.52395128858E+01  0.44235237982E+02  0.48726998206E+02  0.47000000000E+01 0.  1.
<mgrwt>
<rscale>  2 0.17637735E+03</rscale>
<asrwt>0</asrwt>
<pdfrwt beam="1">  1       21 0.25393166E-01 0.17691375E+03</pdfrwt>
<pdfrwt beam="2">  1       21 0.31230033E-01 0.17691375E+03</pdfrwt>
<totfact> 0.14558417E+05</totfact>
</mgrwt>
</event>
<event>
12    1  0.1410528E-001  0.2096156E+03  0.7546771E-02  0.1142060E+00
         21   -1    0    0  502  503  0.00000000000E+00  0.00000000000E+00  0.72479951028E+03  0.72479951028E+03  0.00000000000E+00 0.  1.
         21   -1    0    0  503  504 -0.00000000000E+00 -0.00000000000E+00 -0.11530116952E+03  0.11530116952E+03  0.00000000000E+00 0.  1.
         -6    2    1    2    0  504 -0.84589516720E+02  0.80483827045E+02  0.14397769372E+02  0.20916217660E+03  0.17294070545E+03 0.  0.
        -24    2    3    3    0    0 -0.10048191699E+03  0.63693510271E+02  0.61603177369E+02  0.15638980060E+03  0.80680477058E+02 0.  0.
          6    2    1    2  502    0  0.84589516720E+02 -0.80483827045E+02  0.59510057139E+03  0.63093850320E+03  0.17408524347E+03 0.  0.
         24    2    5    5    0    0  0.12545039095E+03 -0.74937336557E+02  0.50152097679E+03  0.52856856071E+03  0.80672350966E+02 0.  0.
          2    1    6    6  501    0  0.10038054275E+03 -0.23724291500E+02  0.24574567818E+03  0.26651460319E+03  0.00000000000E+00 0. -1.
         -1    1    6    6    0  501  0.25069848204E+02 -0.51213045057E+02  0.25577529860E+03  0.26205395751E+03  0.00000000000E+00 0.  1.
          5    1    5    5  502    0 -0.40860874231E+02 -0.55464904879E+01  0.93579594606E+02  0.10236994249E+03  0.47000000000E+01 0. -1.
         11    1    4    4    0    0 -0.32352538976E+01  0.93194882229E+01  0.42149475755E+02  0.43288543923E+02  0.00000000000E+00 0. -1.
        -12    1    4    4    0    0 -0.97246663094E+02  0.54374022048E+02  0.19453701614E+02  0.11310125668E+03  0.00000000000E+00 0.  1.
         -5    1    3    3    0  504  0.15892400271E+02  0.16790316774E+02 -0.47205407997E+02  0.52772375993E+02  0.47000000000E+01 0.  1.
<mgrwt>
<rscale>  2 0.20937782E+03</rscale>
<asrwt>0</asrwt>
<pdfrwt beam="1">  1       21 0.11150761E+00 0.20961561E+03</pdfrwt>
<pdfrwt beam="2">  1       21 0.17738642E-01 0.20961561E+03</pdfrwt>
<totfact> 0.18031856E+04</totfact>
</mgrwt>
</event>
<event>
12    1  0.1410528E-001  0.2337655E+03  0.7546771E-02  0.1125269E+00
         21   -1    0    0  502  503  0.00000000000E+00  0.00000000000E+00  0.40461097435E+03  0.40461097435E+03  0.00000000000E+00 0.  1.
         21   -1    0    0  503  504 -0.00000000000E+00 -0.00000000000E+00 -0.18704513233E+03  0.18704513233E+03  0.00000000000E+00 0. -1.
         -6    2    1    2    0  504 -0.11518725626E+03 -0.91653400905E+02 -0.54372450868E+02  0.23305221703E+03  0.17230357671E+03 0.  0.
        -24    2    3    3    0    0 -0.80248344057E+02 -0.12364529553E+03 -0.71119273416E+02  0.18258683312E+03  0.80944701786E+02 0.  0.
          6    2    1    2  502    0  0.11518725626E+03  0.91653400905E+02  0.27193829289E+03  0.35860388966E+03  0.18159808545E+03 0.  0.
         24    2    5    5    0    0  0.15630817057E+03  0.79567576865E+02  0.22724859558E+03  0.29650513136E+03  0.74230217933E+02 0.  0.
          4    1    6    6  501    0  0.51208789467E+02  0.52161911516E+02  0.49780495117E+02  0.88438129932E+02  0.00000000000E+00 0. -1.
         -3    1    6    6    0  501  0.10509938110E+03  0.27405665349E+02  0.17746810046E+03  0.20806700143E+03  0.00000000000E+00 0.  1.
          5    1    5    5  502    0 -0.41120914313E+02  0.12085824040E+02  0.44689697308E+02  0.62098758298E+02  0.47000000000E+01 0. -1.
         11    1    4    4    0    0 -0.45738911766E+02 -0.28855755991E+02 -0.60508972571E+02  0.81154411248E+02  0.00000000000E+00 0. -1.
        -12    1    4    4    0    0 -0.34509432291E+02 -0.94789539538E+02 -0.10610300844E+02  0.10143242187E+03  0.00000000000E+00 0.  1.
         -5    1    3    3    0  504 -0.34938912200E+02  0.31991894625E+02  0.16746822548E+02  0.50465383907E+02  0.47000000000E+01 0.  1.
<mgrwt>
<rscale>  2 0.23195848E+03</rscale>
<asrwt>0</asrwt>
<pdfrwt beam="1">  1       21 0.62247842E-01 0.23376551E+03</pdfrwt>
<pdfrwt beam="2">  1       21 0.28776174E-01 0.23376551E+03</pdfrwt>
<totfact> 0.27061520E+04</totfact>
</mgrwt>
</event>
<event>
12    1  0.1410528E-001  0.2035628E+03  0.7546771E-02  0.1147613E+00
         21   -1    0    0  502  503  0.00000000000E+00  0.00000000000E+00  0.11053550055E+03  0.11053550055E+03  0.00000000000E+00 0.  1.
         21   -1    0    0  503  504 -0.00000000000E+00 -0.00000000000E+00 -0.37409701764E+03  0.37409701764E+03  0.00000000000E+00 0.  1.
         -6    2    1    2    0  504  0.97809623848E+02 -0.32578641752E+02 -0.16278918412E+03  0.25749183118E+03  0.17080291053E+03 0.  0.
        -24    2    3    3    0    0  0.53245568537E+02  0.47523390881E+02 -0.10660708235E+03  0.14987766289E+03  0.77489874035E+02 0.  0.
          6    2    1    2  502    0 -0.97809623848E+02  0.32578641752E+02 -0.10077233297E+03  0.22714068701E+03  0.17552702979E+03 0.  0.
         24    2    5    5    0    0 -0.13128360398E+03  0.35487729636E+02 -0.10940940171E+03  0.19213127264E+03  0.80307192194E+02 0.  0.
          4    1    6    6  501    0 -0.44226839225E+02  0.38612240909E+02 -0.81916369412E+02  0.10078298484E+03  0.00000000000E+00 0. -1.
         -3    1    6    6    0  501 -0.87056764751E+02 -0.31245112729E+01 -0.27493032294E+02  0.91348287801E+02  0.00000000000E+00 0.  1.
          5    1    5    5  502    0  0.33473980127E+02 -0.29090878842E+01  0.86370687378E+01  0.35009414366E+02  0.47000000000E+01 0. -1.
         11    1    4    4    0    0 -0.31022521199E+01 -0.40057358531E+01  0.95851581245E+01  0.10841823842E+02  0.00000000000E+00 0. -1.
        -12    1    4    4    0    0  0.56347820657E+02  0.51529126734E+02 -0.11619224047E+03  0.13903583905E+03  0.00000000000E+00 0.  1.
         -5    1    3    3    0  504  0.44564055311E+02 -0.80102032633E+02 -0.56182101771E+02  0.10761416829E+03  0.47000000000E+01 0.  1.
<mgrwt>
<rscale>  2 0.20254037E+03</rscale>
<asrwt>0</asrwt>
<pdfrwt beam="1">  1       21 0.17005462E-01 0.20356284E+03</pdfrwt>
<pdfrwt beam="2">  1       21 0.57553388E-01 0.20356284E+03</pdfrwt>
<totfact> 0.87911026E+04</totfact>
</mgrwt>
</event>
<event>
12    1  0.1410528E-001  0.2385806E+03  0.7546771E-02  0.1120777E+00
         21   -1    0    0  502  503  0.00000000000E+00  0.00000000000E+00  0.34939722565E+03  0.34939722565E+03  0.00000000000E+00 0.  1.
         21   -1    0    0  503  504 -0.00000000000E+00 -0.00000000000E+00 -0.41021671380E+03  0.41021671380E+03  0.00000000000E+00 0.  1.
         -6    2    1    2    0  504 -0.11264417611E+03  0.12061573461E+03 -0.32539926897E+03  0.40349151329E+03  0.17229002062E+03 0.  0.
        -24    2    3    3    0    0 -0.63132885834E+02  0.20070020858E+02 -0.71714509080E+02  0.12611297083E+03  0.79830718319E+02 0.  0.
          6    2    1    2  502    0  0.11264417611E+03 -0.12061573461E+03  0.26457978081E+03  0.35612242616E+03  0.17199958184E+03 0.  0.
         24    2    5    5    0    0  0.11266201905E+03 -0.72171926904E+02  0.26449639107E+03  0.30745108164E+03  0.81647468708E+02 0.  0.
          4    1    6    6  501    0  0.52871174839E+02 -0.57557916166E+02  0.21403904306E+03  0.22786177125E+03  0.00000000000E+00 0. -1.
         -3    1    6    6    0  501  0.59790844209E+02 -0.14614010738E+02  0.50457348005E+02  0.79589310392E+02  0.00000000000E+00 0.  1.
          5    1    5    5  502    0 -0.17842939021E-01 -0.48443807709E+02  0.83389746204E-01  0.48671344521E+02  0.47000000000E+01 0. -1.
         11    1    4    4    0    0 -0.21859619910E+02 -0.31070364578E+02 -0.27745415641E+02  0.47042731922E+02  0.00000000000E+00 0. -1.
        -12    1    4    4    0    0 -0.41273265924E+02  0.51140385437E+02 -0.43969093438E+02  0.79070238905E+02  0.00000000000E+00 0.  1.
         -5    1    3    3    0  504 -0.49511290275E+02  0.10054571375E+03 -0.25368475989E+03  0.27737854246E+03  0.47000000000E+01 0.  1.
<mgrwt>
<rscale>  2 0.23852820E+03</rscale>
<asrwt>0</asrwt>
<pdfrwt beam="1">  1       21 0.53753420E-01 0.23858063E+03</pdfrwt>
<pdfrwt beam="2">  1       21 0.63110263E-01 0.23858063E+03</pdfrwt>
<totfact> 0.73751858E+03</totfact>
</mgrwt>
</event>
<event>
12    1  0.1410528E-001  0.1776060E+03  0.7546771E-02  0.1170208E+00
         21   -1    0    0  502  503  0.00000000000E+00  0.00000000000E+00  0.23648926068E+04  0.23648926068E+04  0.00000000000E+00 0.  1.
         21   -1    0    0  503  504 -0.00000000000E+00 -0.00000000000E+00 -0.18435109471E+03  0.18435109471E+03  0.00000000000E+00 0.  1.
         -6    2    1    2    0  504  0.56838854096E+01  0.39229621345E+02 -0.13750796563E+03  0.22440020865E+03  0.17284601033E+03 0.  0.
        -24    2    3    3    0    0  0.14303537475E+02  0.15346819787E+02  0.18959923343E+01  0.82624893068E+02  0.79894693852E+02 0.  0.
          6    2    1    2  502    0 -0.56838854096E+01 -0.39229621345E+02  0.23180494777E+04  0.23248434928E+04  0.17312600995E+03 0.  0.
         24    2    5    5    0    0  0.16497049439E+02  0.23608157680E+02  0.18499860247E+04  0.18520369083E+04  0.82236976724E+02 0.  0.
          4    1    6    6  501    0 -0.32408357076E+02 -0.13715870158E+00  0.77431686336E+03  0.77499479050E+03  0.00000000000E+00 0. -1.
         -3    1    6    6    0  501  0.48905406514E+02  0.23745316382E+02  0.10756691613E+04  0.10770421178E+04  0.00000000000E+00 0.  1.
          5    1    5    5  502    0 -0.22180934848E+02 -0.62837779025E+02  0.46806345302E+03  0.47280658455E+03  0.47000000000E+01 0. -1.
         13    1    4    4    0    0  0.23802549371E+02 -0.28706357459E+02 -0.23160644696E+01  0.37362822026E+02  0.00000000000E+00 0. -1.
        -14    1    4    4    0    0 -0.94990118959E+01  0.44053177246E+02  0.42120568039E+01  0.45262071042E+02  0.00000000000E+00 0.  1.
         -5    1    3    3    0  504 -0.86196520655E+01  0.23882801558E+02 -0.13940395797E+03  0.14177531558E+03  0.47000000000E+01 0.  1.
<mgrwt>
<rscale>  2 0.17753771E+03</rscale>
<asrwt>0</asrwt>
<pdfrwt beam="1">  1       21 0.36382961E+00 0.17760598E+03</pdfrwt>
<pdfrwt beam="2">  1       21 0.28361709E-01 0.17760598E+03</pdfrwt>
<totfact> 0.17671812E+02</totfact>
</mgrwt>
</event>
<event>
12    1  0.1410528E-001  0.2181838E+03  0.7546771E-02  0.1135534E+00
         21   -1    0    0  502  503  0.00000000000E+00  0.00000000000E+00  0.91812958619E+03  0.91812958619E+03  0.00000000000E+00 0. -1.
         21   -1    0    0  503  504 -0.00000000000E+00 -0.00000000000E+00 -0.14902801362E+03  0.14902801362E+03  0.00000000000E+00 0. -1.
         -6    2    1    2    0  504  0.12421243165E+03  0.47006011983E+02 -0.47595677719E+02  0.22181827976E+03  0.17117157286E+03 0.  0.
        -24    2    3    3    0    0  0.14883270120E+03  0.58373026782E+02 -0.57495598988E+02  0.19256994409E+03  0.90657907873E+02 0.  0.
          6    2    1    2  502    0 -0.12421243165E+03 -0.47006011983E+02  0.81669725029E+03  0.84533932005E+03  0.17310653961E+03 0.  0.
         24    2    5    5    0    0  0.56052575818E+00 -0.42414005667E+02  0.40152973388E+03  0.41177786639E+03  0.80843193834E+02 0.  0.
          2    1    6    6  501    0  0.25212322700E+02 -0.40625388386E+02  0.36209060196E+03  0.36523374355E+03  0.00000000000E+00 0. -1.
         -1    1    6    6    0  501 -0.24651796942E+02 -0.17886172808E+01  0.39439131923E+02  0.46544122842E+02  0.00000000000E+00 0.  1.
          5    1    5    5  502    0 -0.12477295741E+03 -0.45920063165E+01  0.41516751641E+03  0.43356145367E+03  0.47000000000E+01 0. -1.
         13    1    4    4    0    0  0.10288581398E+03 -0.77736140513E+01 -0.29678293173E+02  0.10736256740E+03  0.00000000000E+00 0. -1.
        -14    1    4    4    0    0  0.45946887227E+02  0.66146640833E+02 -0.27817305815E+02  0.85207376689E+02  0.00000000000E+00 0.  1.
         -5    1    3    3    0  504 -0.24620269551E+02 -0.11367014798E+02  0.98999212694E+01  0.29248335667E+02  0.47000000000E+01 0.  1.
<mgrwt>
<rscale>  2 0.21779978E+03</rscale>
<asrwt>0</asrwt>
<pdfrwt beam="1">  1       21 0.14125070E+00 0.21818379E+03</pdfrwt>
<pdfrwt beam="2">  1       21 0.22927387E-01 0.21818379E+03</pdfrwt>
<totfact> 0.61206808E+03</totfact>
</mgrwt>
</event>
<event>
12    1  0.1410528E-001  0.1948780E+03  0.7546771E-02  0.1154297E+00
         21   -1    0    0  502  503  0.00000000000E+00  0.00000000000E+00  0.11271009083E+03  0.11271009083E+03  0.00000000000E+00 0. -1.
         21   -1    0    0  503  504 -0.00000000000E+00 -0.00000000000E+00 -0.45149867573E+03  0.45149867573E+03  0.00000000000E+00 0.  1.
         -6    2    1    2    0  504  0.87184333473E+02 -0.20772175200E+02 -0.31204487584E+03  0.36750422984E+03  0.17220558397E+03 0.  0.
        -24    2    3    3    0    0  0.45958879396E+02  0.52301303468E+02 -0.14494198955E+03  0.18046215983E+03  0.81919264259E+02 0.  0.
          6    2    1    2  502    0 -0.87184333473E+02  0.20772175200E+02 -0.26743709060E+02  0.19670453672E+03  0.17304582493E+03 0.  0.
         24    2    5    5    0    0  0.10763765485E+02  0.42206951618E+02  0.22374085236E+01  0.92228343706E+02  0.81263620234E+02 0.  0.
          4    1    6    6  501    0  0.34775323121E+02  0.54539785877E+02  0.60558277691E+01  0.64966024903E+02  0.00000000000E+00 0. -1.
         -3    1    6    6    0  501 -0.24011557636E+02 -0.12332834260E+02 -0.38184192455E+01  0.27262318803E+02  0.00000000000E+00 0.  1.
          5    1    5    5  502    0 -0.97948098958E+02 -0.21434776418E+02 -0.28981117584E+02  0.10447619301E+03  0.47000000000E+01 0. -1.
         11    1    4    4    0    0  0.78669832773E+01  0.66419772726E+02 -0.90682194010E+02  0.11267979386E+03  0.00000000000E+00 0. -1.
        -12    1    4    4    0    0  0.38091896119E+02 -0.14118469258E+02 -0.54259795538E+02  0.67782365966E+02  0.00000000000E+00 0.  1.
         -5    1    3    3    0  504  0.41225454077E+02 -0.73073478668E+02 -0.16710288629E+03  0.18704207001E+03  0.47000000000E+01 0.  1.
<mgrwt>
<rscale>  2 0.19469134E+03</rscale>
<asrwt>0</asrwt>
<pdfrwt beam="1">  1       21 0.17340014E-01 0.19487804E+03</pdfrwt>
<pdfrwt beam="2">  1       21 0.69461334E-01 0.19487804E+03</pdfrwt>
<totfact> 0.56634213E+04</totfact>
</mgrwt>
</event>
<event>
12    1  0.1410528E-001  0.1731507E+03  0.7546771E-02  0.1174994E+00
         21   -1    0    0  502  503  0.00000000000E+00  0.00000000000E+00  0.11230163511E+03  0.11230163511E+03  0.00000000000E+00 0.  1.
         21   -1    0    0  503  504 -0.00000000000E+00 -0.00000000000E+00 -0.35875839810E+03  0.35875839810E+03  0.00000000000E+00 0.  1.
         -6    2    1    2    0  504 -0.35422757513E+02  0.34666365570E+01 -0.24348140622E+03  0.29788372307E+03  0.16788307830E+03 0.  0.
        -24    2    3    3    0    0 -0.38354946208E+02  0.31986835166E+02 -0.56789263547E+02  0.10894445877E+03  0.78419481767E+02 0.  0.
          6    2    1    2  502    0  0.35422757513E+02 -0.34666365570E+01 -0.29753567774E+01  0.17317631014E+03  0.16945321575E+03 0.  0.
         24    2    5    5    0    0 -0.30076177218E+01 -0.38252527952E+02 -0.58762437107E+02  0.96879257039E+02  0.66785213712E+02 0.  0.
          4    1    6    6  501    0 -0.27432035860E+02 -0.65555429564E+01 -0.47612358614E+02  0.55339212388E+02  0.00000000000E+00 0. -1.
         -3    1    6    6    0  501  0.24424418138E+02 -0.31696984996E+02 -0.11150078493E+02  0.41540044651E+02  0.00000000000E+00 0.  1.
          5    1    5    5  502    0  0.38430375234E+02  0.34785891395E+02  0.55787080330E+02  0.76297053105E+02  0.47000000000E+01 0. -1.
         13    1    4    4    0    0  0.17742469348E+02  0.26888398818E+01  0.68363093161E+01  0.19203130045E+02  0.00000000000E+00 0. -1.
        -14    1    4    4    0    0 -0.56097415556E+02  0.29297995284E+02 -0.63625572863E+02  0.89741328728E+02  0.00000000000E+00 0.  1.
         -5    1    3    3    0  504  0.29321886952E+01 -0.28520198609E+02 -0.18669214267E+03  0.18893926430E+03  0.47000000000E+01 0.  1.
<mgrwt>
<rscale>  2 0.17276539E+03</rscale>
<asrwt>0</asrwt>
<pdfrwt beam="1">  1       21 0.17277175E-01 0.17315075E+03</pdfrwt>
<pdfrwt beam="2">  1       21 0.55193599E-01 0.17315075E+03</pdfrwt>
<totfact> 0.94477420E+04</totfact>
</mgrwt>
</event>
<event>
12    1  0.1410528E-001  0.2016309E+03  0.7546771E-02  0.1148560E+00
         21   -1    0    0  502  503  0.00000000000E+00  0.00000000000E+00  0.18227145741E+03  0.18227145741E+03  0.00000000000E+00 0. -1.
         21   -1    0    0  503  504 -0.00000000000E+00 -0.00000000000E+00 -0.25935095935E+03  0.25935095935E+03  0.00000000000E+00 0.  1.
         -6    2    1    2    0  504 -0.18577120048E+01 -0.10713551634E+03 -0.12220974518E+03  0.23500260358E+03  0.16973370885E+03 0.  0.
        -24    2    3    3    0    0  0.63242324642E+02 -0.59267536037E+02 -0.83696143964E+02  0.14536586007E+03  0.81326233809E+02 0.  0.
          6    2    1    2  502    0  0.18577120048E+01  0.10713551634E+03  0.45130243239E+02  0.20661981317E+03  0.17080262991E+03 0.  0.
         24    2    5    5    0    0 -0.12398667157E+02  0.13220267946E+03  0.32444470546E+01  0.15555008695E+03  0.80956949732E+02 0.  0.
          4    1    6    6  501    0 -0.26831686064E+02  0.82403803389E+02  0.36411840559E+02  0.94000788949E+02  0.00000000000E+00 0. -1.
         -3    1    6    6    0  501  0.14433018907E+02  0.49798876073E+02 -0.33167393504E+02  0.61549298004E+02  0.00000000000E+00 0.  1.
          5    1    5    5  502    0  0.14256379162E+02 -0.25067163125E+02  0.41885796184E+02  0.51069726217E+02  0.47000000000E+01 0. -1.
         11    1    4    4    0    0  0.27594909584E+02 -0.51400062412E+02 -0.49245778314E+01  0.58546536343E+02  0.00000000000E+00 0. -1.
        -12    1    4    4    0    0  0.35647415058E+02 -0.78674736245E+01 -0.78771566133E+02  0.86819323728E+02  0.00000000000E+00 0.  1.
         -5    1    3    3    0  504 -0.65100036646E+02 -0.47867980301E+02 -0.38513601212E+02  0.89636743514E+02  0.47000000000E+01 0.  1.
<mgrwt>
<rscale>  2 0.20140432E+03</rscale>
<asrwt>0</asrwt>
<pdfrwt beam="1">  1       21 0.28041763E-01 0.20163087E+03</pdfrwt>
<pdfrwt beam="2">  1       21 0.39900147E-01 0.20163087E+03</pdfrwt>
<totfact> 0.73256323E+04</totfact>
</mgrwt>
</event>
<event>
12    1  0.1410528E-001  0.1798854E+03  0.7546771E-02  0.1168067E+00
         21   -1    0    0  502  503  0.00000000000E+00  0.00000000000E+00  0.33731874417E+03  0.33731874417E+03  0.00000000000E+00 0.  1.
         21   -1    0    0  503  504 -0.00000000000E+00 -0.00000000000E+00 -0.13576379997E+03  0.13576379997E+03  0.00000000000E+00 0.  1.
         -6    2    1    2    0  504  0.12908757521E+02  0.47970327490E+02 -0.28013396200E+02  0.18143138714E+03  0.17223475123E+03 0.  0.
        -24    2    3    3    0    0 -0.25934332901E+02  0.35627109578E+02  0.42459061690E+02  0.99886319705E+02  0.78946971979E+02 0.  0.
          6    2    1    2  502    0 -0.12908757521E+02 -0.47970327490E+02  0.22956834040E+03  0.29165115700E+03  0.17289009840E+03 0.  0.
         24    2    5    5    0    0 -0.38357501536E+02 -0.70345907996E+02  0.23155156436E+03  0.25738268238E+03  0.78802750833E+02 0.  0.
          4    1    6    6  501    0 -0.48555713298E+02 -0.25097723676E+02  0.17962380439E+03  0.18775586311E+03  0.00000000000E+00 0. -1.
         -3    1    6    6    0  501  0.10198211762E+02 -0.45248184320E+02  0.51927759970E+02  0.69626819278E+02  0.00000000000E+00 0.  1.
          5    1    5    5  502    0  0.25448744015E+02  0.22375580506E+02 -0.19832239595E+01  0.34268474611E+02  0.47000000000E+01 0. -1.
         13    1    4    4    0    0 -0.13092083191E+02  0.60328842048E+02  0.22819605581E+02  0.65815698917E+02  0.00000000000E+00 0. -1.
        -14    1    4    4    0    0 -0.12842249710E+02 -0.24701732470E+02  0.19639456109E+02  0.34070620788E+02  0.00000000000E+00 0.  1.
         -5    1    3    3    0  504  0.38843090422E+02  0.12343217912E+02 -0.70472457890E+02  0.81545067435E+02  0.47000000000E+01 0.  1.
<mgrwt>
<rscale>  2 0.17972780E+03</rscale>
<asrwt>0</asrwt>
<pdfrwt beam="1">  1       21 0.51895191E-01 0.17988545E+03</pdfrwt>
<pdfrwt beam="2">  1       21 0.20886739E-01 0.17988545E+03</pdfrwt>
<totfact> 0.75427807E+04</totfact>
</mgrwt>
</event>
<event>
12    1  0.1410528E-001  0.2305063E+03  0.7546771E-02  0.1126530E+00
         21   -1    0    0  502  503  0.00000000000E+00  0.00000000000E+00  0.10707191014E+03  0.10707191014E+03  0.00000000000E+00 0.  1.
         21   -1    0    0  503  504 -0.00000000000E+00 -0.00000000000E+00 -0.62860305989E+03  0.62860305989E+03  0.00000000000E+00 0.  1.
         -6    2    1    2    0  504 -0.14557529315E+03  0.37932817302E+02 -0.43208251326E+03  0.48972281044E+03  0.17464841311E+03 0.  0.
        -24    2    3    3    0    0 -0.45899835318E+02  0.79518485722E+02 -0.21961596370E+03  0.25133512327E+03  0.80673342722E+02 0.  0.
          6    2    1    2  502    0  0.14557529315E+03 -0.37932817302E+02 -0.89448636496E+02  0.24595215958E+03  0.17280145146E+03 0.  0.
         24    2    5    5    0    0  0.81832424616E+02  0.14048177413E+02  0.10510663264E+02  0.11641788339E+03  0.80924362978E+02 0.  0.
          4    1    6    6  501    0  0.52903332760E+02  0.47914897625E+02  0.52821058873E+01  0.71571647139E+02  0.00000000000E+00 0. -1.
         -3    1    6    6    0  501  0.28929091856E+02 -0.33866720212E+02  0.52285573763E+01  0.44846236250E+02  0.00000000000E+00 0.  1.
          5    1    5    5  502    0  0.63742868538E+02 -0.51980994715E+02 -0.99959299760E+02  0.12953427620E+03  0.47000000000E+01 0. -1.
         13    1    4    4    0    0 -0.46459150514E+02  0.91590310799E+02 -0.15729683566E+03  0.18785508300E+03  0.00000000000E+00 0. -1.
        -14    1    4    4    0    0  0.55931519616E+00 -0.12071825077E+02 -0.62319128039E+02  0.63480040278E+02  0.00000000000E+00 0.  1.
         -5    1    3    3    0  504 -0.99675457836E+02 -0.41585668420E+02 -0.21246654956E+03  0.23838768717E+03  0.47000000000E+01 0.  1.
<mgrwt>
<rscale>  2 0.23015640E+03</rscale>
<asrwt>0</asrwt>
<pdfrwt beam="1">  1       21 0.16472601E-01 0.23050625E+03</pdfrwt>
<pdfrwt beam="2">  1       21 0.96708165E-01 0.23050625E+03</pdfrwt>
<totfact> 0.28766858E+04</totfact>
</mgrwt>
</event>
<event>
12    1  0.1410528E-001  0.1819784E+03  0.7546771E-02  0.1166324E+00
         21   -1    0    0  502  503  0.00000000000E+00  0.00000000000E+00  0.71249017376E+03  0.71249017376E+03  0.00000000000E+00 0. -1.
         21   -1    0    0  503  504 -0.00000000000E+00 -0.00000000000E+00 -0.48071911861E+02  0.48071911861E+02  0.00000000000E+00 0. -1.
         -6    2    1    2    0  504  0.46990889351E+02  0.29160344866E+02  0.25539410444E+03  0.31359572598E+03  0.17337145491E+03 0.  0.
        -24    2    3    3    0    0  0.96564650884E+02  0.33962932811E+01  0.17062019633E+03  0.21195887399E+03  0.80492522999E+02 0.  0.
          6    2    1    2  502    0 -0.46990889351E+02 -0.29160344866E+02  0.40902415746E+03  0.44696635964E+03  0.17152170670E+03 0.  0.
         24    2    5    5    0    0  0.96037387447E+01  0.79061634480E+01  0.34202062676E+03  0.35163304388E+03  0.80702845052E+02 0.  0.
          2    1    6    6  501    0  0.34597426036E+02 -0.18769883938E+02  0.24118630023E+03  0.24437700762E+03  0.00000000000E+00 0. -1.
         -1    1    6    6    0  501 -0.24993687291E+02  0.26676047386E+02  0.10083432653E+03  0.10725603626E+03  0.00000000000E+00 0.  1.
          5    1    5    5  502    0 -0.56594628096E+02 -0.37066508314E+02  0.67003530701E+02  0.95333315762E+02  0.47000000000E+01 0. -1.
         11    1    4    4    0    0  0.21949508713E+02  0.25383425735E+02  0.12626632067E+02  0.35854303398E+02  0.00000000000E+00 0. -1.
        -12    1    4    4    0    0  0.74615142171E+02 -0.21987132454E+02  0.15799356426E+03  0.17610457059E+03  0.00000000000E+00 0.  1.
         -5    1    3    3    0  504 -0.49573761533E+02  0.25764051585E+02  0.84773908111E+02  0.10163685199E+03  0.47000000000E+01 0.  1.
<mgrwt>
<rscale>  2 0.18153643E+03</rscale>
<asrwt>0</asrwt>
<pdfrwt beam="1">  1       21 0.10961387E+00 0.18197838E+03</pdfrwt>
<pdfrwt beam="2">  1       21 0.73956793E-02 0.18197838E+03</pdfrwt>
<totfact> 0.91014530E+04</totfact>
</mgrwt>
</event>
<event>
12    1  0.1410528E-001  0.2091302E+03  0.7546771E-02  0.1142285E+00
         21   -1    0    0  502  503  0.00000000000E+00  0.00000000000E+00  0.43496842251E+03  0.43496842251E+03  0.00000000000E+00 0. -1.
         21   -1    0    0  503  504 -0.00000000000E+00 -0.00000000000E+00 -0.18441400301E+03  0.18441400301E+03  0.00000000000E+00 0.  1.
         -6    2    1    2    0  504 -0.97639792222E+01 -0.11645701000E+03 -0.83676408305E+02  0.22511640668E+03  0.17325727916E+03 0.  0.
        -24    2    3    3    0    0 -0.72690249938E+02 -0.51725916860E+02 -0.21755735505E+02  0.11554410322E+03  0.70126206587E+02 0.  0.
          6    2    1    2  502    0  0.97639792222E+01  0.11645701000E+03  0.33423082780E+03  0.39426601883E+03  0.17342974625E+03 0.  0.
         24    2    5    5    0    0 -0.11476913699E+02 -0.58995207940E+01  0.15799364004E+03  0.17861831420E+03  0.82316389515E+02 0.  0.
          2    1    6    6  501    0 -0.22397962881E+02 -0.38781729841E+02  0.11492295176E+03  0.12334089408E+03  0.00000000000E+00 0. -1.
         -1    1    6    6    0  501  0.10921049182E+02  0.32882209047E+02  0.43070688277E+02  0.55277420125E+02  0.00000000000E+00 0.  1.
          5    1    5    5  502    0  0.21240892921E+02  0.12235653080E+03  0.17623718777E+03  0.21564770463E+03  0.47000000000E+01 0. -1.
         13    1    4    4    0    0 -0.33767255245E+02  0.46303913923E+01  0.15649652131E+02  0.37504395250E+02  0.00000000000E+00 0. -1.
        -14    1    4    4    0    0 -0.38922994693E+02 -0.56356308252E+02 -0.37405387637E+02  0.78039707970E+02  0.00000000000E+00 0.  1.
         -5    1    3    3    0  504  0.62926270716E+02 -0.64731093141E+02 -0.61920672800E+02  0.10957230346E+03  0.47000000000E+01 0.  1.
<mgrwt>
<rscale>  2 0.20909446E+03</rscale>
<asrwt>0</asrwt>
<pdfrwt beam="1">  1       21 0.66918219E-01 0.20913022E+03</pdfrwt>
<pdfrwt beam="2">  1       21 0.28371385E-01 0.20913022E+03</pdfrwt>
<totfact> 0.24064086E+04</totfact>
</mgrwt>
</event>
<event>
12    1  0.1410528E-001  0.1876163E+03  0.7546771E-02  0.1162831E+00
         21   -1    0    0  502  503  0.00000000000E+00  0.00000000000E+00  0.10543884091E+04  0.10543884091E+04  0.00000000000E+00 0. -1.
         21   -1    0    0  503  504 -0.00000000000E+00 -0.00000000000E+00 -0.15178510466E+03  0.15178510466E+03  0.00000000000E+00 0. -1.
         -6    2    1    2    0  504  0.22612112532E+02 -0.69109436870E+02 -0.82583815689E+02  0.20498769911E+03  0.17295215602E+03 0.  0.
        -24    2    3    3    0    0 -0.88857711056E+01 -0.10674278942E+03 -0.53076179311E+02  0.14753183342E+03  0.86461442503E+02 0.  0.
          6    2    1    2  502    0 -0.22612112532E+02  0.69109436870E+02  0.98518712011E+03  0.10011858146E+04  0.16276348460E+03 0.  0.
         24    2    5    5    0    0 -0.11874275778E+02 -0.12315402338E+02  0.29744361442E+03  0.30853978297E+03  0.80196174192E+02 0.  0.
          2    1    6    6  501    0  0.13273859451E+02 -0.12552508190E+02  0.27252301378E+03  0.27313468078E+03  0.00000000000E+00 0. -1.
         -1    1    6    6    0  501 -0.25148135229E+02  0.23710585167E+00  0.24920600647E+02  0.35405102192E+02  0.00000000000E+00 0.  1.
          5    1    5    5  502    0 -0.10737836754E+02  0.81424839208E+02  0.68774350569E+03  0.69264603168E+03  0.47000000000E+01 0. -1.
         11    1    4    4    0    0 -0.13490111695E+02  0.34728035742E+01 -0.32442905961E+02  0.35307019492E+02  0.00000000000E+00 0. -1.
        -12    1    4    4    0    0  0.46043405890E+01 -0.11021559299E+03 -0.20633273349E+02  0.11222481392E+03  0.00000000000E+00 0.  1.
         -5    1    3    3    0  504  0.31497883637E+02  0.37633352549E+02 -0.29507636378E+02  0.57455865691E+02  0.47000000000E+01 0.  1.
<mgrwt>
<rscale>  2 0.18523415E+03</rscale>
<asrwt>0</asrwt>
<pdfrwt beam="1">  1       21 0.16221360E+00 0.18761628E+03</pdfrwt>
<pdfrwt beam="2">  1       21 0.23351555E-01 0.18761628E+03</pdfrwt>
<totfact> 0.42011862E+03</totfact>
</mgrwt>
</event>
<event>
12    1  0.1410528E-001  0.2162778E+03  0.7546771E-02  0.1137566E+00
         21   -1    0    0  502  503  0.00000000000E+00  0.00000000000E+00  0.74030092981E+02  0.74030092981E+02  0.00000000000E+00 0. -1.
         21   -1    0    0  503  504 -0.00000000000E+00 -0.00000000000E+00 -0.62854682943E+03  0.62854682943E+03  0.00000000000E+00 0. -1.
         -6    2    1    2    0  504 -0.21330150026E+02 -0.12340470262E+03 -0.23022811052E+03  0.31278310418E+03  0.17071787094E+03 0.  0.
        -24    2    3    3    0    0 -0.61279211782E+02 -0.11668090993E+03 -0.22293584941E+03  0.27135359785E+03  0.81011144745E+02 0.  0.
          6    2    1    2  502    0  0.21330150026E+02  0.12340470262E+03 -0.32428862593E+03  0.38979381822E+03  0.17633040547E+03 0.  0.
         24    2    5    5    0    0 -0.38533309857E+02  0.13845487565E+02 -0.15647171817E+03  0.18057751876E+03  0.80301483173E+02 0.  0.
          2    1    6    6  501    0  0.20213171999E+02  0.16631875142E+02 -0.79565849781E+02  0.83761065205E+02  0.00000000000E+00 0. -1.
         -1    1    6    6    0  501 -0.58746481856E+02 -0.27863875771E+01 -0.76905868391E+02  0.96816453556E+02  0.00000000000E+00 0.  1.
          5    1    5    5  502    0  0.59863459883E+02  0.10955921506E+03 -0.16781690775E+03  0.20921629946E+03  0.47000000000E+01 0. -1.
         13    1    4    4    0    0 -0.55827455347E+02 -0.23011049973E+02 -0.97966889044E+02  0.11508138225E+03  0.00000000000E+00 0. -1.
        -14    1    4    4    0    0 -0.54517564348E+01 -0.93669859956E+02 -0.12496896037E+03  0.15627221560E+03  0.00000000000E+00 0.  1.
         -5    1    3    3    0  504  0.39949061756E+02 -0.67237926918E+01 -0.72922611104E+01  0.41429506338E+02  0.47000000000E+01 0.  1.
<mgrwt>
<rscale>  2 0.21513103E+03</rscale>
<asrwt>0</asrwt>
<pdfrwt beam="1">  1       21 0.11389245E-01 0.21627785E+03</pdfrwt>
<pdfrwt beam="2">  1       21 0.96699516E-01 0.21627785E+03</pdfrwt>
<totfact> 0.56590407E+04</totfact>
</mgrwt>
</event>
<event>
12    1  0.1410528E-001  0.2106164E+03  0.7546771E-02  0.1141628E+00
         21   -1    0    0  502  503  0.00000000000E+00  0.00000000000E+00  0.21084640445E+04  0.21084640445E+04  0.00000000000E+00 0.  1.
         21   -1    0    0  503  504 -0.00000000000E+00 -0.00000000000E+00 -0.21671750788E+02  0.21671750788E+02  0.00000000000E+00 0. -1.
         -6    2    1    2    0  504  0.55507334396E+02 -0.10656265332E+03  0.81876269433E+03  0.84473378201E+03  0.16960586546E+03 0.  0.
        -24    2    3    3    0    0  0.79457192643E+02 -0.17767263149E+02  0.46779743990E+03  0.48188819938E+03  0.82174636093E+02 0.  0.
          6    2    1    2  502    0 -0.55507334396E+02  0.10656265332E+03  0.12680295994E+04  0.12854020133E+04  0.17298152375E+03 0.  0.
         24    2    5    5    0    0 -0.61378708691E+02  0.14141094782E+03  0.11588484539E+04  0.11705478048E+04  0.59059480693E+02 0.  0.
          2    1    6    6  501    0 -0.65057975711E+02  0.85699148536E+02  0.68081173543E+03  0.68926156382E+03  0.00000000000E+00 0. -1.
         -1    1    6    6    0  501  0.36792670202E+01  0.55711799288E+02  0.47803671844E+03  0.48128624099E+03  0.00000000000E+00 0.  1.
          5    1    5    5  502    0  0.58713742947E+01 -0.34848294506E+02  0.10918114549E+03  0.11485420844E+03  0.47000000000E+01 0. -1.
         11    1    4    4    0    0  0.17080386084E+02 -0.17929467427E+01  0.10606883543E+02  0.20185644039E+02  0.00000000000E+00 0. -1.
        -12    1    4    4    0    0  0.62376806560E+02 -0.15974316407E+02  0.45719055636E+03  0.46170255534E+03  0.00000000000E+00 0.  1.
         -5    1    3    3    0  504 -0.23949858248E+02 -0.88795390168E+02  0.35096525443E+03  0.36284558264E+03  0.47000000000E+01 0.  1.
<mgrwt>
<rscale>  2 0.20992210E+03</rscale>
<asrwt>0</asrwt>
<pdfrwt beam="1">  1       21 0.32437892E+00 0.21061641E+03</pdfrwt>
<pdfrwt beam="2">  1       21 0.33341172E-02 0.21061641E+03</pdfrwt>
<totfact> 0.12862441E+04</totfact>
</mgrwt>
</event>
<event>
12    1  0.1410528E-001  0.1801396E+03  0.7546771E-02  0.1167696E+00
         21   -1    0    0  502  503  0.00000000000E+00  0.00000000000E+00  0.94332387636E+02  0.94332387636E+02  0.00000000000E+00 0. -1.
         21   -1    0    0  503  504 -0.00000000000E+00 -0.00000000000E+00 -0.62002020564E+03  0.62002020564E+03  0.00000000000E+00 0. -1.
         -6    2    1    2    0  504 -0.29930891188E+01 -0.48383796281E+02 -0.50120673999E+03  0.53255713996E+03  0.17337520235E+03 0.  0.
        -24    2    3    3    0    0  0.10507649121E+02  0.39175013548E+02 -0.23860564346E+03  0.25537445470E+03  0.81476172258E+02 0.  0.
          6    2    1    2  502    0  0.29930891188E+01  0.48383796281E+02 -0.24481078020E+02  0.18179545332E+03  0.17349441876E+03 0.  0.
         24    2    5    5    0    0 -0.55982074097E+02  0.45714480478E+02 -0.41562577110E+02  0.12015891599E+03  0.86526937593E+02 0.  0.
          2    1    6    6  501    0 -0.61500044189E+01  0.39049940905E+02 -0.55358996793E+02  0.68024546782E+02  0.00000000000E+00 0. -1.
         -1    1    6    6    0  501 -0.49832069678E+02  0.66645395731E+01  0.13796419683E+02  0.52134369203E+02  0.00000000000E+00 0.  1.
          5    1    5    5  502    0  0.58975163216E+02  0.26693158034E+01  0.17081499090E+02  0.61636537333E+02  0.47000000000E+01 0. -1.
         13    1    4    4    0    0  0.66611636742E+01 -0.24756403643E+02 -0.89403770852E+02  0.93006907622E+02  0.00000000000E+00 0. -1.
        -14    1    4    4    0    0  0.38464854466E+01  0.63931417191E+02 -0.14920187260E+03  0.16236754707E+03  0.00000000000E+00 0.  1.
         -5    1    3    3    0  504 -0.13500738240E+02 -0.87558809829E+02 -0.26260109653E+03  0.27718268527E+03  0.47000000000E+01 0.  1.
<mgrwt>
<rscale>  2 0.18011086E+03</rscale>
<asrwt>0</asrwt>
<pdfrwt beam="1">  1       21 0.14512675E-01 0.18013957E+03</pdfrwt>
<pdfrwt beam="2">  1       21 0.95387724E-01 0.18013957E+03</pdfrwt>
<totfact> 0.38476115E+04</totfact>
</mgrwt>
</event>
<event>
12    1  0.1410528E-001  0.1884123E+03  0.7546771E-02  0.1160137E+00
         21   -1    0    0  502  503  0.00000000000E+00  0.00000000000E+00  0.13519512421E+04  0.13519512421E+04  0.00000000000E+00 0.  1.
         21   -1    0    0  503  504 -0.00000000000E+00 -0.00000000000E+00 -0.61412887309E+02  0.61412887309E+02  0.00000000000E+00 0.  1.
         -6    2    1    2    0  504  0.71560985264E+02 -0.15652911182E+02  0.11025938598E+03  0.21830333135E+03  0.17358923942E+03 0.  0.
        -24    2    3    3    0    0  0.26931936678E+02  0.45738828521E+02  0.31150694781E+02  0.10857196526E+03  0.89443480519E+02 0.  0.
          6    2    1    2  502    0 -0.71560985264E+02  0.15652911182E+02  0.11802789688E+04  0.11950607981E+04  0.17246993533E+03 0.  0.
         24    2    5    5    0    0  0.11325023586E+02  0.26532801306E+02  0.33691140522E+03  0.34754714047E+03  0.80296165409E+02 0.  0.
          4    1    6    6  501    0  0.24914898065E+02  0.26770103973E+01  0.28636925006E+02  0.38052490117E+02  0.00000000000E+00 0. -1.
         -3    1    6    6    0  501 -0.13589874479E+02  0.23855790909E+02  0.30827448021E+03  0.30949465035E+03  0.00000000000E+00 0.  1.
          5    1    5    5  502    0 -0.82886008850E+02 -0.10879890125E+02  0.84336756363E+03  0.84751365762E+03  0.47000000000E+01 0. -1.
         13    1    4    4    0    0  0.27058571613E+02 -0.22562551007E+02  0.15556739574E+02  0.38512947847E+02  0.00000000000E+00 0. -1.
        -14    1    4    4    0    0 -0.12663493563E+00  0.68301379528E+02  0.15593955207E+02  0.70059017413E+02  0.00000000000E+00 0.  1.
         -5    1    3    3    0  504  0.44629048586E+02 -0.61391739703E+02  0.79108691200E+02  0.10973136609E+03  0.47000000000E+01 0.  1.
<mgrwt>
<rscale>  2 0.18815413E+03</rscale>
<asrwt>0</asrwt>
<pdfrwt beam="1">  1       21 0.20799248E+00 0.18841235E+03</pdfrwt>
<pdfrwt beam="2">  1       21 0.94481375E-02 0.18841235E+03</pdfrwt>
<totfact> 0.10752649E+04</totfact>
</mgrwt>
</event>
<event>
12    1  0.1410528E-001  0.2307496E+03  0.7546771E-02  0.1126309E+00
         21   -1    0    0  502  503  0.00000000000E+00  0.00000000000E+00  0.21128564019E+03  0.21128564019E+03  0.00000000000E+00 0.  1.
         21   -1    0    0  503  504 -0.00000000000E+00 -0.00000000000E+00 -0.77542224959E+03  0.77542224959E+03  0.00000000000E+00 0. -1.
         -6    2    1    2    0  504  0.46926479502E+02  0.14336210160E+03 -0.68809363647E+03  0.72575357337E+03  0.17461560655E+03 0.  0.
        -24    2    3    3    0    0 -0.85009356018E+00  0.22783989782E+02 -0.12550743246E+03  0.14839146089E+03  0.75816074894E+02 0.  0.
          6    2    1    2  502    0 -0.46926479502E+02 -0.14336210160E+03  0.12395702707E+03  0.26095431642E+03  0.17313874217E+03 0.  0.
         24    2    5    5    0    0  0.21249191585E+02 -0.13662083620E+03  0.79824363228E+02  0.17932620358E+03  0.81665031056E+02 0.  0.
          2    1    6    6  501    0 -0.26338187489E+02 -0.44206498065E+02  0.48625937298E+02  0.70798279425E+02  0.00000000000E+00 0. -1.
         -1    1    6    6    0  501  0.47587379074E+02 -0.92414338140E+02  0.31198425930E+02  0.10852792416E+03  0.00000000000E+00 0.  1.
          5    1    5    5  502    0 -0.68175671086E+02 -0.67412653994E+01  0.44132663843E+02  0.81628112836E+02  0.47000000000E+01 0. -1.
         13    1    4    4    0    0  0.35451509822E+02  0.58407190145E+01 -0.80398378687E+02  0.88061471955E+02  0.00000000000E+00 0. -1.
        -14    1    4    4    0    0 -0.36301603382E+02  0.16943270767E+02 -0.45109053770E+02  0.60329988931E+02  0.00000000000E+00 0.  1.
         -5    1    3    3    0  504  0.47776573062E+02  0.12057811182E+03 -0.56258620401E+03  0.57736211248E+03  0.47000000000E+01 0.  1.
<mgrwt>
<rscale>  2 0.23047024E+03</rscale>
<asrwt>0</asrwt>
<pdfrwt beam="1">  1       21 0.32505483E-01 0.23074964E+03</pdfrwt>
<pdfrwt beam="2">  1       21 0.11929573E+00 0.23074964E+03</pdfrwt>
<totfact> 0.47397888E+03</totfact>
</mgrwt>
</event>
<event>
12    1  0.1410528E-001  0.4353664E+03  0.7546771E-02  0.1032361E+00
         21   -1    0    0  502  503  0.00000000000E+00  0.00000000000E+00  0.20350327454E+03  0.20350327454E+03  0.00000000000E+00 0.  1.
         21   -1    0    0  503  504 -0.00000000000E+00 -0.00000000000E+00 -0.12385469573E+04  0.12385469573E+04  0.00000000000E+00 0.  1.
         -6    2    1    2    0  504 -0.37738637663E+03 -0.12377492719E+03 -0.88053531550E+03  0.98228626269E+03  0.17833437738E+03 0.  0.
        -24    2    3    3    0    0 -0.30204974300E+03 -0.79870389437E+02 -0.51826873001E+03  0.60964382581E+03  0.73822703025E+02 0.  0.
          6    2    1    2  502    0  0.37738637663E+03  0.12377492719E+03 -0.15450836728E+03  0.45976396916E+03  0.17253800136E+03 0.  0.
         24    2    5    5    0    0  0.24572224013E+03  0.14974508755E+03 -0.97151244714E+02  0.31374402676E+03  0.78701584714E+02 0.  0.
          4    1    6    6  501    0  0.19395870936E+02  0.44231149112E+02 -0.10512809656E+02  0.49427861859E+02  0.00000000000E+00 0. -1.
         -3    1    6    6    0  501  0.22632636919E+03  0.10551393844E+03 -0.86638435058E+02  0.26431616490E+03  0.00000000000E+00 0.  1.
          5    1    5    5  502    0  0.13166413651E+03 -0.25970160367E+02 -0.57357122562E+02  0.14601994240E+03  0.47000000000E+01 0. -1.
         11    1    4    4    0    0 -0.69264579352E+02 -0.22508253801E+02 -0.68581386025E+02  0.10003804252E+03  0.00000000000E+00 0. -1.
        -12    1    4    4    0    0 -0.23278516365E+03 -0.57362135636E+02 -0.44968734398E+03  0.50960578329E+03  0.00000000000E+00 0.  1.
         -5    1    3    3    0  504 -0.75336633630E+02 -0.43904537751E+02 -0.36226658549E+03  0.37264243688E+03  0.47000000000E+01 0.  1.
<mgrwt>
<rscale>  2 0.43477966E+03</rscale>
<asrwt>0</asrwt>
<pdfrwt beam="1">  1       21 0.31308196E-01 0.43536635E+03</pdfrwt>
<pdfrwt beam="2">  1       21 0.19054569E+00 0.43536635E+03</pdfrwt>
<totfact> 0.12831225E+03</totfact>
</mgrwt>
</event>
<event>
12    1  0.1410528E-001  0.3037053E+03  0.7546771E-02  0.1083859E+00
         21   -1    0    0  502  503  0.00000000000E+00  0.00000000000E+00  0.12350278135E+03  0.12350278135E+03  0.00000000000E+00 0. -1.
         21   -1    0    0  503  504 -0.00000000000E+00 -0.00000000000E+00 -0.91883217748E+03  0.91883217748E+03  0.00000000000E+00 0.  1.
         -6    2    1    2    0  504 -0.24277345513E+03  0.62536166434E+02 -0.62704106600E+03  0.69512052245E+03  0.16480995010E+03 0.  0.
        -24    2    3    3    0    0 -0.78596160676E+02 -0.24089921121E+02 -0.24627522066E+03  0.27148980822E+03  0.79357109857E+02 0.  0.
          6    2    1    2  502    0  0.24277345513E+03 -0.62536166434E+02 -0.16828833013E+03  0.34721443637E+03  0.17142689444E+03 0.  0.
         24    2    5    5    0    0  0.17632054944E+03  0.15057589863E+02 -0.85565075322E+02  0.21567734435E+03  0.88767491708E+02 0.  0.
          4    1    6    6  501    0  0.14658379103E+03 -0.22069951681E+02 -0.78021010573E+02  0.16751468189E+03  0.00000000000E+00 0. -1.
         -3    1    6    6    0  501  0.29736758412E+02  0.37127541544E+02 -0.75440647496E+01  0.48162662457E+02  0.00000000000E+00 0.  1.
          5    1    5    5  502    0  0.66452905692E+02 -0.77593756297E+02 -0.82723254809E+02  0.13153709202E+03  0.47000000000E+01 0. -1.
         11    1    4    4    0    0  0.11597713524E+02 -0.14721277665E+00 -0.46954547207E+01  0.12513030234E+02  0.00000000000E+00 0. -1.
        -12    1    4    4    0    0 -0.90193874201E+02 -0.23942708345E+02 -0.24157976594E+03  0.25897677799E+03  0.00000000000E+00 0.  1.
         -5    1    3    3    0  504 -0.16417729446E+03  0.86626087555E+02 -0.38076584534E+03  0.42363071423E+03  0.47000000000E+01 0.  1.
<mgrwt>
<rscale>  2 0.30277976E+03</rscale>
<asrwt>0</asrwt>
<pdfrwt beam="1">  1       21 0.19000428E-01 0.30370529E+03</pdfrwt>
<pdfrwt beam="2">  1       21 0.14135880E+00 0.30370529E+03</pdfrwt>
<totfact> 0.82724381E+03</totfact>
</mgrwt>
</event>
<event>
12    1  0.1410528E-001  0.1874071E+03  0.7546771E-02  0.1160887E+00
         21   -1    0    0  502  503  0.00000000000E+00  0.00000000000E+00  0.11055962083E+03  0.11055962083E+03  0.00000000000E+00 0.  1.
         21   -1    0    0  503  504 -0.00000000000E+00 -0.00000000000E+00 -0.52034168283E+03  0.52034168283E+03  0.00000000000E+00 0.  1.
         -6    2    1    2    0  504 -0.59399360251E+02 -0.39507344861E+02 -0.40190386000E+03  0.44332872885E+03  0.17298709443E+03 0.  0.
        -24    2    3    3    0    0 -0.55614518497E+02  0.24994095718E+02 -0.33407607605E+03  0.34953395746E+03  0.82761605456E+02 0.  0.
          6    2    1    2  502    0  0.59399360251E+02  0.39507344861E+02 -0.78782020028E+01  0.18757257481E+03  0.17329827021E+03 0.  0.
         24    2    5    5    0    0  0.68883129776E+02  0.54559548371E+02  0.47749611898E+02  0.12898030233E+03  0.81450985673E+02 0.  0.
          4    1    6    6  501    0  0.32594491330E+02  0.72312085017E+02  0.34105798555E+02  0.86340280285E+02  0.00000000000E+00 0. -1.
         -3    1    6    6    0  501  0.36288638446E+02 -0.17752536647E+02  0.13643813343E+02  0.42640022047E+02  0.00000000000E+00 0.  1.
          5    1    5    5  502    0 -0.94837695252E+01 -0.15052203509E+02 -0.55627813901E+02  0.58592272479E+02  0.47000000000E+01 0. -1.
         11    1    4    4    0    0  0.41968892290E+01 -0.85765647352E+01 -0.11515067418E+01  0.96175521644E+01  0.00000000000E+00 0. -1.
        -12    1    4    4    0    0 -0.59811407726E+02  0.33570660453E+02 -0.33292456931E+03  0.33991640530E+03  0.00000000000E+00 0.  1.
         -5    1    3    3    0  504 -0.37848417538E+01 -0.64501440579E+02 -0.67827783947E+02  0.93794771385E+02  0.47000000000E+01 0.  1.
<mgrwt>
<rscale>  2 0.18733509E+03</rscale>
<asrwt>0</asrwt>
<pdfrwt beam="1">  1       21 0.17009172E-01 0.18740706E+03</pdfrwt>
<pdfrwt beam="2">  1       21 0.80052568E-01 0.18740706E+03</pdfrwt>
<totfact> 0.42913505E+04</totfact>
</mgrwt>
</event>
<event>
12    1  0.1410528E-001  0.2300642E+03  0.7546771E-02  0.1126604E+00
         21   -1    0    0  502  503  0.00000000000E+00  0.00000000000E+00  0.58071433736E+03  0.58071433736E+03  0.00000000000E+00 0. -1.
         21   -1    0    0  503  504 -0.00000000000E+00 -0.00000000000E+00 -0.91129730724E+02  0.91129730724E+02  0.00000000000E+00 0.  1.
         -6    2    1    2    0  504 -0.12438483577E+03  0.87660559219E+02  0.24232182774E+03  0.33410389977E+03  0.17248068479E+03 0.  0.
        -24    2    3    3    0    0 -0.15686614988E+03  0.64140635459E+02  0.18566042289E+03  0.26452784512E+03  0.82366122431E+02 0.  0.
          6    2    1    2  502    0  0.12438483577E+03 -0.87660559219E+02  0.24726277890E+03  0.33774016832E+03  0.17255022010E+03 0.  0.
         24    2    5    5    0    0  0.12200980133E+03 -0.23679093751E+02  0.10173884132E+03  0.17868491024E+03  0.78296961727E+02 0.  0.
          4    1    6    6  501    0  0.12823046554E+03 -0.10028576243E+02  0.10122176396E+03  0.16367489158E+03  0.00000000000E+00 0. -1.
         -3    1    6    6    0  501 -0.62206642107E+01 -0.13650517508E+02  0.51707735966E+00  0.15010018669E+02  0.00000000000E+00 0.  1.
          5    1    5    5  502    0  0.23750344451E+01 -0.63981465468E+02  0.14552393758E+03  0.15905525807E+03  0.47000000000E+01 0. -1.
         11    1    4    4    0    0 -0.10277857563E+02 -0.17704002799E+02  0.18013602894E+02  0.27268222538E+02  0.00000000000E+00 0. -1.
        -12    1    4    4    0    0 -0.14658829232E+03  0.81844638258E+02  0.16764681999E+03  0.23725962259E+03  0.00000000000E+00 0.  1.
         -5    1    3    3    0  504  0.32481314105E+02  0.23519923760E+02  0.56661404853E+02  0.69576054642E+02  0.47000000000E+01 0.  1.
<mgrwt>
<rscale>  2 0.23005117E+03</rscale>
<asrwt>0</asrwt>
<pdfrwt beam="1">  1       21 0.89340665E-01 0.23006421E+03</pdfrwt>
<pdfrwt beam="2">  1       21 0.14019959E-01 0.23006421E+03</pdfrwt>
<totfact> 0.46533011E+04</totfact>
</mgrwt>
</event>
<event>
12    1  0.1410528E-001  0.1867745E+03  0.7546771E-02  0.1161529E+00
         21   -1    0    0  502  503  0.00000000000E+00  0.00000000000E+00  0.69789914693E+02  0.69789914693E+02  0.00000000000E+00 0.  1.
         21   -1    0    0  503  504 -0.00000000000E+00 -0.00000000000E+00 -0.52985336726E+03  0.52985336726E+03  0.00000000000E+00 0.  1.
         -6    2    1    2    0  504  0.32002465138E+02  0.62993093143E+02 -0.30276631221E+03  0.35545667975E+03  0.17230706257E+03 0.  0.
        -24    2    3    3    0    0  0.26151851626E+02  0.98912890081E+02 -0.28854153223E+03  0.31610066552E+03  0.78712996080E+02 0.  0.
          6    2    1    2  502    0 -0.32002465138E+02 -0.62993093143E+02 -0.15729714036E+03  0.24418660220E+03  0.17289424158E+03 0.  0.
         24    2    5    5    0    0 -0.27767632952E+02 -0.96829451745E+02 -0.61568799351E+02  0.14245736236E+03  0.79727027239E+02 0.  0.
          2    1    6    6  501    0  0.11275677096E+02 -0.45617240010E+02 -0.62326029988E+02  0.78055156743E+02  0.00000000000E+00 0. -1.
         -1    1    6    6    0  501 -0.39043310048E+02 -0.51212211735E+02  0.75723063627E+00  0.64402205619E+02  0.00000000000E+00 0.  1.
          5    1    5    5  502    0 -0.42348321865E+01  0.33836358602E+02 -0.95728341007E+02  0.10172923984E+03  0.47000000000E+01 0. -1.
         13    1    4    4    0    0 -0.16184643927E+02  0.23913707297E+02 -0.22921644793E+02  0.36867463918E+02  0.00000000000E+00 0. -1.
        -14    1    4    4    0    0  0.42336495553E+02  0.74999182783E+02 -0.26561988744E+03  0.27923320160E+03  0.00000000000E+00 0.  1.
         -5    1    3    3    0  504  0.58506135121E+01 -0.35919796938E+02 -0.14224779976E+02  0.39356014227E+02  0.47000000000E+01 0.  1.
<mgrwt>
<rscale>  2 0.18663848E+03</rscale>
<asrwt>0</asrwt>
<pdfrwt beam="1">  1       21 0.10736910E-01 0.18677448E+03</pdfrwt>
<pdfrwt beam="2">  1       21 0.81515903E-01 0.18677448E+03</pdfrwt>
<totfact> 0.94527636E+04</totfact>
</mgrwt>
</event>
<event>
12    1  0.1410528E-001  0.3298360E+03  0.7546771E-02  0.1071259E+00
         21   -1    0    0  502  503  0.00000000000E+00  0.00000000000E+00  0.68883350994E+03  0.68883350994E+03  0.00000000000E+00 0. -1.
         21   -1    0    0  503  504 -0.00000000000E+00 -0.00000000000E+00 -0.21103614463E+03  0.21103614463E+03  0.00000000000E+00 0.  1.
         -6    2    1    2    0  504 -0.25667138807E+03  0.11437794644E+03  0.12873327964E+02  0.33008708674E+03  0.17271145350E+03 0.  0.
        -24    2    3    3    0    0 -0.93176990974E+02  0.58771843494E+02  0.63404090241E+02  0.15009290765E+03  0.79823060793E+02 0.  0.
          6    2    1    2  502    0  0.25667138807E+03 -0.11437794644E+03  0.46492403734E+03  0.56978256783E+03  0.17185836617E+03 0.  0.
         24    2    5    5    0    0  0.14011843306E+03 -0.11278584314E+03  0.37308596759E+03  0.42131220995E+03  0.77181716394E+02 0.  0.
          2    1    6    6  501    0  0.93030210198E+02 -0.11571803202E+03  0.27803876797E+03  0.31519968185E+03  0.00000000000E+00 0. -1.
         -1    1    6    6    0  501  0.47088222866E+02  0.29321888863E+01  0.95047199617E+02  0.10611252810E+03  0.00000000000E+00 0.  1.
          5    1    5    5  502    0  0.11655295501E+03 -0.15921033020E+01  0.91838069753E+02  0.14847035788E+03  0.47000000000E+01 0. -1.
         11    1    4    4    0    0  0.33757522795E+01  0.35341075105E+02  0.25684517401E+02  0.43818737169E+02  0.00000000000E+00 0. -1.
        -12    1    4    4    0    0 -0.96552743254E+02  0.23430768390E+02  0.37719572839E+02  0.10627417049E+03  0.00000000000E+00 0.  1.
         -5    1    3    3    0  504 -0.16349439710E+03  0.55606102944E+02 -0.50530762277E+02  0.17999417908E+03  0.47000000000E+01 0.  1.
<mgrwt>
<rscale>  2 0.32972443E+03</rscale>
<asrwt>0</asrwt>
<pdfrwt beam="1">  1       21 0.10597439E+00 0.32983596E+03</pdfrwt>
<pdfrwt beam="2">  1       21 0.32467099E-01 0.32983596E+03</pdfrwt>
<totfact> 0.60115056E+03</totfact>
</mgrwt>
</event>
<event>
12    1  0.1410528E-001  0.2242590E+03  0.7546771E-02  0.1130881E+00
         21   -1    0    0  502  503  0.00000000000E+00  0.00000000000E+00  0.38218790360E+02  0.38218790360E+02  0.00000000000E+00 0.  1.
         21   -1    0    0  503  504 -0.00000000000E+00 -0.00000000000E+00 -0.13879478489E+04  0.13879478489E+04  0.00000000000E+00 0. -1.
         -6    2    1    2    0  504 -0.12768240447E+03  0.63655859984E+02 -0.84316030227E+03  0.87247428736E+03  0.17302376094E+03 0.  0.
        -24    2    3    3    0    0  0.16219519480E+01  0.16977065146E+02 -0.23667539710E+03  0.25058639016E+03  0.80544670044E+02 0.  0.
          6    2    1    2  502    0  0.12768240447E+03 -0.63655859984E+02 -0.50656875630E+03  0.55369235194E+03  0.17207106326E+03 0.  0.
         24    2    5    5    0    0  0.27962820610E+02 -0.75666480406E+02 -0.19228103863E+03  0.22371188299E+03  0.81041182000E+02 0.  0.
          2    1    6    6  501    0  0.14724079905E+01 -0.15988679205E+02 -0.13763571378E+03  0.13856910030E+03  0.00000000000E+00 0. -1.
         -1    1    6    6    0  501  0.26490412620E+02 -0.59677801201E+02 -0.54645324843E+02  0.85142782690E+02  0.00000000000E+00 0.  1.
          5    1    5    5  502    0  0.99719583863E+02  0.12010620421E+02 -0.31428771767E+03  0.32998046895E+03  0.47000000000E+01 0. -1.
         11    1    4    4    0    0  0.41010472341E+01 -0.28409100174E+02 -0.14993844248E+03  0.15266116761E+03  0.00000000000E+00 0. -1.
        -12    1    4    4    0    0 -0.24790952861E+01  0.45386165320E+02 -0.86736954612E+02  0.97925222549E+02  0.00000000000E+00 0.  1.
         -5    1    3    3    0  504 -0.12930435642E+03  0.46678794839E+02 -0.60648490518E+03  0.62188789720E+03  0.47000000000E+01 0.  1.
<mgrwt>
<rscale>  2 0.22407519E+03</rscale>
<asrwt>0</asrwt>
<pdfrwt beam="1">  1       21 0.58798143E-02 0.22425897E+03</pdfrwt>
<pdfrwt beam="2">  1       21 0.21353043E+00 0.22425897E+03</pdfrwt>
<totfact> 0.21991458E+04</totfact>
</mgrwt>
</event>
<event>
12    1  0.1410528E-001  0.4684663E+03  0.7546771E-02  0.1022372E+00
         21   -1    0    0  502  503  0.00000000000E+00  0.00000000000E+00  0.22751203604E+04  0.22751203604E+04  0.00000000000E+00 0.  1.
         21   -1    0    0  503  504 -0.00000000000E+00 -0.00000000000E+00 -0.99550663512E+02  0.99550663512E+02  0.00000000000E+00 0. -1.
         -6    2    1    2    0  504 -0.94684498281E+02 -0.42505536492E+03  0.12984428506E+04  0.13802806817E+04  0.17199914670E+03 0.  0.
        -24    2    3    3    0    0 -0.61334810087E+02 -0.10923557968E+03  0.35813462754E+03  0.38778081628E+03  0.80119780552E+02 0.  0.
          6    2    1    2  502    0  0.94684498281E+02  0.42505536492E+03  0.87712684634E+03  0.99439034229E+03  0.17269461718E+03 0.  0.
         24    2    5    5    0    0  0.19601897202E+02  0.23012690120E+03  0.34770683538E+03  0.42523118971E+03  0.81110395794E+02 0.  0.
          2    1    6    6  501    0  0.14077590287E+02  0.14910203014E+03  0.15220510087E+03  0.21353216777E+03  0.00000000000E+00 0. -1.
         -1    1    6    6    0  501  0.55243069148E+01  0.81024871058E+02  0.19550173451E+03  0.21169902195E+03  0.00000000000E+00 0.  1.
          5    1    5    5  502    0  0.75082601079E+02  0.19492846372E+03  0.52942001096E+03  0.56915915258E+03  0.47000000000E+01 0. -1.
         11    1    4    4    0    0 -0.40974359328E+02 -0.38564507618E+02  0.25484516214E+03  0.26098309531E+03  0.00000000000E+00 0. -1.
        -12    1    4    4    0    0 -0.20360450759E+02 -0.70671072060E+02  0.10328946540E+03  0.12679772097E+03  0.00000000000E+00 0.  1.
         -5    1    3    3    0  504 -0.33349688194E+02 -0.31581978524E+03  0.94030822304E+03  0.99249986538E+03  0.47000000000E+01 0.  1.
<mgrwt>
<rscale>  2 0.46840228E+03</rscale>
<asrwt>0</asrwt>
<pdfrwt beam="1">  1       21 0.35001848E+00 0.46846627E+03</pdfrwt>
<pdfrwt beam="2">  1       21 0.15315488E-01 0.46846627E+03</pdfrwt>
<totfact> 0.51297357E+02</totfact>
</mgrwt>
</event>
<event>
12    1  0.1410528E-001  0.2397935E+03  0.7546771E-02  0.1119935E+00
         21   -1    0    0  502  503  0.00000000000E+00  0.00000000000E+00  0.75953859726E+02  0.75953859726E+02  0.00000000000E+00 0. -1.
         21   -1    0    0  503  504 -0.00000000000E+00 -0.00000000000E+00 -0.84286633705E+03  0.84286633705E+03  0.00000000000E+00 0.  1.
         -6    2    1    2    0  504  0.13885574243E+03  0.93977731426E+02 -0.53009827130E+03  0.58180103947E+03  0.17139294350E+03 0.  0.
        -24    2    3    3    0    0  0.48371045901E+02 -0.30527845747E+00 -0.32923779672E+03  0.34212670520E+03  0.79456304623E+02 0.  0.
          6    2    1    2  502    0 -0.13885574243E+03 -0.93977731426E+02 -0.23681420602E+03  0.33701915731E+03  0.17142990698E+03 0.  0.
         24    2    5    5    0    0 -0.40991456016E+02 -0.50559497353E+01 -0.16464614634E+03  0.18630478953E+03  0.76780590026E+02 0.  0.
          4    1    6    6  501    0  0.20343588051E+02 -0.10169205982E+02 -0.68208570499E+02  0.71900510531E+02  0.00000000000E+00 0. -1.
         -3    1    6    6    0  501 -0.61335044067E+02  0.51132562472E+01 -0.96437575840E+02  0.11440427900E+03  0.00000000000E+00 0.  1.
          5    1    5    5  502    0 -0.97864286416E+02 -0.88921781691E+02 -0.72168059684E+02  0.15071436777E+03  0.47000000000E+01 0. -1.
         13    1    4    4    0    0  0.47864537846E+02  0.50667015705E+00 -0.82454637423E+02  0.95341690411E+02  0.00000000000E+00 0. -1.
        -14    1    4    4    0    0  0.50650805522E+00 -0.81194861453E+00 -0.24678315930E+03  0.24678501479E+03  0.00000000000E+00 0.  1.
         -5    1    3    3    0  504  0.90484696530E+02  0.94283009883E+02 -0.20086047458E+03  0.23967433427E+03  0.47000000000E+01 0.  1.
<mgrwt>
<rscale>  2 0.23978694E+03</rscale>
<asrwt>0</asrwt>
<pdfrwt beam="1">  1       21 0.11685209E-01 0.23979354E+03</pdfrwt>
<pdfrwt beam="2">  1       21 0.12967175E+00 0.23979354E+03</pdfrwt>
<totfact> 0.26055323E+04</totfact>
</mgrwt>
</event>
<event>
12    1  0.1410528E-001  0.2153292E+03  0.7546771E-02  0.1137799E+00
         21   -1    0    0  502  503  0.00000000000E+00  0.00000000000E+00  0.51079679913E+02  0.51079679913E+02  0.00000000000E+00 0.  1.
         21   -1    0    0  503  504 -0.00000000000E+00 -0.00000000000E+00 -0.10908608477E+04  0.10908608477E+04  0.00000000000E+00 0.  1.
         -6    2    1    2    0  504  0.12099085377E+03 -0.42478839839E+02 -0.75713962066E+03  0.78661966014E+03  0.17049001735E+03 0.  0.
        -24    2    3    3    0    0  0.11278383024E+03 -0.89196542875E+02 -0.62268416952E+03  0.64396533195E+03  0.79243663149E+02 0.  0.
          6    2    1    2  502    0 -0.12099085377E+03  0.42478839839E+02 -0.28264154708E+03  0.35532086742E+03  0.17298391879E+03 0.  0.
         24    2    5    5    0    0 -0.52493240432E+02  0.46064899050E+02 -0.62413757589E+02  0.12461076336E+03  0.82187894445E+02 0.  0.
          4    1    6    6  501    0  0.16625389855E+02 -0.17663929636E+01  0.43405138679E+01  0.17273210257E+02  0.00000000000E+00 0. -1.
         -3    1    6    6    0  501 -0.69118630287E+02  0.47831292013E+02 -0.66754271457E+02  0.10733755310E+03  0.00000000000E+00 0.  1.
          5    1    5    5  502    0 -0.68497613338E+02 -0.35860592112E+01 -0.22022778949E+03  0.23071010406E+03  0.47000000000E+01 0. -1.
         13    1    4    4    0    0  0.22990798518E+02 -0.28946793002E+02 -0.32784386694E+03  0.32992134628E+03  0.00000000000E+00 0. -1.
        -14    1    4    4    0    0  0.89793031718E+02 -0.60249749873E+02 -0.29484030259E+03  0.31404398567E+03  0.00000000000E+00 0.  1.
         -5    1    3    3    0  504  0.82070235341E+01  0.46717703036E+02 -0.13445545114E+03  0.14265432820E+03  0.47000000000E+01 0.  1.
<mgrwt>
<rscale>  2 0.21482790E+03</rscale>
<asrwt>0</asrwt>
<pdfrwt beam="1">  1       21 0.78584127E-02 0.21532922E+03</pdfrwt>
<pdfrwt beam="2">  1       21 0.16782474E+00 0.21532922E+03</pdfrwt>
<totfact> 0.26963412E+04</totfact>
</mgrwt>
</event>
<event>
12    1  0.1410528E-001  0.1972513E+03  0.7546771E-02  0.1152122E+00
         21   -1    0    0  502  503  0.00000000000E+00  0.00000000000E+00  0.16593938495E+03  0.16593938495E+03  0.00000000000E+00 0. -1.
         21   -1    0    0  503  504 -0.00000000000E+00 -0.00000000000E+00 -0.23566436907E+03  0.23566436907E+03  0.00000000000E+00 0. -1.
         -6    2    1    2    0  504 -0.88594416003E+02  0.34840581917E+02 -0.19189844775E+02  0.19798184397E+03  0.17252745782E+03 0.  0.
        -24    2    3    3    0    0  0.12911455082E+00  0.64207940427E+02  0.17836854480E+01  0.10208457816E+03  0.79343577428E+02 0.  0.
          6    2    1    2  502    0  0.88594416003E+02 -0.34840581917E+02 -0.50535139344E+02  0.20362191005E+03  0.17275776466E+03 0.  0.
         24    2    5    5    0    0  0.16410338228E+02  0.26661405241E+02 -0.66757081349E+02  0.10729809726E+03  0.77950266421E+02 0.  0.
          2    1    6    6  501    0  0.15830983196E+02  0.11052244806E+02  0.14756932912E+02  0.24301012596E+02  0.00000000000E+00 0. -1.
         -1    1    6    6    0  501  0.57935503275E+00  0.15609160435E+02 -0.81514014261E+02  0.82997084664E+02  0.00000000000E+00 0.  1.
          5    1    5    5  502    0  0.72184077774E+02 -0.61501987158E+02  0.16221942005E+02  0.96323812793E+02  0.47000000000E+01 0. -1.
         11    1    4    4    0    0 -0.35002177643E+02  0.43216813725E+02 -0.15388392814E+02  0.57703102704E+02  0.00000000000E+00 0. -1.
        -12    1    4    4    0    0  0.35131292194E+02  0.20991126702E+02  0.17172078262E+02  0.44381475452E+02  0.00000000000E+00 0.  1.
         -5    1    3    3    0  504 -0.88723530554E+02 -0.29367358510E+02 -0.20973530223E+02  0.95897265810E+02  0.47000000000E+01 0.  1.
<mgrwt>
<rscale>  2 0.19720088E+03</rscale>
<asrwt>0</asrwt>
<pdfrwt beam="1">  1       21 0.25529136E-01 0.19725132E+03</pdfrwt>
<pdfrwt beam="2">  1       21 0.36256057E-01 0.19725132E+03</pdfrwt>
<totfact> 0.10657069E+05</totfact>
</mgrwt>
</event>
<event>
12    1  0.1410528E-001  0.2656431E+03  0.7546771E-02  0.1103838E+00
         21   -1    0    0  502  503  0.00000000000E+00  0.00000000000E+00  0.62144020866E+02  0.62144020866E+02  0.00000000000E+00 0.  1.
         21   -1    0    0  503  504 -0.00000000000E+00 -0.00000000000E+00 -0.11825326163E+04  0.11825326163E+04  0.00000000000E+00 0. -1.
         -6    2    1    2    0  504  0.20091381622E+03  0.52023029270E+01 -0.68549949182E+03  0.73507404802E+03  0.17329419285E+03 0.  0.
        -24    2    3    3    0    0  0.15743807793E+03  0.38822530234E+02 -0.63598978689E+03  0.66095414254E+03  0.77996360726E+02 0.  0.
          6    2    1    2  502    0 -0.20091381622E+03 -0.52023029270E+01 -0.43488910362E+03  0.50960258915E+03  0.17370331292E+03 0.  0.
         24    2    5    5    0    0 -0.12597312336E+03  0.45282300678E+02 -0.17561465228E+03  0.23499353292E+03  0.80384947934E+02 0.  0.
          2    1    6    6  501    0 -0.59676549780E+02 -0.19008807380E+02 -0.57158671694E+02  0.84792329261E+02  0.00000000000E+00 0. -1.
         -1    1    6    6    0  501 -0.66296573584E+02  0.64291108058E+02 -0.11845598058E+03  0.15020120366E+03  0.00000000000E+00 0.  1.
          5    1    5    5  502    0 -0.74940692860E+02 -0.50484603605E+02 -0.25927445134E+03  0.27460905623E+03  0.47000000000E+01 0. -1.
         11    1    4    4    0    0  0.56858123449E+02 -0.23591806330E+02 -0.21481078209E+03  0.22345713601E+03  0.00000000000E+00 0. -1.
        -12    1    4    4    0    0  0.10057995448E+03  0.62414336564E+02 -0.42117900479E+03  0.43749700654E+03  0.00000000000E+00 0.  1.
         -5    1    3    3    0  504  0.43475738299E+02 -0.33620227307E+02 -0.49509704932E+02  0.74119905473E+02  0.47000000000E+01 0.  1.
<mgrwt>
<rscale>  2 0.26557626E+03</rscale>
<asrwt>0</asrwt>
<pdfrwt beam="1">  1       21 0.95606189E-02 0.26564312E+03</pdfrwt>
<pdfrwt beam="2">  1       21 0.18192809E+00 0.26564312E+03</pdfrwt>
<totfact> 0.14774314E+04</totfact>
</mgrwt>
</event>
<event>
12    1  0.1410528E-001  0.2681444E+03  0.7546771E-02  0.1102355E+00
         21   -1    0    0  502  503  0.00000000000E+00  0.00000000000E+00  0.32053582561E+03  0.32053582561E+03  0.00000000000E+00 0.  1.
         21   -1    0    0  503  504 -0.00000000000E+00 -0.00000000000E+00 -0.27893654469E+03  0.27893654469E+03  0.00000000000E+00 0. -1.
         -6    2    1    2    0  504  0.82997533602E+02 -0.18715597111E+03 -0.11189718760E+03  0.29050216805E+03  0.17307391756E+03 0.  0.
        -24    2    3    3    0    0  0.12537078992E+03 -0.13890760829E+03 -0.87673945482E+02  0.22171079631E+03  0.80347979933E+02 0.  0.
          6    2    1    2  502    0 -0.82997533602E+02  0.18715597111E+03  0.15349646852E+03  0.30897020226E+03  0.17316313674E+03 0.  0.
         24    2    5    5    0    0 -0.80759729339E+02  0.42432528628E+02  0.55376460381E+02  0.13404305008E+03  0.81106926587E+02 0.  0.
          4    1    6    6  501    0 -0.50822322274E+02 -0.18475357593E+02  0.27583710311E+02  0.60705093312E+02  0.00000000000E+00 0. -1.
         -3    1    6    6    0  501 -0.29937407066E+02  0.60907886221E+02  0.27792750071E+02  0.73337956764E+02  0.00000000000E+00 0.  1.
          5    1    5    5  502    0 -0.22378042627E+01  0.14472344249E+03  0.98120008141E+02  0.17492715218E+03  0.47000000000E+01 0. -1.
         13    1    4    4    0    0  0.42875882906E+02 -0.23908170867E+02 -0.59962799864E+02  0.77495027819E+02  0.00000000000E+00 0. -1.
        -14    1    4    4    0    0  0.82494907015E+02 -0.11499943742E+03 -0.27711145618E+02  0.14421576849E+03  0.00000000000E+00 0.  1.
         -5    1    3    3    0  504 -0.42373256319E+02 -0.48248362826E+02 -0.24223242121E+02  0.68791371736E+02  0.47000000000E+01 0.  1.
<mgrwt>
<rscale>  2 0.26813000E+03</rscale>
<asrwt>0</asrwt>
<pdfrwt beam="1">  1       21 0.49313204E-01 0.26814440E+03</pdfrwt>
<pdfrwt beam="2">  1       21 0.42913315E-01 0.26814440E+03</pdfrwt>
<totfact> 0.19683152E+04</totfact>
</mgrwt>
</event>
<event>
12    1  0.1410528E-001  0.1817936E+03  0.7546771E-02  0.1170136E+00
         21   -1    0    0  502  503  0.00000000000E+00  0.00000000000E+00  0.76925038145E+02  0.76925038145E+02  0.00000000000E+00 0. -1.
         21   -1    0    0  503  504 -0.00000000000E+00 -0.00000000000E+00 -0.54124961518E+03  0.54124961518E+03  0.00000000000E+00 0. -1.
         -6    2    1    2    0  504  0.19890638418E+01 -0.52213090866E+02 -0.40202221021E+03  0.44121511897E+03  0.17412283155E+03 0.  0.
        -24    2    3    3    0    0 -0.57692019952E+02 -0.23475040597E+02 -0.18710177737E+03  0.21626937051E+03  0.88802696059E+02 0.  0.
          6    2    1    2  502    0 -0.19890638418E+01  0.52213090866E+02 -0.62302366819E+02  0.17695953436E+03  0.15717165347E+03 0.  0.
         24    2    5    5    0    0 -0.13228348772E+02 -0.27184841422E+02 -0.50340733898E+01  0.78308124790E+02  0.72061194126E+02 0.  0.
          4    1    6    6  501    0  0.21217354133E+02 -0.34442037706E+02 -0.12466460406E+02  0.42330163156E+02  0.00000000000E+00 0. -1.
         -3    1    6    6    0  501 -0.34445702906E+02  0.72571962841E+01  0.74323870159E+01  0.35977961634E+02  0.00000000000E+00 0.  1.
          5    1    5    5  502    0  0.11239284931E+02  0.79397932287E+02 -0.57268293430E+02  0.98651409567E+02  0.47000000000E+01 0. -1.
         11    1    4    4    0    0  0.22828111895E+02 -0.10304187267E+02 -0.62495726442E+02  0.67327667355E+02  0.00000000000E+00 0. -1.
        -12    1    4    4    0    0 -0.80520131847E+02 -0.13170853330E+02 -0.12460605093E+03  0.14894170315E+03  0.00000000000E+00 0.  1.
         -5    1    3    3    0  504  0.59681083794E+02 -0.28738050269E+02 -0.21492043284E+03  0.22494574846E+03  0.47000000000E+01 0.  1.
<mgrwt>
<rscale>  2 0.17761038E+03</rscale>
<asrwt>0</asrwt>
<pdfrwt beam="1">  1       21 0.11834622E-01 0.18179363E+03</pdfrwt>
<pdfrwt beam="2">  1       21 0.83269169E-01 0.18179363E+03</pdfrwt>
<totfact> 0.75903160E+04</totfact>
</mgrwt>
</event>
<event>
12    1  0.1410528E-001  0.1841851E+03  0.7546771E-02  0.1164774E+00
         21   -1    0    0  502  503  0.00000000000E+00  0.00000000000E+00  0.31651196837E+03  0.31651196837E+03  0.00000000000E+00 0.  1.
         21   -1    0    0  503  504 -0.00000000000E+00 -0.00000000000E+00 -0.10722452911E+03  0.10722452911E+03  0.00000000000E+00 0.  1.
         -6    2    1    2    0  504 -0.48316742024E+02  0.41098064057E+02  0.74185365237E+02  0.19856387357E+03  0.17291785635E+03 0.  0.
        -24    2    3    3    0    0  0.21644870943E+02  0.53900095701E+02  0.81733532978E+02  0.12688693070E+03  0.77757327723E+02 0.  0.
          6    2    1    2  502    0  0.48316742024E+02 -0.41098064057E+02  0.13510207403E+03  0.22517262391E+03  0.16860184377E+03 0.  0.
         24    2    5    5    0    0  0.70475243929E+02  0.24437257538E+02  0.71008007163E+02  0.13074796086E+03  0.80554035444E+02 0.  0.
          4    1    6    6  501    0  0.88107036392E+00  0.26942715708E+02  0.51982580965E+02  0.58556596029E+02  0.00000000000E+00 0. -1.
         -3    1    6    6    0  501  0.69594173565E+02 -0.25054581700E+01  0.19025426198E+02  0.72191364836E+02  0.00000000000E+00 0.  1.
          5    1    5    5  502    0 -0.22158501905E+02 -0.65535321595E+02  0.64094066869E+02  0.94424663044E+02  0.47000000000E+01 0. -1.
         11    1    4    4    0    0 -0.24931496416E+02  0.41721572195E+02  0.46133997427E+02  0.67012049801E+02  0.00000000000E+00 0. -1.
        -12    1    4    4    0    0  0.46576367359E+02  0.12178523507E+02  0.35599535550E+02  0.59874880898E+02  0.00000000000E+00 0.  1.
         -5    1    3    3    0  504 -0.69961612967E+02 -0.12802031645E+02 -0.75481677406E+01  0.71676942872E+02  0.47000000000E+01 0.  1.
<mgrwt>
<rscale>  2 0.18316518E+03</rscale>
<asrwt>0</asrwt>
<pdfrwt beam="1">  1       21 0.48694149E-01 0.18418508E+03</pdfrwt>
<pdfrwt beam="2">  1       21 0.16496082E-01 0.18418508E+03</pdfrwt>
<totfact> 0.13312646E+05</totfact>
</mgrwt>
</event>
<event>
12    1  0.1410528E-001  0.1980028E+03  0.7546771E-02  0.1151522E+00
         21   -1    0    0  502  503  0.00000000000E+00  0.00000000000E+00  0.17964785140E+03  0.17964785140E+03  0.00000000000E+00 0.  1.
         21   -1    0    0  503  504 -0.00000000000E+00 -0.00000000000E+00 -0.25746574093E+03  0.25746574093E+03  0.00000000000E+00 0.  1.
         -6    2    1    2    0  504  0.95840610468E+02 -0.24995401162E+01 -0.12467709419E+03  0.23364150815E+03  0.17277819943E+03 0.  0.
        -24    2    3    3    0    0 -0.98466075719E+01 -0.10862578956E+02 -0.97910873974E+02  0.12419632086E+03  0.74988236212E+02 0.  0.
          6    2    1    2  502    0 -0.95840610468E+02  0.24995401162E+01  0.46859204658E+02  0.20347208419E+03  0.17324385608E+03 0.  0.
         24    2    5    5    0    0 -0.13224932837E+03  0.11478883508E+02  0.18880357469E+02  0.15644943819E+03  0.80612090862E+02 0.  0.
          4    1    6    6  501    0 -0.70605332775E+02  0.23573725159E+02 -0.26434980452E+02  0.78991402859E+02  0.00000000000E+00 0. -1.
         -3    1    6    6    0  501 -0.61643995591E+02 -0.12094841651E+02  0.45315337922E+02  0.77458035335E+02  0.00000000000E+00 0.  1.
          5    1    5    5  502    0  0.36408717897E+02 -0.89793433913E+01  0.27978847189E+02  0.47022645998E+02  0.47000000000E+01 0. -1.
         11    1    4    4    0    0  0.91007460092E+01 -0.30786640817E+02 -0.90047405532E+02  0.95599038038E+02  0.00000000000E+00 0. -1.
        -12    1    4    4    0    0 -0.18947353581E+02  0.19924061861E+02 -0.78634684418E+01  0.28597282820E+02  0.00000000000E+00 0.  1.
         -5    1    3    3    0  504  0.10568721804E+03  0.83630388395E+01 -0.26766220216E+02  0.10944518729E+03  0.47000000000E+01 0.  1.
<mgrwt>
<rscale>  2 0.19790088E+03</rscale>
<asrwt>0</asrwt>
<pdfrwt beam="1">  1       21 0.27638131E-01 0.19800279E+03</pdfrwt>
<pdfrwt beam="2">  1       21 0.39610114E-01 0.19800279E+03</pdfrwt>
<totfact> 0.76581768E+04</totfact>
</mgrwt>
</event>
<event>
12    1  0.1410528E-001  0.2141487E+03  0.7546771E-02  0.1139188E+00
         21   -1    0    0  502  503  0.00000000000E+00  0.00000000000E+00  0.19451899137E+03  0.19451899137E+03  0.00000000000E+00 0. -1.
         21   -1    0    0  503  504 -0.00000000000E+00 -0.00000000000E+00 -0.23911067281E+03  0.23911067281E+03  0.00000000000E+00 0. -1.
         -6    2    1    2    0  504 -0.11556805883E+03  0.23251156109E+02 -0.62690764976E+02  0.22313626626E+03  0.17878218263E+03 0.  0.
        -24    2    3    3    0    0 -0.12002854052E+03  0.50292828616E+02 -0.95139436113E+02  0.18040274069E+03  0.80977882140E+02 0.  0.
          6    2    1    2  502    0  0.11556805883E+03 -0.23251156109E+02  0.18099083541E+02  0.21049339792E+03  0.17344538409E+03 0.  0.
         24    2    5    5    0    0  0.74022095516E+02 -0.38589883110E+01 -0.54310851345E+02  0.12465976867E+03  0.84239105745E+02 0.  0.
          4    1    6    6  501    0  0.85887181905E+02  0.14445155873E+01 -0.20321402549E+02  0.88270346337E+02  0.00000000000E+00 0. -1.
         -3    1    6    6    0  501 -0.11865086389E+02 -0.53035038983E+01 -0.33989448796E+02  0.36389422338E+02  0.00000000000E+00 0.  1.
          5    1    5    5  502    0  0.41545963318E+02 -0.19392167798E+02  0.72409934885E+02  0.85833629249E+02  0.47000000000E+01 0. -1.
         13    1    4    4    0    0 -0.78850553132E+02  0.23906631281E+02 -0.11059998842E+02  0.83133990177E+02  0.00000000000E+00 0. -1.
        -14    1    4    4    0    0 -0.41177987391E+02  0.26386197335E+02 -0.84079437271E+02  0.97268750517E+02  0.00000000000E+00 0.  1.
         -5    1    3    3    0  504  0.44604816895E+01 -0.27041672507E+02  0.32448671137E+02  0.42733525568E+02  0.47000000000E+01 0.  1.
<mgrwt>
<rscale>  2 0.21303126E+03</rscale>
<asrwt>0</asrwt>
<pdfrwt beam="1">  1       21 0.29925999E-01 0.21414869E+03</pdfrwt>
<pdfrwt beam="2">  1       21 0.36786257E-01 0.21414869E+03</pdfrwt>
<totfact> 0.75610881E+04</totfact>
</mgrwt>
</event>
<event>
12    1  0.1410528E-001  0.2713086E+03  0.7546771E-02  0.1100561E+00
         21   -1    0    0  502  503  0.00000000000E+00  0.00000000000E+00  0.13267166505E+04  0.13267166505E+04  0.00000000000E+00 0.  1.
         21   -1    0    0  503  504 -0.00000000000E+00 -0.00000000000E+00 -0.56301142150E+02  0.56301142150E+02  0.00000000000E+00 0. -1.
         -6    2    1    2    0  504 -0.78636884747E+02 -0.19302270521E+03  0.54996015945E+03  0.61324102947E+03  0.17368609294E+03 0.  0.
        -24    2    3    3    0    0 -0.32823379850E+02 -0.19809203785E+03  0.50069448329E+03  0.54561135986E+03  0.81724908600E+02 0.  0.
          6    2    1    2  502    0  0.78636884747E+02  0.19302270521E+03  0.72045534888E+03  0.76977676315E+03  0.17337482803E+03 0.  0.
         24    2    5    5    0    0  0.79717691522E+02  0.21579999356E+03  0.68762913976E+03  0.72953222299E+03  0.80367175895E+02 0.  0.
          2    1    6    6  501    0  0.35753528679E+02  0.10314276062E+03  0.20816023042E+03  0.23504770880E+03  0.00000000000E+00 0. -1.
         -1    1    6    6    0  501  0.43964162844E+02  0.11265723294E+03  0.47946890934E+03  0.49448451419E+03  0.00000000000E+00 0.  1.
          5    1    5    5  502    0 -0.10808067750E+01 -0.22777288358E+02  0.32826209113E+02  0.40244540163E+02  0.47000000000E+01 0. -1.
         11    1    4    4    0    0 -0.84831360513E+01 -0.22064702879E+02  0.13962218991E+02  0.27454658431E+02  0.00000000000E+00 0. -1.
        -12    1    4    4    0    0 -0.24340243799E+02 -0.17602733498E+03  0.48673226430E+03  0.51815670143E+03  0.00000000000E+00 0.  1.
         -5    1    3    3    0  504 -0.45813504897E+02  0.50693326495E+01  0.49265676154E+02  0.67629669609E+02  0.47000000000E+01 0.  1.
<mgrwt>
<rscale>  2 0.27125885E+03</rscale>
<asrwt>0</asrwt>
<pdfrwt beam="1">  1       21 0.20411023E+00 0.27130865E+03</pdfrwt>
<pdfrwt beam="2">  1       21 0.86617152E-02 0.27130865E+03</pdfrwt>
<totfact> 0.12487873E+04</totfact>
</mgrwt>
</event>
<event>
12    1  0.1410528E-001  0.1845002E+03  0.7546771E-02  0.1163684E+00
         21   -1    0    0  502  503  0.00000000000E+00  0.00000000000E+00  0.50674019203E+03  0.50674019203E+03  0.00000000000E+00 0. -1.
         21   -1    0    0  503  504 -0.00000000000E+00 -0.00000000000E+00 -0.19168602333E+03  0.19168602333E+03  0.00000000000E+00 0. -1.
         -6    2    1    2    0  504  0.66415142521E+01 -0.58062325269E+02 -0.12410732844E+03  0.22235773334E+03  0.17499996936E+03 0.  0.
        -24    2    3    3    0    0  0.39429240104E+01 -0.63892280067E+02 -0.48536440937E+01  0.10283868887E+03  0.80339703538E+02 0.  0.
          6    2    1    2  502    0 -0.66415142521E+01  0.58062325269E+02  0.43916149713E+03  0.47606848202E+03  0.17424992306E+03 0.  0.
         24    2    5    5    0    0  0.39627258527E+02 -0.70334600270E+01  0.11309298750E+03  0.14032896458E+03  0.72680157545E+02 0.  0.
          4    1    6    6  501    0 -0.17551923418E+02 -0.12968318826E+02  0.52247640346E+02  0.56622109026E+02  0.00000000000E+00 0. -1.
         -3    1    6    6    0  501  0.57179181945E+02  0.59348587992E+01  0.60845347155E+02  0.83706855557E+02  0.00000000000E+00 0.  1.
          5    1    5    5  502    0 -0.46268772779E+02  0.65095785296E+02  0.32606850963E+03  0.33573951744E+03  0.47000000000E+01 0. -1.
         11    1    4    4    0    0 -0.20095857269E+02 -0.59309952051E+02 -0.28506109034E+02  0.68804884594E+02  0.00000000000E+00 0. -1.
        -12    1    4    4    0    0  0.24038781279E+02 -0.45823280157E+01  0.23652464941E+02  0.34033804271E+02  0.00000000000E+00 0.  1.
         -5    1    3    3    0  504  0.26985902417E+01  0.58299547981E+01 -0.11925368434E+03  0.11951904447E+03  0.47000000000E+01 0.  1.
<mgrwt>
<rscale>  2 0.18432215E+03</rscale>
<asrwt>0</asrwt>
<pdfrwt beam="1">  1       21 0.77960029E-01 0.18450022E+03</pdfrwt>
<pdfrwt beam="2">  1       21 0.29490158E-01 0.18450022E+03</pdfrwt>
<totfact> 0.16144660E+04</totfact>
</mgrwt>
</event>
<event>
12    1  0.1410528E-001  0.1983724E+03  0.7546771E-02  0.1151123E+00
         21   -1    0    0  502  503  0.00000000000E+00  0.00000000000E+00  0.13704104846E+03  0.13704104846E+03  0.00000000000E+00 0.  1.
         21   -1    0    0  503  504 -0.00000000000E+00 -0.00000000000E+00 -0.32394843763E+03  0.32394843763E+03  0.00000000000E+00 0. -1.
         -6    2    1    2    0  504 -0.91004165014E+02 -0.22167718012E+02 -0.17116883510E+03  0.26201216760E+03  0.17486692108E+03 0.  0.
        -24    2    3    3    0    0 -0.88169299134E+02 -0.73642872146E+02 -0.93770006959E+02  0.16889720341E+03  0.80847716033E+02 0.  0.
          6    2    1    2  502    0  0.91004165014E+02  0.22167718012E+02 -0.15738554073E+02  0.19897731849E+03  0.17484594768E+03 0.  0.
         24    2    5    5    0    0  0.81328213726E+02 -0.45339559799E+02 -0.36362868340E+02  0.12757487505E+03  0.79266238207E+02 0.  0.
          2    1    6    6  501    0  0.67862546085E+02 -0.57149643775E+02 -0.52817791573E+02  0.10325272903E+03  0.00000000000E+00 0. -1.
         -1    1    6    6    0  501  0.13465667641E+02  0.11810083976E+02  0.16454923234E+02  0.24322146023E+02  0.00000000000E+00 0.  1.
          5    1    5    5  502    0  0.96759512876E+01  0.67507277811E+02  0.20624314267E+02  0.71402443444E+02  0.47000000000E+01 0. -1.
         11    1    4    4    0    0 -0.54581523740E+02 -0.37575059310E+01 -0.67810248321E+02  0.87129164819E+02  0.00000000000E+00 0. -1.
        -12    1    4    4    0    0 -0.33587775393E+02 -0.69885366215E+02 -0.25959758638E+02  0.81768038594E+02  0.00000000000E+00 0.  1.
         -5    1    3    3    0  504 -0.28348658802E+01  0.51475154134E+02 -0.77398828138E+02  0.93114964183E+02  0.47000000000E+01 0.  1.
<mgrwt>
<rscale>  2 0.19836777E+03</rscale>
<asrwt>0</asrwt>
<pdfrwt beam="1">  1       21 0.21083239E-01 0.19837239E+03</pdfrwt>
<pdfrwt beam="2">  1       21 0.49838220E-01 0.19837239E+03</pdfrwt>
<totfact> 0.80027204E+04</totfact>
</mgrwt>
</event>
<event>
12    1  0.1410528E-001  0.5062658E+03  0.7546771E-02  0.1012293E+00
         21   -1    0    0  502  503  0.00000000000E+00  0.00000000000E+00  0.83822092900E+03  0.83822092900E+03  0.00000000000E+00 0. -1.
         21   -1    0    0  503  504 -0.00000000000E+00 -0.00000000000E+00 -0.56356839237E+03  0.56356839237E+03  0.00000000000E+00 0.  1.
         -6    2    1    2    0  504  0.46932539794E+03 -0.67875871739E+02 -0.33804924876E+03  0.60698836453E+03  0.17112602658E+03 0.  0.
        -24    2    3    3    0    0  0.32423649719E+03 -0.42277254011E+02 -0.15155022239E+03  0.36926992774E+03  0.80474451317E+02 0.  0.
          6    2    1    2  502    0 -0.46932539794E+03  0.67875871739E+02  0.61270178538E+03  0.79480095684E+03  0.17728965023E+03 0.  0.
         24    2    5    5    0    0 -0.21532954152E+03 -0.26957696028E+02  0.33023685860E+03  0.40324530880E+03  0.80354635618E+02 0.  0.
          2    1    6    6  501    0 -0.21983428892E+03 -0.34005787733E+02  0.32297133330E+03  0.39216576893E+03  0.00000000000E+00 0. -1.
         -1    1    6    6    0  501  0.45047474054E+01  0.70480917042E+01  0.72655252982E+01  0.11079539869E+02  0.00000000000E+00 0.  1.
          5    1    5    5  502    0 -0.25399585642E+03  0.94833567768E+02  0.28246492678E+03  0.39155564804E+03  0.47000000000E+01 0. -1.
         11    1    4    4    0    0 -0.42852927013E+01 -0.29391004694E+01  0.33082798684E+00  0.52068697182E+01  0.00000000000E+00 0. -1.
        -12    1    4    4    0    0  0.32852178989E+03 -0.39338153542E+02 -0.15188105038E+03  0.36406305803E+03  0.00000000000E+00 0.  1.
         -5    1    3    3    0  504  0.14508890075E+03 -0.25598617728E+02 -0.18649902637E+03  0.23771843678E+03  0.47000000000E+01 0.  1.
<mgrwt>
<rscale>  2 0.50573364E+03</rscale>
<asrwt>0</asrwt>
<pdfrwt beam="1">  1       21 0.12895707E+00 0.50626582E+03</pdfrwt>
<pdfrwt beam="2">  1       21 0.86702830E-01 0.50626582E+03</pdfrwt>
<totfact> 0.41013296E+02</totfact>
</mgrwt>
</event>
<event>
12    1  0.1410528E-001  0.2179896E+03  0.7546771E-02  0.1135595E+00
         21   -1    0    0  502  503  0.00000000000E+00  0.00000000000E+00  0.16267883108E+03  0.16267883108E+03  0.00000000000E+00 0. -1.
         21   -1    0    0  503  504 -0.00000000000E+00 -0.00000000000E+00 -0.41499719156E+03  0.41499719156E+03  0.00000000000E+00 0.  1.
         -6    2    1    2    0  504 -0.51331465781E+02 -0.12124059619E+03 -0.28403790095E+03  0.35739076607E+03  0.17238453804E+03 0.  0.
        -24    2    3    3    0    0 -0.98073758370E+02 -0.95496079375E+02 -0.23860158699E+03  0.28714711377E+03  0.82369802572E+02 0.  0.
          6    2    1    2  502    0  0.51331465781E+02  0.12124059619E+03  0.31719540471E+02  0.22028525656E+03  0.17373906719E+03 0.  0.
         24    2    5    5    0    0  0.12261188771E+02  0.14481515783E+03  0.46278402452E+02  0.17215733364E+03  0.79841657711E+02 0.  0.
          4    1    6    6  501    0  0.39500427105E+02  0.11346033883E+03  0.16990133795E+02  0.12133506037E+03  0.00000000000E+00 0. -1.
         -3    1    6    6    0  501 -0.27239238334E+02  0.31354818999E+02  0.29288268657E+02  0.50822273271E+02  0.00000000000E+00 0.  1.
          5    1    5    5  502    0  0.39070277010E+02 -0.23574561641E+02 -0.14558861982E+02  0.48127922918E+02  0.47000000000E+01 0. -1.
         13    1    4    4    0    0 -0.46383479706E+02 -0.63367697621E+02 -0.61093684185E+02  0.99495379484E+02  0.00000000000E+00 0. -1.
        -14    1    4    4    0    0 -0.51690278664E+02 -0.32128381754E+02 -0.17750790280E+03  0.18765173428E+03  0.00000000000E+00 0.  1.
         -5    1    3    3    0  504  0.46742292589E+02 -0.25744516814E+02 -0.45436313965E+02  0.70243652305E+02  0.47000000000E+01 0.  1.
<mgrwt>
<rscale>  2 0.21771959E+03</rscale>
<asrwt>0</asrwt>
<pdfrwt beam="1">  1       21 0.25027512E-01 0.21798960E+03</pdfrwt>
<pdfrwt beam="2">  1       21 0.63845723E-01 0.21798960E+03</pdfrwt>
<totfact> 0.33797848E+04</totfact>
</mgrwt>
</event>
<event>
12    1  0.1410528E-001  0.2481959E+03  0.7546771E-02  0.1115226E+00
         21   -1    0    0  502  503  0.00000000000E+00  0.00000000000E+00  0.45829208876E+03  0.45829208876E+03  0.00000000000E+00 0.  1.
         21   -1    0    0  503  504 -0.00000000000E+00 -0.00000000000E+00 -0.16903845416E+03  0.16903845416E+03  0.00000000000E+00 0.  1.
         -6    2    1    2    0  504  0.16272647742E+03  0.53006548288E+02 -0.36535193117E+01  0.24340895639E+03  0.17304615348E+03 0.  0.
        -24    2    3    3    0    0  0.29221185979E+02  0.62094179060E+02  0.20007036488E+02  0.10743778380E+03  0.80206178658E+02 0.  0.
          6    2    1    2  502    0 -0.16272647742E+03 -0.53006548288E+02  0.29290715391E+03  0.38392158653E+03  0.17975422992E+03 0.  0.
         24    2    5    5    0    0 -0.17449147780E+03 -0.85957135333E+02  0.26476757329E+03  0.33877646034E+03  0.82654203028E+02 0.  0.
          4    1    6    6  501    0 -0.11005442273E+03 -0.76524041289E+02  0.11949420178E+03  0.17957385421E+03  0.00000000000E+00 0. -1.
         -3    1    6    6    0  501 -0.64437055069E+02 -0.94330940435E+01  0.14527337151E+03  0.15920260613E+03  0.00000000000E+00 0.  1.
          5    1    5    5  502    0  0.11765000381E+02  0.32950587044E+02  0.28139580625E+02  0.45145126185E+02  0.47000000000E+01 0. -1.
         13    1    4    4    0    0  0.50908031702E+02  0.15690933060E+02  0.17810513192E+02  0.56169809081E+02  0.00000000000E+00 0. -1.
        -14    1    4    4    0    0 -0.21686845724E+02  0.46403246001E+02  0.21965232962E+01  0.51267974715E+02  0.00000000000E+00 0.  1.
         -5    1    3    3    0  504  0.13350529144E+03 -0.90876307722E+01 -0.23660555800E+02  0.13597117260E+03  0.47000000000E+01 0.  1.
<mgrwt>
<rscale>  2 0.24698342E+03</rscale>
<asrwt>0</asrwt>
<pdfrwt beam="1">  1       21 0.70506475E-01 0.24819586E+03</pdfrwt>
<pdfrwt beam="2">  1       21 0.26005916E-01 0.24819586E+03</pdfrwt>
<totfact> 0.24875150E+04</totfact>
</mgrwt>
</event>
<event>
12    1  0.1410528E-001  0.1870936E+03  0.7546771E-02  0.1161481E+00
         21   -1    0    0  502  503  0.00000000000E+00  0.00000000000E+00  0.21159468470E+03  0.21159468470E+03  0.00000000000E+00 0. -1.
         21   -1    0    0  503  504 -0.00000000000E+00 -0.00000000000E+00 -0.20414006455E+03  0.20414006455E+03  0.00000000000E+00 0.  1.
         -6    2    1    2    0  504 -0.17306322164E+02 -0.64359660311E+02 -0.88420901451E+02  0.20693541294E+03  0.17482086447E+03 0.  0.
        -24    2    3    3    0    0 -0.11375772112E+02 -0.77002852687E+02  0.51346686908E+01  0.11222661482E+03  0.80682096764E+02 0.  0.
          6    2    1    2  502    0  0.17306322164E+02  0.64359660311E+02  0.95875521599E+02  0.20879933630E+03  0.17309931408E+03 0.  0.
         24    2    5    5    0    0  0.35955445793E+02  0.63914659228E+02 -0.35530757076E+01  0.10752681386E+03  0.78558981705E+02 0.  0.
          4    1    6    6  501    0  0.52236246114E+02  0.62715470098E+02 -0.20334284851E+02  0.84115032771E+02  0.00000000000E+00 0. -1.
         -3    1    6    6    0  501 -0.16280800321E+02  0.11991891298E+01  0.16781209144E+02  0.23411781094E+02  0.00000000000E+00 0.  1.
          5    1    5    5  502    0 -0.18649123629E+02  0.44500108267E+00  0.99428597307E+02  0.10127252244E+03  0.47000000000E+01 0. -1.
         13    1    4    4    0    0 -0.23105358495E+02 -0.89906869789E+02  0.11763696750E+02  0.93570761393E+02  0.00000000000E+00 0. -1.
        -14    1    4    4    0    0  0.11729586383E+02  0.12904017102E+02 -0.66290280592E+01  0.18655853427E+02  0.00000000000E+00 0.  1.
         -5    1    3    3    0  504 -0.59305500520E+01  0.12643192377E+02 -0.93555570142E+02  0.94708798123E+02  0.47000000000E+01 0.  1.
<mgrwt>
<rscale>  2 0.18669038E+03</rscale>
<asrwt>0</asrwt>
<pdfrwt beam="1">  1       21 0.32553029E-01 0.18709358E+03</pdfrwt>
<pdfrwt beam="2">  1       21 0.31406164E-01 0.18709358E+03</pdfrwt>
<totfact> 0.88677836E+04</totfact>
</mgrwt>
</event>
<event>
12    1  0.1410528E-001  0.2495505E+03  0.7546771E-02  0.1113637E+00
         21   -1    0    0  502  503  0.00000000000E+00  0.00000000000E+00  0.16629981901E+04  0.16629981901E+04  0.00000000000E+00 0. -1.
         21   -1    0    0  503  504 -0.00000000000E+00 -0.00000000000E+00 -0.68703980855E+02  0.68703980855E+02  0.00000000000E+00 0.  1.
         -6    2    1    2    0  504  0.17457665519E+03 -0.43832275830E+02  0.21244840633E+03  0.32750372195E+03  0.17241254478E+03 0.  0.
        -24    2    3    3    0    0  0.90420729535E+02  0.41915647793E+02  0.10890585961E+03  0.16882771491E+03  0.81911422929E+02 0.  0.
          6    2    1    2  502    0 -0.17457665519E+03  0.43832275830E+02  0.13818458029E+04  0.14041984490E+04  0.17285017850E+03 0.  0.
         24    2    5    5    0    0 -0.82891513110E+02 -0.11669485621E+02  0.10292322400E+04  0.10356268474E+04  0.78719649548E+02 0.  0.
          4    1    6    6  501    0 -0.98007285247E+02 -0.13569619749E+02  0.84714722911E+03  0.85290561631E+03  0.00000000000E+00 0. -1.
         -3    1    6    6    0  501  0.15115772137E+02  0.19001341279E+01  0.18208501093E+03  0.18272123107E+03  0.00000000000E+00 0.  1.
          5    1    5    5  502    0 -0.91685142078E+02  0.55501761452E+02  0.35261356283E+03  0.36857160158E+03  0.47000000000E+01 0. -1.
         13    1    4    4    0    0 -0.40639411281E+00  0.14388328175E+02 -0.93749729705E+01  0.17177871290E+02  0.00000000000E+00 0. -1.
        -14    1    4    4    0    0  0.90827123648E+02  0.27527319617E+02  0.11828083258E+03  0.15164984362E+03  0.00000000000E+00 0.  1.
         -5    1    3    3    0  504  0.84155925653E+02 -0.85747923623E+02  0.10354254672E+03  0.15867600704E+03  0.47000000000E+01 0.  1.
<mgrwt>
<rscale>  2 0.24947475E+03</rscale>
<asrwt>0</asrwt>
<pdfrwt beam="1">  1       21 0.25584584E+00 0.24955052E+03</pdfrwt>
<pdfrwt beam="2">  1       21 0.10569844E-01 0.24955052E+03</pdfrwt>
<totfact> 0.42823102E+03</totfact>
</mgrwt>
</event>
<event>
12    1  0.1410528E-001  0.2258982E+03  0.7546771E-02  0.1129798E+00
         21   -1    0    0  502  503  0.00000000000E+00  0.00000000000E+00  0.30402150275E+03  0.30402150275E+03  0.00000000000E+00 0.  1.
         21   -1    0    0  503  504 -0.00000000000E+00 -0.00000000000E+00 -0.36944675256E+03  0.36944675256E+03  0.00000000000E+00 0. -1.
         -6    2    1    2    0  504  0.79973359945E+02 -0.11847424325E+03 -0.28209949440E+03  0.36140023909E+03  0.17492319304E+03 0.  0.
        -24    2    3    3    0    0  0.69792580047E+02 -0.82929689850E+02 -0.29278739606E+03  0.32262673270E+03  0.81333951546E+02 0.  0.
          6    2    1    2  502    0 -0.79973359945E+02  0.11847424325E+03  0.21667424458E+03  0.31206801622E+03  0.17322480731E+03 0.  0.
         24    2    5    5    0    0 -0.95435979797E+02  0.82621355523E+02  0.22517800407E+03  0.27183213551E+03  0.85166083329E+02 0.  0.
          4    1    6    6  501    0 -0.92673903667E+02  0.40593354890E+02  0.11128935600E+03  0.15040476602E+03  0.00000000000E+00 0. -1.
         -3    1    6    6    0  501 -0.27620761293E+01  0.42028000633E+02  0.11388864808E+03  0.12142736949E+03  0.00000000000E+00 0.  1.
          5    1    5    5  502    0  0.15462619852E+02  0.35852887730E+02 -0.85037594894E+01  0.40235880713E+02  0.47000000000E+01 0. -1.
         13    1    4    4    0    0  0.72975916309E+02 -0.42300248995E+02 -0.13116752118E+03  0.15594779267E+03  0.00000000000E+00 0. -1.
        -14    1    4    4    0    0 -0.31833362612E+01 -0.40629440855E+02 -0.16161987488E+03  0.16667894003E+03  0.00000000000E+00 0.  1.
         -5    1    3    3    0  504  0.10180779897E+02 -0.35544553403E+02  0.10687901664E+02  0.38773506392E+02  0.47000000000E+01 0.  1.
<mgrwt>
<rscale>  2 0.22556937E+03</rscale>
<asrwt>0</asrwt>
<pdfrwt beam="1">  1       21 0.46772539E-01 0.22589823E+03</pdfrwt>
<pdfrwt beam="2">  1       21 0.56837962E-01 0.22589823E+03</pdfrwt>
<totfact> 0.12466510E+04</totfact>
</mgrwt>
</event>
<event>
12    1  0.1410528E-001  0.3170048E+03  0.7546771E-02  0.1077233E+00
         21   -1    0    0  502  503  0.00000000000E+00  0.00000000000E+00  0.76957724209E+03  0.76957724209E+03  0.00000000000E+00 0. -1.
         21   -1    0    0  503  504 -0.00000000000E+00 -0.00000000000E+00 -0.19164097095E+03  0.19164097095E+03  0.00000000000E+00 0.  1.
         -6    2    1    2    0  504  0.20355120968E+03  0.16769678466E+03  0.15625949727E+02  0.31570684798E+03  0.17283326361E+03 0.  0.
        -24    2    3    3    0    0  0.15121415599E+03  0.32769677792E+02 -0.25532883618E+01  0.16977170467E+03  0.69830793141E+02 0.  0.
          6    2    1    2  502    0 -0.20355120968E+03 -0.16769678466E+03  0.56231032142E+03  0.64551136505E+03  0.17588836883E+03 0.  0.
         24    2    5    5    0    0 -0.16572963796E+03 -0.80659226641E+02  0.47675679967E+03  0.51765401142E+03  0.81831569529E+02 0.  0.
          2    1    6    6  501    0 -0.16957001218E+03 -0.85477770957E+02  0.47450726566E+03  0.51109449568E+03  0.00000000000E+00 0. -1.
         -1    1    6    6    0  501  0.38403742168E+01  0.48185443165E+01  0.22495340110E+01  0.65595157384E+01  0.00000000000E+00 0.  1.
          5    1    5    5  502    0 -0.37821571721E+02 -0.87037558018E+02  0.85553521749E+02  0.12785735363E+03  0.47000000000E+01 0. -1.
         13    1    4    4    0    0  0.57900256190E+01 -0.54497469007E+01  0.16393547710E+02  0.18220113734E+02  0.00000000000E+00 0. -1.
        -14    1    4    4    0    0  0.14542413037E+03  0.38219424692E+02 -0.18946836072E+02  0.15155159094E+03  0.00000000000E+00 0.  1.
         -5    1    3    3    0  504  0.52337053694E+02  0.13492710687E+03  0.18179238089E+02  0.14593514332E+03  0.47000000000E+01 0.  1.
<mgrwt>
<rscale>  2 0.31658271E+03</rscale>
<asrwt>0</asrwt>
<pdfrwt beam="1">  1       21 0.11839650E+00 0.31700477E+03</pdfrwt>
<pdfrwt beam="2">  1       21 0.29483227E-01 0.31700477E+03</pdfrwt>
<totfact> 0.55692522E+03</totfact>
</mgrwt>
</event>
<event>
12    1  0.1410528E-001  0.2430111E+03  0.7546771E-02  0.1117856E+00
         21   -1    0    0  502  503  0.00000000000E+00  0.00000000000E+00  0.17523635934E+03  0.17523635934E+03  0.00000000000E+00 0. -1.
         21   -1    0    0  503  504 -0.00000000000E+00 -0.00000000000E+00 -0.38280888279E+03  0.38280888279E+03  0.00000000000E+00 0. -1.
         -6    2    1    2    0  504 -0.16383754234E+03  0.46475597737E+02 -0.20083686788E+03  0.31526154798E+03  0.17335418850E+03 0.  0.
        -24    2    3    3    0    0 -0.12429274216E+03 -0.89290435152E+01 -0.19745165651E+03  0.24694599229E+03  0.80416123243E+02 0.  0.
          6    2    1    2  502    0  0.16383754234E+03 -0.46475597737E+02 -0.67356555700E+01  0.24278369415E+03  0.17290411107E+03 0.  0.
         24    2    5    5    0    0  0.60166335686E+02 -0.11969514991E+02  0.58299566282E+02  0.11554353179E+03  0.78665183348E+02 0.  0.
          2    1    6    6  501    0  0.46809652637E+02 -0.41010834839E+02  0.19383943510E+02  0.65182585252E+02  0.00000000000E+00 0. -1.
         -1    1    6    6    0  501  0.13356683048E+02  0.29041319848E+02  0.38915622772E+02  0.50360946539E+02  0.00000000000E+00 0.  1.
          5    1    5    5  502    0  0.10367120665E+03 -0.34506082746E+02 -0.65035221851E+02  0.12724016236E+03  0.47000000000E+01 0. -1.
         13    1    4    4    0    0 -0.57419845138E+02  0.34423824016E+02 -0.10870882065E+03  0.12767006682E+03  0.00000000000E+00 0. -1.
        -14    1    4    4    0    0 -0.66872897020E+02 -0.43352867532E+02 -0.88742835859E+02  0.11927592546E+03  0.00000000000E+00 0.  1.
         -5    1    3    3    0  504 -0.39544800179E+02  0.55404641252E+02 -0.33852113683E+01  0.68315555692E+02  0.47000000000E+01 0.  1.
<mgrwt>
<rscale>  2 0.24293085E+03</rscale>
<asrwt>0</asrwt>
<pdfrwt beam="1">  1       21 0.26959440E-01 0.24301110E+03</pdfrwt>
<pdfrwt beam="2">  1       21 0.58893674E-01 0.24301110E+03</pdfrwt>
<totfact> 0.34476807E+04</totfact>
</mgrwt>
</event>
<event>
12    1  0.1410528E-001  0.1795330E+03  0.7546771E-02  0.1168338E+00
         21   -1    0    0  502  503  0.00000000000E+00  0.00000000000E+00  0.10833275992E+03  0.10833275992E+03  0.00000000000E+00 0. -1.
         21   -1    0    0  503  504 -0.00000000000E+00 -0.00000000000E+00 -0.30032059574E+03  0.30032059574E+03  0.00000000000E+00 0. -1.
         -6    2    1    2    0  504 -0.36298304116E+02 -0.31215234128E+02 -0.11767673505E+03  0.21466232371E+03  0.17303219795E+03 0.  0.
        -24    2    3    3    0    0  0.36952809748E+02  0.13481886623E+02 -0.34059516501E+02  0.94756162389E+02  0.79192223300E+02 0.  0.
          6    2    1    2  502    0  0.36298304116E+02  0.31215234128E+02 -0.74311100768E+02  0.19399103195E+03  0.17268011772E+03 0.  0.
         24    2    5    5    0    0  0.63871867962E+02 -0.85062652589E+01 -0.87256934534E+02  0.14371396413E+03  0.94275971468E+02 0.  0.
          2    1    6    6  501    0  0.65878643343E+02  0.11786797839E+02 -0.99511696107E+02  0.11992289987E+03  0.00000000000E+00 0. -1.
         -1    1    6    6    0  501 -0.20067753810E+01 -0.20293063098E+02  0.12254761572E+02  0.23791064258E+02  0.00000000000E+00 0.  1.
          5    1    5    5  502    0 -0.27573563846E+02  0.39721499387E+02  0.12945833767E+02  0.50277067821E+02  0.47000000000E+01 0. -1.
         11    1    4    4    0    0 -0.24413764603E+02 -0.31796939527E+01 -0.12507599832E+02  0.27614894699E+02  0.00000000000E+00 0. -1.
        -12    1    4    4    0    0  0.61366574351E+02  0.16661580575E+02 -0.21551916669E+02  0.67141267690E+02  0.00000000000E+00 0.  1.
         -5    1    3    3    0  504 -0.73251113864E+02 -0.44697120751E+02 -0.83617218548E+02  0.11990616132E+03  0.47000000000E+01 0.  1.
<mgrwt>
<rscale>  2 0.17944812E+03</rscale>
<asrwt>0</asrwt>
<pdfrwt beam="1">  1       21 0.16666578E-01 0.17953300E+03</pdfrwt>
<pdfrwt beam="2">  1       21 0.46203168E-01 0.17953300E+03</pdfrwt>
<totfact> 0.14583901E+05</totfact>
</mgrwt>
</event>
<event>
12    1  0.1410528E-001  0.1772731E+03  0.7546771E-02  0.1170831E+00
         21   -1    0    0  502  503  0.00000000000E+00  0.00000000000E+00  0.42619382428E+03  0.42619382428E+03  0.00000000000E+00 0. -1.
         21   -1    0    0  503  504 -0.00000000000E+00 -0.00000000000E+00 -0.96643440511E+02  0.96643440511E+02  0.00000000000E+00 0. -1.
         -6    2    1    2    0  504 -0.35356893765E+02 -0.73968787330E+01  0.35312782999E+02  0.17932375710E+03  0.17206159789E+03 0.  0.
        -24    2    3    3    0    0 -0.70602721200E+02  0.13056090657E+02 -0.19670895446E+02  0.11072428769E+03  0.81961686249E+02 0.  0.
          6    2    1    2  502    0  0.35356893765E+02  0.73968787330E+01  0.29423760077E+03  0.34351350769E+03  0.17355385477E+03 0.  0.
         24    2    5    5    0    0  0.78686996351E+01 -0.51616578978E+02  0.10069061448E+03  0.13925701474E+03  0.80794360272E+02 0.  0.
          4    1    6    6  501    0  0.27389395997E+02  0.77685813544E+01  0.12342272120E+02  0.31030010481E+02  0.00000000000E+00 0. -1.
         -3    1    6    6    0  501 -0.19520696362E+02 -0.59385160332E+02  0.88348342359E+02  0.10822700426E+03  0.00000000000E+00 0.  1.
          5    1    5    5  502    0  0.27488194130E+02  0.59013457711E+02  0.19354698629E+03  0.20425649295E+03  0.47000000000E+01 0. -1.
         11    1    4    4    0    0 -0.72832835178E+02  0.38685438239E+02 -0.20520855709E+02  0.84984060452E+02  0.00000000000E+00 0. -1.
        -12    1    4    4    0    0  0.22301139784E+01 -0.25629347582E+02  0.84996026297E+00  0.25740227238E+02  0.00000000000E+00 0.  1.
         -5    1    3    3    0  504  0.35245827435E+02 -0.20452969390E+02  0.54983678446E+02  0.68599469414E+02  0.47000000000E+01 0.  1.
<mgrwt>
<rscale>  2 0.17690683E+03</rscale>
<asrwt>0</asrwt>
<pdfrwt beam="1">  1       21 0.65568280E-01 0.17727313E+03</pdfrwt>
<pdfrwt beam="2">  1       21 0.14868222E-01 0.17727313E+03</pdfrwt>
<totfact> 0.85786549E+04</totfact>
</mgrwt>
</event>
<event>
12    1  0.1410528E-001  0.1816020E+03  0.7546771E-02  0.1167143E+00
         21   -1    0    0  502  503  0.00000000000E+00  0.00000000000E+00  0.21251680733E+02  0.21251680733E+02  0.00000000000E+00 0. -1.
         21   -1    0    0  503  504 -0.00000000000E+00 -0.00000000000E+00 -0.16952027792E+04  0.16952027792E+04  0.00000000000E+00 0. -1.
         -6    2    1    2    0  504  0.38173219345E+02 -0.22921362589E+02 -0.55414650500E+03  0.58201996651E+03  0.17229715285E+03 0.  0.
        -24    2    3    3    0    0  0.49608035782E+02 -0.52276684549E+02 -0.20958786912E+03  0.23599217354E+03  0.81064308586E+02 0.  0.
          6    2    1    2  502    0 -0.38173219345E+02  0.22921362589E+02 -0.11198045934E+04  0.11344344934E+04  0.17605882190E+03 0.  0.
         24    2    5    5    0    0  0.40758633279E+02 -0.16438321930E+02 -0.50968252513E+03  0.51795217380E+03  0.81035136273E+02 0.  0.
          2    1    6    6  501    0  0.12830935179E+02  0.19480287433E+02 -0.37631596128E+03  0.37703821718E+03  0.00000000000E+00 0. -1.
         -1    1    6    6    0  501  0.27927698100E+02 -0.35918609363E+02 -0.13336656384E+03  0.14091395662E+03  0.00000000000E+00 0.  1.
          5    1    5    5  502    0 -0.78931852624E+02  0.39359684518E+02 -0.61012206831E+03  0.61648231959E+03  0.47000000000E+01 0. -1.
         13    1    4    4    0    0  0.40787362413E+02  0.10388591919E+02 -0.57455601100E+02  0.71222734239E+02  0.00000000000E+00 0. -1.
        -14    1    4    4    0    0  0.88206733694E+01 -0.62665276468E+02 -0.15213226802E+03  0.16476943930E+03  0.00000000000E+00 0.  1.
         -5    1    3    3    0  504 -0.11434816438E+02  0.29355321960E+02 -0.34455863588E+03  0.34602779298E+03  0.47000000000E+01 0.  1.
<mgrwt>
<rscale>  2 0.18068396E+03</rscale>
<asrwt>0</asrwt>
<pdfrwt beam="1">  1       21 0.32694895E-02 0.18160202E+03</pdfrwt>
<pdfrwt beam="2">  1       21 0.26080042E+00 0.18160202E+03</pdfrwt>
<totfact> 0.31842608E+04</totfact>
</mgrwt>
</event>
<event>
12    1  0.1410528E-001  0.1807016E+03  0.7546771E-02  0.1167197E+00
         21   -1    0    0  502  503  0.00000000000E+00  0.00000000000E+00  0.52185862617E+03  0.52185862617E+03  0.00000000000E+00 0.  1.
         21   -1    0    0  503  504 -0.00000000000E+00 -0.00000000000E+00 -0.65471243561E+02  0.65471243561E+02  0.00000000000E+00 0.  1.
         -6    2    1    2    0  504  0.52270457569E+02 -0.81480522991E+01  0.16547374724E+03  0.24501965905E+03  0.17278449237E+03 0.  0.
        -24    2    3    3    0    0 -0.21169559488E+02  0.39753358981E+02  0.82032969779E+02  0.12388983344E+03  0.81183760081E+02 0.  0.
          6    2    1    2  502    0 -0.52270457569E+02  0.81480522991E+01  0.29091363537E+03  0.34231021068E+03  0.17247302863E+03 0.  0.
         24    2    5    5    0    0 -0.67474974129E+02  0.60453879692E+02  0.23368955819E+03  0.26316627906E+03  0.80238003002E+02 0.  0.
          2    1    6    6  501    0 -0.26781314590E+02  0.44416864980E+02  0.42551593681E+02  0.67087516205E+02  0.00000000000E+00 0. -1.
         -1    1    6    6    0  501 -0.40693659539E+02  0.16037014712E+02  0.19113796451E+03  0.19607876286E+03  0.00000000000E+00 0.  1.
          5    1    5    5  502    0  0.15204516560E+02 -0.52305827393E+02  0.57224077177E+02  0.79143931617E+02  0.47000000000E+01 0. -1.
         13    1    4    4    0    0 -0.12645006449E+02  0.25641312895E+01  0.84667798226E+02  0.85645239294E+02  0.00000000000E+00 0. -1.
        -14    1    4    4    0    0 -0.85245530389E+01  0.37189227691E+02 -0.26348284463E+01  0.38244594150E+02  0.00000000000E+00 0.  1.
         -5    1    3    3    0  504  0.73440017056E+02 -0.47901411280E+02  0.83440777465E+02  0.12112982561E+03  0.47000000000E+01 0.  1.
<mgrwt>
<rscale>  2 0.18062712E+03</rscale>
<asrwt>0</asrwt>
<pdfrwt beam="1">  1       21 0.80285940E-01 0.18070161E+03</pdfrwt>
<pdfrwt beam="2">  1       21 0.10072499E-01 0.18070161E+03</pdfrwt>
<totfact> 0.10980261E+05</totfact>
</mgrwt>
</event>
<event>
12    1  0.1410528E-001  0.2074757E+03  0.7546771E-02  0.1143699E+00
         21   -1    0    0  502  503  0.00000000000E+00  0.00000000000E+00  0.13328859234E+03  0.13328859234E+03  0.00000000000E+00 0.  1.
         21   -1    0    0  503  504 -0.00000000000E+00 -0.00000000000E+00 -0.32722424339E+03  0.32722424339E+03  0.00000000000E+00 0.  1.
         -6    2    1    2    0  504 -0.31810403127E+02  0.10996446461E+03 -0.12607275053E+03  0.24277664414E+03  0.17303778573E+03 0.  0.
        -24    2    3    3    0    0  0.51475581530E+01  0.64304060193E+02 -0.14663849987E+01  0.10493760844E+03  0.82754104834E+02 0.  0.
          6    2    1    2  502    0  0.31810403127E+02 -0.10996446461E+03 -0.67862900521E+02  0.21773619158E+03  0.17233569170E+03 0.  0.
         24    2    5    5    0    0 -0.25105351106E+02 -0.42555716860E+01 -0.38977078981E+02  0.94163323161E+02  0.81848214387E+02 0.  0.
          2    1    6    6  501    0 -0.16703119199E+02  0.31286237376E+02 -0.44844140611E+02  0.57173593443E+02  0.00000000000E+00 0. -1.
         -1    1    6    6    0  501 -0.84022319073E+01 -0.35541809062E+02  0.58670616298E+01  0.36989729718E+02  0.00000000000E+00 0.  1.
          5    1    5    5  502    0  0.56915754234E+02 -0.10570889293E+03 -0.28885821540E+02  0.12357286842E+03  0.47000000000E+01 0. -1.
         11    1    4    4    0    0 -0.25841037826E+02  0.56560887898E+02  0.21280099497E+02  0.65724697872E+02  0.00000000000E+00 0. -1.
        -12    1    4    4    0    0  0.30988595979E+02  0.77431722957E+01 -0.22746484496E+02  0.39212910564E+02  0.00000000000E+00 0.  1.
         -5    1    3    3    0  504 -0.36957961280E+02  0.45660404421E+02 -0.12460636553E+03  0.13783903570E+03  0.47000000000E+01 0.  1.
<mgrwt>
<rscale>  2 0.20732923E+03</rscale>
<asrwt>0</asrwt>
<pdfrwt beam="1">  1       21 0.20505937E-01 0.20747569E+03</pdfrwt>
<pdfrwt beam="2">  1       21 0.50342191E-01 0.20747569E+03</pdfrwt>
<totfact> 0.82233653E+04</totfact>
</mgrwt>
</event>
<event>
12    1  0.1410528E-001  0.4334673E+03  0.7546771E-02  0.1032796E+00
         21   -1    0    0  502  503  0.00000000000E+00  0.00000000000E+00  0.91855189958E+03  0.91855189958E+03  0.00000000000E+00 0.  1.
         21   -1    0    0  503  504 -0.00000000000E+00 -0.00000000000E+00 -0.21137313710E+03  0.21137313710E+03  0.00000000000E+00 0.  1.
         -6    2    1    2    0  504  0.20634315233E+03 -0.33932875803E+03  0.45607804145E+03  0.62898048475E+03  0.17288079064E+03 0.  0.
        -24    2    3    3    0    0  0.13146490688E+03 -0.13107901862E+03  0.15346168525E+03  0.25404921820E+03  0.80782334472E+02 0.  0.
          6    2    1    2  502    0 -0.20634315233E+03  0.33932875803E+03  0.25110072104E+03  0.50094455193E+03  0.17370195583E+03 0.  0.
         24    2    5    5    0    0 -0.12169766270E+03  0.27296275574E+03  0.24204798607E+03  0.39290128658E+03  0.80406506650E+02 0.  0.
          2    1    6    6  501    0 -0.24415573583E+02  0.91231964712E+02  0.12226941545E+03  0.15449660700E+03  0.00000000000E+00 0. -1.
         -1    1    6    6    0  501 -0.97282089114E+02  0.18173079102E+03  0.11977857062E+03  0.23840467959E+03  0.00000000000E+00 0.  1.
          5    1    5    5  502    0 -0.84645489638E+02  0.66366002289E+02  0.90527349693E+01  0.10804326534E+03  0.47000000000E+01 0. -1.
         13    1    4    4    0    0  0.11454011314E+03 -0.10980027070E+03  0.16078398785E+03  0.22589162825E+03  0.00000000000E+00 0. -1.
        -14    1    4    4    0    0  0.16924793738E+02 -0.21278747925E+02 -0.73223025999E+01  0.28157589948E+02  0.00000000000E+00 0.  1.
         -5    1    3    3    0  504  0.74878245453E+02 -0.20824973940E+03  0.30261635619E+03  0.37493126655E+03  0.47000000000E+01 0.  1.
<mgrwt>
<rscale>  2 0.43338514E+03</rscale>
<asrwt>0</asrwt>
<pdfrwt beam="1">  1       21 0.14131568E+00 0.43346727E+03</pdfrwt>
<pdfrwt beam="2">  1       21 0.32518945E-01 0.43346727E+03</pdfrwt>
<totfact> 0.27598789E+03</totfact>
</mgrwt>
</event>
<event>
12    1  0.1410528E-001  0.1885651E+03  0.7546771E-02  0.1160776E+00
         21   -1    0    0  502  503  0.00000000000E+00  0.00000000000E+00  0.43122824769E+02  0.43122824769E+02  0.00000000000E+00 0.  1.
         21   -1    0    0  503  504 -0.00000000000E+00 -0.00000000000E+00 -0.81726431923E+03  0.81726431923E+03  0.00000000000E+00 0.  1.
         -6    2    1    2    0  504  0.12513939717E+02  0.74174860142E+02 -0.44334263022E+03  0.48177743439E+03  0.17291124877E+03 0.  0.
        -24    2    3    3    0    0 -0.21082794363E+02 -0.20615902074E+02 -0.16881349692E+03  0.18936956143E+03  0.80581228673E+02 0.  0.
          6    2    1    2  502    0 -0.12513939717E+02 -0.74174860142E+02 -0.33079886424E+03  0.37860970961E+03  0.16810388176E+03 0.  0.
         24    2    5    5    0    0  0.40919978228E+02 -0.78948777355E+02 -0.27968068931E+03  0.30435924375E+03  0.80659204175E+02 0.  0.
          2    1    6    6  501    0  0.12244346160E+02 -0.67925007145E+02 -0.25717640743E+03  0.26627698952E+03  0.00000000000E+00 0. -1.
         -1    1    6    6    0  501  0.28675632068E+02 -0.11023770210E+02 -0.22504281875E+02  0.38082254225E+02  0.00000000000E+00 0.  1.
          5    1    5    5  502    0 -0.53433917945E+02  0.47739172132E+01 -0.51118174933E+02  0.74250465864E+02  0.47000000000E+01 0. -1.
         13    1    4    4    0    0  0.32824624502E+01 -0.19917620636E+02 -0.16308585750E+03  0.16433040829E+03  0.00000000000E+00 0. -1.
        -14    1    4    4    0    0 -0.24365256813E+02 -0.69828143799E+00 -0.57276394247E+01  0.25039153139E+02  0.00000000000E+00 0.  1.
         -5    1    3    3    0  504  0.33596734080E+02  0.94790762216E+02 -0.27452913330E+03  0.29240787296E+03  0.47000000000E+01 0.  1.
<mgrwt>
<rscale>  2 0.18745581E+03</rscale>
<asrwt>0</asrwt>
<pdfrwt beam="1">  1       21 0.66342811E-02 0.18856513E+03</pdfrwt>
<pdfrwt beam="2">  1       21 0.12573296E+00 0.18856513E+03</pdfrwt>
<totfact> 0.78153150E+04</totfact>
</mgrwt>
</event>
<event>
12    1  0.1410528E-001  0.2232257E+03  0.7546771E-02  0.1131677E+00
         21   -1    0    0  502  503  0.00000000000E+00  0.00000000000E+00  0.75946428631E+02  0.75946428631E+02  0.00000000000E+00 0. -1.
         21   -1    0    0  503  504 -0.00000000000E+00 -0.00000000000E+00 -0.15496922858E+04  0.15496922858E+04  0.00000000000E+00 0.  1.
         -6    2    1    2    0  504  0.11904540851E+03  0.71281740330E+02 -0.13543915497E+04  0.13725079685E+04  0.17363397710E+03 0.  0.
        -24    2    3    3    0    0  0.13288818089E+03  0.40800491108E+02 -0.72924298361E+03  0.74644603183E+03  0.77861419231E+02 0.  0.
          6    2    1    2  502    0 -0.11904540851E+03 -0.71281740330E+02 -0.11935430745E+03  0.25313074588E+03  0.17486231157E+03 0.  0.
         24    2    5    5    0    0 -0.98135204500E+01  0.93554347409E+00 -0.86512652401E+01  0.81595924327E+02  0.80534899586E+02 0.  0.
          4    1    6    6  501    0  0.56243425855E+00 -0.38483130000E+02  0.45378396183E+01  0.38753833556E+02  0.00000000000E+00 0. -1.
         -3    1    6    6    0  501 -0.10375954709E+02  0.39418673474E+02 -0.13189104858E+02  0.42842090770E+02  0.00000000000E+00 0.  1.
          5    1    5    5  502    0 -0.10923188806E+03 -0.72217283804E+02 -0.11070304221E+03  0.17153482155E+03  0.47000000000E+01 0. -1.
         11    1    4    4    0    0  0.30893868660E+02 -0.73398030879E+01 -0.33162563171E+03  0.33314240714E+03  0.00000000000E+00 0. -1.
        -12    1    4    4    0    0  0.10199431223E+03  0.48140294196E+02 -0.39761735190E+03  0.41330362469E+03  0.00000000000E+00 0.  1.
         -5    1    3    3    0  504 -0.13842772375E+02  0.30481249222E+02 -0.62514856606E+03  0.62606193667E+03  0.47000000000E+01 0.  1.
<mgrwt>
<rscale>  2 0.22298511E+03</rscale>
<asrwt>0</asrwt>
<pdfrwt beam="1">  1       21 0.11684066E-01 0.22322572E+03</pdfrwt>
<pdfrwt beam="2">  1       21 0.23841420E+00 0.22322572E+03</pdfrwt>
<totfact> 0.46529642E+03</totfact>
</mgrwt>
</event>
<event>
12    1  0.1410528E-001  0.1809420E+03  0.7546771E-02  0.1166918E+00
         21   -1    0    0  502  503  0.00000000000E+00  0.00000000000E+00  0.58166231157E+03  0.58166231157E+03  0.00000000000E+00 0. -1.
         21   -1    0    0  503  504 -0.00000000000E+00 -0.00000000000E+00 -0.93814366891E+02  0.93814366891E+02  0.00000000000E+00 0. -1.
         -6    2    1    2    0  504  0.47541158639E+02 -0.17958811943E+02  0.30187351624E+02  0.18334537748E+03  0.17355566990E+03 0.  0.
        -24    2    3    3    0    0 -0.64459565645E+01  0.49116130152E+02  0.13301700086E+02  0.95476886580E+02  0.80529224811E+02 0.  0.
          6    2    1    2  502    0 -0.47541158639E+02  0.17958811943E+02  0.45766059305E+03  0.49213130098E+03  0.17365862570E+03 0.  0.
         24    2    5    5    0    0 -0.12114614529E+00  0.43769419221E+01  0.93406389083E+02  0.12452235130E+03  0.82230712958E+02 0.  0.
          4    1    6    6  501    0 -0.34157665434E+02  0.23707359347E+02  0.35751807112E+02  0.54835907095E+02  0.00000000000E+00 0. -1.
         -3    1    6    6    0  501  0.34036519289E+02 -0.19330417425E+02  0.57654581971E+02  0.69686444201E+02  0.00000000000E+00 0.  1.
          5    1    5    5  502    0 -0.47420012494E+02  0.13581870021E+02  0.36425420397E+03  0.36760894968E+03  0.47000000000E+01 0. -1.
         11    1    4    4    0    0  0.17739369588E+02 -0.16690664791E+02  0.51357823251E+01  0.24892564846E+02  0.00000000000E+00 0. -1.
        -12    1    4    4    0    0 -0.24185326152E+02  0.65806794943E+02  0.81659177606E+01  0.70584321734E+02  0.00000000000E+00 0.  1.
         -5    1    3    3    0  504  0.53987115203E+02 -0.67074942094E+02  0.16885651538E+02  0.87868490899E+02  0.47000000000E+01 0.  1.
<mgrwt>
<rscale>  2 0.18091727E+03</rscale>
<asrwt>0</asrwt>
<pdfrwt beam="1">  1       21 0.89486508E-01 0.18094198E+03</pdfrwt>
<pdfrwt beam="2">  1       21 0.14432980E-01 0.18094198E+03</pdfrwt>
<totfact> 0.45057253E+04</totfact>
</mgrwt>
</event>
<event>
12    1  0.1410528E-001  0.1899284E+03  0.7546771E-02  0.1159295E+00
         21   -1    0    0  502  503  0.00000000000E+00  0.00000000000E+00  0.19448539338E+03  0.19448539338E+03  0.00000000000E+00 0. -1.
         21   -1    0    0  503  504 -0.00000000000E+00 -0.00000000000E+00 -0.35122367751E+03  0.35122367751E+03  0.00000000000E+00 0. -1.
         -6    2    1    2    0  504  0.78182357767E+02  0.88670797210E+01 -0.26728739686E+03  0.32595033437E+03  0.16914479533E+03 0.  0.
        -24    2    3    3    0    0 -0.53009115209E+01 -0.37377245902E+02 -0.16657724492E+03  0.18712447724E+03  0.76435811525E+02 0.  0.
          6    2    1    2  502    0 -0.78182357767E+02 -0.88670797210E+01  0.11054911272E+03  0.21975873652E+03  0.17286321119E+03 0.  0.
         24    2    5    5    0    0 -0.93137330062E+02 -0.23460436043E+01  0.14001424602E+03  0.18575198442E+03  0.78865356507E+02 0.  0.
          4    1    6    6  501    0 -0.10095498605E+03  0.48484587932E+01  0.92318486290E+02  0.13688725168E+03  0.00000000000E+00 0. -1.
         -3    1    6    6    0  501  0.78176559903E+01 -0.71945023975E+01  0.47695759728E+02  0.48864732742E+02  0.00000000000E+00 0.  1.
          5    1    5    5  502    0  0.14954972295E+02 -0.65210361167E+01 -0.29465133293E+02  0.34006752100E+02  0.47000000000E+01 0. -1.
         13    1    4    4    0    0 -0.38530202611E+02 -0.23851120575E+02 -0.63721950225E+02  0.78191683742E+02  0.00000000000E+00 0. -1.
        -14    1    4    4    0    0  0.33229291090E+02 -0.13526125327E+02 -0.10285529470E+03  0.10893279350E+03  0.00000000000E+00 0.  1.
         -5    1    3    3    0  504  0.83483269288E+02  0.46244325623E+02 -0.10071015193E+03  0.13882585712E+03  0.47000000000E+01 0.  1.
<mgrwt>
<rscale>  2 0.18907822E+03</rscale>
<asrwt>0</asrwt>
<pdfrwt beam="1">  1       21 0.29920830E-01 0.18992840E+03</pdfrwt>
<pdfrwt beam="2">  1       21 0.54034412E-01 0.18992840E+03</pdfrwt>
<totfact> 0.34733902E+04</totfact>
</mgrwt>
</event>
<event>
12    1  0.1410528E-001  0.1917883E+03  0.7546771E-02  0.1161409E+00
         21   -1    0    0  502  503  0.00000000000E+00  0.00000000000E+00  0.26802572741E+03  0.26802572741E+03  0.00000000000E+00 0. -1.
         21   -1    0    0  503  504 -0.00000000000E+00 -0.00000000000E+00 -0.19628708980E+03  0.19628708980E+03  0.00000000000E+00 0. -1.
         -6    2    1    2    0  504 -0.19799295807E+02 -0.17309266340E+02 -0.10391586864E+03  0.21813125799E+03  0.18997661736E+03 0.  0.
        -24    2    3    3    0    0  0.78421078413E+01 -0.65532300216E+00 -0.14426830139E+03  0.16624860335E+03  0.82239450539E+02 0.  0.
          6    2    1    2  502    0  0.19799295807E+02  0.17309266340E+02  0.17565450625E+03  0.24618155921E+03  0.17046768525E+03 0.  0.
         24    2    5    5    0    0  0.18120024912E+02  0.17939209331E+02  0.43089691332E+01  0.74762190799E+02  0.70147469119E+02 0.  0.
          2    1    6    6  501    0  0.43524490071E+02  0.62992760421E+01  0.12359121720E+02  0.45681615605E+02  0.00000000000E+00 0. -1.
         -1    1    6    6    0  501 -0.25404465159E+02  0.11639933288E+02 -0.80501525864E+01  0.29080575194E+02  0.00000000000E+00 0.  1.
          5    1    5    5  502    0  0.16792708943E+01 -0.62994299047E+00  0.17134553711E+03  0.17141936841E+03  0.47000000000E+01 0. -1.
         13    1    4    4    0    0 -0.18503133608E+02 -0.24071453979E+02 -0.18317822649E+02  0.35459039420E+02  0.00000000000E+00 0. -1.
        -14    1    4    4    0    0  0.26345241449E+02  0.23416130977E+02 -0.12595047874E+03  0.13078956393E+03  0.00000000000E+00 0.  1.
         -5    1    3    3    0  504 -0.27641403648E+02 -0.16653943338E+02  0.40352432751E+02  0.51882654647E+02  0.47000000000E+01 0.  1.
<mgrwt>
<rscale>  2 0.18676864E+03</rscale>
<asrwt>0</asrwt>
<pdfrwt beam="1">  1       21 0.41234727E-01 0.19178826E+03</pdfrwt>
<pdfrwt beam="2">  1       21 0.30198014E-01 0.19178826E+03</pdfrwt>
<totfact> 0.59612497E+04</totfact>
</mgrwt>
</event>
<event>
12    1  0.1410528E-001  0.2355534E+03  0.7546771E-02  0.1123926E+00
         21   -1    0    0  502  503  0.00000000000E+00  0.00000000000E+00  0.19983403586E+03  0.19983403586E+03  0.00000000000E+00 0.  1.
         21   -1    0    0  503  504 -0.00000000000E+00 -0.00000000000E+00 -0.27406613509E+03  0.27406613509E+03  0.00000000000E+00 0. -1.
         -6    2    1    2    0  504  0.28187050476E+02 -0.14475646336E+03 -0.65507347654E+02  0.23818524956E+03  0.17519148670E+03 0.  0.
        -24    2    3    3    0    0 -0.39226143884E+02 -0.40373058599E+02 -0.40886823447E+01  0.99495753158E+02  0.81939083156E+02 0.  0.
          6    2    1    2  502    0 -0.28187050476E+02  0.14475646336E+03 -0.87247515771E+01  0.23571492140E+03  0.18367487411E+03 0.  0.
         24    2    5    5    0    0  0.27790746227E+02  0.12020217241E+03  0.48961854917E+02  0.15153498616E+03  0.73107461764E+02 0.  0.
          2    1    6    6  501    0  0.38131130730E+02  0.29441126916E+02  0.60744374848E+00  0.48178128572E+02  0.00000000000E+00 0. -1.
         -1    1    6    6    0  501 -0.10340384503E+02  0.90761045492E+02  0.48354411168E+02  0.10335685759E+03  0.00000000000E+00 0.  1.
          5    1    5    5  502    0 -0.55977796703E+02  0.24554290952E+02 -0.57686606494E+02  0.84179935238E+02  0.47000000000E+01 0. -1.
         13    1    4    4    0    0 -0.17802496729E+02  0.24268917972E+02  0.58891176766E+01  0.30669055680E+02  0.00000000000E+00 0. -1.
        -14    1    4    4    0    0 -0.21423647154E+02 -0.64641976571E+02 -0.99778000212E+01  0.68826697478E+02  0.00000000000E+00 0.  1.
         -5    1    3    3    0  504  0.67413194360E+02 -0.10438340476E+03 -0.61418665309E+02  0.13868949640E+03  0.47000000000E+01 0.  1.
<mgrwt>
<rscale>  2 0.23389767E+03</rscale>
<asrwt>0</asrwt>
<pdfrwt beam="1">  1       21 0.30743698E-01 0.23555340E+03</pdfrwt>
<pdfrwt beam="2">  1       21 0.42164020E-01 0.23555340E+03</pdfrwt>
<totfact> 0.53941595E+04</totfact>
</mgrwt>
</event>
<event>
12    1  0.1410528E-001  0.2471555E+03  0.7546771E-02  0.1115232E+00
         21   -1    0    0  502  503  0.00000000000E+00  0.00000000000E+00  0.19870312466E+03  0.19870312466E+03  0.00000000000E+00 0. -1.
         21   -1    0    0  503  504 -0.00000000000E+00 -0.00000000000E+00 -0.40721747710E+03  0.40721747710E+03  0.00000000000E+00 0.  1.
         -6    2    1    2    0  504 -0.16586404664E+03  0.55420750250E+02 -0.25502554019E+03  0.35513922294E+03  0.17465251214E+03 0.  0.
        -24    2    3    3    0    0 -0.10688136212E+03  0.91697101903E+02 -0.11469749447E+03  0.19858577783E+03  0.80304494592E+02 0.  0.
          6    2    1    2  502    0  0.16586404664E+03 -0.55420750250E+02  0.46511187746E+02  0.25078137882E+03  0.17362507839E+03 0.  0.
         24    2    5    5    0    0  0.15314311244E+03  0.12844376280E+02  0.15433416769E+02  0.17455889187E+03  0.81331577438E+02 0.  0.
          4    1    6    6  501    0  0.21370480818E+02 -0.18636917270E+02 -0.19784399710E+02  0.34575346818E+02  0.00000000000E+00 0. -1.
         -3    1    6    6    0  501  0.13177263162E+03  0.31481293551E+02  0.35217816479E+02  0.13998354505E+03  0.00000000000E+00 0.  1.
          5    1    5    5  502    0  0.12720934207E+02 -0.68265126530E+02  0.31077770977E+02  0.76222486946E+02  0.47000000000E+01 0. -1.
         11    1    4    4    0    0 -0.44334695668E+02 -0.59134564275E+01 -0.20459432614E+02  0.49184576747E+02  0.00000000000E+00 0. -1.
        -12    1    4    4    0    0 -0.62546666450E+02  0.97610558330E+02 -0.94238061861E+02  0.14940120108E+03  0.00000000000E+00 0.  1.
         -5    1    3    3    0  504 -0.58982684527E+02 -0.36276351653E+02 -0.14032804571E+03  0.15655344511E+03  0.47000000000E+01 0.  1.
<mgrwt>
<rscale>  2 0.24697406E+03</rscale>
<asrwt>0</asrwt>
<pdfrwt beam="1">  1       21 0.30569711E-01 0.24715550E+03</pdfrwt>
<pdfrwt beam="2">  1       21 0.62648843E-01 0.24715550E+03</pdfrwt>
<totfact> 0.23557577E+04</totfact>
</mgrwt>
</event>
<event>
12    1  0.1410528E-001  0.1939097E+03  0.7546771E-02  0.1155537E+00
         21   -1    0    0  502  503  0.00000000000E+00  0.00000000000E+00  0.46201386871E+03  0.46201386871E+03  0.00000000000E+00 0.  1.
         21   -1    0    0  503  504 -0.00000000000E+00 -0.00000000000E+00 -0.25212001084E+03  0.25212001084E+03  0.00000000000E+00 0.  1.
         -6    2    1    2    0  504  0.42641173881E+02 -0.70427503946E+02 -0.18957339366E+03  0.27118082594E+03  0.17556385092E+03 0.  0.
        -24    2    3    3    0    0  0.18588398609E+02  0.22562706572E+02 -0.13155302795E+03  0.15886801239E+03  0.84132288133E+02 0.  0.
          6    2    1    2  502    0 -0.42641173881E+02  0.70427503946E+02  0.39946725152E+03  0.44295305361E+03  0.17278605164E+03 0.  0.
         24    2    5    5    0    0 -0.84908653066E+02  0.80759340521E+02  0.34387503360E+03  0.37220087105E+03  0.80943802912E+02 0.  0.
          2    1    6    6  501    0 -0.56345225110E+02  0.26749228797E+02  0.80521815975E+02  0.10185317119E+03  0.00000000000E+00 0. -1.
         -1    1    6    6    0  501 -0.28563427956E+02  0.54010111724E+02  0.26335321762E+03  0.27034769986E+03  0.00000000000E+00 0.  1.
          5    1    5    5  502    0  0.42267479185E+02 -0.10331836576E+02  0.55592217926E+02  0.70752182564E+02  0.47000000000E+01 0. -1.
         13    1    4    4    0    0  0.52648299813E+01 -0.10365478324E+02  0.84863623386E+01  0.14393745912E+02  0.00000000000E+00 0. -1.
        -14    1    4    4    0    0  0.13323568628E+02  0.32928184896E+02 -0.14003939029E+03  0.14447426647E+03  0.00000000000E+00 0.  1.
         -5    1    3    3    0  504  0.24052775272E+02 -0.92990210517E+02 -0.58020365712E+02  0.11231281355E+03  0.47000000000E+01 0.  1.
<mgrwt>
<rscale>  2 0.19327878E+03</rscale>
<asrwt>0</asrwt>
<pdfrwt beam="1">  1       21 0.71079057E-01 0.19390969E+03</pdfrwt>
<pdfrwt beam="2">  1       21 0.38787694E-01 0.19390969E+03</pdfrwt>
<totfact> 0.11471872E+04</totfact>
</mgrwt>
</event>
<event>
12    1  0.1410528E-001  0.2373223E+03  0.7546771E-02  0.1121972E+00
         21   -1    0    0  502  503  0.00000000000E+00  0.00000000000E+00  0.12625837264E+03  0.12625837264E+03  0.00000000000E+00 0.  1.
         21   -1    0    0  503  504 -0.00000000000E+00 -0.00000000000E+00 -0.55265963900E+03  0.55265963900E+03  0.00000000000E+00 0.  1.
         -6    2    1    2    0  504 -0.15913353191E+03 -0.38127326146E+02 -0.36437884959E+03  0.43362504416E+03  0.16876480354E+03 0.  0.
        -24    2    3    3    0    0 -0.17374618729E+03 -0.65447019811E+02 -0.31896405041E+03  0.37844815276E+03  0.83748963421E+02 0.  0.
          6    2    1    2  502    0  0.15913353191E+03  0.38127326146E+02 -0.62022416770E+02  0.24529296748E+03  0.17188567635E+03 0.  0.
         24    2    5    5    0    0  0.33216673254E+02 -0.22682151255E+02  0.33125103872E+01  0.90879268142E+02  0.81426293575E+02 0.  0.
          4    1    6    6  501    0  0.30288467038E+02 -0.48784187416E+02 -0.14398976032E+02  0.59199820000E+02  0.00000000000E+00 0. -1.
         -3    1    6    6    0  501  0.29282062164E+01  0.26102036160E+02  0.17711486419E+02  0.31679448142E+02  0.00000000000E+00 0.  1.
          5    1    5    5  502    0  0.12591685866E+03  0.60809477401E+02 -0.65334927157E+02  0.15441369934E+03  0.47000000000E+01 0. -1.
         13    1    4    4    0    0 -0.31865089324E+02  0.10990470210E+02 -0.21060903515E+02  0.39745892995E+02  0.00000000000E+00 0. -1.
        -14    1    4    4    0    0 -0.14188109797E+03 -0.76437490022E+02 -0.29790314690E+03  0.33870225977E+03  0.00000000000E+00 0.  1.
         -5    1    3    3    0  504  0.14612655382E+02  0.27319693666E+02 -0.45414799179E+02  0.55176891392E+02  0.47000000000E+01 0.  1.
<mgrwt>
<rscale>  2 0.23675763E+03</rscale>
<asrwt>0</asrwt>
<pdfrwt beam="1">  1       21 0.19424365E-01 0.23732227E+03</pdfrwt>
<pdfrwt beam="2">  1       21 0.85024559E-01 0.23732227E+03</pdfrwt>
<totfact> 0.28503202E+04</totfact>
</mgrwt>
</event>
<event>
12    1  0.1410528E-001  0.1793523E+03  0.7546771E-02  0.1168668E+00
         21   -1    0    0  502  503  0.00000000000E+00  0.00000000000E+00  0.11337733493E+03  0.11337733493E+03  0.00000000000E+00 0. -1.
         21   -1    0    0  503  504 -0.00000000000E+00 -0.00000000000E+00 -0.47214381212E+03  0.47214381212E+03  0.00000000000E+00 0. -1.
         -6    2    1    2    0  504  0.33539478362E+02  0.30056420830E+02 -0.36478850395E+03  0.40606780195E+03  0.17260394586E+03 0.  0.
        -24    2    3    3    0    0  0.45581934549E+02 -0.33192089058E+02 -0.29720476613E+03  0.31260633197E+03  0.78820163933E+02 0.  0.
          6    2    1    2  502    0 -0.33539478362E+02 -0.30056420830E+02  0.60220267577E+01  0.17945334510E+03  0.17360574074E+03 0.  0.
         24    2    5    5    0    0 -0.45715693217E+02 -0.75790869768E+02 -0.25510238364E+02  0.12238957575E+03  0.80586943390E+02 0.  0.
          4    1    6    6  501    0 -0.57534458635E+02 -0.36359194591E+02  0.90258054332E+01  0.68656173251E+02  0.00000000000E+00 0. -1.
         -3    1    6    6    0  501  0.11818765418E+02 -0.39431675177E+02 -0.34536043797E+02  0.53733402502E+02  0.00000000000E+00 0.  1.
          5    1    5    5  502    0  0.12176214856E+02  0.45734448939E+02  0.31532265121E+02  0.57063769343E+02  0.47000000000E+01 0. -1.
         13    1    4    4    0    0  0.23730069869E+02 -0.51732261505E+02 -0.25704207988E+03  0.26326787485E+03  0.00000000000E+00 0. -1.
        -14    1    4    4    0    0  0.21851864680E+02  0.18540172447E+02 -0.40162686250E+02  0.49338457123E+02  0.00000000000E+00 0.  1.
         -5    1    3    3    0  504 -0.12042456188E+02  0.63248509888E+02 -0.67583737815E+02  0.93461469981E+02  0.47000000000E+01 0.  1.
<mgrwt>
<rscale>  2 0.17910940E+03</rscale>
<asrwt>0</asrwt>
<pdfrwt beam="1">  1       21 0.17442667E-01 0.17935227E+03</pdfrwt>
<pdfrwt beam="2">  1       21 0.72637510E-01 0.17935227E+03</pdfrwt>
<totfact> 0.51124561E+04</totfact>
</mgrwt>
</event>
<event>
12    1  0.1410528E-001  0.1777325E+03  0.7546771E-02  0.1170056E+00
         21   -1    0    0  502  503  0.00000000000E+00  0.00000000000E+00  0.45347315146E+03  0.45347315146E+03  0.00000000000E+00 0. -1.
         21   -1    0    0  503  504 -0.00000000000E+00 -0.00000000000E+00 -0.16094720957E+03  0.16094720957E+03  0.00000000000E+00 0. -1.
         -6    2    1    2    0  504  0.37693473496E+02 -0.15865584597E+02 -0.85214393400E+02  0.19695586273E+03  0.17279353085E+03 0.  0.
        -24    2    3    3    0    0  0.51329349353E+02  0.50254770466E+02 -0.46859168931E+02  0.11916735646E+03  0.82733506351E+02 0.  0.
          6    2    1    2  502    0 -0.37693473496E+02  0.15865584597E+02  0.37774033529E+03  0.41746449830E+03  0.17296338259E+03 0.  0.
         24    2    5    5    0    0  0.41093339769E+02 -0.13624915483E+02  0.19503325561E+03  0.21626554575E+03  0.82816149346E+02 0.  0.
          4    1    6    6  501    0  0.39803504316E+02  0.13333862590E+02  0.18108107918E+03  0.18588294189E+03  0.00000000000E+00 0. -1.
         -3    1    6    6    0  501  0.12898354531E+01 -0.26958778073E+02  0.13952176424E+02  0.30382603866E+02  0.00000000000E+00 0.  1.
          5    1    5    5  502    0 -0.78786813266E+02  0.29490500081E+02  0.18270707968E+03  0.20119895254E+03  0.47000000000E+01 0. -1.
         11    1    4    4    0    0 -0.58571902260E+01  0.21898564625E+02 -0.50374421552E+02  0.55239805907E+02  0.00000000000E+00 0. -1.
        -12    1    4    4    0    0  0.57186539579E+02  0.28356205841E+02  0.35152526202E+01  0.63927550553E+02  0.00000000000E+00 0.  1.
         -5    1    3    3    0  504 -0.13635875856E+02 -0.66120355063E+02 -0.38355224469E+02  0.77788506272E+02  0.47000000000E+01 0.  1.
<mgrwt>
<rscale>  2 0.17769118E+03</rscale>
<asrwt>0</asrwt>
<pdfrwt beam="1">  1       21 0.69765100E-01 0.17773251E+03</pdfrwt>
<pdfrwt beam="2">  1       21 0.24761109E-01 0.17773251E+03</pdfrwt>
<totfact> 0.29035848E+04</totfact>
</mgrwt>
</event>
<event>
12    1  0.1410528E-001  0.1750727E+03  0.7546771E-02  0.1172913E+00
         21   -1    0    0  502  503  0.00000000000E+00  0.00000000000E+00  0.21096555298E+03  0.21096555298E+03  0.00000000000E+00 0. -1.
         21   -1    0    0  503  504 -0.00000000000E+00 -0.00000000000E+00 -0.31973664962E+03  0.31973664962E+03  0.00000000000E+00 0. -1.
         -6    2    1    2    0  504 -0.14233480643E+02 -0.18138456395E+02 -0.25078543997E+03  0.30527259557E+03  0.17252949063E+03 0.  0.
        -24    2    3    3    0    0  0.33178675899E+02  0.35894742428E+02 -0.18393167270E+03  0.20699230579E+03  0.81398386740E+02 0.  0.
          6    2    1    2  502    0  0.14233480643E+02  0.18138456395E+02  0.14201434333E+03  0.22542960702E+03  0.17354779872E+03 0.  0.
         24    2    5    5    0    0  0.53901355380E+02 -0.28485586941E+02  0.12700580370E+03  0.16222606310E+03  0.80436537711E+02 0.  0.
          2    1    6    6  501    0  0.57874678816E+02 -0.40975612354E+02  0.13062246964E+03  0.14862943460E+03  0.00000000000E+00 0. -1.
         -1    1    6    6    0  501 -0.39733234360E+01  0.12490025412E+02 -0.36166659369E+01  0.13596628495E+02  0.00000000000E+00 0.  1.
          5    1    5    5  502    0 -0.39667874737E+02  0.46624043336E+02  0.15008539633E+02  0.63203543928E+02  0.47000000000E+01 0. -1.
         13    1    4    4    0    0 -0.17516610318E+02 -0.10366258795E+02 -0.17057622281E+02  0.26556608148E+02  0.00000000000E+00 0. -1.
        -14    1    4    4    0    0  0.50695286218E+02  0.46261001222E+02 -0.16687405042E+03  0.18043569764E+03  0.00000000000E+00 0.  1.
         -5    1    3    3    0  504 -0.47412156542E+02 -0.54033198822E+02 -0.66853767269E+02  0.98280289789E+02  0.47000000000E+01 0.  1.
<mgrwt>
<rscale>  2 0.17481976E+03</rscale>
<asrwt>0</asrwt>
<pdfrwt beam="1">  1       21 0.32456239E-01 0.17507265E+03</pdfrwt>
<pdfrwt beam="2">  1       21 0.49190254E-01 0.17507265E+03</pdfrwt>
<totfact> 0.36341139E+04</totfact>
</mgrwt>
</event>
<event>
12    1  0.1410528E-001  0.1797750E+03  0.7546771E-02  0.1170135E+00
         21   -1    0    0  502  503  0.00000000000E+00  0.00000000000E+00  0.92846143695E+03  0.92846143695E+03  0.00000000000E+00 0.  1.
         21   -1    0    0  503  504 -0.00000000000E+00 -0.00000000000E+00 -0.70133781232E+02  0.70133781232E+02  0.00000000000E+00 0.  1.
         -6    2    1    2    0  504 -0.13099989462E+02  0.78735396835E+01  0.71713363644E+02  0.19355066450E+03  0.17912412135E+03 0.  0.
        -24    2    3    3    0    0 -0.14242407128E+02 -0.99746972250E+01  0.11820334620E+03  0.14351794363E+03  0.79517471955E+02 0.  0.
          6    2    1    2  502    0  0.13099989462E+02 -0.78735396835E+01  0.78661429207E+03  0.80504455368E+03  0.17059040586E+03 0.  0.
         24    2    5    5    0    0 -0.32583434334E+02  0.16152864582E+02  0.69072600666E+03  0.69604502804E+03  0.77805331124E+02 0.  0.
          2    1    6    6  501    0  0.14006394345E+01  0.32223587408E+02  0.12577884088E+03  0.12984852017E+03  0.00000000000E+00 0. -1.
         -1    1    6    6    0  501 -0.33984073769E+02 -0.16070722826E+02  0.56494716578E+03  0.56619650787E+03  0.00000000000E+00 0.  1.
          5    1    5    5  502    0  0.45683423796E+02 -0.24026404266E+02  0.95888285409E+02  0.10899952564E+03  0.47000000000E+01 0. -1.
         13    1    4    4    0    0 -0.21994900366E+02 -0.38033148135E+02  0.37629735879E+02  0.57847152233E+02  0.00000000000E+00 0. -1.
        -14    1    4    4    0    0  0.77524932374E+01  0.28058450910E+02  0.80573610322E+02  0.85670791400E+02  0.00000000000E+00 0.  1.
         -5    1    3    3    0  504  0.11424176666E+01  0.17848236908E+02 -0.46489982557E+02  0.50032720863E+02  0.47000000000E+01 0.  1.
<mgrwt>
<rscale>  2 0.17761092E+03</rscale>
<asrwt>0</asrwt>
<pdfrwt beam="1">  1       21 0.14284021E+00 0.17977501E+03</pdfrwt>
<pdfrwt beam="2">  1       21 0.10789813E-01 0.17977501E+03</pdfrwt>
<totfact> 0.24291600E+04</totfact>
</mgrwt>
</event>
<event>
12    1  0.1410528E-001  0.1785046E+03  0.7546771E-02  0.1169337E+00
         21   -1    0    0  502  503  0.00000000000E+00  0.00000000000E+00  0.60270108647E+02  0.60270108647E+02  0.00000000000E+00 0.  1.
         21   -1    0    0  503  504 -0.00000000000E+00 -0.00000000000E+00 -0.61627841182E+03  0.61627841182E+03  0.00000000000E+00 0.  1.
         -6    2    1    2    0  504  0.17857708130E+02  0.39133629888E+02 -0.40601448171E+03  0.44339184725E+03  0.17291105264E+03 0.  0.
        -24    2    3    3    0    0  0.76727985491E+02  0.12168938078E+02 -0.22557656873E+03  0.25162966484E+03  0.79983955007E+02 0.  0.
          6    2    1    2  502    0 -0.17857708130E+02 -0.39133629888E+02 -0.14999382147E+03  0.23315667322E+03  0.17324418911E+03 0.  0.
         24    2    5    5    0    0  0.49743432942E+02  0.50979730076E+01 -0.10051929781E+03  0.13830854482E+03  0.80775775385E+02 0.  0.
          2    1    6    6  501    0  0.35531657094E+02  0.40904965438E+02 -0.43444033871E+02  0.69448534414E+02  0.00000000000E+00 0. -1.
         -1    1    6    6    0  501  0.14211775848E+02 -0.35806992430E+02 -0.57075263939E+02  0.68860010408E+02  0.00000000000E+00 0.  1.
          5    1    5    5  502    0 -0.67601141072E+02 -0.44231602895E+02 -0.49474523657E+02  0.94848128395E+02  0.47000000000E+01 0. -1.
         11    1    4    4    0    0  0.76909845328E+02  0.37562981607E+02 -0.16323601576E+03  0.18431521569E+03  0.00000000000E+00 0. -1.
        -12    1    4    4    0    0 -0.18185983641E+00 -0.25394043529E+02 -0.62340552971E+02  0.67314449151E+02  0.00000000000E+00 0.  1.
         -5    1    3    3    0  504 -0.58870277361E+02  0.26964691809E+02 -0.18043791298E+03  0.19176218241E+03  0.47000000000E+01 0.  1.
<mgrwt>
<rscale>  2 0.17842371E+03</rscale>
<asrwt>0</asrwt>
<pdfrwt beam="1">  1       21 0.92723241E-02 0.17850459E+03</pdfrwt>
<pdfrwt beam="2">  1       21 0.94812066E-01 0.17850459E+03</pdfrwt>
<totfact> 0.86792566E+04</totfact>
</mgrwt>
</event>
<event>
12    1  0.1410528E-001  0.2097671E+03  0.7546771E-02  0.1141842E+00
         21   -1    0    0  502  503  0.00000000000E+00  0.00000000000E+00  0.10875493496E+03  0.10875493496E+03  0.00000000000E+00 0. -1.
         21   -1    0    0  503  504 -0.00000000000E+00 -0.00000000000E+00 -0.55738834534E+03  0.55738834534E+03  0.00000000000E+00 0.  1.
         -6    2    1    2    0  504 -0.69527349045E+02 -0.93512035475E+02 -0.49246435109E+02  0.21502000579E+03  0.17386730134E+03 0.  0.
        -24    2    3    3    0    0 -0.45666567547E+02 -0.68502745689E+02  0.33562786527E+02  0.12516312705E+03  0.88098162153E+02 0.  0.
          6    2    1    2  502    0  0.69527349045E+02  0.93512035475E+02 -0.39938697527E+03  0.45112327450E+03  0.17442390816E+03 0.  0.
         24    2    5    5    0    0  0.11055926965E+03  0.67783425213E+02 -0.35010401216E+03  0.38186664776E+03  0.80195838418E+02 0.  0.
          4    1    6    6  501    0  0.53166111964E+02  0.12295807247E+02 -0.23842062726E+03  0.24458580874E+03  0.00000000000E+00 0. -1.
         -3    1    6    6    0  501  0.57393157690E+02  0.55487617966E+02 -0.11168338490E+03  0.13728083902E+03  0.00000000000E+00 0.  1.
          5    1    5    5  502    0 -0.41031920609E+02  0.25728610262E+02 -0.49282963109E+02  0.69256626742E+02  0.47000000000E+01 0. -1.
         13    1    4    4    0    0 -0.15517997444E+01 -0.21862352987E+02  0.53602005588E+02  0.57909805419E+02  0.00000000000E+00 0. -1.
        -14    1    4    4    0    0 -0.44114767803E+02 -0.46640392702E+02 -0.20039219062E+02  0.67253321630E+02  0.00000000000E+00 0.  1.
         -5    1    3    3    0  504 -0.23860781498E+02 -0.25009289786E+02 -0.82809221635E+02  0.89856878741E+02  0.47000000000E+01 0.  1.
<mgrwt>
<rscale>  2 0.20965139E+03</rscale>
<asrwt>0</asrwt>
<pdfrwt beam="1">  1       21 0.16731528E-01 0.20976714E+03</pdfrwt>
<pdfrwt beam="2">  1       21 0.85752054E-01 0.20976714E+03</pdfrwt>
<totfact> 0.37381576E+04</totfact>
</mgrwt>
</event>
<event>
12    1  0.1410528E-001  0.2471664E+03  0.7546771E-02  0.1115695E+00
         21   -1    0    0  502  503  0.00000000000E+00  0.00000000000E+00  0.96853134829E+03  0.96853134829E+03  0.00000000000E+00 0. -1.
         21   -1    0    0  503  504 -0.00000000000E+00 -0.00000000000E+00 -0.11963154946E+03  0.11963154946E+03  0.00000000000E+00 0.  1.
         -6    2    1    2    0  504  0.11527260789E+03 -0.13385193695E+03  0.48956272364E+02  0.25196809806E+03  0.17287883237E+03 0.  0.
        -24    2    3    3    0    0  0.95775355392E+02 -0.59230217949E+02  0.86130502294E+02  0.16622104462E+03  0.86774620896E+02 0.  0.
          6    2    1    2  502    0 -0.11527260789E+03  0.13385193695E+03  0.79994352646E+03  0.83619479969E+03  0.16765435377E+03 0.  0.
         24    2    5    5    0    0 -0.20971521293E+01  0.97838288503E+02  0.46197880633E+03  0.47793803601E+03  0.73645230862E+02 0.  0.
          2    1    6    6  501    0  0.91669492751E+00  0.65582101370E+02  0.41907601181E+03  0.42417750533E+03  0.00000000000E+00 0. -1.
         -1    1    6    6    0  501 -0.30138470568E+01  0.32256187134E+02  0.42902794518E+02  0.53760530689E+02  0.00000000000E+00 0.  1.
          5    1    5    5  502    0 -0.11317545576E+03  0.36013648449E+02  0.33796472013E+03  0.35825676367E+03  0.47000000000E+01 0. -1.
         11    1    4    4    0    0  0.84050184529E+02 -0.76381139234E+02  0.90221486740E+02  0.14504629819E+03  0.00000000000E+00 0. -1.
        -12    1    4    4    0    0  0.11725170863E+02  0.17150921285E+02 -0.40909844452E+01  0.21174746431E+02  0.00000000000E+00 0.  1.
         -5    1    3    3    0  504  0.19497252501E+02 -0.74621719003E+02 -0.37174229931E+02  0.85747053437E+02  0.47000000000E+01 0.  1.
<mgrwt>
<rscale>  2 0.24625492E+03</rscale>
<asrwt>0</asrwt>
<pdfrwt beam="1">  1       21 0.14900482E+00 0.24716635E+03</pdfrwt>
<pdfrwt beam="2">  1       21 0.18404854E-01 0.24716635E+03</pdfrwt>
<totfact> 0.78837000E+03</totfact>
</mgrwt>
</event>
<event>
12    1  0.1410528E-001  0.1757438E+03  0.7546771E-02  0.1172161E+00
         21   -1    0    0  502  503  0.00000000000E+00  0.00000000000E+00  0.92345821296E+02  0.92345821296E+02  0.00000000000E+00 0. -1.
         21   -1    0    0  503  504 -0.00000000000E+00 -0.00000000000E+00 -0.37911384695E+03  0.37911384695E+03  0.00000000000E+00 0. -1.
         -6    2    1    2    0  504  0.26005416948E+02 -0.33095800775E+00 -0.22522635635E+03  0.28525211984E+03  0.17310536974E+03 0.  0.
        -24    2    3    3    0    0  0.34834806652E+02  0.15467223651E+02 -0.24331000337E+03  0.25923964290E+03  0.80948971265E+02 0.  0.
          6    2    1    2  502    0 -0.26005416948E+02  0.33095800775E+00 -0.61541669308E+02  0.18620754841E+03  0.17380875346E+03 0.  0.
         24    2    5    5    0    0  0.45945229359E+01  0.54750613719E+02  0.55670842010E+00  0.98025045808E+02  0.81177954753E+02 0.  0.
          4    1    6    6  501    0  0.11061703648E+02  0.68463503158E+02  0.21102431673E+02  0.72490862698E+02  0.00000000000E+00 0. -1.
         -3    1    6    6    0  501 -0.64671807118E+01 -0.13712889439E+02 -0.20545723253E+02  0.25534183110E+02  0.00000000000E+00 0.  1.
          5    1    5    5  502    0 -0.30599939884E+02 -0.54419655711E+02 -0.62098377728E+02  0.88182502601E+02  0.47000000000E+01 0. -1.
         11    1    4    4    0    0  0.77309210740E+01 -0.23274756046E+02 -0.17160845567E+03  0.17335207950E+03  0.00000000000E+00 0. -1.
        -12    1    4    4    0    0  0.27103885578E+02  0.38741979696E+02 -0.71701547707E+02  0.85887563406E+02  0.00000000000E+00 0.  1.
         -5    1    3    3    0  504 -0.88293897043E+01 -0.15798181658E+02  0.18083647029E+02  0.26012476932E+02  0.47000000000E+01 0.  1.
<mgrwt>
<rscale>  2 0.17556961E+03</rscale>
<asrwt>0</asrwt>
<pdfrwt beam="1">  1       21 0.14207049E-01 0.17574377E+03</pdfrwt>
<pdfrwt beam="2">  1       21 0.58325207E-01 0.17574377E+03</pdfrwt>
<totfact> 0.11993578E+05</totfact>
</mgrwt>
</event>
<event>
12    1  0.1410528E-001  0.2569849E+03  0.7546771E-02  0.1109600E+00
         21   -1    0    0  502  503  0.00000000000E+00  0.00000000000E+00  0.12955682326E+03  0.12955682326E+03  0.00000000000E+00 0.  1.
         21   -1    0    0  503  504 -0.00000000000E+00 -0.00000000000E+00 -0.60003793015E+03  0.60003793015E+03  0.00000000000E+00 0. -1.
         -6    2    1    2    0  504 -0.16466362799E+03 -0.90207821133E+02 -0.38455633024E+03  0.46252007631E+03  0.17546990762E+03 0.  0.
        -24    2    3    3    0    0 -0.45060504531E+02 -0.77906012294E+02 -0.27317337363E+03  0.29855515730E+03  0.80073054578E+02 0.  0.
          6    2    1    2  502    0  0.16466362799E+03  0.90207821133E+02 -0.85924776644E+02  0.26707467710E+03  0.16939378540E+03 0.  0.
         24    2    5    5    0    0  0.78441769403E+02  0.11634711060E+03 -0.61679194567E+02  0.17365407122E+03  0.81618944359E+02 0.  0.
          4    1    6    6  501    0  0.51727741415E+02  0.10721768880E+03 -0.76761893843E+02  0.14164667440E+03  0.00000000000E+00 0. -1.
         -3    1    6    6    0  501  0.26714027989E+02  0.91294218021E+01  0.15082699276E+02  0.32007396822E+02  0.00000000000E+00 0.  1.
          5    1    5    5  502    0  0.86221858586E+02 -0.26139289467E+02 -0.24245582077E+02  0.93420605876E+02  0.47000000000E+01 0. -1.
         11    1    4    4    0    0 -0.35689266494E+01  0.12472374383E+02 -0.82423354657E+02  0.83438041402E+02  0.00000000000E+00 0. -1.
        -12    1    4    4    0    0 -0.41491577881E+02 -0.90378386677E+02 -0.19075001897E+03  0.21511711589E+03  0.00000000000E+00 0.  1.
         -5    1    3    3    0  504 -0.11960312346E+03 -0.12301808839E+02 -0.11138295661E+03  0.16396491901E+03  0.47000000000E+01 0.  1.
<mgrwt>
<rscale>  2 0.25595125E+03</rscale>
<asrwt>0</asrwt>
<pdfrwt beam="1">  1       21 0.19931819E-01 0.25698492E+03</pdfrwt>
<pdfrwt beam="2">  1       21 0.92313528E-01 0.25698492E+03</pdfrwt>
<totfact> 0.22224802E+04</totfact>
</mgrwt>
</event>
<event>
12    1  0.1410528E-001  0.2039934E+03  0.7546771E-02  0.1146503E+00
         21   -1    0    0  502  503  0.00000000000E+00  0.00000000000E+00  0.74585953892E+02  0.74585953892E+02  0.00000000000E+00 0. -1.
         21   -1    0    0  503  504 -0.00000000000E+00 -0.00000000000E+00 -0.88507914921E+03  0.88507914921E+03  0.00000000000E+00 0. -1.
         -6    2    1    2    0  504 -0.10888735080E+03  0.17288445874E+01 -0.69723191216E+03  0.72633823512E+03  0.17197513888E+03 0.  0.
        -24    2    3    3    0    0  0.32555048647E+01  0.21602252214E+02 -0.38618169165E+03  0.39505995016E+03  0.80366719732E+02 0.  0.
          6    2    1    2  502    0  0.10888735080E+03 -0.17288445874E+01 -0.11326128316E+03  0.23332686799E+03  0.17249308680E+03 0.  0.
         24    2    5    5    0    0  0.42657919655E+02 -0.51540529238E+02 -0.10777656044E+03  0.15014205170E+03  0.80316402085E+02 0.  0.
          2    1    6    6  501    0  0.66117583358E+02 -0.43746194283E+02 -0.75423625329E+02  0.10942571727E+03  0.00000000000E+00 0. -1.
         -1    1    6    6    0  501 -0.23459663702E+02 -0.77943349548E+01 -0.32352935112E+02  0.40716334422E+02  0.00000000000E+00 0.  1.
          5    1    5    5  502    0  0.66229431147E+02  0.49811684650E+02 -0.54847227208E+01  0.83184816289E+02  0.47000000000E+01 0. -1.
         11    1    4    4    0    0 -0.25907155373E+02  0.12028937276E+02 -0.50824023121E+02  0.58300577679E+02  0.00000000000E+00 0. -1.
        -12    1    4    4    0    0  0.29162660238E+02  0.95733149380E+01 -0.33535766853E+03  0.33675937248E+03  0.00000000000E+00 0.  1.
         -5    1    3    3    0  504 -0.11214285567E+03 -0.19873407627E+02 -0.31105022050E+03  0.33127828496E+03  0.47000000000E+01 0.  1.
<mgrwt>
<rscale>  2 0.20388387E+03</rscale>
<asrwt>0</asrwt>
<pdfrwt beam="1">  1       21 0.11474762E-01 0.20399340E+03</pdfrwt>
<pdfrwt beam="2">  1       21 0.13616602E+00 0.20399340E+03</pdfrwt>
<totfact> 0.24255384E+04</totfact>
</mgrwt>
</event>
<event>
12    1  0.1410528E-001  0.3063124E+03  0.7546771E-02  0.1082286E+00
         21   -1    0    0  502  503  0.00000000000E+00  0.00000000000E+00  0.44583305640E+02  0.44583305640E+02  0.00000000000E+00 0.  1.
         21   -1    0    0  503  504 -0.00000000000E+00 -0.00000000000E+00 -0.21841501738E+04  0.21841501738E+04  0.00000000000E+00 0.  1.
         -6    2    1    2    0  504 -0.25209688761E+03 -0.25886213428E+02 -0.12963320936E+04  0.13320301077E+04  0.17205921744E+03 0.  0.
        -24    2    3    3    0    0 -0.12317891315E+03 -0.57407661926E+02 -0.91222889373E+03  0.92561799672E+03  0.78348178026E+02 0.  0.
          6    2    1    2  502    0  0.25209688761E+03  0.25886213428E+02 -0.84323477461E+03  0.89670337173E+03  0.16973248057E+03 0.  0.
         24    2    5    5    0    0  0.11009697291E+03  0.73493230216E+02 -0.44367310876E+03  0.46996924063E+03  0.80639080918E+02 0.  0.
          2    1    6    6  501    0  0.10343234641E+03  0.76188165395E+02 -0.44453876808E+03  0.46272843348E+03  0.00000000000E+00 0. -1.
         -1    1    6    6    0  501  0.66646265042E+01 -0.26949351789E+01  0.86565932099E+00  0.72408071456E+01  0.00000000000E+00 0.  1.
          5    1    5    5  502    0  0.14199991470E+03 -0.47607016789E+02 -0.39956166586E+03  0.42673413110E+03  0.47000000000E+01 0. -1.
         13    1    4    4    0    0 -0.84549539615E+01  0.10453590760E+02 -0.23570942587E+03  0.23609256077E+03  0.00000000000E+00 0. -1.
        -14    1    4    4    0    0 -0.11472395919E+03 -0.67861252686E+02 -0.67651946786E+03  0.68952543595E+03  0.00000000000E+00 0.  1.
         -5    1    3    3    0  504 -0.12891797446E+03  0.31521448499E+02 -0.38410319982E+03  0.40641211100E+03  0.47000000000E+01 0.  1.
<mgrwt>
<rscale>  2 0.30598670E+03</rscale>
<asrwt>0</asrwt>
<pdfrwt beam="1">  1       21 0.68589711E-02 0.30631244E+03</pdfrwt>
<pdfrwt beam="2">  1       21 0.33602306E+00 0.30631244E+03</pdfrwt>
<totfact> 0.29486593E+03</totfact>
</mgrwt>
</event>
<event>
12    1  0.1410528E-001  0.3219756E+03  0.7546771E-02  0.1074792E+00
         21   -1    0    0  502  503  0.00000000000E+00  0.00000000000E+00  0.16215204378E+03  0.16215204378E+03  0.00000000000E+00 0. -1.
         21   -1    0    0  503  504 -0.00000000000E+00 -0.00000000000E+00 -0.80202396998E+03  0.80202396998E+03  0.00000000000E+00 0.  1.
         -6    2    1    2    0  504  0.26789135907E+03  0.47126922773E+02 -0.10207673682E+03  0.33736506039E+03  0.17148993166E+03 0.  0.
        -24    2    3    3    0    0  0.21309037194E+03 -0.26700665574E+02 -0.78234988601E+02  0.24226416687E+03  0.80316753859E+02 0.  0.
          6    2    1    2  502    0 -0.26789135907E+03 -0.47126922773E+02 -0.53779518938E+03  0.62681095336E+03  0.17228342468E+03 0.  0.
         24    2    5    5    0    0 -0.20398187132E+03 -0.94285009781E+02 -0.44327448884E+03  0.50326112283E+03  0.79254138045E+02 0.  0.
          2    1    6    6  501    0 -0.13999110400E+03 -0.24660565387E+02 -0.23731278754E+03  0.27662793029E+03  0.00000000000E+00 0. -1.
         -1    1    6    6    0  501 -0.63990767321E+02 -0.69624444394E+02 -0.20596170130E+03  0.22663319254E+03  0.00000000000E+00 0.  1.
          5    1    5    5  502    0 -0.63909487742E+02  0.47158087008E+02 -0.94520700542E+02  0.12354983053E+03  0.47000000000E+01 0. -1.
         13    1    4    4    0    0  0.16393746837E+03 -0.21026696293E+02 -0.21003849451E+02  0.16660965514E+03  0.00000000000E+00 0. -1.
        -14    1    4    4    0    0  0.49152903568E+02 -0.56739692812E+01 -0.57231139150E+02  0.75654511729E+02  0.00000000000E+00 0.  1.
         -5    1    3    3    0  504  0.54800987124E+02  0.73827588347E+02 -0.23841748220E+02  0.95100893523E+02  0.47000000000E+01 0.  1.
<mgrwt>
<rscale>  2 0.32186961E+03</rscale>
<asrwt>0</asrwt>
<pdfrwt beam="1">  1       21 0.24946468E-01 0.32197563E+03</pdfrwt>
<pdfrwt beam="2">  1       21 0.12338830E+00 0.32197563E+03</pdfrwt>
<totfact> 0.69330789E+03</totfact>
</mgrwt>
</event>
<event>
12    1  0.1410528E-001  0.2082816E+03  0.7546771E-02  0.1143368E+00
         21   -1    0    0  502  503  0.00000000000E+00  0.00000000000E+00  0.10014404969E+03  0.10014404969E+03  0.00000000000E+00 0.  1.
         21   -1    0    0  503  504 -0.00000000000E+00 -0.00000000000E+00 -0.65228847187E+03  0.65228847187E+03  0.00000000000E+00 0.  1.
         -6    2    1    2    0  504 -0.99918704514E+02 -0.49958573851E+02 -0.49538177598E+03  0.53655471128E+03  0.17322888793E+03 0.  0.
        -24    2    3    3    0    0  0.98724814150E+01 -0.89209260695E+01 -0.12428834594E+03  0.14736244921E+03  0.78045177223E+02 0.  0.
          6    2    1    2  502    0  0.99918704514E+02  0.49958573851E+02 -0.56762646200E+02  0.21587781027E+03  0.17578857856E+03 0.  0.
         24    2    5    5    0    0  0.11190167770E+03  0.47155621853E+01 -0.85747038436E+02  0.16062650491E+03  0.76838125173E+02 0.  0.
          2    1    6    6  501    0  0.41287472258E+02  0.40060809721E+00 -0.79528230806E+02  0.89607786198E+02  0.00000000000E+00 0. -1.
         -1    1    6    6    0  501  0.70614205441E+02  0.43149540881E+01 -0.62188076302E+01  0.71018718710E+02  0.00000000000E+00 0.  1.
          5    1    5    5  502    0 -0.11982973185E+02  0.45243011665E+02  0.28984392236E+02  0.55251305362E+02  0.47000000000E+01 0. -1.
         13    1    4    4    0    0  0.24549287181E+02 -0.28286779279E+02 -0.11566602549E+03  0.12157894076E+03  0.00000000000E+00 0. -1.
        -14    1    4    4    0    0 -0.14676805766E+02  0.19365853209E+02 -0.86223204546E+01  0.25783508451E+02  0.00000000000E+00 0.  1.
         -5    1    3    3    0  504 -0.10979118593E+03 -0.41037647781E+02 -0.37109343003E+03  0.38919226207E+03  0.47000000000E+01 0.  1.
<mgrwt>
<rscale>  2 0.20774056E+03</rscale>
<asrwt>0</asrwt>
<pdfrwt beam="1">  1       21 0.15406777E-01 0.20828161E+03</pdfrwt>
<pdfrwt beam="2">  1       21 0.10035207E+00 0.20828161E+03</pdfrwt>
<totfact> 0.30147737E+04</totfact>
</mgrwt>
</event>
<event>
12    1  0.1410528E-001  0.2095106E+03  0.7546771E-02  0.1142008E+00
         21   -1    0    0  502  503  0.00000000000E+00  0.00000000000E+00  0.50321098513E+03  0.50321098513E+03  0.00000000000E+00 0.  1.
         21   -1    0    0  503  504 -0.00000000000E+00 -0.00000000000E+00 -0.14391369941E+03  0.14391369941E+03  0.00000000000E+00 0.  1.
         -6    2    1    2    0  504 -0.66086992981E+01  0.11605889192E+03 -0.23691536512E+02  0.21057558430E+03  0.17397541925E+03 0.  0.
        -24    2    3    3    0    0 -0.23820075255E+02  0.59006886465E+01  0.26173353357E+02  0.88347688746E+02  0.80734475716E+02 0.  0.
          6    2    1    2  502    0  0.66086992981E+01 -0.11605889192E+03  0.38298882223E+03  0.43654910023E+03  0.17430243159E+03 0.  0.
         24    2    5    5    0    0  0.20608908339E+02 -0.14813826357E+03  0.34383155972E+03  0.38381890825E+03  0.82019147970E+02 0.  0.
          4    1    6    6  501    0 -0.23798741634E+02 -0.97144275436E+02  0.16916596032E+03  0.19652102301E+03  0.00000000000E+00 0. -1.
         -3    1    6    6    0  501  0.44407649973E+02 -0.50993988136E+02  0.17466559940E+03  0.18729788524E+03  0.00000000000E+00 0.  1.
          5    1    5    5  502    0 -0.14000209041E+02  0.32079371656E+02  0.39157262513E+02  0.52730191983E+02  0.47000000000E+01 0. -1.
         13    1    4    4    0    0  0.15633418200E+02  0.27774559398E+02  0.29077086194E+02  0.43142865643E+02  0.00000000000E+00 0. -1.
        -14    1    4    4    0    0 -0.39453493455E+02 -0.21873870751E+02 -0.29037328365E+01  0.45204823103E+02  0.00000000000E+00 0.  1.
         -5    1    3    3    0  504  0.17211375957E+02  0.11015820327E+03 -0.49864889870E+02  0.12222789555E+03  0.47000000000E+01 0.  1.
<mgrwt>
<rscale>  2 0.20944254E+03</rscale>
<asrwt>0</asrwt>
<pdfrwt beam="1">  1       21 0.77417074E-01 0.20951057E+03</pdfrwt>
<pdfrwt beam="2">  1       21 0.22140569E-01 0.20951057E+03</pdfrwt>
<totfact> 0.27978540E+04</totfact>
</mgrwt>
</event>
<event>
12    1  0.1410528E-001  0.1713922E+03  0.7546771E-02  0.1176498E+00
         21   -1    0    0  502  503  0.00000000000E+00  0.00000000000E+00  0.75840634566E+02  0.75840634566E+02  0.00000000000E+00 0.  1.
         21   -1    0    0  503  504 -0.00000000000E+00 -0.00000000000E+00 -0.73971584452E+03  0.73971584452E+03  0.00000000000E+00 0.  1.
         -6    2    1    2    0  504 -0.20210698580E+02 -0.33412609021E+01 -0.61390364115E+03  0.63737976351E+03  0.17016358584E+03 0.  0.
        -24    2    3    3    0    0  0.38594074363E+02  0.18710177117E+02 -0.21967612195E+03  0.23815339397E+03  0.81362566329E+02 0.  0.
          6    2    1    2  502    0  0.20210698580E+02  0.33412609021E+01 -0.49971568799E+02  0.17817671558E+03  0.16979442842E+03 0.  0.
         24    2    5    5    0    0  0.67311589380E+02  0.40050944133E+02 -0.30898956675E+02  0.11531218432E+03  0.78785951399E+02 0.  0.
          4    1    6    6  501    0  0.35838455780E+02  0.82930526355E+01 -0.53724451156E+02  0.65111337620E+02  0.00000000000E+00 0. -1.
         -3    1    6    6    0  501  0.31473133599E+02  0.31757891497E+02  0.22825494480E+02  0.50200846698E+02  0.00000000000E+00 0.  1.
          5    1    5    5  502    0 -0.47100890799E+02 -0.36709683230E+02 -0.19072612124E+02  0.62864531257E+02  0.47000000000E+01 0. -1.
         13    1    4    4    0    0  0.27255961204E+02  0.22596322956E+02 -0.25558209998E+02  0.43665814209E+02  0.00000000000E+00 0. -1.
        -14    1    4    4    0    0  0.11338113159E+02 -0.38861458388E+01 -0.19411791195E+03  0.19448757976E+03  0.00000000000E+00 0.  1.
         -5    1    3    3    0  504 -0.58804772943E+02 -0.22051438019E+02 -0.39422751920E+03  0.39922636954E+03  0.47000000000E+01 0.  1.
<mgrwt>
<rscale>  2 0.17130049E+03</rscale>
<asrwt>0</asrwt>
<pdfrwt beam="1">  1       21 0.11667789E-01 0.17139219E+03</pdfrwt>
<pdfrwt beam="2">  1       21 0.11380244E+00 0.17139219E+03</pdfrwt>
<totfact> 0.37552234E+04</totfact>
</mgrwt>
</event>
<event>
12    1  0.1410528E-001  0.2092434E+03  0.7546771E-02  0.1142307E+00
         21   -1    0    0  502  503  0.00000000000E+00  0.00000000000E+00  0.88817526283E+03  0.88817526283E+03  0.00000000000E+00 0. -1.
         21   -1    0    0  503  504 -0.00000000000E+00 -0.00000000000E+00 -0.14587716895E+03  0.14587716895E+03  0.00000000000E+00 0. -1.
         -6    2    1    2    0  504 -0.78827042406E+01  0.11725868512E+03 -0.49695351629E+02  0.21506376323E+03  0.17312151229E+03 0.  0.
        -24    2    3    3    0    0  0.23917979687E+02  0.12805379877E+03 -0.77299038194E+02  0.17133881052E+03  0.80074974576E+02 0.  0.
          6    2    1    2  502    0  0.78827042406E+01 -0.11725868512E+03  0.79199344551E+03  0.81898866855E+03  0.17227038403E+03 0.  0.
         24    2    5    5    0    0  0.70652126196E+02 -0.88550471021E+02  0.53467620150E+03  0.55253338909E+03  0.81127040788E+02 0.  0.
          4    1    6    6  501    0  0.19752713243E+02 -0.79011096054E+02  0.40078944082E+03  0.40898056048E+03  0.00000000000E+00 0. -1.
         -3    1    6    6    0  501  0.50899412953E+02 -0.95393749665E+01  0.13388676069E+03  0.14355282861E+03  0.00000000000E+00 0.  1.
          5    1    5    5  502    0 -0.62769421955E+02 -0.28708214100E+02  0.25731724401E+03  0.26645527946E+03  0.47000000000E+01 0. -1.
         13    1    4    4    0    0  0.52587521746E+02  0.65117489086E+02 -0.44554048848E+02  0.94819819115E+02  0.00000000000E+00 0. -1.
        -14    1    4    4    0    0 -0.28669542059E+02  0.62936309687E+02 -0.32744989346E+02  0.76518991409E+02  0.00000000000E+00 0.  1.
         -5    1    3    3    0  504 -0.31800683927E+02 -0.10795113652E+02  0.27603686565E+02  0.43724952704E+02  0.47000000000E+01 0.  1.
<mgrwt>
<rscale>  2 0.20906725E+03</rscale>
<asrwt>0</asrwt>
<pdfrwt beam="1">  1       21 0.13664234E+00 0.20924339E+03</pdfrwt>
<pdfrwt beam="2">  1       21 0.22442642E-01 0.20924339E+03</pdfrwt>
<totfact> 0.69914991E+03</totfact>
</mgrwt>
</event>
<event>
12    1  0.1410528E-001  0.1756423E+03  0.7546771E-02  0.1172519E+00
         21   -1    0    0  502  503  0.00000000000E+00  0.00000000000E+00  0.54207237792E+02  0.54207237792E+02  0.00000000000E+00 0. -1.
         21   -1    0    0  503  504 -0.00000000000E+00 -0.00000000000E+00 -0.56886174810E+03  0.56886174810E+03  0.00000000000E+00 0. -1.
         -6    2    1    2    0  504  0.16737040637E+02 -0.22854950029E+02 -0.28862821037E+03  0.33787046808E+03  0.17334281672E+03 0.  0.
        -24    2    3    3    0    0 -0.60618492768E+01  0.51970391494E+02 -0.16645723758E+03  0.19272758087E+03  0.81842781455E+02 0.  0.
          6    2    1    2  502    0 -0.16737040637E+02  0.22854950029E+02 -0.22602629994E+03  0.28519851781E+03  0.17160369760E+03 0.  0.
         24    2    5    5    0    0 -0.54964372426E+02  0.53407996280E+02 -0.96877473184E+02  0.14700905735E+03  0.79705218333E+02 0.  0.
          2    1    6    6  501    0 -0.34154508271E+02 -0.10469506445E+02 -0.98287397931E+01  0.37050575250E+02  0.00000000000E+00 0. -1.
         -1    1    6    6    0  501 -0.20809864155E+02  0.63877502726E+02 -0.87048733390E+02  0.10995848210E+03  0.00000000000E+00 0.  1.
          5    1    5    5  502    0  0.38227331789E+02 -0.30553046251E+02 -0.12914882676E+03  0.13818946046E+03  0.47000000000E+01 0. -1.
         11    1    4    4    0    0  0.17147047597E+02  0.24134660504E+02 -0.86952936099E+01  0.30856299355E+02  0.00000000000E+00 0. -1.
        -12    1    4    4    0    0 -0.23208896874E+02  0.27835730991E+02 -0.15776194397E+03  0.16187128151E+03  0.00000000000E+00 0.  1.
         -5    1    3    3    0  504  0.22798889913E+02 -0.74825341524E+02 -0.12217097279E+03  0.14514288721E+03  0.47000000000E+01 0.  1.
<mgrwt>
<rscale>  2 0.17521166E+03</rscale>
<asrwt>0</asrwt>
<pdfrwt beam="1">  1       21 0.83395757E-02 0.17564228E+03</pdfrwt>
<pdfrwt beam="2">  1       21 0.87517186E-01 0.17564228E+03</pdfrwt>
<totfact> 0.12587850E+05</totfact>
</mgrwt>
</event>
<event>
12    1  0.1410528E-001  0.1762946E+03  0.7546771E-02  0.1172047E+00
         21   -1    0    0  502  503  0.00000000000E+00  0.00000000000E+00  0.29951001881E+03  0.29951001881E+03  0.00000000000E+00 0.  1.
         21   -1    0    0  503  504 -0.00000000000E+00 -0.00000000000E+00 -0.11579761809E+03  0.11579761809E+03  0.00000000000E+00 0.  1.
         -6    2    1    2    0  504  0.15879432198E+02  0.31648008677E+02  0.21635898448E+02  0.17761729527E+03  0.17270216750E+03 0.  0.
        -24    2    3    3    0    0 -0.59228437791E+02  0.19383176988E+02  0.23872419407E+02  0.10133682427E+03  0.76259715127E+02 0.  0.
          6    2    1    2  502    0 -0.15879432198E+02 -0.31648008677E+02  0.16207650227E+03  0.23769034162E+03  0.17021795760E+03 0.  0.
         24    2    5    5    0    0 -0.61277391291E+02 -0.36300204678E+02  0.15748831377E+03  0.19158438657E+03  0.82640091118E+02 0.  0.
          4    1    6    6  501    0  0.14310575770E+02 -0.14119289210E+02  0.74486568052E+02  0.77151770730E+02  0.00000000000E+00 0. -1.
         -3    1    6    6    0  501 -0.75587967061E+02 -0.22180915468E+02  0.83001745714E+02  0.11443261584E+03  0.00000000000E+00 0.  1.
          5    1    5    5  502    0  0.45397959093E+02  0.46521960012E+01  0.45881885064E+01  0.46105955052E+02  0.47000000000E+01 0. -1.
         13    1    4    4    0    0 -0.31405082610E+02  0.13728376262E+02 -0.26627708272E+02  0.43402561864E+02  0.00000000000E+00 0. -1.
        -14    1    4    4    0    0 -0.27823355181E+02  0.56548007266E+01  0.50500127679E+02  0.57934262405E+02  0.00000000000E+00 0.  1.
         -5    1    3    3    0  504  0.75107869989E+02  0.12264831689E+02 -0.22365209590E+01  0.76280471004E+02  0.47000000000E+01 0.  1.
<mgrwt>
<rscale>  2 0.17568322E+03</rscale>
<asrwt>0</asrwt>
<pdfrwt beam="1">  1       21 0.46078464E-01 0.17629462E+03</pdfrwt>
<pdfrwt beam="2">  1       21 0.17815018E-01 0.17629462E+03</pdfrwt>
<totfact> 0.12988895E+05</totfact>
</mgrwt>
</event>
<event>
12    1  0.1410528E-001  0.2471671E+03  0.7546771E-02  0.1115341E+00
         21   -1    0    0  502  503  0.00000000000E+00  0.00000000000E+00  0.11469666847E+03  0.11469666847E+03  0.00000000000E+00 0. -1.
         21   -1    0    0  503  504 -0.00000000000E+00 -0.00000000000E+00 -0.53674513475E+03  0.53674513475E+03  0.00000000000E+00 0.  1.
         -6    2    1    2    0  504 -0.10365907077E+03  0.13864588679E+03 -0.17262477812E+03  0.30029548257E+03  0.17438514259E+03 0.  0.
        -24    2    3    3    0    0 -0.10360837162E+03  0.34460295253E+02 -0.89023019487E+02  0.16663178481E+03  0.88987904176E+02 0.  0.
          6    2    1    2  502    0  0.10365907077E+03 -0.13864588679E+03 -0.24942368816E+03  0.35114632065E+03  0.17641903927E+03 0.  0.
         24    2    5    5    0    0 -0.25441138596E+01 -0.13732617558E+02 -0.63622983461E+02  0.10330275482E+03  0.80178038324E+02 0.  0.
          2    1    6    6  501    0  0.94578540995E+01  0.14597728358E+02  0.12352450415E+02  0.21333722335E+02  0.00000000000E+00 0. -1.
         -1    1    6    6    0  501 -0.12001967959E+02 -0.28330345916E+02 -0.75975433876E+02  0.81969032489E+02  0.00000000000E+00 0.  1.
          5    1    5    5  502    0  0.10620318463E+03 -0.12491326923E+03 -0.18580070470E+03  0.24784356583E+03  0.47000000000E+01 0. -1.
         13    1    4    4    0    0 -0.52612720585E+02  0.55278160888E+02 -0.21090160612E+02  0.79174290734E+02  0.00000000000E+00 0. -1.
        -14    1    4    4    0    0 -0.50995651039E+02 -0.20817865635E+02 -0.67932858875E+02  0.87457494073E+02  0.00000000000E+00 0.  1.
         -5    1    3    3    0  504 -0.50699150255E-01  0.10418559154E+03 -0.83601758630E+02  0.13366369776E+03  0.47000000000E+01 0.  1.
<mgrwt>
<rscale>  2 0.24680438E+03</rscale>
<asrwt>0</asrwt>
<pdfrwt beam="1">  1       21 0.17645641E-01 0.24716707E+03</pdfrwt>
<pdfrwt beam="2">  1       21 0.82576177E-01 0.24716707E+03</pdfrwt>
<totfact> 0.36292099E+04</totfact>
</mgrwt>
</event>
<event>
12    1  0.1410528E-001  0.2398155E+03  0.7546771E-02  0.1120056E+00
         21   -1    0    0  502  503  0.00000000000E+00  0.00000000000E+00  0.38796249909E+03  0.38796249909E+03  0.00000000000E+00 0. -1.
         21   -1    0    0  503  504 -0.00000000000E+00 -0.00000000000E+00 -0.24601119093E+03  0.24601119093E+03  0.00000000000E+00 0.  1.
         -6    2    1    2    0  504 -0.13673894248E+03 -0.92629533952E+02 -0.12946178666E+03  0.27179069463E+03  0.17271959510E+03 0.  0.
        -24    2    3    3    0    0 -0.93301367208E+02  0.14071355041E+02 -0.64836343302E+02  0.13961490037E+03  0.79908828286E+02 0.  0.
          6    2    1    2  502    0  0.13673894248E+03  0.92629533952E+02  0.27141309481E+03  0.36218299539E+03  0.17387836313E+03 0.  0.
         24    2    5    5    0    0  0.73565893852E+02  0.20740223727E+02  0.23492693742E+03  0.25965379624E+03  0.79920775500E+02 0.  0.
          4    1    6    6  501    0  0.88979263009E+02  0.62906769962E+01  0.19658838490E+03  0.21587930642E+03  0.00000000000E+00 0. -1.
         -3    1    6    6    0  501 -0.15413369157E+02  0.14449546731E+02  0.38338552521E+02  0.43774489818E+02  0.00000000000E+00 0.  1.
          5    1    5    5  502    0  0.63173048623E+02  0.71889310225E+02  0.36486157389E+02  0.10252919915E+03  0.47000000000E+01 0. -1.
         13    1    4    4    0    0 -0.13565274896E+02  0.81062383084E+01  0.18359791623E+02  0.24224155939E+02  0.00000000000E+00 0. -1.
        -14    1    4    4    0    0 -0.79736092312E+02  0.59651167327E+01 -0.83196134925E+02  0.11539074443E+03  0.00000000000E+00 0.  1.
         -5    1    3    3    0  504 -0.43437575267E+02 -0.10670088899E+03 -0.64625443356E+02  0.13217579425E+03  0.47000000000E+01 0.  1.
<mgrwt>
<rscale>  2 0.23960547E+03</rscale>
<asrwt>0</asrwt>
<pdfrwt beam="1">  1       21 0.59686539E-01 0.23981546E+03</pdfrwt>
<pdfrwt beam="2">  1       21 0.37847875E-01 0.23981546E+03</pdfrwt>
<totfact> 0.17169819E+04</totfact>
</mgrwt>
</event>
<event>
12    1  0.1410528E-001  0.1753613E+03  0.7546771E-02  0.1172808E+00
         21   -1    0    0  502  503  0.00000000000E+00  0.00000000000E+00  0.35015536375E+03  0.35015536375E+03  0.00000000000E+00 0. -1.
         21   -1    0    0  503  504 -0.00000000000E+00 -0.00000000000E+00 -0.10346819739E+03  0.10346819739E+03  0.00000000000E+00 0. -1.
         -6    2    1    2    0  504 -0.14198615312E+02 -0.53540068703E+01  0.33245167854E+02  0.17848479442E+03  0.17470350479E+03 0.  0.
        -24    2    3    3    0    0 -0.20401751443E+01  0.49700712230E+01 -0.49415049032E+02  0.94168629233E+02  0.79981371195E+02 0.  0.
          6    2    1    2  502    0  0.14198615312E+02  0.53540068703E+01  0.21344199851E+03  0.27513876671E+03  0.17295545136E+03 0.  0.
         24    2    5    5    0    0  0.67127519726E+02 -0.31759995509E+02  0.14108256726E+03  0.17799508248E+03  0.79140112361E+02 0.  0.
          2    1    6    6  501    0 -0.15795855759E+02  0.27415281834E+00  0.42032645471E+02  0.44903535542E+02  0.00000000000E+00 0. -1.
         -1    1    6    6    0  501  0.82923375485E+02 -0.32034148327E+02  0.99049921789E+02  0.13309154694E+03  0.00000000000E+00 0.  1.
          5    1    5    5  502    0 -0.52928904415E+02  0.37114002379E+02  0.72359431247E+02  0.97143684229E+02  0.47000000000E+01 0. -1.
         13    1    4    4    0    0  0.30241518051E+02 -0.20861795870E+02 -0.12691996881E+02  0.38869663309E+02  0.00000000000E+00 0. -1.
        -14    1    4    4    0    0 -0.32281693195E+02  0.25831867092E+02 -0.36723052151E+02  0.55298965924E+02  0.00000000000E+00 0.  1.
         -5    1    3    3    0  504 -0.12158440167E+02 -0.10324078093E+02  0.82660216886E+02  0.84316165185E+02  0.47000000000E+01 0.  1.
<mgrwt>
<rscale>  2 0.17492430E+03</rscale>
<asrwt>0</asrwt>
<pdfrwt beam="1">  1       21 0.53870055E-01 0.17536129E+03</pdfrwt>
<pdfrwt beam="2">  1       21 0.15918184E-01 0.17536129E+03</pdfrwt>
<totfact> 0.11543154E+05</totfact>
</mgrwt>
</event>
<event>
12    1  0.1410528E-001  0.1879288E+03  0.7546771E-02  0.1161911E+00
         21   -1    0    0  502  503  0.00000000000E+00  0.00000000000E+00  0.49369259649E+02  0.49369259649E+02  0.00000000000E+00 0. -1.
         21   -1    0    0  503  504 -0.00000000000E+00 -0.00000000000E+00 -0.18984547520E+04  0.18984547520E+04  0.00000000000E+00 0.  1.
         -6    2    1    2    0  504 -0.75181534895E+02 -0.12755234233E+02 -0.17076426624E+04  0.17179524701E+04  0.17176224189E+03 0.  0.
        -24    2    3    3    0    0 -0.82205630233E+02  0.19951284456E+02 -0.73093206120E+03  0.74065786617E+03  0.84596555746E+02 0.  0.
          6    2    1    2  502    0  0.75181534895E+02  0.12755234233E+02 -0.14144282996E+03  0.22987154160E+03  0.16437728645E+03 0.  0.
         24    2    5    5    0    0  0.89332652109E+02 -0.12800961613E+02 -0.15584729557E+03  0.19696330716E+03  0.79762005258E+02 0.  0.
          2    1    6    6  501    0  0.73786363545E+02  0.10163253316E+02 -0.55588127579E+02  0.92939545356E+02  0.00000000000E+00 0. -1.
         -1    1    6    6    0  501  0.15546288564E+02 -0.22964214929E+02 -0.10025916799E+03  0.10402376181E+03  0.00000000000E+00 0.  1.
          5    1    5    5  502    0 -0.14151117214E+02  0.25556195847E+02  0.14404465603E+02  0.32908234439E+02  0.47000000000E+01 0. -1.
         11    1    4    4    0    0 -0.54915555314E+02  0.37884453242E+02 -0.25421037168E+03  0.26281906910E+03  0.00000000000E+00 0. -1.
        -12    1    4    4    0    0 -0.27290074919E+02 -0.17933168786E+02 -0.47672168952E+03  0.47783879707E+03  0.00000000000E+00 0.  1.
         -5    1    3    3    0  504  0.70240953379E+01 -0.32706518689E+02 -0.97671060120E+03  0.97729460388E+03  0.47000000000E+01 0.  1.
<mgrwt>
<rscale>  2 0.18622452E+03</rscale>
<asrwt>0</asrwt>
<pdfrwt beam="1">  1       21 0.75952721E-02 0.18792878E+03</pdfrwt>
<pdfrwt beam="2">  1       21 0.29206991E+00 0.18792878E+03</pdfrwt>
<totfact> 0.50071662E+03</totfact>
</mgrwt>
</event>
<event>
12    1  0.1410528E-001  0.1923493E+03  0.7546771E-02  0.1156366E+00
         21   -1    0    0  502  503  0.00000000000E+00  0.00000000000E+00  0.23450503735E+03  0.23450503735E+03  0.00000000000E+00 0. -1.
         21   -1    0    0  503  504 -0.00000000000E+00 -0.00000000000E+00 -0.94758032156E+03  0.94758032156E+03  0.00000000000E+00 0. -1.
         -6    2    1    2    0  504 -0.18378638126E+02 -0.85109985957E+02 -0.89614120624E+03  0.91654557149E+03  0.17147955873E+03 0.  0.
        -24    2    3    3    0    0  0.52126126254E+02 -0.40911738606E+02 -0.39503157280E+03  0.40855210540E+03  0.80461021155E+02 0.  0.
          6    2    1    2  502    0  0.18378638126E+02  0.85109985957E+02  0.18306592202E+03  0.26553978741E+03  0.17151315648E+03 0.  0.
         24    2    5    5    0    0 -0.22283409098E+02  0.10870365596E+03  0.16586647448E+03  0.21526082219E+03  0.80700056200E+02 0.  0.
          2    1    6    6  501    0 -0.50861826565E+01  0.87274581036E+02  0.16619134957E+03  0.18778255089E+03  0.00000000000E+00 0. -1.
         -1    1    6    6    0  501 -0.17197226442E+02  0.21429074925E+02 -0.32487508444E+00  0.27478271293E+02  0.00000000000E+00 0.  1.
          5    1    5    5  502    0  0.40662047225E+02 -0.23593670004E+02  0.17199447536E+02  0.50278965227E+02  0.47000000000E+01 0. -1.
         11    1    4    4    0    0  0.12017815953E+02  0.41138822765E+00 -0.27660624402E+03  0.27686749786E+03  0.00000000000E+00 0. -1.
        -12    1    4    4    0    0  0.40108310301E+02 -0.41323126834E+02 -0.11842532877E+03  0.13168460753E+03  0.00000000000E+00 0.  1.
         -5    1    3    3    0  504 -0.70504764381E+02 -0.44198247351E+02 -0.50110963344E+03  0.50799346610E+03  0.47000000000E+01 0.  1.
<mgrwt>
<rscale>  2 0.19234179E+03</rscale>
<asrwt>0</asrwt>
<pdfrwt beam="1">  1       21 0.36077698E-01 0.19234928E+03</pdfrwt>
<pdfrwt beam="2">  1       21 0.14578159E+00 0.19234928E+03</pdfrwt>
<totfact> 0.23872901E+03</totfact>
</mgrwt>
</event>
<event>
12    1  0.1410528E-001  0.2318915E+03  0.7546771E-02  0.1125866E+00
         21   -1    0    0  502  503  0.00000000000E+00  0.00000000000E+00  0.14235910010E+03  0.14235910010E+03  0.00000000000E+00 0. -1.
         21   -1    0    0  503  504 -0.00000000000E+00 -0.00000000000E+00 -0.68572086233E+03  0.68572086233E+03  0.00000000000E+00 0. -1.
         -6    2    1    2    0  504 -0.15143643157E+03  0.11752484127E+02 -0.55044093461E+03  0.59608044671E+03  0.17104257588E+03 0.  0.
        -24    2    3    3    0    0 -0.10915080054E+03 -0.14959931100E+02 -0.51921803126E+03  0.53693158862E+03  0.81058436201E+02 0.  0.
          6    2    1    2  502    0  0.15143643157E+03 -0.11752484127E+02  0.70791723779E+01  0.23199951572E+03  0.17522142256E+03 0.  0.
         24    2    5    5    0    0  0.95881854757E+02 -0.69187656169E+02  0.10854739058E+02  0.15186553481E+03  0.94683966258E+02 0.  0.
          2    1    6    6  501    0  0.85834212692E+02 -0.36714767730E+02 -0.30611608202E+02  0.98247426402E+02  0.00000000000E+00 0. -1.
         -1    1    6    6    0  501  0.10047642066E+02 -0.32472888439E+02  0.41466347259E+02  0.53618108412E+02  0.00000000000E+00 0.  1.
          5    1    5    5  502    0  0.55554576814E+02  0.57435172042E+02 -0.37755666798E+01  0.80133980909E+02  0.47000000000E+01 0. -1.
         11    1    4    4    0    0 -0.77396383619E+02  0.13768800720E+02 -0.20067428858E+03  0.21552250501E+03  0.00000000000E+00 0. -1.
        -12    1    4    4    0    0 -0.31754416921E+02 -0.28728731820E+02 -0.31854374268E+03  0.32140908361E+03  0.00000000000E+00 0.  1.
         -5    1    3    3    0  504 -0.42285631032E+02  0.26712415226E+02 -0.31222903345E+02  0.59148858081E+02  0.47000000000E+01 0.  1.
<mgrwt>
<rscale>  2 0.23110215E+03</rscale>
<asrwt>0</asrwt>
<pdfrwt beam="1">  1       21 0.21901400E-01 0.23189148E+03</pdfrwt>
<pdfrwt beam="2">  1       21 0.10549552E+00 0.23189148E+03</pdfrwt>
<totfact> 0.13717460E+04</totfact>
</mgrwt>
</event>
<event>
12    1  0.1410528E-001  0.2164553E+03  0.7546771E-02  0.1136596E+00
         21   -1    0    0  502  503  0.00000000000E+00  0.00000000000E+00  0.56470132711E+03  0.56470132711E+03  0.00000000000E+00 0. -1.
         21   -1    0    0  503  504 -0.00000000000E+00 -0.00000000000E+00 -0.10965243447E+03  0.10965243447E+03  0.00000000000E+00 0.  1.
         -6    2    1    2    0  504  0.36122677694E+01  0.12824688083E+03  0.61018370148E+02  0.22489140278E+03  0.17433470861E+03 0.  0.
        -24    2    3    3    0    0 -0.34165949615E+02  0.13970188843E+03  0.77450562375E+02  0.18187375699E+03  0.79972145936E+02 0.  0.
          6    2    1    2  502    0 -0.36122677694E+01 -0.12824688083E+03  0.39403052249E+03  0.44946235881E+03  0.17405760084E+03 0.  0.
         24    2    5    5    0    0  0.14472345525E+02 -0.21635313119E+01  0.20904202499E+03  0.22481397028E+03  0.81416358099E+02 0.  0.
          4    1    6    6  501    0 -0.15927619787E+02  0.12824061096E+02  0.17698260723E+03  0.17816000920E+03  0.00000000000E+00 0. -1.
         -3    1    6    6    0  501  0.30399965312E+02 -0.14987592408E+02  0.32059417761E+02  0.46653961078E+02  0.00000000000E+00 0.  1.
          5    1    5    5  502    0 -0.18084613294E+02 -0.12608334952E+03  0.18498849750E+03  0.22464838853E+03  0.47000000000E+01 0. -1.
         11    1    4    4    0    0 -0.27002175270E+01  0.93552117364E+02  0.83841853574E+02  0.12565327791E+03  0.00000000000E+00 0. -1.
        -12    1    4    4    0    0 -0.31465732088E+02  0.46149771063E+02 -0.63912911984E+01  0.56220479081E+02  0.00000000000E+00 0.  1.
         -5    1    3    3    0  504  0.37778217384E+02 -0.11455007596E+02 -0.16432192227E+02  0.43017645788E+02  0.47000000000E+01 0.  1.
<mgrwt>
<rscale>  2 0.21639951E+03</rscale>
<asrwt>0</asrwt>
<pdfrwt beam="1">  1       21 0.86877125E-01 0.21645531E+03</pdfrwt>
<pdfrwt beam="2">  1       21 0.16869606E-01 0.21645531E+03</pdfrwt>
<totfact> 0.35609607E+04</totfact>
</mgrwt>
</event>
<event>
12    1  0.1410528E-001  0.1749577E+03  0.7546771E-02  0.1172814E+00
         21   -1    0    0  502  503  0.00000000000E+00  0.00000000000E+00  0.90576110882E+02  0.90576110882E+02  0.00000000000E+00 0.  1.
         21   -1    0    0  503  504 -0.00000000000E+00 -0.00000000000E+00 -0.42197155186E+03  0.42197155186E+03  0.00000000000E+00 0. -1.
         -6    2    1    2    0  504  0.86667266982E+01 -0.26146341606E+02 -0.28020237753E+03  0.33025409787E+03  0.17261417513E+03 0.  0.
        -24    2    3    3    0    0 -0.24883684072E+02 -0.31157896456E+02 -0.10911737900E+03  0.15577512358E+03  0.10377511495E+03 0.  0.
          6    2    1    2  502    0 -0.86667266982E+01  0.26146341606E+02 -0.51193063451E+02  0.18229356488E+03  0.17277578163E+03 0.  0.
         24    2    5    5    0    0 -0.29879866940E+02  0.22809026451E+02  0.32997909952E+02  0.95280088944E+02  0.81094852808E+02 0.  0.
          4    1    6    6  501    0 -0.42657166471E+02  0.43752636361E+02  0.35416577163E+02  0.70627621918E+02  0.00000000000E+00 0. -1.
         -3    1    6    6    0  501  0.12777299532E+02 -0.20943609909E+02 -0.24186672112E+01  0.24652467025E+02  0.00000000000E+00 0.  1.
          5    1    5    5  502    0  0.21213140241E+02  0.33373151546E+01 -0.84190973403E+02  0.87013475933E+02  0.47000000000E+01 0. -1.
         11    1    4    4    0    0 -0.82590758412E+01 -0.68973574605E+02 -0.74693105806E+02  0.10200307046E+03  0.00000000000E+00 0. -1.
        -12    1    4    4    0    0 -0.16624608231E+02  0.37815678149E+02 -0.34424273191E+02  0.53772053127E+02  0.00000000000E+00 0.  1.
         -5    1    3    3    0  504  0.33550410770E+02  0.50115548500E+01 -0.17108499853E+03  0.17447897428E+03  0.47000000000E+01 0.  1.
<mgrwt>
<rscale>  2 0.17491784E+03</rscale>
<asrwt>0</asrwt>
<pdfrwt beam="1">  1       21 0.13934786E-01 0.17495775E+03</pdfrwt>
<pdfrwt beam="2">  1       21 0.64918700E-01 0.17495775E+03</pdfrwt>
<totfact> 0.98678541E+04</totfact>
</mgrwt>
</event>
<event>
12    1  0.1410528E-001  0.2853716E+03  0.7546771E-02  0.1092838E+00
         21   -1    0    0  502  503  0.00000000000E+00  0.00000000000E+00  0.49519396561E+03  0.49519396561E+03  0.00000000000E+00 0. -1.
         21   -1    0    0  503  504 -0.00000000000E+00 -0.00000000000E+00 -0.29888839249E+03  0.29888839249E+03  0.00000000000E+00 0. -1.
         -6    2    1    2    0  504  0.16853988145E+03 -0.15534594719E+03 -0.16829386899E+03  0.33130015440E+03  0.16999679708E+03 0.  0.
        -24    2    3    3    0    0  0.64197565158E+02 -0.89593654713E+02 -0.15678611912E+03  0.20734370542E+03  0.79127584896E+02 0.  0.
          6    2    1    2  502    0 -0.16853988145E+03  0.15534594719E+03  0.36459944210E+03  0.46278220371E+03  0.16940059014E+03 0.  0.
         24    2    5    5    0    0 -0.22003897724E+02  0.26407759000E+02  0.87235931160E+02  0.12359131630E+03  0.80518100627E+02 0.  0.
          2    1    6    6  501    0 -0.34494439639E+02  0.18431834361E+02  0.43046393906E+01  0.39346267983E+02  0.00000000000E+00 0. -1.
         -1    1    6    6    0  501  0.12490541915E+02  0.79759246396E+01  0.82931291770E+02  0.84245048316E+02  0.00000000000E+00 0.  1.
          5    1    5    5  502    0 -0.14653598373E+03  0.12893818819E+03  0.27736351094E+03  0.33919088741E+03  0.47000000000E+01 0. -1.
         13    1    4    4    0    0 -0.44533601861E+01 -0.42983083444E+02 -0.93441832785E+02  0.10295025009E+03  0.00000000000E+00 0. -1.
        -14    1    4    4    0    0  0.68650925344E+02 -0.46610571269E+02 -0.63344286340E+02  0.10439345533E+03  0.00000000000E+00 0.  1.
         -5    1    3    3    0  504  0.10434231629E+03 -0.65752292474E+02 -0.11507749863E+02  0.12395644897E+03  0.47000000000E+01 0.  1.
<mgrwt>
<rscale>  2 0.28528290E+03</rscale>
<asrwt>0</asrwt>
<pdfrwt beam="1">  1       21 0.76183687E-01 0.28537163E+03</pdfrwt>
<pdfrwt beam="2">  1       21 0.45982830E-01 0.28537163E+03</pdfrwt>
<totfact> 0.65668058E+03</totfact>
</mgrwt>
</event>
<event>
12    1  0.1410528E-001  0.2088568E+03  0.7546771E-02  0.1142769E+00
         21   -1    0    0  502  503  0.00000000000E+00  0.00000000000E+00  0.39042061771E+03  0.39042061771E+03  0.00000000000E+00 0.  1.
         21   -1    0    0  503  504 -0.00000000000E+00 -0.00000000000E+00 -0.18827067511E+03  0.18827067511E+03  0.00000000000E+00 0.  1.
         -6    2    1    2    0  504  0.10035042357E+03 -0.57248988347E+02 -0.84148380799E+02  0.22517130462E+03  0.17399285116E+03 0.  0.
        -24    2    3    3    0    0  0.14566518363E+02 -0.45620884671E+02  0.20285651647E+01  0.10293118353E+03  0.91089323697E+02 0.  0.
          6    2    1    2  502    0 -0.10035042357E+03  0.57248988347E+02  0.28629832340E+03  0.35351998820E+03  0.17222658881E+03 0.  0.
         24    2    5    5    0    0  0.51269256741E+01  0.57340944854E+02  0.15910572080E+03  0.18821563915E+03  0.82439232795E+02 0.  0.
          2    1    6    6  501    0 -0.17110890779E+02  0.25450454701E+02  0.73190882156E+01  0.31528991104E+02  0.00000000000E+00 0. -1.
         -1    1    6    6    0  501  0.22237816453E+02  0.31890490153E+02  0.15178663259E+03  0.15668664804E+03  0.00000000000E+00 0.  1.
          5    1    5    5  502    0 -0.10547734924E+03 -0.91956506889E-01  0.12719260260E+03  0.16530434905E+03  0.47000000000E+01 0. -1.
         13    1    4    4    0    0  0.19090635716E+02  0.22261338492E+02 -0.14798368759E+02  0.32848307132E+02  0.00000000000E+00 0. -1.
        -14    1    4    4    0    0 -0.45241173537E+01 -0.67882223164E+02  0.16826933924E+02  0.70082876402E+02  0.00000000000E+00 0.  1.
         -5    1    3    3    0  504  0.85783905203E+02 -0.11628103676E+02 -0.86176945964E+02  0.12224012108E+03  0.47000000000E+01 0.  1.
<mgrwt>
<rscale>  2 0.20848855E+03</rscale>
<asrwt>0</asrwt>
<pdfrwt beam="1">  1       21 0.60064710E-01 0.20885681E+03</pdfrwt>
<pdfrwt beam="2">  1       21 0.28964719E-01 0.20885681E+03</pdfrwt>
<totfact> 0.29233763E+04</totfact>
</mgrwt>
</event>
<event>
12    1  0.1410528E-001  0.1967989E+03  0.7546771E-02  0.1153259E+00
         21   -1    0    0  502  503  0.00000000000E+00  0.00000000000E+00  0.32267911735E+03  0.32267911735E+03  0.00000000000E+00 0.  1.
         21   -1    0    0  503  504 -0.00000000000E+00 -0.00000000000E+00 -0.16546462427E+03  0.16546462427E+03  0.00000000000E+00 0.  1.
         -6    2    1    2    0  504  0.75804911357E+02 -0.50095077707E+02 -0.52882466004E+02  0.20027130555E+03  0.17045861439E+03 0.  0.
        -24    2    3    3    0    0  0.95563511736E+02 -0.49977072434E+02  0.12742074647E+02  0.13157569761E+03  0.74294758842E+02 0.  0.
          6    2    1    2  502    0 -0.75804911357E+02  0.50095077707E+02  0.21009695908E+03  0.28787243607E+03  0.17456776860E+03 0.  0.
         24    2    5    5    0    0 -0.95017688508E+02 -0.76492653466E+01  0.18173180667E+03  0.22056558774E+03  0.80844644526E+02 0.  0.
          4    1    6    6  501    0 -0.16291077266E+02 -0.12390133943E+02  0.11630180329E+03  0.11808905142E+03  0.00000000000E+00 0. -1.
         -3    1    6    6    0  501 -0.78726611242E+02  0.47408685962E+01  0.65430003383E+02  0.10247653632E+03  0.00000000000E+00 0.  1.
          5    1    5    5  502    0  0.19212777151E+02  0.57744343054E+02  0.28365152408E+02  0.67306848327E+02  0.47000000000E+01 0. -1.
         11    1    4    4    0    0  0.33528868137E+02 -0.25488814295E+02  0.41334529376E+02  0.59011930755E+02  0.00000000000E+00 0. -1.
        -12    1    4    4    0    0  0.62034643599E+02 -0.24488258139E+02 -0.28592454728E+02  0.72563766857E+02  0.00000000000E+00 0.  1.
         -5    1    3    3    0  504 -0.19758600379E+02 -0.11800527303E+00 -0.65624540651E+02  0.68695607937E+02  0.47000000000E+01 0.  1.
<mgrwt>
<rscale>  2 0.19588362E+03</rscale>
<asrwt>0</asrwt>
<pdfrwt beam="1">  1       21 0.49642941E-01 0.19679890E+03</pdfrwt>
<pdfrwt beam="2">  1       21 0.25456096E-01 0.19679890E+03</pdfrwt>
<totfact> 0.56484793E+04</totfact>
</mgrwt>
</event>
<event>
12    1  0.1410528E-001  0.3000639E+03  0.7546771E-02  0.1085701E+00
         21   -1    0    0  502  503  0.00000000000E+00  0.00000000000E+00  0.29629175287E+03  0.29629175287E+03  0.00000000000E+00 0. -1.
         21   -1    0    0  503  504 -0.00000000000E+00 -0.00000000000E+00 -0.62016767541E+03  0.62016767541E+03  0.00000000000E+00 0.  1.
         -6    2    1    2    0  504  0.23761238713E+03  0.40350928587E+02 -0.49069933049E+03  0.57313975422E+03  0.17209154822E+03 0.  0.
        -24    2    3    3    0    0  0.25129905746E+03  0.52184035947E+02 -0.48332171310E+03  0.55304332139E+03  0.79891470702E+02 0.  0.
          6    2    1    2  502    0 -0.23761238713E+03 -0.40350928587E+02  0.16682340795E+03  0.34331967406E+03  0.17874704249E+03 0.  0.
         24    2    5    5    0    0 -0.29296287152E+02  0.32740974000E+01  0.30816493435E+02  0.90696018796E+02  0.80044483902E+02 0.  0.
          2    1    6    6  501    0  0.24893848985E+02 -0.13470063067E+02  0.68460017164E+01  0.29120680896E+02  0.00000000000E+00 0. -1.
         -1    1    6    6    0  501 -0.54190136137E+02  0.16744160467E+02  0.23970491719E+02  0.61575337900E+02  0.00000000000E+00 0.  1.
          5    1    5    5  502    0 -0.20831609998E+03 -0.43625025987E+02  0.13600691451E+03  0.25262365527E+03  0.47000000000E+01 0. -1.
         13    1    4    4    0    0  0.12721109207E+02  0.24344061750E+02 -0.66795726735E+02  0.72222773915E+02  0.00000000000E+00 0. -1.
        -14    1    4    4    0    0  0.23857794825E+03  0.27839974198E+02 -0.41652598636E+03  0.48082054747E+03  0.00000000000E+00 0.  1.
         -5    1    3    3    0  504 -0.13686670324E+02 -0.11833107360E+02 -0.73776173926E+01  0.20096432836E+02  0.47000000000E+01 0.  1.
<mgrwt>
<rscale>  2 0.29907998E+03</rscale>
<asrwt>0</asrwt>
<pdfrwt beam="1">  1       21 0.45583347E-01 0.30006391E+03</pdfrwt>
<pdfrwt beam="2">  1       21 0.95410411E-01 0.30006391E+03</pdfrwt>
<totfact> 0.39404972E+03</totfact>
</mgrwt>
</event>
<event>
12    1  0.1410528E-001  0.2094137E+03  0.7546771E-02  0.1142144E+00
         21   -1    0    0  502  503  0.00000000000E+00  0.00000000000E+00  0.13534059926E+03  0.13534059926E+03  0.00000000000E+00 0. -1.
         21   -1    0    0  503  504 -0.00000000000E+00 -0.00000000000E+00 -0.69753532093E+03  0.69753532093E+03  0.00000000000E+00 0. -1.
         -6    2    1    2    0  504 -0.10409140339E+03 -0.53011686901E+02 -0.58636453808E+03  0.62263752629E+03  0.17380695735E+03 0.  0.
        -24    2    3    3    0    0 -0.67147750813E+02  0.42001293584E+02 -0.31754029037E+03  0.33509471890E+03  0.71997955008E+02 0.  0.
          6    2    1    2  502    0  0.10409140339E+03  0.53011686901E+02  0.24169816404E+02  0.21023839390E+03  0.17312060258E+03 0.  0.
         24    2    5    5    0    0  0.83068528765E+02 -0.27843373864E+02  0.40058794991E+02  0.12506767270E+03  0.79759524569E+02 0.  0.
          2    1    6    6  501    0  0.84777542871E+02 -0.29115179491E+02  0.48228572467E+01  0.89767396109E+02  0.00000000000E+00 0. -1.
         -1    1    6    6    0  501 -0.17090141065E+01  0.12718056276E+01  0.35235937744E+02  0.35300276592E+02  0.00000000000E+00 0.  1.
          5    1    5    5  502    0  0.21022874621E+02  0.80855060765E+02 -0.15888978587E+02  0.85170721197E+02  0.47000000000E+01 0. -1.
         13    1    4    4    0    0 -0.42170540425E+02  0.11770978906E+01 -0.24214360333E+03  0.24579109966E+03  0.00000000000E+00 0. -1.
        -14    1    4    4    0    0 -0.24977210388E+02  0.40824195693E+02 -0.75396687042E+02  0.89303619241E+02  0.00000000000E+00 0.  1.
         -5    1    3    3    0  504 -0.36943652573E+02 -0.95012980485E+02 -0.26882424771E+03  0.28754280739E+03  0.47000000000E+01 0.  1.
<mgrwt>
<rscale>  2 0.20927128E+03</rscale>
<asrwt>0</asrwt>
<pdfrwt beam="1">  1       21 0.20821630E-01 0.20941375E+03</pdfrwt>
<pdfrwt beam="2">  1       21 0.10731313E+00 0.20941375E+03</pdfrwt>
<totfact> 0.14679433E+04</totfact>
</mgrwt>
</event>
<event>
12    1  0.1410528E-001  0.1948197E+03  0.7546771E-02  0.1154458E+00
         21   -1    0    0  502  503  0.00000000000E+00  0.00000000000E+00  0.19922929933E+03  0.19922929933E+03  0.00000000000E+00 0. -1.
         21   -1    0    0  503  504 -0.00000000000E+00 -0.00000000000E+00 -0.19465787002E+03  0.19465787002E+03  0.00000000000E+00 0. -1.
         -6    2    1    2    0  504 -0.69872005396E+02  0.51353571666E+02  0.34987350724E+02  0.19670741929E+03  0.17306186071E+03 0.  0.
        -24    2    3    3    0    0 -0.92559161385E+02  0.73486738642E+02  0.60901208858E+02  0.15549817069E+03  0.80642573955E+02 0.  0.
          6    2    1    2  502    0  0.69872005396E+02 -0.51353571666E+02 -0.30415921414E+02  0.19717975005E+03  0.17445755671E+03 0.  0.
         24    2    5    5    0    0  0.34914037736E+02 -0.17683261008E+02  0.50556373085E+02  0.10265804990E+03  0.80318370250E+02 0.  0.
          2    1    6    6  501    0 -0.24919028227E+02 -0.39290883550E+01  0.38531631420E+01  0.25519454721E+02  0.00000000000E+00 0. -1.
         -1    1    6    6    0  501  0.59833065962E+02 -0.13754172653E+02  0.46703209943E+02  0.77138595183E+02  0.00000000000E+00 0.  1.
          5    1    5    5  502    0  0.34957967660E+02 -0.33670310658E+02 -0.80972294499E+02  0.94521700149E+02  0.47000000000E+01 0. -1.
         11    1    4    4    0    0 -0.62627341770E+02  0.88309800199E+02  0.36940059522E+02  0.11439131412E+03  0.00000000000E+00 0. -1.
        -12    1    4    4    0    0 -0.29931819615E+02 -0.14823061557E+02  0.23961149336E+02  0.41106856568E+02  0.00000000000E+00 0.  1.
         -5    1    3    3    0  504  0.22687155990E+02 -0.22133166976E+02 -0.25913858134E+02  0.41209248606E+02  0.47000000000E+01 0.  1.
<mgrwt>
<rscale>  2 0.19450677E+03</rscale>
<asrwt>0</asrwt>
<pdfrwt beam="1">  1       21 0.30650661E-01 0.19481973E+03</pdfrwt>
<pdfrwt beam="2">  1       21 0.29947365E-01 0.19481973E+03</pdfrwt>
<totfact> 0.10918471E+05</totfact>
</mgrwt>
</event>
<event>
12    1  0.1410528E-001  0.2339225E+03  0.7546771E-02  0.1124102E+00
         21   -1    0    0  502  503  0.00000000000E+00  0.00000000000E+00  0.25704730363E+03  0.25704730363E+03  0.00000000000E+00 0.  1.
         21   -1    0    0  503  504 -0.00000000000E+00 -0.00000000000E+00 -0.22139887786E+03  0.22139887786E+03  0.00000000000E+00 0.  1.
         -6    2    1    2    0  504  0.15477365621E+03 -0.18876988194E+02  0.67517547075E+02  0.24347146816E+03  0.17438036388E+03 0.  0.
        -24    2    3    3    0    0  0.17857888720E+02  0.10029987678E+02  0.63572462447E+02  0.10340293374E+03  0.78937974909E+02 0.  0.
          6    2    1    2  502    0 -0.15477365621E+03  0.18876988194E+02 -0.31869121301E+02  0.23497471333E+03  0.17287639998E+03 0.  0.
         24    2    5    5    0    0 -0.44747524013E+02 -0.29415814514E+02  0.27716329672E+02  0.10077165626E+03  0.80740948258E+02 0.  0.
          4    1    6    6  501    0  0.20275894503E+01 -0.46269980327E+02  0.67129009311E+01  0.46798346523E+02  0.00000000000E+00 0. -1.
         -3    1    6    6    0  501 -0.46775113464E+02  0.16854165813E+02  0.21003428741E+02  0.53973309734E+02  0.00000000000E+00 0.  1.
          5    1    5    5  502    0 -0.11002613220E+03  0.48292802708E+02 -0.59585450973E+02  0.13420305707E+03  0.47000000000E+01 0. -1.
         11    1    4    4    0    0  0.48500034126E+02  0.16507634894E+01  0.47066494107E+02  0.67603499893E+02  0.00000000000E+00 0. -1.
        -12    1    4    4    0    0 -0.30642145406E+02  0.83792241889E+01  0.16505968340E+02  0.35799433850E+02  0.00000000000E+00 0.  1.
         -5    1    3    3    0  504  0.13691576749E+03 -0.28906975873E+02  0.39450846279E+01  0.14006853442E+03  0.47000000000E+01 0.  1.
<mgrwt>
<rscale>  2 0.23364225E+03</rscale>
<asrwt>0</asrwt>
<pdfrwt beam="1">  1       21 0.39545739E-01 0.23392250E+03</pdfrwt>
<pdfrwt beam="2">  1       21 0.34061366E-01 0.23392250E+03</pdfrwt>
<totfact> 0.50231828E+04</totfact>
</mgrwt>
</event>
<event>
12    1  0.1410528E-001  0.3091961E+03  0.7546771E-02  0.1080748E+00
         21   -1    0    0  502  503  0.00000000000E+00  0.00000000000E+00  0.32795434688E+03  0.32795434688E+03  0.00000000000E+00 0. -1.
         21   -1    0    0  503  504 -0.00000000000E+00 -0.00000000000E+00 -0.51913007939E+03  0.51913007939E+03  0.00000000000E+00 0. -1.
         -6    2    1    2    0  504  0.21467866024E+03  0.13783693024E+03 -0.37613326930E+03  0.48690706704E+03  0.17468917872E+03 0.  0.
        -24    2    3    3    0    0  0.20824857376E+03  0.84789863673E+02 -0.23471674755E+03  0.33565872851E+03  0.83773748825E+02 0.  0.
          6    2    1    2  502    0 -0.21467866024E+03 -0.13783693024E+03  0.18495753679E+03  0.36017735924E+03  0.17444911347E+03 0.  0.
         24    2    5    5    0    0 -0.53941474153E+02 -0.11797248575E+03  0.76878432309E+02  0.16541026250E+03  0.67993172864E+02 0.  0.
          2    1    6    6  501    0 -0.33560225581E+02 -0.12120493883E+03  0.64403687629E+02  0.14129671234E+03  0.00000000000E+00 0. -1.
         -1    1    6    6    0  501 -0.20381248572E+02  0.32324530777E+01  0.12474744680E+02  0.24113550155E+02  0.00000000000E+00 0.  1.
          5    1    5    5  502    0 -0.16073718609E+03 -0.19864444482E+02  0.10807910448E+03  0.19476709674E+03  0.47000000000E+01 0. -1.
         11    1    4    4    0    0  0.51327194710E+02 -0.90285082022E+01 -0.26166885749E+02  0.58315527838E+02  0.00000000000E+00 0. -1.
        -12    1    4    4    0    0  0.15692137905E+03  0.93818371875E+02 -0.20854986180E+03  0.27734320068E+03  0.00000000000E+00 0.  1.
         -5    1    3    3    0  504  0.64300864788E+01  0.53047066563E+02 -0.14141652175E+03  0.15124833853E+03  0.47000000000E+01 0.  1.
<mgrwt>
<rscale>  2 0.30916225E+03</rscale>
<asrwt>0</asrwt>
<pdfrwt beam="1">  1       21 0.50454515E-01 0.30919614E+03</pdfrwt>
<pdfrwt beam="2">  1       21 0.79866166E-01 0.30919614E+03</pdfrwt>
<totfact> 0.47978553E+03</totfact>
</mgrwt>
</event>
<event>
12    1  0.1410528E-001  0.2146735E+03  0.7546771E-02  0.1139887E+00
         21   -1    0    0  502  503  0.00000000000E+00  0.00000000000E+00  0.20410999097E+03  0.20410999097E+03  0.00000000000E+00 0. -1.
         21   -1    0    0  503  504 -0.00000000000E+00 -0.00000000000E+00 -0.11869274427E+04  0.11869274427E+04  0.00000000000E+00 0. -1.
         -6    2    1    2    0  504 -0.99907301153E+02 -0.39703005922E+02 -0.11227473753E+04  0.11430863308E+04  0.18581413629E+03 0.  0.
        -24    2    3    3    0    0 -0.30073054464E+02  0.39106452229E+02 -0.73711373980E+03  0.74330746243E+03  0.82070793190E+02 0.  0.
          6    2    1    2  502    0  0.99907301153E+02  0.39703005922E+02  0.13992992359E+03  0.24795110293E+03  0.17418831312E+03 0.  0.
         24    2    5    5    0    0  0.14480853034E+02  0.56842078253E+02  0.18713955865E+02  0.98596402067E+02  0.77008579988E+02 0.  0.
          2    1    6    6  501    0  0.41304809438E+02  0.98574181224E+01  0.11656201728E+02  0.44035474489E+02  0.00000000000E+00 0. -1.
         -1    1    6    6    0  501 -0.26823956403E+02  0.46984660131E+02  0.70577541363E+01  0.54560927578E+02  0.00000000000E+00 0.  1.
          5    1    5    5  502    0  0.85426448118E+02 -0.17139072332E+02  0.12121596773E+03  0.14935470087E+03  0.47000000000E+01 0. -1.
         13    1    4    4    0    0  0.11304532155E+02  0.21648216993E+02 -0.56187565549E+03  0.56240616104E+03  0.00000000000E+00 0. -1.
        -14    1    4    4    0    0 -0.41377586618E+02  0.17458235236E+02 -0.17523808431E+03  0.18090130139E+03  0.00000000000E+00 0.  1.
         -5    1    3    3    0  504 -0.69834246689E+02 -0.78809458151E+02 -0.38563363555E+03  0.39977886834E+03  0.47000000000E+01 0.  1.
<mgrwt>
<rscale>  2 0.21213371E+03</rscale>
<asrwt>0</asrwt>
<pdfrwt beam="1">  1       21 0.31401538E-01 0.21467345E+03</pdfrwt>
<pdfrwt beam="2">  1       21 0.18260422E+00 0.21467345E+03</pdfrwt>
<totfact> 0.16659558E+03</totfact>
</mgrwt>
</event>
<event>
12    1  0.1410528E-001  0.2108430E+03  0.7546771E-02  0.1141352E+00
         21   -1    0    0  502  503  0.00000000000E+00  0.00000000000E+00  0.69469408655E+03  0.69469408655E+03  0.00000000000E+00 0. -1.
         21   -1    0    0  503  504 -0.00000000000E+00 -0.00000000000E+00 -0.71920915947E+02  0.71920915947E+02  0.00000000000E+00 0. -1.
         -6    2    1    2    0  504 -0.95193018015E+02  0.66374604990E+02  0.18018428013E+03  0.27734659416E+03  0.17603255272E+03 0.  0.
        -24    2    3    3    0    0 -0.10496428470E+02  0.83466619829E+02  0.13746580335E+03  0.18084474179E+03  0.82043414758E+02 0.  0.
          6    2    1    2  502    0  0.95193018015E+02 -0.66374604990E+02  0.44258889047E+03  0.48926840834E+03  0.17329555842E+03 0.  0.
         24    2    5    5    0    0  0.85155515207E+02 -0.46602380572E+02  0.17978787644E+03  0.22549169349E+03  0.95391717009E+02 0.  0.
          4    1    6    6  501    0  0.20061719051E+02 -0.41088936369E+02  0.14830726381E+02  0.48069987604E+02  0.00000000000E+00 0. -1.
         -3    1    6    6    0  501  0.65093796156E+02 -0.55134442027E+01  0.16495715006E+03  0.17742170589E+03  0.00000000000E+00 0.  1.
          5    1    5    5  502    0  0.10037502808E+02 -0.19772224419E+02  0.26280101404E+03  0.26377671485E+03  0.47000000000E+01 0. -1.
         13    1    4    4    0    0 -0.27235712969E+02  0.24874579516E+02  0.79823368684E+01  0.37739190094E+02  0.00000000000E+00 0. -1.
        -14    1    4    4    0    0  0.16739284499E+02  0.58592040313E+02  0.12948346648E+03  0.14310555169E+03  0.00000000000E+00 0.  1.
         -5    1    3    3    0  504 -0.84696589545E+02 -0.17092014839E+02  0.42718476784E+02  0.96501852368E+02  0.47000000000E+01 0.  1.
<mgrwt>
<rscale>  2 0.21027073E+03</rscale>
<asrwt>0</asrwt>
<pdfrwt beam="1">  1       21 0.10687601E+00 0.21084297E+03</pdfrwt>
<pdfrwt beam="2">  1       21 0.11064757E-01 0.21084297E+03</pdfrwt>
<totfact> 0.47038167E+04</totfact>
</mgrwt>
</event>
<event>
12    1  0.1410528E-001  0.3551786E+03  0.7546771E-02  0.1060541E+00
         21   -1    0    0  502  503  0.00000000000E+00  0.00000000000E+00  0.25876997146E+03  0.25876997146E+03  0.00000000000E+00 0. -1.
         21   -1    0    0  503  504 -0.00000000000E+00 -0.00000000000E+00 -0.60532990059E+03  0.60532990059E+03  0.00000000000E+00 0.  1.
         -6    2    1    2    0  504 -0.24700837842E+03  0.18706787191E+03 -0.36418285450E+03  0.50848430656E+03  0.17297286146E+03 0.  0.
        -24    2    3    3    0    0 -0.14150300602E+03  0.18801369537E+03 -0.24868609555E+03  0.35197913249E+03  0.81684057331E+02 0.  0.
          6    2    1    2  502    0  0.24700837842E+03 -0.18706787191E+03  0.17622925373E+02  0.35561556549E+03  0.17362124068E+03 0.  0.
         24    2    5    5    0    0  0.68903310688E+02 -0.95733440126E+02 -0.36150903172E+02  0.14830635630E+03  0.82312391155E+02 0.  0.
          4    1    6    6  501    0 -0.14738019294E+02 -0.39149817468E+02 -0.18721284271E+02  0.45830163706E+02  0.00000000000E+00 0. -1.
         -3    1    6    6    0  501  0.83641329982E+02 -0.56583622658E+02 -0.17429618900E+02  0.10247619260E+03  0.00000000000E+00 0.  1.
          5    1    5    5  502    0  0.17810506773E+03 -0.91334431779E+02  0.53773828544E+02  0.20730920919E+03  0.47000000000E+01 0. -1.
         11    1    4    4    0    0 -0.79287085052E+01  0.68154161948E+02 -0.55075066183E+02  0.87983618500E+02  0.00000000000E+00 0. -1.
        -12    1    4    4    0    0 -0.13357429752E+03  0.11985953343E+03 -0.19361102937E+03  0.26399551399E+03  0.00000000000E+00 0.  1.
         -5    1    3    3    0  504 -0.10550537239E+03 -0.94582346948E+00 -0.11549675894E+03  0.15650517407E+03  0.47000000000E+01 0.  1.
<mgrwt>
<rscale>  2 0.35509949E+03</rscale>
<asrwt>0</asrwt>
<pdfrwt beam="1">  1       21 0.39810765E-01 0.35517864E+03</pdfrwt>
<pdfrwt beam="2">  1       21 0.93127676E-01 0.35517864E+03</pdfrwt>
<totfact> 0.53768686E+03</totfact>
</mgrwt>
</event>
<event>
12    1  0.1410528E-001  0.1796948E+03  0.7546771E-02  0.1168228E+00
         21   -1    0    0  502  503  0.00000000000E+00  0.00000000000E+00  0.58623649555E+03  0.58623649555E+03  0.00000000000E+00 0. -1.
         21   -1    0    0  503  504 -0.00000000000E+00 -0.00000000000E+00 -0.54934980132E+02  0.54934980132E+02  0.00000000000E+00 0. -1.
         -6    2    1    2    0  504 -0.38609299981E+02  0.28447859549E+02  0.25956521000E+03  0.31539418337E+03  0.17262512537E+03 0.  0.
        -24    2    3    3    0    0 -0.34363795048E+02 -0.46651748196E+01  0.26711030561E+03  0.28084688500E+03  0.79526242098E+02 0.  0.
          6    2    1    2  502    0  0.38609299981E+02 -0.28447859549E+02  0.27173630543E+03  0.32577729231E+03  0.17317697809E+03 0.  0.
         24    2    5    5    0    0  0.90266760900E+02 -0.23173097088E+02  0.15252158268E+03  0.19565982036E+03  0.79591780780E+02 0.  0.
          2    1    6    6  501    0  0.23482443033E+02 -0.35716779841E+02  0.10317867526E+03  0.11168237337E+03  0.00000000000E+00 0. -1.
         -1    1    6    6    0  501  0.66784317868E+02  0.12543682753E+02  0.49342907413E+02  0.83977446985E+02  0.00000000000E+00 0.  1.
          5    1    5    5  502    0 -0.51657460920E+02 -0.52747624605E+01  0.11921472275E+03  0.13011747196E+03  0.47000000000E+01 0. -1.
         11    1    4    4    0    0  0.20545965683E+02  0.40615777681E+01  0.25882572053E+02  0.33294754180E+02  0.00000000000E+00 0. -1.
        -12    1    4    4    0    0 -0.54909760731E+02 -0.87267525876E+01  0.24122773356E+03  0.24755213082E+03  0.00000000000E+00 0.  1.
         -5    1    3    3    0  504 -0.42455049321E+01  0.33113034368E+02 -0.75450956167E+01  0.34547298376E+02  0.47000000000E+01 0.  1.
<mgrwt>
<rscale>  2 0.17956172E+03</rscale>
<asrwt>0</asrwt>
<pdfrwt beam="1">  1       21 0.90190226E-01 0.17969481E+03</pdfrwt>
<pdfrwt beam="2">  1       21 0.84515358E-02 0.17969481E+03</pdfrwt>
<totfact> 0.11457389E+05</totfact>
</mgrwt>
</event>
<event>
12    1  0.1410528E-001  0.1740562E+03  0.7546771E-02  0.1174321E+00
         21   -1    0    0  502  503  0.00000000000E+00  0.00000000000E+00  0.79156887889E+03  0.79156887889E+03  0.00000000000E+00 0.  1.
         21   -1    0    0  503  504 -0.00000000000E+00 -0.00000000000E+00 -0.44801525394E+02  0.44801525394E+02  0.00000000000E+00 0.  1.
         -6    2    1    2    0  504 -0.17903400046E+02  0.77466234826E+01  0.20489052556E+03  0.26722538363E+03  0.17043689824E+03 0.  0.
        -24    2    3    3    0    0 -0.26428703424E+02  0.29719761655E+02  0.22050105071E+03  0.23856743370E+03  0.81926591885E+02 0.  0.
          6    2    1    2  502    0  0.17903400046E+02 -0.77466234826E+01  0.54187682794E+03  0.56914502066E+03  0.17295957902E+03 0.  0.
         24    2    5    5    0    0  0.53506035798E+02  0.48087598588E+01  0.17373802435E+03  0.19904577177E+03  0.80921555316E+02 0.  0.
          2    1    6    6  501    0  0.56137693591E+02 -0.16533448511E+01  0.50249783059E+02  0.75360565871E+02  0.00000000000E+00 0. -1.
         -1    1    6    6    0  501 -0.26316577936E+01  0.64621047099E+01  0.12348824129E+03  0.12368520590E+03  0.00000000000E+00 0.  1.
          5    1    5    5  502    0 -0.35602635751E+02 -0.12555383341E+02  0.36813880359E+03  0.37009924889E+03  0.47000000000E+01 0. -1.
         11    1    4    4    0    0 -0.16223013696E+01 -0.27410368098E+02  0.49950796601E+02  0.57000370367E+02  0.00000000000E+00 0. -1.
        -12    1    4    4    0    0 -0.24806402054E+02  0.57130129753E+02  0.17055025411E+03  0.18156706333E+03  0.00000000000E+00 0.  1.
         -5    1    3    3    0  504  0.85253033774E+01 -0.21973138173E+02 -0.15610525151E+02  0.28657949932E+02  0.47000000000E+01 0.  1.
<mgrwt>
<rscale>  2 0.17342614E+03</rscale>
<asrwt>0</asrwt>
<pdfrwt beam="1">  1       21 0.12177982E+00 0.17405619E+03</pdfrwt>
<pdfrwt beam="2">  1       21 0.68925430E-02 0.17405619E+03</pdfrwt>
<totfact> 0.79791270E+04</totfact>
</mgrwt>
</event>
<event>
12    1  0.1410528E-001  0.1985960E+03  0.7546771E-02  0.1151690E+00
         21   -1    0    0  502  503  0.00000000000E+00  0.00000000000E+00  0.12946991876E+03  0.12946991876E+03  0.00000000000E+00 0. -1.
         21   -1    0    0  503  504 -0.00000000000E+00 -0.00000000000E+00 -0.71043932522E+03  0.71043932522E+03  0.00000000000E+00 0. -1.
         -6    2    1    2    0  504  0.28792520315E+01  0.90524222804E+02 -0.60888124300E+03  0.63936138928E+03  0.17275327208E+03 0.  0.
        -24    2    3    3    0    0  0.78060176979E+01  0.21258423288E+02 -0.13009203214E+03  0.15553991141E+03  0.82194116239E+02 0.  0.
          6    2    1    2  502    0 -0.28792520315E+01 -0.90524222804E+02  0.27911836537E+02  0.20054785470E+03  0.17674118478E+03 0.  0.
         24    2    5    5    0    0  0.24109509111E+02 -0.69991498371E+02 -0.46428605018E+02  0.11870301826E+03  0.80341227940E+02 0.  0.
          2    1    6    6  501    0 -0.13519369350E+02 -0.59766417532E+02 -0.44947268092E+01  0.61441033368E+02  0.00000000000E+00 0. -1.
         -1    1    6    6    0  501  0.37628878461E+02 -0.10225080839E+02 -0.41933878209E+02  0.57261984894E+02  0.00000000000E+00 0.  1.
          5    1    5    5  502    0 -0.26988761143E+02 -0.20532724433E+02  0.74340441555E+02  0.81844836436E+02  0.47000000000E+01 0. -1.
         11    1    4    4    0    0 -0.26750016932E+02 -0.16165976744E+02 -0.70669639960E+02  0.77272894485E+02  0.00000000000E+00 0. -1.
        -12    1    4    4    0    0  0.34556034630E+02  0.37424400032E+02 -0.59422392175E+02  0.78267016928E+02  0.00000000000E+00 0.  1.
         -5    1    3    3    0  504 -0.49267656664E+01  0.69265799516E+02 -0.47878921086E+03  0.48382147786E+03  0.47000000000E+01 0.  1.
<mgrwt>
<rscale>  2 0.19770488E+03</rscale>
<asrwt>0</asrwt>
<pdfrwt beam="1">  1       21 0.19918449E-01 0.19859600E+03</pdfrwt>
<pdfrwt beam="2">  1       21 0.10929836E+00 0.19859600E+03</pdfrwt>
<totfact> 0.15367526E+04</totfact>
</mgrwt>
</event>
<event>
12    1  0.1410528E-001  0.1900783E+03  0.7546771E-02  0.1158551E+00
         21   -1    0    0  502  503  0.00000000000E+00  0.00000000000E+00  0.95491035230E+03  0.95491035230E+03  0.00000000000E+00 0. -1.
         21   -1    0    0  503  504 -0.00000000000E+00 -0.00000000000E+00 -0.51698159028E+02  0.51698159028E+02  0.00000000000E+00 0. -1.
         -6    2    1    2    0  504 -0.75190479843E+02 -0.98775283365E+01  0.19027432665E+03  0.26894997380E+03  0.17429456446E+03 0.  0.
        -24    2    3    3    0    0  0.66529928536E+01  0.45484710792E+02  0.92168248475E+02  0.12962939342E+03  0.78712593535E+02 0.  0.
          6    2    1    2  502    0  0.75190479843E+02  0.98775283365E+01  0.71293786662E+03  0.73765853752E+03  0.17351813304E+03 0.  0.
         24    2    5    5    0    0  0.11084710166E+03  0.18837952102E+02  0.65139334007E+03  0.66581493919E+03  0.79713871875E+02 0.  0.
          4    1    6    6  501    0  0.53401306894E+01  0.23866746932E+02  0.23357306787E+03  0.23484998752E+03  0.00000000000E+00 0. -1.
         -3    1    6    6    0  501  0.10550697097E+03 -0.50287948302E+01  0.41782027220E+03  0.43096495167E+03  0.00000000000E+00 0.  1.
          5    1    5    5  502    0 -0.35656621821E+02 -0.89604237652E+01  0.61544526549E+02  0.71843598336E+02  0.47000000000E+01 0.  1.
         13    1    4    4    0    0  0.21672523004E+02 -0.65151163896E+01  0.65482779502E+02  0.69283038373E+02  0.00000000000E+00 0. -1.
        -14    1    4    4    0    0 -0.15019530150E+02  0.51999827181E+02  0.26685468973E+02  0.60346355044E+02  0.00000000000E+00 0.  1.
         -5    1    3    3    0  504 -0.81843472697E+02 -0.55362239128E+02  0.98106078175E+02  0.13932058039E+03  0.47000000000E+01 0.  1.
<mgrwt>
<rscale>  2 0.18990015E+03</rscale>
<asrwt>0</asrwt>
<pdfrwt beam="1">  1       21 0.14690927E+00 0.19007832E+03</pdfrwt>
<pdfrwt beam="2">  1       21 0.79535636E-02 0.19007832E+03</pdfrwt>
<totfact> 0.38327535E+04</totfact>
</mgrwt>
</event>
<event>
12    1  0.1410528E-001  0.1787267E+03  0.7546771E-02  0.1169560E+00
         21   -1    0    0  502  503  0.00000000000E+00  0.00000000000E+00  0.44796254211E+03  0.44796254211E+03  0.00000000000E+00 0.  1.
         21   -1    0    0  503  504 -0.00000000000E+00 -0.00000000000E+00 -0.12378168477E+03  0.12378168477E+03  0.00000000000E+00 0.  1.
         -6    2    1    2    0  504 -0.10375811236E+02  0.25155731416E+02 -0.26070105665E+02  0.17852803448E+03  0.17450541655E+03 0.  0.
        -24    2    3    3    0    0 -0.22832014833E+02 -0.51239446766E+02 -0.33334631690E+02  0.10064194076E+03  0.76621281400E+02 0.  0.
          6    2    1    2  502    0  0.10375811236E+02 -0.25155731416E+02  0.35025096301E+03  0.39321619239E+03  0.17664305418E+03 0.  0.
         24    2    5    5    0    0 -0.40437628539E+02 -0.60834739183E+02  0.27392457816E+03  0.29471337883E+03  0.80530949607E+02 0.  0.
          4    1    6    6  501    0 -0.45549604854E+02 -0.41593214747E+02  0.86533257167E+02  0.10626742968E+03  0.00000000000E+00 0. -1.
         -3    1    6    6    0  501  0.51119763144E+01 -0.19241524436E+02  0.18739132100E+03  0.18844594915E+03  0.00000000000E+00 0.  1.
          5    1    5    5  502    0  0.50813439776E+02  0.35679007767E+02  0.76326384843E+02  0.98502813565E+02  0.47000000000E+01 0. -1.
         11    1    4    4    0    0  0.58357397414E+01 -0.61041661223E+02 -0.34430343437E+02  0.70324880464E+02  0.00000000000E+00 0. -1.
        -12    1    4    4    0    0 -0.28667754574E+02  0.98022144571E+01  0.10957117466E+01  0.30317060293E+02  0.00000000000E+00 0.  1.
         -5    1    3    3    0  504  0.12456203597E+02  0.76395178182E+02  0.72645260248E+01  0.77886093726E+02  0.47000000000E+01 0.  1.
<mgrwt>
<rscale>  2 0.17819625E+03</rscale>
<asrwt>0</asrwt>
<pdfrwt beam="1">  1       21 0.68917313E-01 0.17872671E+03</pdfrwt>
<pdfrwt beam="2">  1       21 0.19043336E-01 0.17872671E+03</pdfrwt>
<totfact> 0.48825032E+04</totfact>
</mgrwt>
</event>
<event>
12    1  0.1410528E-001  0.2832180E+03  0.7546771E-02  0.1094041E+00
         21   -1    0    0  502  503  0.00000000000E+00  0.00000000000E+00  0.40814238498E+03  0.40814238498E+03  0.00000000000E+00 0.  1.
         21   -1    0    0  503  504 -0.00000000000E+00 -0.00000000000E+00 -0.49491695769E+03  0.49491695769E+03  0.00000000000E+00 0. -1.
         -6    2    1    2    0  504  0.37065480093E+02  0.22151523090E+03 -0.39429902095E+03  0.48547312410E+03  0.17253865934E+03 0.  0.
        -24    2    3    3    0    0  0.28247090849E+00  0.11962898781E+03 -0.11214336480E+03  0.18320221813E+03  0.81705225946E+02 0.  0.
          6    2    1    2  502    0 -0.37065480093E+02 -0.22151523090E+03  0.30752444824E+03  0.41758621856E+03  0.17135961115E+03 0.  0.
         24    2    5    5    0    0 -0.56373987222E+02 -0.23357188962E+03  0.30112584261E+03  0.39347784613E+03  0.80088627493E+02 0.  0.
          4    1    6    6  501    0 -0.81401950160E+01 -0.11019772745E+03  0.82684909502E+02  0.13800940609E+03  0.00000000000E+00 0. -1.
         -3    1    6    6    0  501 -0.48233792206E+02 -0.12337416218E+03  0.21844093310E+03  0.25546844004E+03  0.00000000000E+00 0.  1.
          5    1    5    5  502    0  0.19308507129E+02  0.12056658729E+02  0.63986056362E+01  0.24108372432E+02  0.47000000000E+01 0. -1.
         13    1    4    4    0    0  0.14269993256E+02  0.10974695237E+03 -0.12095216621E+03  0.16394344382E+03  0.00000000000E+00 0. -1.
        -14    1    4    4    0    0 -0.13987522347E+02  0.98820354384E+01  0.88088014066E+01  0.19258774313E+02  0.00000000000E+00 0.  1.
         -5    1    3    3    0  504  0.36783009185E+02  0.10188624309E+03 -0.28215565615E+03  0.30227090597E+03  0.47000000000E+01 0.  1.
<mgrwt>
<rscale>  2 0.28303865E+03</rscale>
<asrwt>0</asrwt>
<pdfrwt beam="1">  1       21 0.62791136E-01 0.28321800E+03</pdfrwt>
<pdfrwt beam="2">  1       21 0.76141070E-01 0.28321800E+03</pdfrwt>
<totfact> 0.33901667E+03</totfact>
</mgrwt>
</event>
<event>
12    1  0.1410528E-001  0.1750723E+03  0.7546771E-02  0.1172821E+00
         21   -1    0    0  502  503  0.00000000000E+00  0.00000000000E+00  0.69033055804E+03  0.69033055804E+03  0.00000000000E+00 0.  1.
         21   -1    0    0  503  504 -0.00000000000E+00 -0.00000000000E+00 -0.99840855189E+02  0.99840855189E+02  0.00000000000E+00 0.  1.
         -6    2    1    2    0  504  0.11493450408E+02 -0.18658989677E+02  0.16061109708E+00  0.17442896939E+03  0.17304676324E+03 0.  0.
        -24    2    3    3    0    0 -0.55802969278E+02  0.12487341525E+02 -0.11612528218E+02  0.99198663928E+02  0.80222310082E+02 0.  0.
          6    2    1    2  502    0 -0.11493450408E+02  0.18658989677E+02  0.59032909176E+03  0.61574244385E+03  0.17369531738E+03 0.  0.
         24    2    5    5    0    0 -0.72509374058E+02 -0.50028142444E+01  0.37090325466E+03  0.38671709178E+03  0.81842820578E+02 0.  0.
          2    1    6    6  501    0 -0.53945042103E+02  0.34287978946E+02  0.18259429736E+03  0.19345906672E+03  0.00000000000E+00 0. -1.
         -1    1    6    6    0  501 -0.18564331955E+02 -0.39290793190E+02  0.18830895730E+03  0.19325802506E+03  0.00000000000E+00 0.  1.
          5    1    5    5  502    0  0.61015923650E+02  0.23661803921E+02  0.21942583709E+03  0.22902535206E+03  0.47000000000E+01 0. -1.
         13    1    4    4    0    0 -0.48183800089E+02 -0.26558968381E+02 -0.20000535199E+02  0.58541257253E+02  0.00000000000E+00 0. -1.
        -14    1    4    4    0    0 -0.76191691895E+01  0.39046309906E+02  0.83880069810E+01  0.40657406675E+02  0.00000000000E+00 0.  1.
         -5    1    3    3    0  504  0.67296419686E+02 -0.31146331202E+02  0.11773139315E+02  0.75230305458E+02  0.47000000000E+01 0.  1.
<mgrwt>
<rscale>  2 0.17491125E+03</rscale>
<asrwt>0</asrwt>
<pdfrwt beam="1">  1       21 0.10620470E+00 0.17507233E+03</pdfrwt>
<pdfrwt beam="2">  1       21 0.15360132E-01 0.17507233E+03</pdfrwt>
<totfact> 0.26984656E+04</totfact>
</mgrwt>
</event>
<event>
12    1  0.1410528E-001  0.1999309E+03  0.7546771E-02  0.1150606E+00
         21   -1    0    0  502  503  0.00000000000E+00  0.00000000000E+00  0.87898360556E+03  0.87898360556E+03  0.00000000000E+00 0. -1.
         21   -1    0    0  503  504 -0.00000000000E+00 -0.00000000000E+00 -0.51935003755E+02  0.51935003755E+02  0.00000000000E+00 0. -1.
         -6    2    1    2    0  504  0.97337948504E+02 -0.23400090057E+02  0.24221371089E+03  0.31406979163E+03  0.17306100613E+03 0.  0.
        -24    2    3    3    0    0 -0.68249902134E+01  0.26344952980E+02  0.91972090504E+02  0.12454638515E+03  0.79449981648E+02 0.  0.
          6    2    1    2  502    0 -0.97337948504E+02  0.23400090057E+02  0.58483489092E+03  0.61684881768E+03  0.16866645727E+03 0.  0.
         24    2    5    5    0    0 -0.58939847783E+02 -0.51047983069E+02  0.30910065458E+03  0.32863294577E+03  0.79853591991E+02 0.  0.
          2    1    6    6  501    0 -0.41740754297E+02 -0.66912285213E+02  0.28204314018E+03  0.29286153282E+03  0.00000000000E+00 0. -1.
         -1    1    6    6    0  501 -0.17199093486E+02  0.15864302145E+02  0.27057514396E+02  0.35771412952E+02  0.00000000000E+00 0.  1.
          5    1    5    5  502    0 -0.38398100721E+02  0.74448073126E+02  0.27573423634E+03  0.28821587191E+03  0.47000000000E+01 0. -1.
         11    1    4    4    0    0  0.34539929869E+02  0.33726822827E+01  0.52471204801E+02  0.62909530871E+02  0.00000000000E+00 0. -1.
        -12    1    4    4    0    0 -0.41364920082E+02  0.22972270697E+02  0.39500885704E+02  0.61636854282E+02  0.00000000000E+00 0.  1.
         -5    1    3    3    0  504  0.10416293872E+03 -0.49745043037E+02  0.15024162038E+03  0.18952340648E+03  0.47000000000E+01 0.  1.
<mgrwt>
<rscale>  2 0.19897615E+03</rscale>
<asrwt>0</asrwt>
<pdfrwt beam="1">  1       21 0.13522824E+00 0.19993087E+03</pdfrwt>
<pdfrwt beam="2">  1       21 0.79900012E-02 0.19993087E+03</pdfrwt>
<totfact> 0.46850931E+04</totfact>
</mgrwt>
</event>
<event>
12    1  0.1410528E-001  0.1867250E+03  0.7546771E-02  0.1161836E+00
         21   -1    0    0  502  503  0.00000000000E+00  0.00000000000E+00  0.48221427537E+02  0.48221427537E+02  0.00000000000E+00 0. -1.
         21   -1    0    0  503  504 -0.00000000000E+00 -0.00000000000E+00 -0.72240373695E+03  0.72240373695E+03  0.00000000000E+00 0.  1.
         -6    2    1    2    0  504 -0.62604062897E+02 -0.26116851639E+02 -0.37015081125E+03  0.41383198551E+03  0.17217412852E+03 0.  0.
        -24    2    3    3    0    0 -0.36904132699E+02  0.10719036826E+02 -0.76538194920E+02  0.11676662644E+03  0.79369622704E+02 0.  0.
          6    2    1    2  502    0  0.62604062897E+02  0.26116851639E+02 -0.30403149817E+03  0.35679317898E+03  0.17396799148E+03 0.  0.
         24    2    5    5    0    0  0.97815951773E+02  0.62952315431E+02 -0.23141475050E+03  0.26795619033E+03  0.68678808574E+02 0.  0.
          4    1    6    6  501    0  0.77442522820E+02  0.10041024741E+02 -0.14273291786E+03  0.16269865506E+03  0.00000000000E+00 0. -1.
         -3    1    6    6    0  501  0.20373428953E+02  0.52911290690E+02 -0.88681832639E+02  0.10525753526E+03  0.00000000000E+00 0.  1.
          5    1    5    5  502    0 -0.35211888876E+02 -0.36835463792E+02 -0.72616747672E+02  0.88836988656E+02  0.47000000000E+01 0. -1.
         13    1    4    4    0    0  0.11952524132E+02 -0.23804591723E+02 -0.13507329150E+02  0.29865856107E+02  0.00000000000E+00 0. -1.
        -14    1    4    4    0    0 -0.48856656831E+02  0.34523628549E+02 -0.63030865770E+02  0.86900770334E+02  0.00000000000E+00 0.  1.
         -5    1    3    3    0  504 -0.25699930198E+02 -0.36835888465E+02 -0.29361261633E+03  0.29706535907E+03  0.47000000000E+01 0.  1.
<mgrwt>
<rscale>  2 0.18630604E+03</rscale>
<asrwt>0</asrwt>
<pdfrwt beam="1">  1       21 0.74186809E-02 0.18672499E+03</pdfrwt>
<pdfrwt beam="2">  1       21 0.11113904E+00 0.18672499E+03</pdfrwt>
<totfact> 0.87370920E+04</totfact>
</mgrwt>
</event>
<event>
12    1  0.1410528E-001  0.1838300E+03  0.7546771E-02  0.1164157E+00
         21   -1    0    0  502  503  0.00000000000E+00  0.00000000000E+00  0.64013970870E+03  0.64013970870E+03  0.00000000000E+00 0. -1.
         21   -1    0    0  503  504 -0.00000000000E+00 -0.00000000000E+00 -0.53029766554E+02  0.53029766554E+02  0.00000000000E+00 0. -1.
         -6    2    1    2    0  504 -0.56539345883E+02  0.24374916631E+02  0.31745934266E+03  0.36684317446E+03  0.17321271953E+03 0.  0.
        -24    2    3    3    0    0 -0.99466937049E+02  0.39592393151E+02  0.26299478857E+03  0.29568962691E+03  0.82491620725E+02 0.  0.
          6    2    1    2  502    0  0.56539345883E+02 -0.24374916631E+02  0.26965059949E+03  0.32632630080E+03  0.17316632062E+03 0.  0.
         24    2    5    5    0    0 -0.26717514708E+02  0.11954137224E+02  0.17742858044E+03  0.19679446770E+03  0.79940192464E+02 0.  0.
          4    1    6    6  501    0 -0.55251600894E+01 -0.26176079852E+02  0.12844557197E+03  0.13120205604E+03  0.00000000000E+00 0. -1.
         -3    1    6    6    0  501 -0.21192354619E+02  0.38130217076E+02  0.48983008473E+02  0.65592411662E+02  0.00000000000E+00 0.  1.
          5    1    5    5  502    0  0.83256860591E+02 -0.36329053854E+02  0.92222019043E+02  0.12953183310E+03  0.47000000000E+01 0. -1.
         11    1    4    4    0    0 -0.41099013745E+02  0.32423633919E+02  0.21033419648E+03  0.21675076741E+03  0.00000000000E+00 0. -1.
        -12    1    4    4    0    0 -0.58367923305E+02  0.71687592323E+01  0.52660592090E+02  0.78938859500E+02  0.00000000000E+00 0.  1.
         -5    1    3    3    0  504  0.42927591167E+02 -0.15217476521E+02  0.54464554098E+02  0.71153547544E+02  0.47000000000E+01 0.  1.
<mgrwt>
<rscale>  2 0.18381910E+03</rscale>
<asrwt>0</asrwt>
<pdfrwt beam="1">  1       21 0.98483026E-01 0.18383003E+03</pdfrwt>
<pdfrwt beam="2">  1       21 0.81584261E-02 0.18383003E+03</pdfrwt>
<totfact> 0.99070057E+04</totfact>
</mgrwt>
</event>
<event>
12    1  0.1410528E-001  0.1816728E+03  0.7546771E-02  0.1167074E+00
         21   -1    0    0  502  503  0.00000000000E+00  0.00000000000E+00  0.82359206541E+02  0.82359206541E+02  0.00000000000E+00 0. -1.
         21   -1    0    0  503  504 -0.00000000000E+00 -0.00000000000E+00 -0.40660013702E+03  0.40660013702E+03  0.00000000000E+00 0.  1.
         -6    2    1    2    0  504 -0.38189310117E+02 -0.17455094898E+02 -0.20882171672E+03  0.27678784344E+03  0.17675377550E+03 0.  0.
        -24    2    3    3    0    0  0.66915980331E+01 -0.76122067711E+02 -0.87381528100E+02  0.13456998581E+03  0.68074980358E+02 0.  0.
          6    2    1    2  502    0  0.38189310117E+02  0.17455094898E+02 -0.11541921375E+03  0.21217150012E+03  0.17300880560E+03 0.  0.
         24    2    5    5    0    0  0.14404924479E+02  0.17504712395E+02 -0.14929127640E+03  0.17051689545E+03  0.79209908605E+02 0.  0.
          2    1    6    6  501    0  0.19108921335E+02 -0.81547711199E+01 -0.14188606757E+03  0.14339911902E+03  0.00000000000E+00 0. -1.
         -1    1    6    6    0  501 -0.47039968556E+01  0.25659483515E+02 -0.74052088292E+01  0.27117776430E+02  0.00000000000E+00 0.  1.
          5    1    5    5  502    0  0.23784385638E+02 -0.49617497751E-01  0.33872062646E+02  0.41654604667E+02  0.47000000000E+01 0. -1.
         13    1    4    4    0    0  0.20071759258E+02  0.23328710930E+01 -0.68237799035E+01  0.21327957694E+02  0.00000000000E+00 0. -1.
        -14    1    4    4    0    0 -0.13380161224E+02 -0.78454938804E+02 -0.80557748196E+02  0.11324202811E+03  0.00000000000E+00 0.  1.
         -5    1    3    3    0  504 -0.44880908150E+02  0.58666972813E+02 -0.12144018862E+03  0.14221785763E+03  0.47000000000E+01 0.  1.
<mgrwt>
<rscale>  2 0.18075549E+03</rscale>
<asrwt>0</asrwt>
<pdfrwt beam="1">  1       21 0.12670647E-01 0.18167279E+03</pdfrwt>
<pdfrwt beam="2">  1       21 0.62553866E-01 0.18167279E+03</pdfrwt>
<totfact> 0.12657376E+05</totfact>
</mgrwt>
</event>
<event>
12    1  0.1410528E-001  0.2651582E+03  0.7546771E-02  0.1104304E+00
         21   -1    0    0  502  503  0.00000000000E+00  0.00000000000E+00  0.18104008544E+03  0.18104008544E+03  0.00000000000E+00 0.  1.
         21   -1    0    0  503  504 -0.00000000000E+00 -0.00000000000E+00 -0.51984519363E+03  0.51984519363E+03  0.00000000000E+00 0.  1.
         -6    2    1    2    0  504 -0.15336486610E+03 -0.12615229420E+03  0.79530965193E+01  0.26527740315E+03  0.17570903617E+03 0.  0.
        -24    2    3    3    0    0 -0.37696130501E+01 -0.56319361573E+02  0.15419740174E+02  0.99949792082E+02  0.81031549903E+02 0.  0.
          6    2    1    2  502    0  0.15336486610E+03  0.12615229420E+03 -0.34675820471E+03  0.43560787592E+03  0.17342948292E+03 0.  0.
         24    2    5    5    0    0  0.14590040853E+02  0.50978151833E+02 -0.18927561170E+03  0.21260011619E+03  0.81005623018E+02 0.  0.
          2    1    6    6  501    0 -0.57397562477E+01  0.38812981908E+02 -0.24775654415E+02  0.46402860020E+02  0.00000000000E+00 0. -1.
         -1    1    6    6    0  501  0.20329797101E+02  0.12165169925E+02 -0.16449995729E+03  0.16619725617E+03  0.00000000000E+00 0.  1.
          5    1    5    5  502    0  0.13877482525E+03  0.75174142367E+02 -0.15748259301E+03  0.22300775974E+03  0.47000000000E+01 0. -1.
         13    1    4    4    0    0 -0.62097901213E+01 -0.10467068145E+02 -0.31821934950E+02  0.34069877500E+02  0.00000000000E+00 0. -1.
        -14    1    4    4    0    0  0.24401770712E+01 -0.45852293427E+02  0.47241675124E+02  0.65879914581E+02  0.00000000000E+00 0.  1.
         -5    1    3    3    0  504 -0.14959525305E+03 -0.69832932628E+02 -0.74666436549E+01  0.16532761107E+03  0.47000000000E+01 0.  1.
<mgrwt>
<rscale>  2 0.26478110E+03</rscale>
<asrwt>0</asrwt>
<pdfrwt beam="1">  1       21 0.27852321E-01 0.26515816E+03</pdfrwt>
<pdfrwt beam="2">  1       21 0.79976183E-01 0.26515816E+03</pdfrwt>
<totfact> 0.16270188E+04</totfact>
</mgrwt>
</event>
<event>
12    1  0.1410528E-001  0.1839496E+03  0.7546771E-02  0.1164188E+00
         21   -1    0    0  502  503  0.00000000000E+00  0.00000000000E+00  0.17217738583E+03  0.17217738583E+03  0.00000000000E+00 0. -1.
         21   -1    0    0  503  504 -0.00000000000E+00 -0.00000000000E+00 -0.23591620016E+03  0.23591620016E+03  0.00000000000E+00 0. -1.
         -6    2    1    2    0  504  0.11518052762E+02  0.60174336596E+02 -0.11602728012E+03  0.21748514284E+03  0.17344694088E+03 0.  0.
        -24    2    3    3    0    0 -0.12255386514E+02 -0.96780968559E+01 -0.11832671377E+03  0.14351274076E+03  0.79692129553E+02 0.  0.
          6    2    1    2  502    0 -0.11518052762E+02 -0.60174336596E+02  0.52288465785E+02  0.19060844315E+03  0.17275380929E+03 0.  0.
         24    2    5    5    0    0 -0.36043307789E+02 -0.19810059077E+02 -0.29993974245E+02  0.95617638488E+02  0.80941558065E+02 0.  0.
          4    1    6    6  501    0 -0.16264766088E+02 -0.50691488382E+02 -0.11169145376E+02  0.54395950389E+02  0.00000000000E+00 0. -1.
         -3    1    6    6    0  501 -0.19778541701E+02  0.30881429305E+02 -0.18824828869E+02  0.41221688099E+02  0.00000000000E+00 0.  1.
          5    1    5    5  502    0  0.24525255027E+02 -0.40364277519E+02  0.82282440030E+02  0.94990804665E+02  0.47000000000E+01 0. -1.
         11    1    4    4    0    0  0.11596029885E+02  0.31258600147E+02 -0.56743953268E+02  0.65813708487E+02  0.00000000000E+00 0. -1.
        -12    1    4    4    0    0 -0.23851416399E+02 -0.40936697003E+02 -0.61582760499E+02  0.77699032275E+02  0.00000000000E+00 0.  1.
         -5    1    3    3    0  504  0.23773439276E+02  0.69852433452E+02  0.22994336496E+01  0.73972402078E+02  0.47000000000E+01 0.  1.
<mgrwt>
<rscale>  2 0.18378604E+03</rscale>
<asrwt>0</asrwt>
<pdfrwt beam="1">  1       21 0.26488829E-01 0.18394961E+03</pdfrwt>
<pdfrwt beam="2">  1       21 0.36294800E-01 0.18394961E+03</pdfrwt>
<totfact> 0.99582654E+04</totfact>
</mgrwt>
</event>
<event>
12    1  0.1410528E-001  0.1964496E+03  0.7546771E-02  0.1153097E+00
         21   -1    0    0  502  503  0.00000000000E+00  0.00000000000E+00  0.51942920433E+03  0.51942920433E+03  0.00000000000E+00 0.  1.
         21   -1    0    0  503  504 -0.00000000000E+00 -0.00000000000E+00 -0.11292189466E+03  0.11292189466E+03  0.00000000000E+00 0.  1.
         -6    2    1    2    0  504 -0.83763257707E+02  0.31098416928E+02  0.16468562654E+02  0.19563303719E+03  0.17325610179E+03 0.  0.
        -24    2    3    3    0    0 -0.27343038265E+02  0.59636221743E+02 -0.40543371914E+02  0.11036816665E+03  0.78950912074E+02 0.  0.
          6    2    1    2  502    0  0.83763257707E+02 -0.31098416928E+02  0.39003874702E+03  0.43671806180E+03  0.17495441248E+03 0.  0.
         24    2    5    5    0    0  0.54357302504E+02 -0.61187130402E+02  0.37445652296E+03  0.39160779039E+03  0.80252056948E+02 0.  0.
          2    1    6    6  501    0  0.28503740787E+02 -0.78492644610E+02  0.27468232701E+03  0.28709569706E+03  0.00000000000E+00 0. -1.
         -1    1    6    6    0  501  0.25853561717E+02  0.17305514208E+02  0.99774195944E+02  0.10451209333E+03  0.00000000000E+00 0.  1.
          5    1    5    5  502    0  0.29405955203E+02  0.30088713474E+02  0.15582224064E+02  0.45110271410E+02  0.47000000000E+01 0. -1.
         13    1    4    4    0    0 -0.16700433693E+02  0.31947255720E+02  0.21234012956E+02  0.41837960511E+02  0.00000000000E+00 0. -1.
        -14    1    4    4    0    0 -0.10642604572E+02  0.27688966024E+02 -0.61777384870E+02  0.68530206135E+02  0.00000000000E+00 0.  1.
         -5    1    3    3    0  504 -0.56420219442E+02 -0.28537804815E+02  0.57011934569E+02  0.85264870544E+02  0.47000000000E+01 0.  1.
<mgrwt>
<rscale>  2 0.19607076E+03</rscale>
<asrwt>0</asrwt>
<pdfrwt beam="1">  1       21 0.79912184E-01 0.19644959E+03</pdfrwt>
<pdfrwt beam="2">  1       21 0.17372600E-01 0.19644959E+03</pdfrwt>
<totfact> 0.41249035E+04</totfact>
</mgrwt>
</event>
<event>
12    1  0.1410528E-001  0.3253428E+03  0.7546771E-02  0.1073437E+00
         21   -1    0    0  502  503  0.00000000000E+00  0.00000000000E+00  0.50231846535E+03  0.50231846535E+03  0.00000000000E+00 0.  1.
         21   -1    0    0  503  504 -0.00000000000E+00 -0.00000000000E+00 -0.30473528308E+03  0.30473528308E+03  0.00000000000E+00 0. -1.
         -6    2    1    2    0  504 -0.17199679365E+03 -0.21238988477E+03 -0.12704552770E+03  0.34745422958E+03  0.17289162896E+03 0.  0.
        -24    2    3    3    0    0 -0.91208861314E+02 -0.20144828909E+03 -0.62870943864E+02  0.24359434446E+03  0.80529370488E+02 0.  0.
          6    2    1    2  502    0  0.17199679365E+03  0.21238988477E+03  0.32462870998E+03  0.45959951885E+03  0.17650937145E+03 0.  0.
         24    2    5    5    0    0  0.17861010690E+03  0.22475339749E+03  0.32722650660E+03  0.44458516218E+03  0.90349985272E+02 0.  0.
          2    1    6    6  501    0  0.12580583685E+03  0.87262033686E+02  0.15306057225E+03  0.21649320979E+03  0.00000000000E+00 0. -1.
         -1    1    6    6    0  501  0.52804270053E+02  0.13749136381E+03  0.17416593435E+03  0.22809195239E+03  0.00000000000E+00 0.  1.
          5    1    5    5  502    0 -0.66133132563E+01 -0.12363512718E+02 -0.25977966224E+01  0.15014356671E+02  0.47000000000E+01 0. -1.
         11    1    4    4    0    0 -0.14673616486E+02 -0.40031450372E+02 -0.48199340938E+02  0.64350668268E+02  0.00000000000E+00 0. -1.
        -12    1    4    4    0    0 -0.76535244828E+02 -0.16141683871E+03 -0.14671602925E+02  0.17924367619E+03  0.00000000000E+00 0.  1.
         -5    1    3    3    0  504 -0.80787932333E+02 -0.10941595686E+02 -0.64174583838E+02  0.10385988512E+03  0.47000000000E+01 0.  1.
<mgrwt>
<rscale>  2 0.32485456E+03</rscale>
<asrwt>0</asrwt>
<pdfrwt beam="1">  1       21 0.77279764E-01 0.32534277E+03</pdfrwt>
<pdfrwt beam="2">  1       21 0.46882351E-01 0.32534277E+03</pdfrwt>
<totfact> 0.59892603E+03</totfact>
</mgrwt>
</event>
<event>
12    1  0.1410528E-001  0.2711170E+03  0.7546771E-02  0.1100814E+00
         21   -1    0    0  502  503  0.00000000000E+00  0.00000000000E+00  0.30829833637E+03  0.30829833637E+03  0.00000000000E+00 0.  1.
         21   -1    0    0  503  504 -0.00000000000E+00 -0.00000000000E+00 -0.33968220104E+03  0.33968220104E+03  0.00000000000E+00 0. -1.
         -6    2    1    2    0  504  0.83307044672E+02 -0.19122577787E+03 -0.19348651093E+03  0.33209814836E+03  0.17130320609E+03 0.  0.
        -24    2    3    3    0    0  0.11860283278E+03 -0.15616458318E+03 -0.13022284936E+03  0.25147891426E+03  0.88485280341E+02 0.  0.
          6    2    1    2  502    0 -0.83307044672E+02  0.19122577787E+03  0.16210264626E+03  0.31588238904E+03  0.17319657608E+03 0.  0.
         24    2    5    5    0    0  0.74131539271E+01  0.76783228326E+02  0.19471784542E+02  0.11169398512E+03  0.78395005682E+02 0.  0.
          4    1    6    6  501    0 -0.30457990181E+02  0.15931720197E+02 -0.73782784335E+01  0.35156050218E+02  0.00000000000E+00 0. -1.
         -3    1    6    6    0  501  0.37871144108E+02  0.60851508130E+02  0.26850062975E+02  0.76537934905E+02  0.00000000000E+00 0.  1.
          5    1    5    5  502    0 -0.90720198599E+02  0.11444254955E+03  0.14263086172E+03  0.20418840392E+03  0.47000000000E+01 0. -1.
         13    1    4    4    0    0  0.40435479630E+02 -0.10452503270E+02 -0.56935283171E+02  0.70610971579E+02  0.00000000000E+00 0. -1.
        -14    1    4    4    0    0  0.78167353150E+02 -0.14571207991E+03 -0.73287566185E+02  0.18086794268E+03  0.00000000000E+00 0.  1.
         -5    1    3    3    0  504 -0.35295788107E+02 -0.35061194688E+02 -0.63263661576E+02  0.80619234101E+02  0.47000000000E+01 0.  1.
<mgrwt>
<rscale>  2 0.27081507E+03</rscale>
<asrwt>0</asrwt>
<pdfrwt beam="1">  1       21 0.47430513E-01 0.27111698E+03</pdfrwt>
<pdfrwt beam="2">  1       21 0.52258800E-01 0.27111698E+03</pdfrwt>
<totfact> 0.14137330E+04</totfact>
</mgrwt>
</event>
<event>
12    1  0.1410528E-001  0.2128124E+03  0.7546771E-02  0.1139438E+00
         21   -1    0    0  502  503  0.00000000000E+00  0.00000000000E+00  0.12565647865E+03  0.12565647865E+03  0.00000000000E+00 0.  1.
         21   -1    0    0  503  504 -0.00000000000E+00 -0.00000000000E+00 -0.58675971797E+03  0.58675971797E+03  0.00000000000E+00 0.  1.
         -6    2    1    2    0  504  0.12344367694E+02  0.12292390966E+03 -0.91129844367E+01  0.21300745275E+03  0.17328144004E+03 0.  0.
        -24    2    3    3    0    0 -0.20915674456E+02  0.76000539862E+02 -0.65672371381E+02  0.13220468492E+03  0.83376680522E+02 0.  0.
          6    2    1    2  502    0 -0.12344367694E+02 -0.12292390966E+03 -0.45199025488E+03  0.49940874387E+03  0.17277509071E+03 0.  0.
         24    2    5    5    0    0 -0.47394257193E+02 -0.79464781580E+02 -0.41713697344E+03  0.43342365620E+03  0.72745749156E+02 0.  0.
          2    1    6    6  501    0 -0.44410567993E+02 -0.14843831420E+02 -0.11006442310E+03  0.11961109946E+03  0.00000000000E+00 0. -1.
         -1    1    6    6    0  501 -0.29836892004E+01 -0.64620950160E+02 -0.30707255033E+03  0.31381255674E+03  0.00000000000E+00 0.  1.
          5    1    5    5  502    0  0.35049889500E+02 -0.43459128082E+02 -0.34853281441E+02  0.65985087670E+02  0.47000000000E+01 0. -1.
         13    1    4    4    0    0  0.16890403789E+02  0.17942821593E+02 -0.57355788007E+02  0.62425291387E+02  0.00000000000E+00 0. -1.
        -14    1    4    4    0    0 -0.37806078244E+02  0.58057718269E+02 -0.83165833744E+01  0.69779393533E+02  0.00000000000E+00 0.  1.
         -5    1    3    3    0  504  0.33260042149E+02  0.46923369800E+02  0.56559386945E+02  0.80802767829E+02  0.47000000000E+01 0.  1.
<mgrwt>
<rscale>  2 0.21270933E+03</rscale>
<asrwt>0</asrwt>
<pdfrwt beam="1">  1       21 0.19331766E-01 0.21281243E+03</pdfrwt>
<pdfrwt beam="2">  1       21 0.90270727E-01 0.21281243E+03</pdfrwt>
<totfact> 0.25361630E+04</totfact>
</mgrwt>
</event>
<event>
12    1  0.1410528E-001  0.2550462E+03  0.7546771E-02  0.1110250E+00
         21   -1    0    0  502  503  0.00000000000E+00  0.00000000000E+00  0.95905298041E+03  0.95905298041E+03  0.00000000000E+00 0. -1.
         21   -1    0    0  503  504 -0.00000000000E+00 -0.00000000000E+00 -0.68786091094E+02  0.68786091094E+02  0.00000000000E+00 0. -1.
         -6    2    1    2    0  504  0.14231230674E+03 -0.12061875044E+03  0.51023157549E+03  0.57015426585E+03  0.17302586694E+03 0.  0.
        -24    2    3    3    0    0  0.81808115469E+02 -0.47903844063E+02  0.42959862819E+03  0.44576786401E+03  0.71879490904E+02 0.  0.
          6    2    1    2  502    0 -0.14231230674E+03  0.12061875044E+03  0.38003531382E+03  0.45768480565E+03  0.17391626136E+03 0.  0.
         24    2    5    5    0    0 -0.47698221144E+02  0.93097125806E+02  0.11791264471E+03  0.17761401339E+03  0.81860557273E+02 0.  0.
          2    1    6    6  501    0 -0.69534101500E+02  0.72878495180E+02  0.75871155096E+02  0.12610590195E+03  0.00000000000E+00 0. -1.
         -1    1    6    6    0  501  0.21835880355E+02  0.20218630626E+02  0.42041489616E+02  0.51508111443E+02  0.00000000000E+00 0.  1.
          5    1    5    5  502    0 -0.94614085596E+02  0.27521624638E+02  0.26212266911E+03  0.28007079226E+03  0.47000000000E+01 0. -1.
         13    1    4    4    0    0  0.50908168298E+02 -0.39525436248E+02  0.13677854695E+03  0.15120275333E+03  0.00000000000E+00 0. -1.
        -14    1    4    4    0    0  0.30899947171E+02 -0.83784078144E+01  0.29282008124E+03  0.29456511068E+03  0.00000000000E+00 0.  1.
         -5    1    3    3    0  504  0.60504191271E+02 -0.72714906381E+02  0.80632947309E+02  0.12438640184E+03  0.47000000000E+01 0.  1.
<mgrwt>
<rscale>  2 0.25489444E+03</rscale>
<asrwt>0</asrwt>
<pdfrwt beam="1">  1       21 0.14754660E+00 0.25504616E+03</pdfrwt>
<pdfrwt beam="2">  1       21 0.10582476E-01 0.25504616E+03</pdfrwt>
<totfact> 0.22082671E+04</totfact>
</mgrwt>
</event>
<event>
12    1  0.1410528E-001  0.1999972E+03  0.7546771E-02  0.1149846E+00
         21   -1    0    0  502  503  0.00000000000E+00  0.00000000000E+00  0.25465328307E+03  0.25465328307E+03  0.00000000000E+00 0. -1.
         21   -1    0    0  503  504 -0.00000000000E+00 -0.00000000000E+00 -0.19015793464E+03  0.19015793464E+03  0.00000000000E+00 0. -1.
         -6    2    1    2    0  504 -0.71496536714E+02  0.68158502178E+02 -0.61101284131E+02  0.20864729028E+03  0.17332913384E+03 0.  0.
        -24    2    3    3    0    0 -0.15383524668E+02  0.42459011898E+02  0.33384808086E+02  0.95692230441E+02  0.77479268410E+02 0.  0.
          6    2    1    2  502    0  0.71496536714E+02 -0.68158502178E+02  0.12559663256E+03  0.23616392742E+03  0.17390097850E+03 0.  0.
         24    2    5    5    0    0  0.78784333262E+02 -0.67326132026E+02  0.24465329172E+02  0.13465808846E+03  0.82428570497E+02 0.  0.
          2    1    6    6  501    0  0.76409963274E+02 -0.22269283293E+02  0.37088205834E+02  0.87806255346E+02  0.00000000000E+00 0. -1.
         -1    1    6    6    0  501  0.23743699880E+01 -0.45056848733E+02 -0.12622876663E+02  0.46851833110E+02  0.00000000000E+00 0.  1.
          5    1    5    5  502    0 -0.72877965482E+01 -0.83237015228E+00  0.10113130339E+03  0.10150583897E+03  0.47000000000E+01 0. -1.
         11    1    4    4    0    0 -0.84261002947E+01  0.34462731959E+02 -0.20364960925E+02  0.40907342785E+02  0.00000000000E+00 0. -1.
        -12    1    4    4    0    0 -0.69574243731E+01  0.79962799386E+01  0.53749769011E+02  0.54784887656E+02  0.00000000000E+00 0.  1.
         -5    1    3    3    0  504 -0.56113012046E+02  0.25699490280E+02 -0.94486092217E+02  0.11295505984E+03  0.47000000000E+01 0.  1.
<mgrwt>
<rscale>  2 0.19987284E+03</rscale>
<asrwt>0</asrwt>
<pdfrwt beam="1">  1       21 0.39177428E-01 0.19999722E+03</pdfrwt>
<pdfrwt beam="2">  1       21 0.29255067E-01 0.19999722E+03</pdfrwt>
<totfact> 0.70062869E+04</totfact>
</mgrwt>
</event>
<event>
12    1  0.1410528E-001  0.1879323E+03  0.7546771E-02  0.1160433E+00
         21   -1    0    0  502  503  0.00000000000E+00  0.00000000000E+00  0.67193976898E+03  0.67193976898E+03  0.00000000000E+00 0. -1.
         21   -1    0    0  503  504 -0.00000000000E+00 -0.00000000000E+00 -0.57678976508E+02  0.57678976508E+02  0.00000000000E+00 0.  1.
         -6    2    1    2    0  504 -0.35072260126E+02 -0.63180678507E+02  0.41669358947E+03  0.45694428308E+03  0.17303950061E+03 0.  0.
        -24    2    3    3    0    0 -0.27151008467E+01 -0.67608406717E+02  0.12720777382E+03  0.16558416571E+03  0.81596751051E+02 0.  0.
          6    2    1    2  502    0  0.35072260126E+02  0.63180678507E+02  0.19756720301E+03  0.27267446241E+03  0.17348400842E+03 0.  0.
         24    2    5    5    0    0  0.42425069965E+02 -0.16985839358E+02  0.14353987524E+03  0.17560862627E+03  0.90256792196E+02 0.  0.
          4    1    6    6  501    0  0.53200512074E+02 -0.10217770445E+02  0.31128697541E+02  0.62479541679E+02  0.00000000000E+00 0. -1.
         -3    1    6    6    0  501 -0.10775442109E+02 -0.67680689129E+01  0.11241117770E+03  0.11312908459E+03  0.00000000000E+00 0.  1.
          5    1    5    5  502    0 -0.73528098397E+01  0.80166517865E+02  0.54027327768E+02  0.97065836137E+02  0.47000000000E+01 0. -1.
         11    1    4    4    0    0  0.31035209550E+02 -0.58607996187E+02  0.10500882486E+03  0.12419716079E+03  0.00000000000E+00 0. -1.
        -12    1    4    4    0    0 -0.33750310397E+02 -0.90004105303E+01  0.22198948959E+02  0.41387004922E+02  0.00000000000E+00 0.  1.
         -5    1    3    3    0  504 -0.32357159279E+02  0.44277282095E+01  0.28948581565E+03  0.29136011738E+03  0.47000000000E+01 0.  1.
<mgrwt>
<rscale>  2 0.18782969E+03</rscale>
<asrwt>0</asrwt>
<pdfrwt beam="1">  1       21 0.10337534E+00 0.18793234E+03</pdfrwt>
<pdfrwt beam="2">  1       21 0.88736892E-02 0.18793234E+03</pdfrwt>
<totfact> 0.76106605E+04</totfact>
</mgrwt>
</event>
<event>
12    1  0.1410528E-001  0.1952451E+03  0.7546771E-02  0.1155039E+00
         21   -1    0    0  502  503  0.00000000000E+00  0.00000000000E+00  0.15608410021E+03  0.15608410021E+03  0.00000000000E+00 0. -1.
         21   -1    0    0  503  504 -0.00000000000E+00 -0.00000000000E+00 -0.26171269741E+03  0.26171269741E+03  0.00000000000E+00 0. -1.
         -6    2    1    2    0  504 -0.51667251251E+02  0.58309264786E+02 -0.11585974494E+03  0.22228380959E+03  0.17296570845E+03 0.  0.
        -24    2    3    3    0    0 -0.24620426508E+02 -0.80697565942E+01  0.10507773043E+01  0.85069140483E+02  0.81020788422E+02 0.  0.
          6    2    1    2  502    0  0.51667251251E+02 -0.58309264786E+02  0.10231147741E+02  0.19551298803E+03  0.17902842482E+03 0.  0.
         24    2    5    5    0    0 -0.11616704408E+02  0.18232602662E+02 -0.42982220033E+02  0.82742118448E+02  0.67315758223E+02 0.  0.
          2    1    6    6  501    0 -0.35379050486E+02  0.27887499706E+02 -0.26941357040E+02  0.52490252164E+02  0.00000000000E+00 0. -1.
         -1    1    6    6    0  501  0.23762346078E+02 -0.96548970447E+01 -0.16040862993E+02  0.30251866284E+02  0.00000000000E+00 0.  1.
          5    1    5    5  502    0  0.63283955659E+02 -0.76541867448E+02  0.53213367774E+02  0.11277086958E+03  0.47000000000E+01 0. -1.
         11    1    4    4    0    0 -0.27617762136E+02 -0.34687156867E+02 -0.22212500825E+02  0.49591681054E+02  0.00000000000E+00 0. -1.
        -12    1    4    4    0    0  0.29973356285E+01  0.26617400272E+02  0.23263278130E+02  0.35477459428E+02  0.00000000000E+00 0.  1.
         -5    1    3    3    0  504 -0.27046824743E+02  0.66379021380E+02 -0.11691052224E+03  0.13721466911E+03  0.47000000000E+01 0.  1.
<mgrwt>
<rscale>  2 0.19384417E+03</rscale>
<asrwt>0</asrwt>
<pdfrwt beam="1">  1       21 0.24012939E-01 0.19524511E+03</pdfrwt>
<pdfrwt beam="2">  1       21 0.40263492E-01 0.19524511E+03</pdfrwt>
<totfact> 0.97117851E+04</totfact>
</mgrwt>
</event>
<event>
12    1  0.1410528E-001  0.1925518E+03  0.7546771E-02  0.1156472E+00
         21   -1    0    0  502  503  0.00000000000E+00  0.00000000000E+00  0.15401989573E+03  0.15401989573E+03  0.00000000000E+00 0.  1.
         21   -1    0    0  503  504 -0.00000000000E+00 -0.00000000000E+00 -0.45639721652E+03  0.45639721652E+03  0.00000000000E+00 0. -1.
         -6    2    1    2    0  504 -0.80876149155E+02  0.23862590740E+02 -0.36152245015E+03  0.40898640029E+03  0.17164212456E+03 0.  0.
        -24    2    3    3    0    0  0.22196751397E+02 -0.27306840081E+01 -0.18569553860E+03  0.20339355530E+03  0.79912157220E+02 0.  0.
          6    2    1    2  502    0  0.80876149155E+02 -0.23862590740E+02  0.59145129365E+02  0.20143071195E+03  0.17310635647E+03 0.  0.
         24    2    5    5    0    0  0.10889424749E+02 -0.54758154884E+02  0.73272297742E+02  0.12349263164E+03  0.82246977783E+02 0.  0.
          2    1    6    6  501    0 -0.21143700550E+02  0.12335505291E+02  0.12607758457E+02  0.27535002035E+02  0.00000000000E+00 0. -1.
         -1    1    6    6    0  501  0.32033125300E+02 -0.67093660175E+02  0.60664539285E+02  0.95957629602E+02  0.00000000000E+00 0.  1.
          5    1    5    5  502    0  0.69986724406E+02  0.30895564144E+02 -0.14127168377E+02  0.77938080315E+02  0.47000000000E+01 0. -1.
         13    1    4    4    0    0 -0.30046525284E+02  0.34525060392E+01 -0.73353372150E+02  0.79343750135E+02  0.00000000000E+00 0. -1.
        -14    1    4    4    0    0  0.52243276681E+02 -0.61831900472E+01 -0.11234216645E+03  0.12404980516E+03  0.00000000000E+00 0.  1.
         -5    1    3    3    0  504 -0.10307290055E+03  0.26593274748E+02 -0.17582691155E+03  0.20559284500E+03  0.47000000000E+01 0.  1.
<mgrwt>
<rscale>  2 0.19222211E+03</rscale>
<asrwt>0</asrwt>
<pdfrwt beam="1">  1       21 0.23695369E-01 0.19255177E+03</pdfrwt>
<pdfrwt beam="2">  1       21 0.70214956E-01 0.19255177E+03</pdfrwt>
<totfact> 0.30874777E+04</totfact>
</mgrwt>
</event>
<event>
12    1  0.1410528E-001  0.2312090E+03  0.7546771E-02  0.1126800E+00
         21   -1    0    0  502  503  0.00000000000E+00  0.00000000000E+00  0.35327230686E+02  0.35327230686E+02  0.00000000000E+00 0.  1.
         21   -1    0    0  503  504 -0.00000000000E+00 -0.00000000000E+00 -0.14810195082E+04  0.14810195082E+04  0.00000000000E+00 0.  1.
         -6    2    1    2    0  504  0.65299612774E+02 -0.12998084803E+03 -0.68849771945E+03  0.72628280586E+03  0.17971795715E+03 0.  0.
        -24    2    3    3    0    0  0.40299145930E+02  0.38866719291E+01 -0.33057462135E+03  0.34329903285E+03  0.83279759180E+02 0.  0.
          6    2    1    2  502    0 -0.65299612774E+02  0.12998084803E+03 -0.75719455811E+03  0.79006393307E+03  0.17233211895E+03 0.  0.
         24    2    5    5    0    0 -0.79285085836E+02  0.75941137754E+02 -0.68728985062E+03  0.70048356763E+03  0.79099358473E+02 0.  0.
          4    1    6    6  501    0 -0.37055519750E+01 -0.14093109367E+02 -0.13732601721E+03  0.13809700159E+03  0.00000000000E+00 0. -1.
         -3    1    6    6    0  501 -0.75579533861E+02  0.90034247121E+02 -0.54996383342E+03  0.56238656604E+03  0.00000000000E+00 0.  1.
          5    1    5    5  502    0  0.13985473062E+02  0.54039710276E+02 -0.69904707492E+02  0.89580365443E+02  0.47000000000E+01 0. -1.
         13    1    4    4    0    0 -0.19404009662E+02  0.49983498002E+01 -0.18311037709E+03  0.18420344538E+03  0.00000000000E+00 0. -1.
        -14    1    4    4    0    0  0.59703155591E+02 -0.11116778711E+01 -0.14746424426E+03  0.15909558747E+03  0.00000000000E+00 0.  1.
         -5    1    3    3    0  504  0.25000466844E+02 -0.13386751996E+03 -0.35792309809E+03  0.38298377301E+03  0.47000000000E+01 0.  1.
<mgrwt>
<rscale>  2 0.22977239E+03</rscale>
<asrwt>0</asrwt>
<pdfrwt beam="1">  1       21 0.54349585E-02 0.23120901E+03</pdfrwt>
<pdfrwt beam="2">  1       21 0.22784916E+00 0.23120901E+03</pdfrwt>
<totfact> 0.20420415E+04</totfact>
</mgrwt>
</event>
<event>
12    1  0.1410528E-001  0.1977910E+03  0.7546771E-02  0.1151889E+00
         21   -1    0    0  502  503  0.00000000000E+00  0.00000000000E+00  0.54470279262E+02  0.54470279262E+02  0.00000000000E+00 0. -1.
         21   -1    0    0  503  504 -0.00000000000E+00 -0.00000000000E+00 -0.71455613288E+03  0.71455613288E+03  0.00000000000E+00 0. -1.
         -6    2    1    2    0  504  0.88244122185E+02 -0.32705825202E+02 -0.31501568139E+03  0.37128943397E+03  0.17252323946E+03 0.  0.
        -24    2    3    3    0    0  0.14323389397E+02  0.35243636230E+02 -0.19979999672E+03  0.21839029061E+03  0.79542485299E+02 0.  0.
          6    2    1    2  502    0 -0.88244122185E+02  0.32705825202E+02 -0.34507017223E+03  0.39773697817E+03  0.17396719214E+03 0.  0.
         24    2    5    5    0    0 -0.70267448335E+02 -0.52786369910E+01 -0.33874746097E+03  0.35498131365E+03  0.79350566636E+02 0.  0.
          4    1    6    6  501    0 -0.34114186174E+02 -0.38569196884E+02 -0.11661488347E+03  0.12747702418E+03  0.00000000000E+00 0. -1.
         -3    1    6    6    0  501 -0.36153262162E+02  0.33290559893E+02 -0.22213257749E+03  0.22750428947E+03  0.00000000000E+00 0.  1.
          5    1    5    5  502    0 -0.17976673850E+02  0.37984462193E+02 -0.63227112585E+01  0.42755664519E+02  0.47000000000E+01 0. -1.
         13    1    4    4    0    0  0.40688061163E+02  0.39372273079E+02 -0.16559495539E+03  0.17500680975E+03  0.00000000000E+00 0. -1.
        -14    1    4    4    0    0 -0.26364671765E+02 -0.41286368489E+01 -0.34205041325E+02  0.43383480860E+02  0.00000000000E+00 0.  1.
         -5    1    3    3    0  504  0.73920732788E+02 -0.67949461433E+02 -0.11521568468E+03  0.15289914336E+03  0.47000000000E+01 0.  1.
<mgrwt>
<rscale>  2 0.19747303E+03</rscale>
<asrwt>0</asrwt>
<pdfrwt beam="1">  1       21 0.83800433E-02 0.19779100E+03</pdfrwt>
<pdfrwt beam="2">  1       21 0.10993171E+00 0.19779100E+03</pdfrwt>
<totfact> 0.72213894E+04</totfact>
</mgrwt>
</event>
<event>
12    1  0.1410528E-001  0.1806522E+03  0.7546771E-02  0.1167387E+00
         21   -1    0    0  502  503  0.00000000000E+00  0.00000000000E+00  0.32042371110E+02  0.32042371110E+02  0.00000000000E+00 0. -1.
         21   -1    0    0  503  504 -0.00000000000E+00 -0.00000000000E+00 -0.26993405512E+04  0.26993405512E+04  0.00000000000E+00 0. -1.
         -6    2    1    2    0  504  0.33224281235E+02  0.40150306841E+02 -0.24116869802E+04  0.24183776552E+04  0.17204793686E+03 0.  0.
        -24    2    3    3    0    0  0.74592640960E+02  0.52728007254E+02 -0.21677195193E+04  0.21705637095E+04  0.63202827817E+02 0.  0.
          6    2    1    2  502    0 -0.33224281235E+02 -0.40150306841E+02 -0.25561119994E+03  0.31300526718E+03  0.17297199700E+03 0.  0.
         24    2    5    5    0    0  0.42615816809E+02 -0.15732109189E+02 -0.18197842539E+03  0.20441500825E+03  0.81275710934E+02 0.  0.
          2    1    6    6  501    0 -0.94340081761E+01  0.23796902430E+02 -0.33276781797E+02  0.41983774035E+02  0.00000000000E+00 0. -1.
         -1    1    6    6    0  501  0.52049824986E+02 -0.39529011619E+02 -0.14870164359E+03  0.16243123421E+03  0.00000000000E+00 0.  1.
          5    1    5    5  502    0 -0.75840098045E+02 -0.24418197652E+02 -0.73632774549E+02  0.10859025894E+03  0.47000000000E+01 0. -1.
         11    1    4    4    0    0  0.14353260235E+02  0.23344744953E+02 -0.12892017950E+04  0.12894930249E+04  0.00000000000E+00 0. -1.
        -12    1    4    4    0    0  0.60239380724E+02  0.29383262300E+02 -0.87851772438E+03  0.88107068453E+03  0.00000000000E+00 0.  1.
         -5    1    3    3    0  504 -0.41368359724E+02 -0.12577700413E+02 -0.24396746083E+03  0.24781394569E+03  0.47000000000E+01 0.  1.
<mgrwt>
<rscale>  2 0.18043063E+03</rscale>
<asrwt>0</asrwt>
<pdfrwt beam="1">  1       21 0.49295936E-02 0.18065218E+03</pdfrwt>
<pdfrwt beam="2">  1       21 0.41528333E+00 0.18065218E+03</pdfrwt>
<totfact> 0.19609115E+03</totfact>
</mgrwt>
</event>
<event>
12    1  0.1410528E-001  0.2408003E+03  0.7546771E-02  0.1119346E+00
         21   -1    0    0  502  503  0.00000000000E+00  0.00000000000E+00  0.25396009184E+03  0.25396009184E+03  0.00000000000E+00 0.  1.
         21   -1    0    0  503  504 -0.00000000000E+00 -0.00000000000E+00 -0.29665856481E+03  0.29665856481E+03  0.00000000000E+00 0. -1.
         -6    2    1    2    0  504 -0.40961882840E+02 -0.16229646050E+03 -0.15396960536E+03  0.28581707892E+03  0.17310905896E+03 0.  0.
        -24    2    3    3    0    0  0.25288828962E+02 -0.14503109198E+03 -0.13265127860E+03  0.21395741833E+03  0.80671386721E+02 0.  0.
          6    2    1    2  502    0  0.40961882840E+02  0.16229646050E+03  0.11127113239E+03  0.26480157772E+03  0.17239661749E+03 0.  0.
         24    2    5    5    0    0 -0.18515816417E+02  0.14732289830E+03  0.10430224995E+03  0.20289471545E+03  0.90776838404E+02 0.  0.
          2    1    6    6  501    0 -0.72658847030E+01  0.11026586717E+03  0.23047389927E+02  0.11288284513E+03  0.00000000000E+00 0. -1.
         -1    1    6    6    0  501 -0.11249931714E+02  0.37057031132E+02  0.81254860027E+02  0.90011870317E+02  0.00000000000E+00 0.  1.
          5    1    5    5  502    0  0.59477699256E+02  0.14973562201E+02  0.69688824317E+01  0.61906862271E+02  0.47000000000E+01 0. -1.
         11    1    4    4    0    0 -0.24753575433E+02 -0.57268472869E+02 -0.75294202213E+02  0.97783609917E+02  0.00000000000E+00 0. -1.
        -12    1    4    4    0    0  0.50042404395E+02 -0.87762619108E+02 -0.57357076384E+02  0.11617380842E+03  0.00000000000E+00 0.  1.
         -5    1    3    3    0  504 -0.66250711802E+02 -0.17265368523E+02 -0.21318326762E+02  0.71859660592E+02  0.47000000000E+01 0.  1.
<mgrwt>
<rscale>  2 0.24067224E+03</rscale>
<asrwt>0</asrwt>
<pdfrwt beam="1">  1       21 0.39070783E-01 0.24080026E+03</pdfrwt>
<pdfrwt beam="2">  1       21 0.45639779E-01 0.24080026E+03</pdfrwt>
<totfact> 0.28359079E+04</totfact>
</mgrwt>
</event>
<event>
12    1  0.1410528E-001  0.1772738E+03  0.7546771E-02  0.1170645E+00
         21   -1    0    0  502  503  0.00000000000E+00  0.00000000000E+00  0.54078508601E+03  0.54078508601E+03  0.00000000000E+00 0.  1.
         21   -1    0    0  503  504 -0.00000000000E+00 -0.00000000000E+00 -0.27185005806E+03  0.27185005806E+03  0.00000000000E+00 0.  1.
         -6    2    1    2    0  504  0.25772933020E+02 -0.23638867522E+02 -0.22595316402E+03  0.28719476235E+03  0.17378998549E+03 0.  0.
        -24    2    3    3    0    0 -0.22608469681E+02  0.38488721110E+02 -0.15951377363E+03  0.18405951139E+03  0.80254191163E+02 0.  0.
          6    2    1    2  502    0 -0.25772933020E+02  0.23638867522E+02  0.49488819197E+03  0.52544038172E+03  0.17306135345E+03 0.  0.
         24    2    5    5    0    0 -0.46572398716E+02 -0.45954375565E+02  0.29317807129E+03  0.31099948067E+03  0.80538826283E+02 0.  0.
          4    1    6    6  501    0  0.17327635317E+02 -0.31129101877E+02  0.13803402511E+03  0.14255756738E+03  0.00000000000E+00 0. -1.
         -3    1    6    6    0  501 -0.63900034032E+02 -0.14825273688E+02  0.15514404618E+03  0.16844191330E+03  0.00000000000E+00 0.  1.
          5    1    5    5  502    0  0.20799465696E+02  0.69593243087E+02  0.20171012068E+03  0.21444090105E+03  0.47000000000E+01 0. -1.
         13    1    4    4    0    0 -0.64135549778E+00  0.59615369021E+02 -0.87696912027E+02  0.10604316074E+03  0.00000000000E+00 0. -1.
        -14    1    4    4    0    0 -0.21967114183E+02 -0.21126647911E+02 -0.71816861605E+02  0.78016350647E+02  0.00000000000E+00 0.  1.
         -5    1    3    3    0  504  0.48381402701E+02 -0.62127588632E+02 -0.66439390385E+02  0.10313525096E+03  0.47000000000E+01 0.  1.
<mgrwt>
<rscale>  2 0.17709496E+03</rscale>
<asrwt>0</asrwt>
<pdfrwt beam="1">  1       21 0.83197705E-01 0.17727380E+03</pdfrwt>
<pdfrwt beam="2">  1       21 0.41823086E-01 0.17727380E+03</pdfrwt>
<totfact> 0.70057560E+03</totfact>
</mgrwt>
</event>
<event>
12    1  0.1410528E-001  0.2968862E+03  0.7546771E-02  0.1087054E+00
         21   -1    0    0  502  503  0.00000000000E+00  0.00000000000E+00  0.34867641029E+03  0.34867641029E+03  0.00000000000E+00 0.  1.
         21   -1    0    0  503  504 -0.00000000000E+00 -0.00000000000E+00 -0.36022226240E+03  0.36022226240E+03  0.00000000000E+00 0. -1.
         -6    2    1    2    0  504  0.12430574893E+03 -0.20661054619E+03  0.18926291072E+03  0.35208221185E+03  0.17320969233E+03 0.  0.
        -24    2    3    3    0    0  0.95208581248E+02 -0.47700884417E+02  0.85642637213E+02  0.16009737690E+03  0.83405398286E+02 0.  0.
          6    2    1    2  502    0 -0.12430574893E+03  0.20661054619E+03 -0.20080876282E+03  0.35681646083E+03  0.16986462398E+03 0.  0.
         24    2    5    5    0    0 -0.15096873999E+03  0.18774776577E+03 -0.20031617696E+03  0.32381566965E+03  0.81787732267E+02 0.  0.
          2    1    6    6  501    0 -0.13130212435E+03  0.10272815243E+03 -0.14045356520E+03  0.21799202999E+03  0.00000000000E+00 0. -1.
         -1    1    6    6    0  501 -0.19666615640E+02  0.85019613344E+02 -0.59862611766E+02  0.10582363966E+03  0.00000000000E+00 0.  1.
          5    1    5    5  502    0  0.26662991065E+02  0.18862780424E+02 -0.49258585613E+00  0.33000791183E+02  0.47000000000E+01 0. -1.
         13    1    4    4    0    0  0.90049612776E+02 -0.55849047718E+02  0.39703085931E+02  0.11315645772E+03  0.00000000000E+00 0. -1.
        -14    1    4    4    0    0  0.51589684720E+01  0.81481633017E+01  0.45939551282E+02  0.46940919173E+02  0.00000000000E+00 0.  1.
         -5    1    3    3    0  504  0.29097167681E+02 -0.15890966178E+03  0.10362027350E+03  0.19198483496E+03  0.47000000000E+01 0.  1.
<mgrwt>
<rscale>  2 0.29640027E+03</rscale>
<asrwt>0</asrwt>
<pdfrwt beam="1">  1       21 0.53642525E-01 0.29688623E+03</pdfrwt>
<pdfrwt beam="2">  1       21 0.55418810E-01 0.29688623E+03</pdfrwt>
<totfact> 0.95105355E+03</totfact>
</mgrwt>
</event>
<event>
12    1  0.1410528E-001  0.1824801E+03  0.7546771E-02  0.1165470E+00
         21   -1    0    0  502  503  0.00000000000E+00  0.00000000000E+00  0.21185853813E+03  0.21185853813E+03  0.00000000000E+00 0. -1.
         21   -1    0    0  503  504 -0.00000000000E+00 -0.00000000000E+00 -0.17292889131E+03  0.17292889131E+03  0.00000000000E+00 0.  1.
         -6    2    1    2    0  504 -0.53726912057E+02 -0.26272591659E+02 -0.38901281958E+02  0.18658051600E+03  0.17240112837E+03 0.  0.
        -24    2    3    3    0    0 -0.37083984750E+02  0.22826328382E+02  0.33889594179E+02  0.97091451714E+02  0.79887309442E+02 0.  0.
          6    2    1    2  502    0  0.53726912057E+02  0.26272591659E+02  0.77830928774E+02  0.19820691344E+03  0.17219610016E+03 0.  0.
         24    2    5    5    0    0 -0.17519281146E+02  0.29999712471E+02 -0.92572529128E+00  0.91836748286E+02  0.85007196215E+02 0.  0.
          4    1    6    6  501    0 -0.50372051868E+02  0.21078551892E+02  0.11121278871E+02  0.55725504062E+02  0.00000000000E+00 0. -1.
         -3    1    6    6    0  501  0.32852770722E+02  0.89211605786E+01 -0.12047004163E+02  0.36111244225E+02  0.00000000000E+00 0.  1.
          5    1    5    5  502    0  0.71246193203E+02 -0.37271208114E+01  0.78756654065E+02  0.10637016515E+03  0.47000000000E+01 0. -1.
         13    1    4    4    0    0 -0.18336664438E+02 -0.17886155720E+02  0.44212182823E+02  0.51096623559E+02  0.00000000000E+00 0. -1.
        -14    1    4    4    0    0 -0.18747320312E+02  0.40712484102E+02 -0.10322588644E+02  0.45994828155E+02  0.00000000000E+00 0.  1.
         -5    1    3    3    0  504 -0.16642927307E+02 -0.49098920042E+02 -0.72790876138E+02  0.89489064290E+02  0.47000000000E+01 0.  1.
<mgrwt>
<rscale>  2 0.18243164E+03</rscale>
<asrwt>0</asrwt>
<pdfrwt beam="1">  1       21 0.32593621E-01 0.18248008E+03</pdfrwt>
<pdfrwt beam="2">  1       21 0.26604445E-01 0.18248008E+03</pdfrwt>
<totfact> 0.12223363E+05</totfact>
</mgrwt>
</event>
<event>
12    1  0.1410528E-001  0.1786714E+03  0.7546771E-02  0.1170125E+00
         21   -1    0    0  502  503  0.00000000000E+00  0.00000000000E+00  0.19868052185E+03  0.19868052185E+03  0.00000000000E+00 0.  1.
         21   -1    0    0  503  504 -0.00000000000E+00 -0.00000000000E+00 -0.16497219823E+03  0.16497219823E+03  0.00000000000E+00 0.  1.
         -6    2    1    2    0  504 -0.19002490485E+02 -0.42802505936E+02 -0.23416608099E+02  0.17607145623E+03  0.16810613018E+03 0.  0.
        -24    2    3    3    0    0  0.18873077983E+02 -0.44733778040E+02 -0.74550417842E+02  0.11223537711E+03  0.68423030507E+02 0.  0.
          6    2    1    2  502    0  0.19002490485E+02  0.42802505936E+02  0.57124931718E+02  0.18758126385E+03  0.17242483454E+03 0.  0.
         24    2    5    5    0    0  0.47187553204E+02 -0.30618672218E+02  0.22993144440E+02  0.10172011976E+03  0.81572849694E+02 0.  0.
          2    1    6    6  501    0  0.27291406928E+02 -0.29869860120E+02 -0.26504210229E+02  0.48368404931E+02  0.00000000000E+00 0. -1.
         -1    1    6    6    0  501  0.19896146276E+02 -0.74881209803E+00  0.49497354668E+02  0.53351714831E+02  0.00000000000E+00 0.  1.
          5    1    5    5  502    0 -0.28185062719E+02  0.73421178154E+02  0.34131787278E+02  0.85861144092E+02  0.47000000000E+01 0. -1.
         13    1    4    4    0    0  0.22561569832E+02 -0.20155034505E+02  0.33765368994E+01  0.30440940370E+02  0.00000000000E+00 0. -1.
        -14    1    4    4    0    0 -0.36884918490E+01 -0.24578743535E+02 -0.77926954742E+02  0.81794436738E+02  0.00000000000E+00 0.  1.
         -5    1    3    3    0  504 -0.37875568469E+02  0.19312721042E+01  0.51133809744E+02  0.63836079122E+02  0.47000000000E+01 0.  1.
<mgrwt>
<rscale>  2 0.17762117E+03</rscale>
<asrwt>0</asrwt>
<pdfrwt beam="1">  1       21 0.30566234E-01 0.17867141E+03</pdfrwt>
<pdfrwt beam="2">  1       21 0.25380338E-01 0.17867141E+03</pdfrwt>
<totfact> 0.15187621E+05</totfact>
</mgrwt>
</event>
<event>
12    1  0.1410528E-001  0.3913748E+03  0.7546771E-02  0.1047118E+00
         21   -1    0    0  502  503  0.00000000000E+00  0.00000000000E+00  0.97037699919E+03  0.97037699919E+03  0.00000000000E+00 0.  1.
         21   -1    0    0  503  504 -0.00000000000E+00 -0.00000000000E+00 -0.23160904353E+03  0.23160904353E+03  0.00000000000E+00 0. -1.
         -6    2    1    2    0  504 -0.18986754384E+03 -0.29195422311E+03  0.28149997883E+02  0.39238588412E+03  0.17857017411E+03 0.  0.
        -24    2    3    3    0    0 -0.20326902761E+03 -0.22956623731E+03  0.62625513931E+02  0.31970499429E+03  0.65348094712E+02 0.  0.
          6    2    1    2  502    0  0.18986754384E+03  0.29195422311E+03  0.71061795777E+03  0.80960015860E+03  0.17084373650E+03 0.  0.
         24    2    5    5    0    0  0.13439973715E+03  0.22869381018E+03  0.39181724305E+03  0.47985094612E+03  0.79824998462E+02 0.  0.
          4    1    6    6  501    0  0.49549583634E+02  0.13502687171E+03  0.26066308820E+03  0.29771238280E+03  0.00000000000E+00 0. -1.
         -3    1    6    6    0  501  0.84850153512E+02  0.93666938471E+02  0.13115415485E+03  0.18213856332E+03  0.00000000000E+00 0.  1.
          5    1    5    5  502    0  0.55467806696E+02  0.63260412923E+02  0.31880071473E+03  0.32974921248E+03  0.47000000000E+01 0. -1.
         13    1    4    4    0    0 -0.12272194488E+03 -0.91281444242E+02  0.21310700684E+02  0.15442513973E+03  0.00000000000E+00 0. -1.
        -14    1    4    4    0    0 -0.80547082738E+02 -0.13828479307E+03  0.41314813247E+02  0.16527985456E+03  0.00000000000E+00 0.  1.
         -5    1    3    3    0  504  0.13401483771E+02 -0.62387985800E+02 -0.34475516048E+02  0.72680889828E+02  0.47000000000E+01 0.  1.
<mgrwt>
<rscale>  2 0.39050585E+03</rscale>
<asrwt>0</asrwt>
<pdfrwt beam="1">  1       21 0.14928877E+00 0.39137483E+03</pdfrwt>
<pdfrwt beam="2">  1       21 0.35632161E-01 0.39137483E+03</pdfrwt>
<totfact> 0.20173995E+03</totfact>
</mgrwt>
</event>
<event>
12    1  0.1410528E-001  0.1874764E+03  0.7546771E-02  0.1161076E+00
         21   -1    0    0  502  503  0.00000000000E+00  0.00000000000E+00  0.41977858940E+03  0.41977858940E+03  0.00000000000E+00 0. -1.
         21   -1    0    0  503  504 -0.00000000000E+00 -0.00000000000E+00 -0.16842577146E+03  0.16842577146E+03  0.00000000000E+00 0. -1.
         -6    2    1    2    0  504  0.29019137047E+02 -0.67037647558E+02 -0.83410867916E+02  0.20519451880E+03  0.17265937899E+03 0.  0.
        -24    2    3    3    0    0  0.45343556395E+02  0.63322017399E+01 -0.87046186614E+02  0.12979606394E+03  0.84698552086E+02 0.  0.
          6    2    1    2  502    0 -0.29019137047E+02  0.67037647558E+02  0.33476368585E+03  0.38300984205E+03  0.17115389928E+03 0.  0.
         24    2    5    5    0    0 -0.51559452626E+02 -0.15449638751E+02  0.13973515089E+03  0.17000646725E+03  0.80493589926E+02 0.  0.
          2    1    6    6  501    0 -0.54063143119E+02 -0.28325395906E+02  0.14384733451E+03  0.15626006253E+03  0.00000000000E+00 0. -1.
         -1    1    6    6    0  501  0.25036904935E+01  0.12875757156E+02 -0.41121836212E+01  0.13746404714E+02  0.00000000000E+00 0.  1.
          5    1    5    5  502    0  0.22540315579E+02  0.82487286309E+02  0.19502853497E+03  0.21300337481E+03  0.47000000000E+01 0. -1.
         11    1    4    4    0    0 -0.15060053619E+02 -0.18573001718E+02 -0.48143813050E+02  0.53754891339E+02  0.00000000000E+00 0. -1.
        -12    1    4    4    0    0  0.60403610015E+02  0.24905203457E+02 -0.38902373564E+02  0.76041172604E+02  0.00000000000E+00 0.  1.
         -5    1    3    3    0  504 -0.16324419349E+02 -0.73369849298E+02  0.36353186982E+01  0.75398454859E+02  0.47000000000E+01 0.  1.
<mgrwt>
<rscale>  2 0.18712909E+03</rscale>
<asrwt>0</asrwt>
<pdfrwt beam="1">  1       21 0.64581321E-01 0.18747645E+03</pdfrwt>
<pdfrwt beam="2">  1       21 0.25911657E-01 0.18747645E+03</pdfrwt>
<totfact> 0.31349508E+04</totfact>
</mgrwt>
</event>
<event>
12    1  0.1410528E-001  0.1875658E+03  0.7546771E-02  0.1162777E+00
         21   -1    0    0  502  503  0.00000000000E+00  0.00000000000E+00  0.17569915527E+04  0.17569915527E+04  0.00000000000E+00 0.  1.
         21   -1    0    0  503  504 -0.00000000000E+00 -0.00000000000E+00 -0.34038896663E+02  0.34038896663E+02  0.00000000000E+00 0.  1.
         -6    2    1    2    0  504  0.43715201744E+02  0.51641676599E+01  0.27972284333E+03  0.33678748883E+03  0.18232733218E+03 0.  0.
        -24    2    3    3    0    0  0.10201313441E+03 -0.11602957696E+02  0.13191250581E+03  0.17694453051E+03  0.58027144238E+02 0.  0.
          6    2    1    2  502    0 -0.43715201744E+02 -0.51641676599E+01  0.14432298127E+04  0.14542429605E+04  0.17312599019E+03 0.  0.
         24    2    5    5    0    0  0.24381591449E+01 -0.20078916076E+02  0.31784141333E+03  0.32780000952E+03  0.77592362516E+02 0.  0.
          2    1    6    6  501    0  0.61832052971E+01  0.21445461830E+02  0.32482251777E+02  0.39411122052E+02  0.00000000000E+00 0. -1.
         -1    1    6    6    0  501 -0.37450461522E+01 -0.41524377906E+02  0.28535916156E+03  0.28838888747E+03  0.00000000000E+00 0.  1.
          5    1    5    5  502    0 -0.46153360889E+02  0.14914748416E+02  0.11253883993E+04  0.11264429510E+04  0.47000000000E+01 0. -1.
         13    1    4    4    0    0  0.68784209280E+02  0.18870182197E+01  0.12144711956E+03  0.13958592742E+03  0.00000000000E+00 0. -1.
        -14    1    4    4    0    0  0.33228925134E+02 -0.13489975916E+02  0.10465386253E+02  0.37358603095E+02  0.00000000000E+00 0.  1.
         -5    1    3    3    0  504 -0.58297932670E+02  0.16767125356E+02  0.14781033752E+03  0.15984295832E+03  0.47000000000E+01 0.  1.
<mgrwt>
<rscale>  2 0.18529200E+03</rscale>
<asrwt>0</asrwt>
<pdfrwt beam="1">  1       21 0.27030632E+00 0.18756584E+03</pdfrwt>
<pdfrwt beam="2">  1       21 0.52367547E-02 0.18756584E+03</pdfrwt>
<totfact> 0.12653101E+04</totfact>
</mgrwt>
</event>
<event>
12    1  0.1410528E-001  0.2858027E+03  0.7546771E-02  0.1092693E+00
         21   -1    0    0  502  503  0.00000000000E+00  0.00000000000E+00  0.51842329724E+03  0.51842329724E+03  0.00000000000E+00 0. -1.
         21   -1    0    0  503  504 -0.00000000000E+00 -0.00000000000E+00 -0.46681666093E+03  0.46681666093E+03  0.00000000000E+00 0. -1.
         -6    2    1    2    0  504  0.21830010794E+03  0.55570423415E+02 -0.37549202060E+03  0.47188710879E+03  0.17589820019E+03 0.  0.
        -24    2    3    3    0    0  0.11282500236E+03  0.91093775226E+02 -0.16482305930E+03  0.23357972814E+03  0.79782776823E+02 0.  0.
          6    2    1    2  502    0 -0.21830010794E+03 -0.55570423415E+02  0.42709865690E+03  0.51335284938E+03  0.17428389529E+03 0.  0.
         24    2    5    5    0    0 -0.45347728757E+02  0.11225017492E+02  0.19647570468E+03  0.21740827267E+03  0.80506130063E+02 0.  0.
          2    1    6    6  501    0 -0.17547749151E+02 -0.18721144294E+02  0.16178557764E+03  0.16380774669E+03  0.00000000000E+00 0. -1.
         -1    1    6    6    0  501 -0.27799979607E+02  0.29946161786E+02  0.34690127041E+02  0.53600525986E+02  0.00000000000E+00 0.  1.
          5    1    5    5  502    0 -0.17295237918E+03 -0.66795440907E+02  0.23062295222E+03  0.29594457671E+03  0.47000000000E+01 0. -1.
         11    1    4    4    0    0  0.51321717175E+02 -0.48278466159E+01 -0.49942494405E+02  0.71773807925E+02  0.00000000000E+00 0. -1.
        -12    1    4    4    0    0  0.61503285189E+02  0.95921621842E+02 -0.11488056489E+03  0.16180592021E+03  0.00000000000E+00 0.  1.
         -5    1    3    3    0  504  0.10547510557E+03 -0.35523351811E+02 -0.21066896130E+03  0.23830738065E+03  0.47000000000E+01 0.  1.
<mgrwt>
<rscale>  2 0.28555471E+03</rscale>
<asrwt>0</asrwt>
<pdfrwt beam="1">  1       21 0.79757430E-01 0.28580270E+03</pdfrwt>
<pdfrwt beam="2">  1       21 0.71817948E-01 0.28580270E+03</pdfrwt>
<totfact> 0.22635967E+03</totfact>
</mgrwt>
</event>
<event>
12    1  0.1410528E-001  0.2559516E+03  0.7546771E-02  0.1109769E+00
         21   -1    0    0  502  503  0.00000000000E+00  0.00000000000E+00  0.75173797862E+03  0.75173797862E+03  0.00000000000E+00 0. -1.
         21   -1    0    0  503  504 -0.00000000000E+00 -0.00000000000E+00 -0.13065489055E+03  0.13065489055E+03  0.00000000000E+00 0. -1.
         -6    2    1    2    0  504 -0.18883854657E+03 -0.10547371389E+02  0.55295173889E+02  0.26185641932E+03  0.17245284679E+03 0.  0.
        -24    2    3    3    0    0 -0.12973455935E+03 -0.43020603070E+01  0.10249036447E+03  0.18581852593E+03  0.84703519152E+02 0.  0.
          6    2    1    2  502    0  0.18883854657E+03  0.10547371389E+02  0.56578791419E+03  0.62053644986E+03  0.17081650402E+03 0.  0.
         24    2    5    5    0    0  0.17251894302E+03 -0.26844365333E+02  0.53556020803E+03  0.56954355177E+03  0.84093491383E+02 0.  0.
          4    1    6    6  501    0  0.11686078025E+03  0.22110775425E+02  0.35353531962E+03  0.37300475945E+03  0.00000000000E+00 0. -1.
         -3    1    6    6    0  501  0.55658162763E+02 -0.48955140758E+02  0.18202488841E+03  0.19653879232E+03  0.00000000000E+00 0.  1.
          5    1    5    5  502    0  0.16319603559E+02  0.37391736722E+02  0.30227706156E+02  0.50992898083E+02  0.47000000000E+01 0. -1.
         11    1    4    4    0    0 -0.61069578873E+02 -0.28646057576E+02  0.10172483092E+02  0.68217076239E+02  0.00000000000E+00 0. -1.
        -12    1    4    4    0    0 -0.68664980477E+02  0.24343997269E+02  0.92317881380E+02  0.11760144969E+03  0.00000000000E+00 0.  1.
         -5    1    3    3    0  504 -0.59103987224E+02 -0.62453110815E+01 -0.47195190584E+02  0.76037893386E+02  0.47000000000E+01 0.  1.
<mgrwt>
<rscale>  2 0.25567626E+03</rscale>
<asrwt>0</asrwt>
<pdfrwt beam="1">  1       21 0.11565199E+00 0.25595161E+03</pdfrwt>
<pdfrwt beam="2">  1       21 0.20100753E-01 0.25595161E+03</pdfrwt>
<totfact> 0.12717535E+04</totfact>
</mgrwt>
</event>
<event>
12    1  0.1410528E-001  0.2007302E+03  0.7546771E-02  0.1149361E+00
         21   -1    0    0  502  503  0.00000000000E+00  0.00000000000E+00  0.28328892069E+02  0.28328892069E+02  0.00000000000E+00 0.  1.
         21   -1    0    0  503  504 -0.00000000000E+00 -0.00000000000E+00 -0.14322167301E+04  0.14322167301E+04  0.00000000000E+00 0.  1.
         -6    2    1    2    0  504  0.58671278614E+02 -0.82694863630E+02 -0.78539725064E+03  0.81064262829E+03  0.17323934332E+03 0.  0.
        -24    2    3    3    0    0  0.10114380569E+03 -0.37521778003E+02 -0.53885109496E+03  0.55637579974E+03  0.86922809057E+02 0.  0.
          6    2    1    2  502    0 -0.58671278614E+02  0.82694863630E+02 -0.61849058739E+03  0.64990299388E+03  0.17193759148E+03 0.  0.
         24    2    5    5    0    0 -0.38927008042E+02  0.78789409824E+02 -0.21363253186E+03  0.24451771551E+03  0.80168394496E+02 0.  0.
          2    1    6    6  501    0 -0.53025478052E+02  0.55496840412E+02 -0.19967861078E+03  0.21392322973E+03  0.00000000000E+00 0. -1.
         -1    1    6    6    0  501  0.14098470010E+02  0.23292569412E+02 -0.13953921079E+02  0.30594485776E+02  0.00000000000E+00 0.  1.
          5    1    5    5  502    0 -0.19744270572E+02  0.39054538059E+01 -0.40485805553E+03  0.40538527837E+03  0.47000000000E+01 0. -1.
         13    1    4    4    0    0  0.10408523934E+03 -0.24810104770E+02 -0.52979740111E+03  0.54049474056E+03  0.00000000000E+00 0. -1.
        -14    1    4    4    0    0 -0.29414336447E+01 -0.12711673233E+02 -0.90536938538E+01  0.15881059180E+02  0.00000000000E+00 0.  1.
         -5    1    3    3    0  504 -0.42472527077E+02 -0.45173085626E+02 -0.24654615568E+03  0.25426682855E+03  0.47000000000E+01 0.  1.
<mgrwt>
<rscale>  2 0.20044905E+03</rscale>
<asrwt>0</asrwt>
<pdfrwt beam="1">  1       21 0.43582918E-02 0.20073024E+03</pdfrwt>
<pdfrwt beam="2">  1       21 0.22034100E+00 0.20073024E+03</pdfrwt>
<totfact> 0.33761504E+04</totfact>
</mgrwt>
</event>
<event>
12    1  0.1410528E-001  0.1757598E+03  0.7546771E-02  0.1172160E+00
         21   -1    0    0  502  503  0.00000000000E+00  0.00000000000E+00  0.36908665813E+03  0.36908665813E+03  0.00000000000E+00 0. -1.
         21   -1    0    0  503  504 -0.00000000000E+00 -0.00000000000E+00 -0.95752248181E+02  0.95752248181E+02  0.00000000000E+00 0. -1.
         -6    2    1    2    0  504  0.19083950353E+02 -0.18281328634E+02  0.53237264950E+02  0.18364565178E+03  0.17376166120E+03 0.  0.
        -24    2    3    3    0    0  0.65186625798E+02 -0.41095543848E+02  0.44191446864E+02  0.13120652590E+03  0.96561527302E+02 0.  0.
          6    2    1    2  502    0 -0.19083950353E+02  0.18281328634E+02  0.22009714500E+03  0.28119325452E+03  0.17299852316E+03 0.  0.
         24    2    5    5    0    0 -0.50902571763E+02 -0.35057483066E+02  0.18179981197E+03  0.20807534141E+03  0.80150340840E+02 0.  0.
          2    1    6    6  501    0 -0.64146804168E+02 -0.41503924332E+02  0.17666140198E+03  0.19247503518E+03  0.00000000000E+00 0. -1.
         -1    1    6    6    0  501  0.13244232405E+02  0.64464412652E+01  0.51384099957E+01  0.15600306223E+02  0.00000000000E+00 0.  1.
          5    1    5    5  502    0  0.31818621410E+02  0.53338811700E+02  0.38297333023E+02  0.73117913117E+02  0.47000000000E+01 0. -1.
         11    1    4    4    0    0 -0.83903493652E+00 -0.52488742198E+02  0.30541851227E+01  0.52584218962E+02  0.00000000000E+00 0. -1.
        -12    1    4    4    0    0  0.66025660735E+02  0.11393198350E+02  0.41137261741E+02  0.78622306934E+02  0.00000000000E+00 0.  1.
         -5    1    3    3    0  504 -0.46102675445E+02  0.22814215215E+02  0.90458180855E+01  0.52439125888E+02  0.47000000000E+01 0.  1.
<mgrwt>
<rscale>  2 0.17557092E+03</rscale>
<asrwt>0</asrwt>
<pdfrwt beam="1">  1       21 0.56782562E-01 0.17575983E+03</pdfrwt>
<pdfrwt beam="2">  1       21 0.14731115E-01 0.17575983E+03</pdfrwt>
<totfact> 0.11890686E+05</totfact>
</mgrwt>
</event>
<event>
12    1  0.1410528E-001  0.1807705E+03  0.7546771E-02  0.1167573E+00
         21   -1    0    0  502  503  0.00000000000E+00  0.00000000000E+00  0.88688278441E+02  0.88688278441E+02  0.00000000000E+00 0.  1.
         21   -1    0    0  503  504 -0.00000000000E+00 -0.00000000000E+00 -0.46709198310E+03  0.46709198310E+03  0.00000000000E+00 0.  1.
         -6    2    1    2    0  504 -0.87919698394E+01  0.49335563425E+02 -0.32052638297E+03  0.36798794534E+03  0.17368554686E+03 0.  0.
        -24    2    3    3    0    0  0.37093718160E+02  0.73560511801E+01 -0.81546324746E+02  0.12100346397E+03  0.81006047904E+02 0.  0.
          6    2    1    2  502    0  0.87919698394E+01 -0.49335563425E+02 -0.57877321695E+02  0.18779231620E+03  0.17147849167E+03 0.  0.
         24    2    5    5    0    0  0.28241075134E+01 -0.29491168966E+02 -0.10568073221E+03  0.13547911109E+03  0.79425863239E+02 0.  0.
          2    1    6    6  501    0 -0.26933233998E+02  0.12645968404E+02 -0.58218601147E+02  0.65381382136E+02  0.00000000000E+00 0. -1.
         -1    1    6    6    0  501  0.29757341512E+02 -0.42137137370E+02 -0.47462131064E+02  0.70097728956E+02  0.00000000000E+00 0.  1.
          5    1    5    5  502    0  0.59678623259E+01 -0.19844394458E+02  0.47803410516E+02  0.52313205112E+02  0.47000000000E+01 0. -1.
         11    1    4    4    0    0  0.29945007053E+02 -0.35023829791E+02 -0.36917425568E+02  0.59044630673E+02  0.00000000000E+00 0. -1.
        -12    1    4    4    0    0  0.71487111063E+01  0.42379880972E+02 -0.44628899178E+02  0.61958833296E+02  0.00000000000E+00 0.  1.
         -5    1    3    3    0  504 -0.45885687999E+02  0.41979512245E+02 -0.23898005822E+03  0.24698448137E+03  0.47000000000E+01 0.  1.
<mgrwt>
<rscale>  2 0.18023826E+03</rscale>
<asrwt>0</asrwt>
<pdfrwt beam="1">  1       21 0.13644350E-01 0.18077048E+03</pdfrwt>
<pdfrwt beam="2">  1       21 0.71860305E-01 0.18077048E+03</pdfrwt>
<totfact> 0.81855098E+04</totfact>
</mgrwt>
</event>
<event>
12    1  0.1410528E-001  0.1737021E+03  0.7546771E-02  0.1174388E+00
         21   -1    0    0  502  503  0.00000000000E+00  0.00000000000E+00  0.46470603319E+03  0.46470603319E+03  0.00000000000E+00 0. -1.
         21   -1    0    0  503  504 -0.00000000000E+00 -0.00000000000E+00 -0.69463888956E+02  0.69463888956E+02  0.00000000000E+00 0. -1.
         -6    2    1    2    0  504  0.16493327594E+01 -0.11242337656E+02  0.27031072862E+03  0.32131031613E+03  0.17333008622E+03 0.  0.
        -24    2    3    3    0    0  0.27315886098E+02  0.12056892285E+02  0.51963192316E+02  0.10017831328E+03  0.80274496638E+02 0.  0.
          6    2    1    2  502    0 -0.16493327594E+01  0.11242337656E+02  0.12493141561E+03  0.21285960602E+03  0.17196581873E+03 0.  0.
         24    2    5    5    0    0 -0.50602121071E+02  0.56738310042E+02  0.62840669495E+02  0.12151624424E+03  0.70974906749E+02 0.  0.
          4    1    6    6  501    0 -0.34793954739E+02  0.55534171686E+02  0.76399110119E+02  0.10065529066E+03  0.00000000000E+00 0. -1.
         -3    1    6    6    0  501 -0.15808166332E+02  0.12041383557E+01 -0.13558440624E+02  0.20860953577E+02  0.00000000000E+00 0.  1.
          5    1    5    5  502    0  0.48952788312E+02 -0.45495972386E+02  0.62090746120E+02  0.91343361776E+02  0.47000000000E+01 0. -1.
         13    1    4    4    0    0 -0.26999007068E+01 -0.32115400663E+02  0.20421745036E+02  0.38154109790E+02  0.00000000000E+00 0. -1.
        -14    1    4    4    0    0  0.30015786805E+02  0.44172292947E+02  0.31541447279E+02  0.62024203487E+02  0.00000000000E+00 0.  1.
         -5    1    3    3    0  504 -0.25666553339E+02 -0.23299229941E+02  0.21834753630E+03  0.22113200285E+03  0.47000000000E+01 0.  1.
<mgrwt>
<rscale>  2 0.17336079E+03</rscale>
<asrwt>0</asrwt>
<pdfrwt beam="1">  1       21 0.71493234E-01 0.17370213E+03</pdfrwt>
<pdfrwt beam="2">  1       21 0.10686752E-01 0.17370213E+03</pdfrwt>
<totfact> 0.12845886E+05</totfact>
</mgrwt>
</event>
<event>
12    1  0.1410528E-001  0.2005974E+03  0.7546771E-02  0.1149448E+00
         21   -1    0    0  502  503  0.00000000000E+00  0.00000000000E+00  0.30521428460E+03  0.30521428460E+03  0.00000000000E+00 0. -1.
         21   -1    0    0  503  504 -0.00000000000E+00 -0.00000000000E+00 -0.25651025301E+03  0.25651025301E+03  0.00000000000E+00 0. -1.
         -6    2    1    2    0  504 -0.98883611615E+02 -0.23999056621E+02 -0.17193818805E+03  0.26420079918E+03  0.17287393792E+03 0.  0.
        -24    2    3    3    0    0 -0.88625729436E+02  0.46470627817E+02 -0.12419588252E+03  0.17833684685E+03  0.79783297396E+02 0.  0.
          6    2    1    2  502    0  0.98883611615E+02  0.23999056621E+02  0.22064221964E+03  0.29752373844E+03  0.17170749104E+03 0.  0.
         24    2    5    5    0    0  0.11030457837E+02  0.14861233625E+02  0.35210852878E+02  0.92076523273E+02  0.83040681070E+02 0.  0.
          2    1    6    6  501    0  0.31885721872E+02  0.35490358916E+02  0.19810464214E+01  0.47751328570E+02  0.00000000000E+00 0. -1.
         -1    1    6    6    0  501 -0.20855264035E+02 -0.20629125291E+02  0.33229806457E+02  0.44325194703E+02  0.00000000000E+00 0.  1.
          5    1    5    5  502    0  0.87853153778E+02  0.91378229967E+01  0.18543136677E+03  0.20544721516E+03  0.47000000000E+01 0. -1.
         13    1    4    4    0    0  0.30721762705E+01 -0.78241052812E+01 -0.44445394827E+02  0.45233262228E+02  0.00000000000E+00 0. -1.
        -14    1    4    4    0    0 -0.91697905706E+02  0.54294733098E+02 -0.79750487691E+02  0.13310358462E+03  0.00000000000E+00 0.  1.
         -5    1    3    3    0  504 -0.10257882180E+02 -0.70469684439E+02 -0.47742305534E+02  0.85863952328E+02  0.47000000000E+01 0.  1.
<mgrwt>
<rscale>  2 0.20034585E+03</rscale>
<asrwt>0</asrwt>
<pdfrwt beam="1">  1       21 0.46956044E-01 0.20059741E+03</pdfrwt>
<pdfrwt beam="2">  1       21 0.39463116E-01 0.20059741E+03</pdfrwt>
<totfact> 0.26750868E+04</totfact>
</mgrwt>
</event>
<event>
12    1  0.1410528E-001  0.2512267E+03  0.7546771E-02  0.1112653E+00
         21   -1    0    0  502  503  0.00000000000E+00  0.00000000000E+00  0.40131438731E+03  0.40131438731E+03  0.00000000000E+00 0.  1.
         21   -1    0    0  503  504 -0.00000000000E+00 -0.00000000000E+00 -0.15689401264E+03  0.15689401264E+03  0.00000000000E+00 0.  1.
         -6    2    1    2    0  504 -0.16701105282E+03  0.70089938385E+02  0.12925134168E+03  0.28184132417E+03  0.17298361615E+03 0.  0.
        -24    2    3    3    0    0 -0.79680090346E+02  0.87965437753E+01 -0.55424388102E+01  0.10986740031E+03  0.74925503282E+02 0.  0.
          6    2    1    2  502    0  0.16701105282E+03 -0.70089938385E+02  0.11516903298E+03  0.27636707578E+03  0.17409641924E+03 0.  0.
         24    2    5    5    0    0  0.13188020422E+03 -0.11076081034E+03  0.59641483837E+02  0.19894811774E+03  0.79767797936E+02 0.  0.
          2    1    6    6  501    0  0.12407705379E+03 -0.89013531883E+02  0.21298968497E+02  0.15418226290E+03  0.00000000000E+00 0. -1.
         -1    1    6    6    0  501  0.78031504283E+01 -0.21747278461E+02  0.38342515340E+02  0.44765854841E+02  0.00000000000E+00 0.  1.
          5    1    5    5  502    0  0.35130848603E+02  0.40670871960E+02  0.55527549146E+02  0.77418958038E+02  0.47000000000E+01 0. -1.
         11    1    4    4    0    0 -0.65026582698E+02  0.23327773838E+02 -0.32146659804E+02  0.76197435824E+02  0.00000000000E+00 0. -1.
        -12    1    4    4    0    0 -0.14653507648E+02 -0.14531230063E+02  0.26604220993E+02  0.33669964482E+02  0.00000000000E+00 0.  1.
         -5    1    3    3    0  504 -0.87330962473E+02  0.61293394609E+02  0.13479378049E+03  0.17197392386E+03  0.47000000000E+01 0.  1.
<mgrwt>
<rscale>  2 0.25103401E+03</rscale>
<asrwt>0</asrwt>
<pdfrwt beam="1">  1       21 0.61740675E-01 0.25122670E+03</pdfrwt>
<pdfrwt beam="2">  1       21 0.24137541E-01 0.25122670E+03</pdfrwt>
<totfact> 0.38376192E+04</totfact>
</mgrwt>
</event>
<event>
12    1  0.1410528E-001  0.1792296E+03  0.7546771E-02  0.1171142E+00
         21   -1    0    0  502  503  0.00000000000E+00  0.00000000000E+00  0.23060008909E+04  0.23060008909E+04  0.00000000000E+00 0. -1.
         21   -1    0    0  503  504 -0.00000000000E+00 -0.00000000000E+00 -0.13467484318E+02  0.13467484318E+02  0.00000000000E+00 0. -1.
         -6    2    1    2    0  504 -0.22638351449E+02  0.28135534051E+02  0.99862978297E+03  0.10145859740E+04  0.17555384371E+03 0.  0.
        -24    2    3    3    0    0 -0.74062556675E+02  0.17287926443E+02  0.85548670208E+03  0.86202729326E+03  0.73820201729E+02 0.  0.
          6    2    1    2  502    0  0.22638351449E+02 -0.28135534051E+02  0.12939036236E+04  0.13048824012E+04  0.16500724374E+03 0.  0.
         24    2    5    5    0    0 -0.22540685988E+02 -0.56095542937E+02  0.57825901916E+03  0.58725283281E+03  0.82629316475E+02 0.  0.
          4    1    6    6  501    0 -0.18760395923E+02 -0.65570207062E+02  0.57016850431E+03  0.57423299088E+03  0.00000000000E+00 0. -1.
         -3    1    6    6    0  501 -0.37802900653E+01  0.94746641255E+01  0.80905148459E+01  0.13019841925E+02  0.00000000000E+00 0.  1.
          5    1    5    5  502    0  0.45179037437E+02  0.27960008885E+02  0.71564460445E+03  0.71762956837E+03  0.47000000000E+01 0. -1.
         11    1    4    4    0    0 -0.14877373375E+02  0.38833585254E+01  0.25162114050E+02  0.29488111086E+02  0.00000000000E+00 0. -1.
        -12    1    4    4    0    0 -0.59185183300E+02  0.13404567918E+02  0.83032458803E+03  0.83253918218E+03  0.00000000000E+00 0.  1.
         -5    1    3    3    0  504  0.51424205226E+02  0.10847607608E+02  0.14314308089E+03  0.15255868078E+03  0.47000000000E+01 0.  1.
<mgrwt>
<rscale>  2 0.17659276E+03</rscale>
<asrwt>0</asrwt>
<pdfrwt beam="1">  1       21 0.35476905E+00 0.17922962E+03</pdfrwt>
<pdfrwt beam="2">  1       21 0.20719225E-02 0.17922962E+03</pdfrwt>
<totfact> 0.19345604E+04</totfact>
</mgrwt>
</event>
<event>
12    1  0.1410528E-001  0.1965250E+03  0.7546771E-02  0.1152906E+00
         21   -1    0    0  502  503  0.00000000000E+00  0.00000000000E+00  0.68940851642E+03  0.68940851642E+03  0.00000000000E+00 0.  1.
         21   -1    0    0  503  504 -0.00000000000E+00 -0.00000000000E+00 -0.10944697867E+03  0.10944697867E+03  0.00000000000E+00 0. -1.
         -6    2    1    2    0  504  0.48268722101E+02 -0.78925692147E+02  0.10573542412E+02  0.19680923171E+03  0.17338667617E+03 0.  0.
        -24    2    3    3    0    0 -0.31164993923E+02 -0.46289276165E+01 -0.15080433562E+02  0.84961384418E+02  0.77448909280E+02 0.  0.
          6    2    1    2  502    0 -0.48268722101E+02  0.78925692147E+02  0.56938799534E+03  0.60204626337E+03  0.17233072737E+03 0.  0.
         24    2    5    5    0    0  0.73845338667E+00 -0.15094371463E+02  0.18038613129E+03  0.19882670055E+03  0.82246672440E+02 0.  0.
          4    1    6    6  501    0  0.16681103193E+01 -0.33803554089E+02  0.24408201632E+02  0.41727966258E+02  0.00000000000E+00 0. -1.
         -3    1    6    6    0  501 -0.92965693268E+00  0.18709182626E+02  0.15597792966E+03  0.15709873430E+03  0.00000000000E+00 0.  1.
          5    1    5    5  502    0 -0.49007175488E+02  0.94020063609E+02  0.38900186404E+03  0.40321956282E+03  0.47000000000E+01 0. -1.
         13    1    4    4    0    0 -0.13992142368E+02 -0.17305844555E+02 -0.43828812539E+02  0.49155234842E+02  0.00000000000E+00 0. -1.
        -14    1    4    4    0    0 -0.17172851555E+02  0.12676916938E+02  0.28748378977E+02  0.35806149575E+02  0.00000000000E+00 0.  1.
         -5    1    3    3    0  504  0.79433716024E+02 -0.74296764530E+02  0.25653975974E+02  0.11184784729E+03  0.47000000000E+01 0.  1.
<mgrwt>
<rscale>  2 0.19629183E+03</rscale>
<asrwt>0</asrwt>
<pdfrwt beam="1">  1       21 0.10606285E+00 0.19652500E+03</pdfrwt>
<pdfrwt beam="2">  1       21 0.16837997E-01 0.19652500E+03</pdfrwt>
<totfact> 0.22589784E+04</totfact>
</mgrwt>
</event>
<event>
12    1  0.1410528E-001  0.1799729E+03  0.7546771E-02  0.1168084E+00
         21   -1    0    0  502  503  0.00000000000E+00  0.00000000000E+00  0.40589417568E+03  0.40589417568E+03  0.00000000000E+00 0.  1.
         21   -1    0    0  503  504 -0.00000000000E+00 -0.00000000000E+00 -0.22167975597E+03  0.22167975597E+03  0.00000000000E+00 0.  1.
         -6    2    1    2    0  504  0.32186640326E+02  0.35160225551E+02 -0.15924089345E+03  0.24030794651E+03  0.17354545726E+03 0.  0.
        -24    2    3    3    0    0  0.13541478717E+02 -0.22345980539E+02 -0.17154523818E+02  0.85824186119E+02  0.79929961488E+02 0.  0.
          6    2    1    2  502    0 -0.32186640326E+02 -0.35160225551E+02  0.34345531316E+03  0.38726598514E+03  0.17245628383E+03 0.  0.
         24    2    5    5    0    0  0.21250578537E+02 -0.71293969552E+02  0.23044004432E+03  0.25705183535E+03  0.86247404874E+02 0.  0.
          2    1    6    6  501    0 -0.15473056426E+02 -0.27693278096E+02  0.16718998316E+02  0.35858862664E+02  0.00000000000E+00 0. -1.
         -1    1    6    6    0  501  0.36723634962E+02 -0.43600691456E+02  0.21372104600E+03  0.22119297268E+03  0.00000000000E+00 0.  1.
          5    1    5    5  502    0 -0.53437218862E+02  0.36133744001E+02  0.11301526884E+03  0.13021414979E+03  0.47000000000E+01 0. -1.
         13    1    4    4    0    0  0.39218910644E+02  0.10831120501E+02 -0.16390175028E+02  0.43864267472E+02  0.00000000000E+00 0. -1.
        -14    1    4    4    0    0 -0.25677431927E+02 -0.33177101040E+02 -0.76434878952E+00  0.41959918647E+02  0.00000000000E+00 0.  1.
         -5    1    3    3    0  504  0.18645161609E+02  0.57506206090E+02 -0.14208636963E+03  0.15448376039E+03  0.47000000000E+01 0.  1.
<mgrwt>
<rscale>  2 0.17970982E+03</rscale>
<asrwt>0</asrwt>
<pdfrwt beam="1">  1       21 0.62445258E-01 0.17997291E+03</pdfrwt>
<pdfrwt beam="2">  1       21 0.34104578E-01 0.17997291E+03</pdfrwt>
<totfact> 0.19846045E+04</totfact>
</mgrwt>
</event>
<event>
12    1  0.1410528E-001  0.1902206E+03  0.7546771E-02  0.1158735E+00
         21   -1    0    0  502  503  0.00000000000E+00  0.00000000000E+00  0.30351352857E+04  0.30351352857E+04  0.00000000000E+00 0. -1.
         21   -1    0    0  503  504 -0.00000000000E+00 -0.00000000000E+00 -0.18199184544E+02  0.18199184544E+02  0.00000000000E+00 0.  1.
         -6    2    1    2    0  504  0.44299108640E+02 -0.65993602358E+02  0.24197488166E+04  0.24272140863E+04  0.17281874582E+03 0.  0.
        -24    2    3    3    0    0 -0.35326085251E+01 -0.78572224477E+02  0.91229406846E+03  0.91894090067E+03  0.77368196336E+02 0.  0.
          6    2    1    2  502    0 -0.44299108640E+02  0.65993602358E+02  0.59718728457E+03  0.62612038392E+03  0.17051837358E+03 0.  0.
         24    2    5    5    0    0 -0.55111382056E+02  0.10535946277E+03  0.46727639347E+03  0.48986508733E+03  0.86502572568E+02 0.  0.
          2    1    6    6  501    0 -0.10785817196E+02  0.53085980575E+01  0.20922137077E+03  0.20956645021E+03  0.00000000000E+00 0. -1.
         -1    1    6    6    0  501 -0.44325564860E+02  0.10005086472E+03  0.25805502270E+03  0.28029863712E+03  0.00000000000E+00 0.  1.
          5    1    5    5  502    0  0.10812273415E+02 -0.39365860417E+02  0.12991089110E+03  0.13625529659E+03  0.47000000000E+01 0. -1.
         11    1    4    4    0    0 -0.13158353235E+02  0.63438589912E+01  0.33875683193E+03  0.33907164138E+03  0.00000000000E+00 0. -1.
        -12    1    4    4    0    0  0.96257447099E+01 -0.84916083468E+02  0.57353723653E+03  0.57986925930E+03  0.00000000000E+00 0.  1.
         -5    1    3    3    0  504  0.47831717165E+02  0.12578622119E+02  0.15074547481E+04  0.15082731856E+04  0.47000000000E+01 0.  1.
<mgrwt>
<rscale>  2 0.18969659E+03</rscale>
<asrwt>0</asrwt>
<pdfrwt beam="1">  1       21 0.46694349E+00 0.19022062E+03</pdfrwt>
<pdfrwt beam="2">  1       21 0.27998770E-02 0.19022062E+03</pdfrwt>
<totfact> 0.22804726E+03</totfact>
</mgrwt>
</event>
<event>
12    1  0.1410528E-001  0.2129309E+03  0.7546771E-02  0.1139473E+00
         21   -1    0    0  502  503  0.00000000000E+00  0.00000000000E+00  0.37949607332E+02  0.37949607332E+02  0.00000000000E+00 0.  1.
         21   -1    0    0  503  504 -0.00000000000E+00 -0.00000000000E+00 -0.28227794660E+04  0.28227794660E+04  0.00000000000E+00 0.  1.
         -6    2    1    2    0  504  0.76430932852E+02  0.97542222058E+02 -0.24792115980E+04  0.24882480581E+04  0.17184899945E+03 0.  0.
        -24    2    3    3    0    0  0.10387051372E+03  0.27978779797E+02 -0.18857753881E+04  0.18901003939E+04  0.68983973985E+02 0.  0.
          6    2    1    2  502    0 -0.76430932852E+02 -0.97542222058E+02 -0.30561826068E+03  0.37248101520E+03  0.17315719114E+03 0.  0.
         24    2    5    5    0    0 -0.30011910170E+02  0.59742977324E+01 -0.70276509015E+02  0.11117999030E+03  0.80534436974E+02 0.  0.
          4    1    6    6  501    0 -0.12966110725E+02 -0.33054926674E+01  0.17077841801E+02  0.21695598394E+02  0.00000000000E+00 0. -1.
         -3    1    6    6    0  501 -0.17045799444E+02  0.92797903998E+01 -0.87354350815E+02  0.89484391907E+02  0.00000000000E+00 0.  1.
          5    1    5    5  502    0 -0.46419022682E+02 -0.10351651979E+03 -0.23534175167E+03  0.26130102490E+03  0.47000000000E+01 0. -1.
         13    1    4    4    0    0  0.86674651842E+00  0.10378131529E+02 -0.38862477020E+02  0.40233679718E+02  0.00000000000E+00 0. -1.
        -14    1    4    4    0    0  0.10300376720E+03  0.17600648269E+02 -0.18469129111E+04  0.18498667142E+04  0.00000000000E+00 0.  1.
         -5    1    3    3    0  504 -0.27439580869E+02  0.69563442261E+02 -0.59343620982E+03  0.59814766423E+03  0.47000000000E+01 0.  1.
<mgrwt>
<rscale>  2 0.21266483E+03</rscale>
<asrwt>0</asrwt>
<pdfrwt beam="1">  1       21 0.58383996E-02 0.21293094E+03</pdfrwt>
<pdfrwt beam="2">  1       21 0.43427388E+00 0.21293094E+03</pdfrwt>
<totfact> 0.10575406E+03</totfact>
</mgrwt>
</event>
<event>
12    1  0.1410528E-001  0.1768015E+03  0.7546771E-02  0.1171581E+00
         21   -1    0    0  502  503  0.00000000000E+00  0.00000000000E+00  0.48658059226E+03  0.48658059226E+03  0.00000000000E+00 0.  1.
         21   -1    0    0  503  504 -0.00000000000E+00 -0.00000000000E+00 -0.14967932636E+03  0.14967932636E+03  0.00000000000E+00 0.  1.
         -6    2    1    2    0  504  0.25557917680E+02  0.12205101774E+02 -0.72687506546E+02  0.19116024599E+03  0.17451817777E+03 0.  0.
        -24    2    3    3    0    0  0.64160843097E+02 -0.32031202058E+02 -0.77535386865E+02  0.13206178263E+03  0.79284087456E+02 0.  0.
          6    2    1    2  502    0 -0.25557917680E+02 -0.12205101774E+02  0.40958877245E+03  0.44509967263E+03  0.17189701682E+03 0.  0.
         24    2    5    5    0    0 -0.80868521123E+02  0.76868545094E+01  0.28122905988E+03  0.30384366890E+03  0.81439459531E+02 0.  0.
          4    1    6    6  501    0 -0.16194591566E+02 -0.31568965354E+02  0.12987672863E+03  0.13463591278E+03  0.00000000000E+00 0. -1.
         -3    1    6    6    0  501 -0.64673929557E+02  0.39255819863E+02  0.15135233125E+03  0.16920775612E+03  0.00000000000E+00 0.  1.
          5    1    5    5  502    0  0.55310603443E+02 -0.19891956283E+02  0.12835971257E+03  0.14125600372E+03  0.47000000000E+01 0. -1.
         11    1    4    4    0    0  0.41443460811E+02  0.16769463163E+02 -0.10202926275E+02  0.45857115515E+02  0.00000000000E+00 0. -1.
        -12    1    4    4    0    0  0.22717382286E+02 -0.48800665221E+02 -0.67332460590E+02  0.86204667119E+02  0.00000000000E+00 0.  1.
         -5    1    3    3    0  504 -0.38602925417E+02  0.44236303831E+02  0.48478803196E+01  0.59098463355E+02  0.47000000000E+01 0.  1.
<mgrwt>
<rscale>  2 0.17615121E+03</rscale>
<asrwt>0</asrwt>
<pdfrwt beam="1">  1       21 0.74858552E-01 0.17680149E+03</pdfrwt>
<pdfrwt beam="2">  1       21 0.23027589E-01 0.17680149E+03</pdfrwt>
<totfact> 0.28525364E+04</totfact>
</mgrwt>
</event>
<event>
12    1  0.1410528E-001  0.2259437E+03  0.7546771E-02  0.1129542E+00
         21   -1    0    0  502  503  0.00000000000E+00  0.00000000000E+00  0.32606425546E+03  0.32606425546E+03  0.00000000000E+00 0. -1.
         21   -1    0    0  503  504 -0.00000000000E+00 -0.00000000000E+00 -0.33571889744E+03  0.33571889744E+03  0.00000000000E+00 0.  1.
         -6    2    1    2    0  504 -0.86625390853E+02  0.11772078979E+03 -0.24658377676E+03  0.33444601363E+03  0.17230332088E+03 0.  0.
        -24    2    3    3    0    0 -0.85286478049E+01  0.32270498670E+02 -0.18615468742E+03  0.20377613047E+03  0.75875033993E+02 0.  0.
          6    2    1    2  502    0  0.86625390853E+02 -0.11772078979E+03  0.23692913478E+03  0.32733713926E+03  0.17219769204E+03 0.  0.
         24    2    5    5    0    0 -0.16506508618E+02 -0.28453788584E+02  0.61219727857E+02  0.10484967473E+03  0.78508065192E+02 0.  0.
          2    1    6    6  501    0  0.28438611203E+02 -0.57868697091E+00  0.73954687766E+01  0.29390175981E+02  0.00000000000E+00 0. -1.
         -1    1    6    6    0  501 -0.44945119821E+02 -0.27875101613E+02  0.53824259080E+02  0.75459498747E+02  0.00000000000E+00 0.  1.
          5    1    5    5  502    0  0.10313189947E+03 -0.89267001206E+02  0.17570940693E+03  0.22248746454E+03  0.47000000000E+01 0. -1.
         11    1    4    4    0    0  0.14641992465E+02 -0.19763130905E+02 -0.40545453652E+02  0.47422601135E+02  0.00000000000E+00 0. -1.
        -12    1    4    4    0    0 -0.23170640270E+02  0.52033629575E+02 -0.14560923377E+03  0.15635352934E+03  0.00000000000E+00 0.  1.
         -5    1    3    3    0  504 -0.78096743048E+02  0.85450291120E+02 -0.60429089339E+02  0.13066988316E+03  0.47000000000E+01 0.  1.
<mgrwt>
<rscale>  2 0.22592361E+03</rscale>
<asrwt>0</asrwt>
<pdfrwt beam="1">  1       21 0.50163732E-01 0.22594375E+03</pdfrwt>
<pdfrwt beam="2">  1       21 0.51649061E-01 0.22594375E+03</pdfrwt>
<totfact> 0.13197759E+04</totfact>
</mgrwt>
</event>
<event>
12    1  0.1410528E-001  0.1941227E+03  0.7546771E-02  0.1155506E+00
         21   -1    0    0  502  503  0.00000000000E+00  0.00000000000E+00  0.10327580070E+03  0.10327580070E+03  0.00000000000E+00 0.  1.
         21   -1    0    0  503  504 -0.00000000000E+00 -0.00000000000E+00 -0.38288859684E+03  0.38288859684E+03  0.00000000000E+00 0.  1.
         -6    2    1    2    0  504  0.86124820828E+02  0.44940205603E+01 -0.20179092055E+03  0.28000574389E+03  0.17391365676E+03 0.  0.
        -24    2    3    3    0    0  0.89586198256E+01  0.46663502141E+02 -0.15701487734E+03  0.18121368044E+03  0.76986927279E+02 0.  0.
          6    2    1    2  502    0 -0.86124820828E+02 -0.44940205603E+01 -0.77821875597E+02  0.20615865366E+03  0.17031578075E+03 0.  0.
         24    2    5    5    0    0 -0.39807259510E+02 -0.59423886068E+02 -0.97823106217E+01  0.10709262006E+03  0.79103220694E+02 0.  0.
          4    1    6    6  501    0 -0.17193731777E+02 -0.73466440860E+02 -0.20827113516E+02  0.78273309643E+02  0.00000000000E+00 0. -1.
         -3    1    6    6    0  501 -0.22613527733E+02  0.14042554793E+02  0.11044802895E+02  0.28819310412E+02  0.00000000000E+00 0.  1.
          5    1    5    5  502    0 -0.46317561318E+02  0.54929865507E+02 -0.68039564976E+02  0.99066033600E+02  0.47000000000E+01 0. -1.
         11    1    4    4    0    0 -0.19675561844E+02  0.52330986604E+02 -0.70929926069E+02  0.90314529866E+02  0.00000000000E+00 0. -1.
        -12    1    4    4    0    0  0.28634181669E+02 -0.56674844632E+01 -0.86084951269E+02  0.90899150574E+02  0.00000000000E+00 0.  1.
         -5    1    3    3    0  504  0.77166201003E+02 -0.42169481581E+02 -0.44776043213E+02  0.98792063445E+02  0.47000000000E+01 0.  1.
<mgrwt>
<rscale>  2 0.19331354E+03</rscale>
<asrwt>0</asrwt>
<pdfrwt beam="1">  1       21 0.15888585E-01 0.19412275E+03</pdfrwt>
<pdfrwt beam="2">  1       21 0.58905938E-01 0.19412275E+03</pdfrwt>
<totfact> 0.95143908E+04</totfact>
</mgrwt>
</event>
<event>
12    1  0.1410528E-001  0.2249381E+03  0.7546771E-02  0.1130517E+00
         21   -1    0    0  502  503  0.00000000000E+00  0.00000000000E+00  0.29506787024E+03  0.29506787024E+03  0.00000000000E+00 0. -1.
         21   -1    0    0  503  504 -0.00000000000E+00 -0.00000000000E+00 -0.21361677917E+03  0.21361677917E+03  0.00000000000E+00 0. -1.
         -6    2    1    2    0  504  0.30919157092E+02  0.13846156529E+03 -0.73600417557E+02  0.23667311903E+03  0.17455527625E+03 0.  0.
        -24    2    3    3    0    0  0.78726506270E+01  0.84414378942E+02 -0.11559716282E+03  0.16429870072E+03  0.80271993922E+02 0.  0.
          6    2    1    2  502    0 -0.30919157092E+02 -0.13846156529E+03  0.15505150863E+03  0.27201153038E+03  0.17268961461E+03 0.  0.
         24    2    5    5    0    0  0.21597309528E+02 -0.92356771005E+02  0.28823321456E+02  0.12765337662E+03  0.80426262952E+02 0.  0.
          2    1    6    6  501    0  0.23884019149E+02 -0.39890792826E+01  0.30867894294E+02  0.39232461334E+02  0.00000000000E+00 0. -1.
         -1    1    6    6    0  501 -0.22867096208E+01 -0.88367691722E+02 -0.20445728377E+01  0.88420915282E+02  0.00000000000E+00 0.  1.
          5    1    5    5  502    0 -0.52516466620E+02 -0.46104794284E+02  0.12622818717E+03  0.14435815376E+03  0.47000000000E+01 0. -1.
         11    1    4    4    0    0 -0.30188293474E+02  0.69599777682E+02 -0.77333184263E+02  0.10833228284E+03  0.00000000000E+00 0. -1.
        -12    1    4    4    0    0  0.38060944101E+02  0.14814601260E+02 -0.38263978553E+02  0.55966417887E+02  0.00000000000E+00 0.  1.
         -5    1    3    3    0  504  0.23046506465E+02  0.54047186346E+02  0.41996745259E+02  0.72374418302E+02  0.47000000000E+01 0.  1.
<mgrwt>
<rscale>  2 0.22457604E+03</rscale>
<asrwt>0</asrwt>
<pdfrwt beam="1">  1       21 0.45395057E-01 0.22493809E+03</pdfrwt>
<pdfrwt beam="2">  1       21 0.32864120E-01 0.22493809E+03</pdfrwt>
<totfact> 0.40828514E+04</totfact>
</mgrwt>
</event>
<event>
12    1  0.1410528E-001  0.1770723E+03  0.7546771E-02  0.1171612E+00
         21   -1    0    0  502  503  0.00000000000E+00  0.00000000000E+00  0.18855163401E+03  0.18855163401E+03  0.00000000000E+00 0. -1.
         21   -1    0    0  503  504 -0.00000000000E+00 -0.00000000000E+00 -0.17879829069E+03  0.17879829069E+03  0.00000000000E+00 0. -1.
         -6    2    1    2    0  504  0.19671961609E+02 -0.22579825359E+02 -0.50173487747E+02  0.18041193998E+03  0.17068759365E+03 0.  0.
        -24    2    3    3    0    0 -0.44985681865E+02  0.13196320520E+02 -0.60531419809E+02  0.10564617087E+03  0.72795646756E+02 0.  0.
          6    2    1    2  502    0 -0.19671961609E+02  0.22579825359E+02  0.59926831067E+02  0.18693798473E+03  0.17452148998E+03 0.  0.
         24    2    5    5    0    0 -0.54103711604E+02  0.66795736335E+02  0.55839796703E+02  0.13055193999E+03  0.80850752242E+02 0.  0.
          4    1    6    6  501    0 -0.11697854605E+02  0.11744877002E+02  0.58707449274E+02  0.61002840412E+02  0.00000000000E+00 0. -1.
         -3    1    6    6    0  501 -0.42405856999E+02  0.55050859333E+02 -0.28676525713E+01  0.69549099580E+02  0.00000000000E+00 0.  1.
          5    1    5    5  502    0  0.34431749994E+02 -0.44215910975E+02  0.40870343649E+01  0.56386044736E+02  0.47000000000E+01 0. -1.
         11    1    4    4    0    0  0.15811984399E+02  0.74320612532E+00 -0.35237369305E+02  0.38629566416E+02  0.00000000000E+00 0. -1.
        -12    1    4    4    0    0 -0.60797666264E+02  0.12453114395E+02 -0.25294050504E+02  0.67016604451E+02  0.00000000000E+00 0.  1.
         -5    1    3    3    0  504  0.64657643474E+02 -0.35776145880E+02  0.10357932062E+02  0.74765769108E+02  0.47000000000E+01 0.  1.
<mgrwt>
<rscale>  2 0.17612025E+03</rscale>
<asrwt>0</asrwt>
<pdfrwt beam="1">  1       21 0.29007944E-01 0.17707226E+03</pdfrwt>
<pdfrwt beam="2">  1       21 0.27507429E-01 0.17707226E+03</pdfrwt>
<totfact> 0.14417554E+05</totfact>
</mgrwt>
</event>
<event>
12    1  0.1410528E-001  0.2137231E+03  0.7546771E-02  0.1139312E+00
         21   -1    0    0  502  503  0.00000000000E+00  0.00000000000E+00  0.33581940293E+03  0.33581940293E+03  0.00000000000E+00 0.  1.
         21   -1    0    0  503  504 -0.00000000000E+00 -0.00000000000E+00 -0.15286042988E+03  0.15286042988E+03  0.00000000000E+00 0.  1.
         -6    2    1    2    0  504 -0.84580087990E-01 -0.12486150334E+03  0.47208649948E+01  0.21038795041E+03  0.16926429316E+03 0.  0.
        -24    2    3    3    0    0 -0.15350675634E+02 -0.54924857885E+02  0.47917037003E+02  0.12664914622E+03  0.10242841670E+03 0.  0.
          6    2    1    2  502    0  0.84580087990E-01  0.12486150334E+03  0.17823810806E+03  0.27829188240E+03  0.17345646853E+03 0.  0.
         24    2    5    5    0    0  0.54426130966E+02  0.43998442413E+01  0.85057978733E+02  0.11652463613E+03  0.57979036882E+02 0.  0.
          2    1    6    6  501    0  0.54365909052E+02  0.23540084409E+02  0.72523267929E+02  0.93645138860E+02  0.00000000000E+00 0. -1.
         -1    1    6    6    0  501  0.60221914127E-01 -0.19140240168E+02  0.12534710803E+02  0.22879497269E+02  0.00000000000E+00 0.  1.
          5    1    5    5  502    0 -0.54341550878E+02  0.12046165910E+03  0.93180129328E+02  0.16176724627E+03  0.47000000000E+01 0. -1.
         13    1    4    4    0    0  0.14477387359E+02  0.25507132209E+02  0.23137939459E+02  0.37357365816E+02  0.00000000000E+00 0. -1.
        -14    1    4    4    0    0 -0.29828062994E+02 -0.80431990095E+02  0.24779097543E+02  0.89291780403E+02  0.00000000000E+00 0.  1.
         -5    1    3    3    0  504  0.15266095546E+02 -0.69936645456E+02 -0.43196172008E+02  0.83738804190E+02  0.47000000000E+01 0.  1.
<mgrwt>
<rscale>  2 0.21287096E+03</rscale>
<asrwt>0</asrwt>
<pdfrwt beam="1">  1       21 0.51664523E-01 0.21372307E+03</pdfrwt>
<pdfrwt beam="2">  1       21 0.23516989E-01 0.21372307E+03</pdfrwt>
<totfact> 0.59965915E+04</totfact>
</mgrwt>
</event>
<event>
12    1  0.1410528E-001  0.2499255E+03  0.7546771E-02  0.1113498E+00
         21   -1    0    0  502  503  0.00000000000E+00  0.00000000000E+00  0.12670860870E+04  0.12670860870E+04  0.00000000000E+00 0.  1.
         21   -1    0    0  503  504 -0.00000000000E+00 -0.00000000000E+00 -0.19540465103E+03  0.19540465103E+03  0.00000000000E+00 0.  1.
         -6    2    1    2    0  504 -0.16858106761E+03 -0.63378240758E+02 -0.97114952755E+02  0.26727202786E+03  0.17194954223E+03 0.  0.
        -24    2    3    3    0    0 -0.10334946811E+03  0.29006310392E+02 -0.72137309744E+02  0.15135809637E+03  0.78632075374E+02 0.  0.
          6    2    1    2  502    0  0.16858106761E+03  0.63378240758E+02  0.11687963887E+04  0.11952187101E+04  0.17328124278E+03 0.  0.
         24    2    5    5    0    0  0.37588409799E+02 -0.88670490793E+01  0.44433772897E+03  0.45546138646E+03  0.92290541528E+02 0.  0.
          4    1    6    6  501    0 -0.16655022220E+02 -0.17542507537E+01  0.14488067837E+02  0.22144328179E+02  0.00000000000E+00 0. -1.
         -3    1    6    6    0  501  0.54243432019E+02 -0.71127983256E+01  0.42984966114E+03  0.43331705828E+03  0.00000000000E+00 0.  1.
          5    1    5    5  502    0  0.13099265781E+03  0.72245289838E+02  0.72445865972E+03  0.73975732368E+03  0.47000000000E+01 0. -1.
         13    1    4    4    0    0 -0.77130698299E+02  0.23128451673E+02 -0.69176409880E+01  0.80820317085E+02  0.00000000000E+00 0. -1.
        -14    1    4    4    0    0 -0.26218769814E+02  0.58778587191E+01 -0.65219668756E+02  0.70537779284E+02  0.00000000000E+00 0.  1.
         -5    1    3    3    0  504 -0.65231599493E+02 -0.92384551150E+02 -0.24977643011E+02  0.11591393149E+03  0.47000000000E+01 0.  1.
<mgrwt>
<rscale>  2 0.24969484E+03</rscale>
<asrwt>0</asrwt>
<pdfrwt beam="1">  1       21 0.19493632E+00 0.24992552E+03</pdfrwt>
<pdfrwt beam="2">  1       21 0.30062255E-01 0.24992552E+03</pdfrwt>
<totfact> 0.14550409E+03</totfact>
</mgrwt>
</event>
<event>
12    1  0.1410528E-001  0.1811342E+03  0.7546771E-02  0.1166783E+00
         21   -1    0    0  502  503  0.00000000000E+00  0.00000000000E+00  0.31768642315E+03  0.31768642315E+03  0.00000000000E+00 0.  1.
         21   -1    0    0  503  504 -0.00000000000E+00 -0.00000000000E+00 -0.15906546007E+03  0.15906546007E+03  0.00000000000E+00 0.  1.
         -6    2    1    2    0  504 -0.45707534153E+02  0.25889496053E+02  0.22065813524E+03  0.28528855091E+03  0.17303207780E+03 0.  0.
        -24    2    3    3    0    0 -0.25328469891E+02  0.50646045341E+02  0.23187134262E+03  0.25099541730E+03  0.77639079609E+02 0.  0.
          6    2    1    2  502    0  0.45707534153E+02 -0.25889496053E+02 -0.62037172157E+02  0.19146333232E+03  0.17334979725E+03 0.  0.
         24    2    5    5    0    0 -0.32787542770E+02  0.20484060087E+01 -0.17014448284E-01  0.87489328667E+02  0.81087381342E+02 0.  0.
          4    1    6    6  501    0 -0.34207670972E+02 -0.34577364124E+02 -0.96594039803E+01  0.49588939779E+02  0.00000000000E+00 0. -1.
         -3    1    6    6    0  501  0.14201282021E+01  0.36625770133E+02  0.96423895320E+01  0.37900388888E+02  0.00000000000E+00 0.  1.
          5    1    5    5  502    0  0.78495076923E+02 -0.27937902061E+02 -0.62020157708E+02  0.10397400365E+03  0.47000000000E+01 0. -1.
         11    1    4    4    0    0  0.10084742781E+02  0.46360011181E+02  0.65708021384E+02  0.81046263009E+02  0.00000000000E+00 0. -1.
        -12    1    4    4    0    0 -0.35413212672E+02  0.42860341609E+01  0.16616332124E+03  0.16994915429E+03  0.00000000000E+00 0.  1.
         -5    1    3    3    0  504 -0.20379064261E+02 -0.24756549289E+02 -0.11213207381E+02  0.34293133608E+02  0.47000000000E+01 0.  1.
<mgrwt>
<rscale>  2 0.18105814E+03</rscale>
<asrwt>0</asrwt>
<pdfrwt beam="1">  1       21 0.48874834E-01 0.18113420E+03</pdfrwt>
<pdfrwt beam="2">  1       21 0.24471609E-01 0.18113420E+03</pdfrwt>
<totfact> 0.63351215E+04</totfact>
</mgrwt>
</event>
<event>
12    1  0.1410528E-001  0.2564555E+03  0.7546771E-02  0.1109662E+00
         21   -1    0    0  502  503  0.00000000000E+00  0.00000000000E+00  0.81949764618E+03  0.81949764618E+03  0.00000000000E+00 0. -1.
         21   -1    0    0  503  504 -0.00000000000E+00 -0.00000000000E+00 -0.26389103480E+03  0.26389103480E+03  0.00000000000E+00 0.  1.
         -6    2    1    2    0  504 -0.10094798896E+03 -0.15705241553E+03 -0.17539314132E+03  0.30870806523E+03  0.17228452576E+03 0.  0.
        -24    2    3    3    0    0 -0.83483408381E+02 -0.11006099071E+03 -0.19904113475E+03  0.25307962669E+03  0.73137015049E+02 0.  0.
          6    2    1    2  502    0  0.10094798896E+03  0.15705241553E+03  0.73099975270E+03  0.77468061576E+03  0.17582224056E+03 0.  0.
         24    2    5    5    0    0  0.76174428187E+02  0.84000085169E+02  0.23760822494E+03  0.27527330508E+03  0.80368937493E+02 0.  0.
          4    1    6    6  501    0  0.55596912353E+02  0.32205073624E+02  0.19443089916E+03  0.20477196580E+03  0.00000000000E+00 0. -1.
         -3    1    6    6    0  501  0.20577515834E+02  0.51795011545E+02  0.43177325781E+02  0.70501339281E+02  0.00000000000E+00 0.  1.
          5    1    5    5  502    0  0.24773560770E+02  0.73052330358E+02  0.49339152776E+03  0.49940731067E+03  0.47000000000E+01 0. -1.
         13    1    4    4    0    0 -0.69026705055E+02 -0.33378478144E+02 -0.80602760441E+02  0.11124573612E+03  0.00000000000E+00 0. -1.
        -14    1    4    4    0    0 -0.14456703326E+02 -0.76682512569E+02 -0.11843837431E+03  0.14183389057E+03  0.00000000000E+00 0.  1.
         -5    1    3    3    0  504 -0.17464580576E+02 -0.46991424814E+02  0.23647993429E+02  0.55628438536E+02  0.47000000000E+01 0.  1.
<mgrwt>
<rscale>  2 0.25585026E+03</rscale>
<asrwt>0</asrwt>
<pdfrwt beam="1">  1       21 0.12607656E+00 0.25645549E+03</pdfrwt>
<pdfrwt beam="2">  1       21 0.40598621E-01 0.25645549E+03</pdfrwt>
<totfact> 0.25945456E+03</totfact>
</mgrwt>
</event>
<event>
12    1  0.1410528E-001  0.2107211E+03  0.7546771E-02  0.1141313E+00
         21   -1    0    0  502  503  0.00000000000E+00  0.00000000000E+00  0.19731418792E+04  0.19731418792E+04  0.00000000000E+00 0. -1.
         21   -1    0    0  503  504 -0.00000000000E+00 -0.00000000000E+00 -0.38141113903E+02  0.38141113903E+02  0.00000000000E+00 0.  1.
         -6    2    1    2    0  504  0.57542708976E+02 -0.10459985152E+03  0.31792491819E+03  0.38053541260E+03  0.17169348951E+03 0.  0.
        -24    2    3    3    0    0 -0.21351890712E+02 -0.10137277017E+03  0.19172557741E+03  0.23159537255E+03  0.78392460012E+02 0.  0.
          6    2    1    2  502    0 -0.57542708976E+02  0.10459985152E+03  0.16170758471E+04  0.16307475805E+04  0.17364067419E+03 0.  0.
         24    2    5    5    0    0 -0.59070873027E+02  0.63842275031E+02  0.54115405208E+03  0.55404273964E+03  0.80934820351E+02 0.  0.
          4    1    6    6  501    0  0.33458476587E+01 -0.11756722553E+02  0.17845903388E+02  0.21630799557E+02  0.00000000000E+00 0. -1.
         -3    1    6    6    0  501 -0.62416720686E+02  0.75598997584E+02  0.52330814869E+03  0.53241194008E+03  0.00000000000E+00 0.  1.
          5    1    5    5  502    0  0.15281640505E+01  0.40757576493E+02  0.10759217951E+04  0.10767048409E+04  0.47000000000E+01 0. -1.
         13    1    4    4    0    0 -0.20562192885E+02 -0.19647960654E+02  0.11848782992E+03  0.12185323948E+03  0.00000000000E+00 0. -1.
        -14    1    4    4    0    0 -0.78969782725E+00 -0.81724809519E+02  0.73237747491E+02  0.10974213307E+03  0.00000000000E+00 0.  1.
         -5    1    3    3    0  504  0.78894599688E+02 -0.32270813519E+01  0.12619934079E+03  0.14894004005E+03  0.47000000000E+01 0.  1.
<mgrwt>
<rscale>  2 0.21031953E+03</rscale>
<asrwt>0</asrwt>
<pdfrwt beam="1">  1       21 0.30356021E+00 0.21072109E+03</pdfrwt>
<pdfrwt beam="2">  1       21 0.58678652E-02 0.21072109E+03</pdfrwt>
<totfact> 0.65394314E+03</totfact>
</mgrwt>
</event>
<event>
12    1  0.1410528E-001  0.2029737E+03  0.7546771E-02  0.1147443E+00
         21   -1    0    0  502  503  0.00000000000E+00  0.00000000000E+00  0.80631467526E+03  0.80631467526E+03  0.00000000000E+00 0. -1.
         21   -1    0    0  503  504 -0.00000000000E+00 -0.00000000000E+00 -0.16608231725E+03  0.16608231725E+03  0.00000000000E+00 0.  1.
         -6    2    1    2    0  504 -0.98366353236E+02 -0.37055447570E+02 -0.84620708647E+02  0.21990677956E+03  0.17363548520E+03 0.  0.
        -24    2    3    3    0    0  0.43416175975E+01 -0.28825191882E+02 -0.78171189546E+02  0.11656099746E+03  0.81400183807E+02 0.  0.
          6    2    1    2  502    0  0.98366353236E+02  0.37055447570E+02  0.72485306666E+03  0.75249021295E+03  0.17257029495E+03 0.  0.
         24    2    5    5    0    0  0.20751597073E+02  0.36837154574E+02  0.59449264707E+03  0.60070079625E+03  0.75048880466E+02 0.  0.
          4    1    6    6  501    0  0.41943273774E+02  0.32797267621E+02  0.25374689021E+03  0.25927279701E+03  0.00000000000E+00 0. -1.
         -3    1    6    6    0  501 -0.21191676702E+02  0.40398869527E+01  0.34074575686E+03  0.34142799924E+03  0.00000000000E+00 0.  1.
          5    1    5    5  502    0  0.77614756163E+02  0.21829299649E+00  0.13036041959E+03  0.15178941670E+03  0.47000000000E+01 0. -1.
         11    1    4    4    0    0  0.81577384320E+01 -0.11910630382E+02  0.15568067038E+02  0.21231498387E+02  0.00000000000E+00 0. -1.
        -12    1    4    4    0    0 -0.38161208345E+01 -0.16914561500E+02 -0.93739256584E+02  0.95329499075E+02  0.00000000000E+00 0.  1.
         -5    1    3    3    0  504 -0.10270797083E+03 -0.82302556882E+01 -0.64495191008E+01  0.10334578210E+03  0.47000000000E+01 0.  1.
<mgrwt>
<rscale>  2 0.20274571E+03</rscale>
<asrwt>0</asrwt>
<pdfrwt beam="1">  1       21 0.12404841E+00 0.20297371E+03</pdfrwt>
<pdfrwt beam="2">  1       21 0.25551126E-01 0.20297371E+03</pdfrwt>
<totfact> 0.70083972E+03</totfact>
</mgrwt>
</event>
<event>
12    1  0.1410528E-001  0.2731768E+03  0.7546771E-02  0.1099585E+00
         21   -1    0    0  502  503  0.00000000000E+00  0.00000000000E+00  0.87602071361E+02  0.87602071361E+02  0.00000000000E+00 0. -1.
         21   -1    0    0  503  504 -0.00000000000E+00 -0.00000000000E+00 -0.12782223251E+04  0.12782223251E+04  0.00000000000E+00 0.  1.
         -6    2    1    2    0  504  0.17566814167E+03  0.11523569401E+03 -0.99027265225E+03  0.10270549406E+04  0.17338790079E+03 0.  0.
        -24    2    3    3    0    0  0.12758445066E+03  0.45440121112E+01 -0.57743462805E+03  0.59691308729E+03  0.81092811101E+02 0.  0.
          6    2    1    2  502    0 -0.17566814167E+03 -0.11523569401E+03 -0.20034760152E+03  0.33876945584E+03  0.17460533098E+03 0.  0.
         24    2    5    5    0    0 -0.16528368813E+03 -0.41871457528E+02 -0.18347436064E+03  0.26263178890E+03  0.78998094977E+02 0.  0.
          4    1    6    6  501    0 -0.34721254422E+02 -0.21239035288E+02 -0.95603360272E+02  0.10390699988E+03  0.00000000000E+00 0. -1.
         -3    1    6    6    0  501 -0.13056243371E+03 -0.20632422239E+02 -0.87871000365E+02  0.15872478902E+03  0.00000000000E+00 0.  1.
          5    1    5    5  502    0 -0.10384453542E+02 -0.73364236484E+02 -0.16873240880E+02  0.76137666947E+02  0.47000000000E+01 0. -1.
         11    1    4    4    0    0 -0.49722967625E+01 -0.15428424872E+02 -0.43951806337E+02  0.46845718154E+02  0.00000000000E+00 0. -1.
        -12    1    4    4    0    0  0.13255674742E+03  0.19972436984E+02 -0.53348282171E+03  0.55006736913E+03  0.00000000000E+00 0.  1.
         -5    1    3    3    0  504  0.48083691012E+02  0.11069168190E+03 -0.41283802421E+03  0.43014185336E+03  0.47000000000E+01 0.  1.
<mgrwt>
<rscale>  2 0.27298249E+03</rscale>
<asrwt>0</asrwt>
<pdfrwt beam="1">  1       21 0.13477242E-01 0.27317683E+03</pdfrwt>
<pdfrwt beam="2">  1       21 0.19664958E+00 0.27317683E+03</pdfrwt>
<totfact> 0.63223596E+03</totfact>
</mgrwt>
</event>
<event>
12    1  0.1410528E-001  0.1938646E+03  0.7546771E-02  0.1155079E+00
         21   -1    0    0  502  503  0.00000000000E+00  0.00000000000E+00  0.22289733613E+03  0.22289733613E+03  0.00000000000E+00 0.  1.
         21   -1    0    0  503  504 -0.00000000000E+00 -0.00000000000E+00 -0.31808805176E+03  0.31808805176E+03  0.00000000000E+00 0. -1.
         -6    2    1    2    0  504  0.79413150517E+02 -0.27041852732E+02 -0.23314418556E+03  0.30304703604E+03  0.17448090015E+03 0.  0.
        -24    2    3    3    0    0 -0.13732284709E+02 -0.43720783700E+02 -0.73041634425E+02  0.11701162080E+03  0.79098397413E+02 0.  0.
          6    2    1    2  502    0 -0.79413150517E+02  0.27041852732E+02  0.13795346993E+03  0.23793835185E+03  0.17477353673E+03 0.  0.
         24    2    5    5    0    0 -0.55214188444E+02  0.69194529761E+02  0.14585636271E+03  0.18847135619E+03  0.80067996135E+02 0.  0.
          2    1    6    6  501    0 -0.14675855711E+02  0.45040440030E+02  0.15509114635E+02  0.49845306857E+02  0.00000000000E+00 0. -1.
         -1    1    6    6    0  501 -0.40538332733E+02  0.24154089731E+02  0.13034724808E+03  0.13862604933E+03  0.00000000000E+00 0.  1.
          5    1    5    5  502    0 -0.24198962073E+02 -0.42152677029E+02 -0.79028927785E+01  0.49466995668E+02  0.47000000000E+01 0. -1.
         13    1    4    4    0    0 -0.73430840325E-01  0.12467012688E+02 -0.55063329850E+02  0.56457081856E+02  0.00000000000E+00 0. -1.
        -14    1    4    4    0    0 -0.13658853868E+02 -0.56187796388E+02 -0.17978304574E+02  0.60554538949E+02  0.00000000000E+00 0.  1.
         -5    1    3    3    0  504  0.93145435226E+02  0.16678930968E+02 -0.16010255113E+03  0.18603541523E+03  0.47000000000E+01 0.  1.
<mgrwt>
<rscale>  2 0.19379866E+03</rscale>
<asrwt>0</asrwt>
<pdfrwt beam="1">  1       21 0.34291898E-01 0.19386464E+03</pdfrwt>
<pdfrwt beam="2">  1       21 0.48936623E-01 0.19386464E+03</pdfrwt>
<totfact> 0.32635468E+04</totfact>
</mgrwt>
</event>
<event>
12    1  0.1410528E-001  0.1909340E+03  0.7546771E-02  0.1157635E+00
         21   -1    0    0  502  503  0.00000000000E+00  0.00000000000E+00  0.55052776495E+02  0.55052776495E+02  0.00000000000E+00 0. -1.
         21   -1    0    0  503  504 -0.00000000000E+00 -0.00000000000E+00 -0.80608022609E+03  0.80608022609E+03  0.00000000000E+00 0. -1.
         -6    2    1    2    0  504 -0.44100712024E+02  0.66737052721E+02 -0.55760411915E+03  0.58938794634E+03  0.17336980875E+03 0.  0.
        -24    2    3    3    0    0 -0.93412619881E+02  0.68395477448E+02 -0.42748214638E+03  0.45014631310E+03  0.80541038200E+02 0.  0.
          6    2    1    2  502    0  0.44100712024E+02 -0.66737052721E+02 -0.19342333044E+03  0.27174505625E+03  0.17330344436E+03 0.  0.
         24    2    5    5    0    0  0.26944055811E+02 -0.87651702227E+01 -0.19708921746E+03  0.21099459337E+03  0.69797911416E+02 0.  0.
          2    1    6    6  501    0  0.10690046675E+02 -0.37938962897E+02 -0.79198904764E+02  0.88465295565E+02  0.00000000000E+00 0. -1.
         -1    1    6    6    0  501  0.16254009136E+02  0.29173792674E+02 -0.11789031270E+03  0.12252929780E+03  0.00000000000E+00 0.  1.
          5    1    5    5  502    0  0.17156656214E+02 -0.57971882498E+02  0.36658870155E+01  0.60750462883E+02  0.47000000000E+01 0. -1.
         13    1    4    4    0    0 -0.90903631563E+02  0.24946430787E+02 -0.24405933707E+03  0.26163095124E+03  0.00000000000E+00 0. -1.
        -14    1    4    4    0    0 -0.25089883179E+01  0.43449046661E+02 -0.18342280931E+03  0.18851536185E+03  0.00000000000E+00 0.  1.
         -5    1    3    3    0  504  0.49311907857E+02 -0.16584247267E+01 -0.13012197278E+03  0.13924163324E+03  0.47000000000E+01 0.  1.
<mgrwt>
<rscale>  2 0.19091895E+03</rscale>
<asrwt>0</asrwt>
<pdfrwt beam="1">  1       21 0.84696584E-02 0.19093401E+03</pdfrwt>
<pdfrwt beam="2">  1       21 0.12401233E+00 0.19093401E+03</pdfrwt>
<totfact> 0.52909805E+04</totfact>
</mgrwt>
</event>
<event>
12    1  0.1410528E-001  0.1965370E+03  0.7546771E-02  0.1152947E+00
         21   -1    0    0  502  503  0.00000000000E+00  0.00000000000E+00  0.10374302845E+04  0.10374302845E+04  0.00000000000E+00 0.  1.
         21   -1    0    0  503  504 -0.00000000000E+00 -0.00000000000E+00 -0.19099560414E+03  0.19099560414E+03  0.00000000000E+00 0.  1.
         -6    2    1    2    0  504  0.93594282460E+02  0.91409419188E+00 -0.12803631488E+03  0.23456362138E+03  0.17281802357E+03 0.  0.
        -24    2    3    3    0    0  0.61953155900E+02 -0.22415565510E+02 -0.15521424980E+03  0.18654108440E+03  0.79783843762E+02 0.  0.
          6    2    1    2  502    0 -0.93594282460E+02 -0.91409419188E+00  0.97447099523E+03  0.99386226724E+03  0.17148691035E+03 0.  0.
         24    2    5    5    0    0 -0.41230364486E+02 -0.25546408496E+02  0.86109083605E+03  0.86648141582E+03  0.83426938606E+02 0.  0.
          2    1    6    6  501    0 -0.58022927869E+02 -0.39310771214E+02  0.52023460125E+03  0.52493431707E+03  0.00000000000E+00 0. -1.
         -1    1    6    6    0  501  0.16792563383E+02  0.13764362718E+02  0.34085623480E+03  0.34154709875E+03  0.00000000000E+00 0.  1.
          5    1    5    5  502    0 -0.52363917974E+02  0.24632314304E+02  0.11338015918E+03  0.12738085142E+03  0.47000000000E+01 0. -1.
         11    1    4    4    0    0 -0.17962108505E+02 -0.59433221788E+01 -0.14330639031E+02  0.23734524126E+02  0.00000000000E+00 0. -1.
        -12    1    4    4    0    0  0.79915264404E+02 -0.16472243332E+02 -0.14088361077E+03  0.16280656027E+03  0.00000000000E+00 0.  1.
         -5    1    3    3    0  504  0.31641126560E+02  0.23329659702E+02  0.27177934918E+02  0.48022536982E+02  0.47000000000E+01 0.  1.
<mgrwt>
<rscale>  2 0.19624399E+03</rscale>
<asrwt>0</asrwt>
<pdfrwt beam="1">  1       21 0.15960466E+00 0.19653701E+03</pdfrwt>
<pdfrwt beam="2">  1       21 0.29383940E-01 0.19653701E+03</pdfrwt>
<totfact> 0.28012695E+03</totfact>
</mgrwt>
</event>
<event>
12    1  0.1410528E-001  0.2051889E+03  0.7546771E-02  0.1145506E+00
         21   -1    0    0  502  503  0.00000000000E+00  0.00000000000E+00  0.28496188483E+03  0.28496188483E+03  0.00000000000E+00 0.  1.
         21   -1    0    0  503  504 -0.00000000000E+00 -0.00000000000E+00 -0.17351733766E+03  0.17351733766E+03  0.00000000000E+00 0. -1.
         -6    2    1    2    0  504  0.19037929050E+02 -0.10794115553E+03 -0.33019119503E+02  0.20782863166E+03  0.17346106793E+03 0.  0.
        -24    2    3    3    0    0 -0.54063396618E+02 -0.79260851436E+02 -0.18882430429E+02  0.12790179239E+03  0.82445065919E+02 0.  0.
          6    2    1    2  502    0 -0.19037929050E+02  0.10794115553E+03  0.14446366667E+03  0.25065059083E+03  0.17303823824E+03 0.  0.
         24    2    5    5    0    0 -0.55633939537E+02  0.15945504350E+02  0.44807942313E+02  0.11009518817E+03  0.82242351777E+02 0.  0.
          2    1    6    6  501    0 -0.39435588070E+02  0.36837907007E+02 -0.44951798911E+01  0.54151672563E+02  0.00000000000E+00 0. -1.
         -1    1    6    6    0  501 -0.16198351466E+02 -0.20892402657E+02  0.49303122204E+02  0.55943515603E+02  0.00000000000E+00 0.  1.
          5    1    5    5  502    0  0.36596010487E+02  0.91995651182E+02  0.99655724358E+02  0.14055540266E+03  0.47000000000E+01 0. -1.
         13    1    4    4    0    0  0.74749810436E+01 -0.60921457073E+02 -0.15804179960E+01  0.61398672580E+02  0.00000000000E+00 0. -1.
        -14    1    4    4    0    0 -0.61538377662E+02 -0.18339394363E+02 -0.17302012433E+02  0.66503119814E+02  0.00000000000E+00 0.  1.
         -5    1    3    3    0  504  0.73101325668E+02 -0.28680304097E+02 -0.14136689074E+02  0.79926839268E+02  0.47000000000E+01 0.  1.
<mgrwt>
<rscale>  2 0.20509949E+03</rscale>
<asrwt>0</asrwt>
<pdfrwt beam="1">  1       21 0.43840290E-01 0.20518888E+03</pdfrwt>
<pdfrwt beam="2">  1       21 0.26694975E-01 0.20518888E+03</pdfrwt>
<totfact> 0.66401543E+04</totfact>
</mgrwt>
</event>
<event>
12    1  0.1410528E-001  0.1954802E+03  0.7546771E-02  0.1153755E+00
         21   -1    0    0  502  503  0.00000000000E+00  0.00000000000E+00  0.14980459503E+03  0.14980459503E+03  0.00000000000E+00 0.  1.
         21   -1    0    0  503  504 -0.00000000000E+00 -0.00000000000E+00 -0.46015231784E+03  0.46015231784E+03  0.00000000000E+00 0. -1.
         -6    2    1    2    0  504 -0.75163368605E+02  0.52069902318E+02 -0.35905435451E+03  0.40850010135E+03  0.17202179107E+03 0.  0.
        -24    2    3    3    0    0 -0.20180600239E+02  0.67027826781E+02 -0.11295581345E+03  0.15584732335E+03  0.81421042814E+02 0.  0.
          6    2    1    2  502    0  0.75163368605E+02 -0.52069902318E+02  0.48706631704E+02  0.20145681152E+03  0.17277645739E+03 0.  0.
         24    2    5    5    0    0  0.67128731421E+02 -0.96953181671E+02  0.13501056895E+02  0.14365900310E+03  0.80928639041E+02 0.  0.
          2    1    6    6  501    0  0.48887767827E+02 -0.86846100373E+02 -0.22394120675E+02  0.10214575681E+03  0.00000000000E+00 0. -1.
         -1    1    6    6    0  501  0.18240963594E+02 -0.10107081298E+02  0.35895177570E+02  0.41513246295E+02  0.00000000000E+00 0.  1.
          5    1    5    5  502    0  0.80346371835E+01  0.44883279352E+02  0.35205574809E+02  0.57797808416E+02  0.47000000000E+01 0. -1.
         11    1    4    4    0    0 -0.41857180721E+01  0.45499239551E+02 -0.11975781837E+03  0.12817814203E+03  0.00000000000E+00 0. -1.
        -12    1    4    4    0    0 -0.15994882167E+02  0.21528587230E+02  0.68020049149E+01  0.27669181313E+02  0.00000000000E+00 0.  1.
         -5    1    3    3    0  504 -0.54982768365E+02 -0.14957924463E+02 -0.24609854106E+03  0.25265277801E+03  0.47000000000E+01 0.  1.
<mgrwt>
<rscale>  2 0.19531332E+03</rscale>
<asrwt>0</asrwt>
<pdfrwt beam="1">  1       21 0.23046861E-01 0.19548021E+03</pdfrwt>
<pdfrwt beam="2">  1       21 0.70792664E-01 0.19548021E+03</pdfrwt>
<totfact> 0.31907184E+04</totfact>
</mgrwt>
</event>
<event>
12    1  0.1410528E-001  0.2097163E+03  0.7546771E-02  0.1142021E+00
         21   -1    0    0  502  503  0.00000000000E+00  0.00000000000E+00  0.40351910787E+03  0.40351910787E+03  0.00000000000E+00 0.  1.
         21   -1    0    0  503  504 -0.00000000000E+00 -0.00000000000E+00 -0.14665743843E+03  0.14665743843E+03  0.00000000000E+00 0. -1.
         -6    2    1    2    0  504  0.10552721595E+03  0.52503498176E+02 -0.11819075903E+02  0.21004910491E+03  0.17345986652E+03 0.  0.
        -24    2    3    3    0    0  0.84102311621E+02 -0.18177532981E+02 -0.53258890668E+02  0.12523057546E+03  0.73773749189E+02 0.  0.
          6    2    1    2  502    0 -0.10552721595E+03 -0.52503498176E+02  0.26868074534E+03  0.34012744139E+03  0.17206023028E+03 0.  0.
         24    2    5    5    0    0 -0.13481876327E+03 -0.17320401051E+02  0.24135569451E+03  0.28660554428E+03  0.73580374523E+02 0.  0.
          2    1    6    6  501    0 -0.49166844349E+02 -0.88049530410E+01  0.29687159414E+02  0.58105363052E+02  0.00000000000E+00 0. -1.
         -1    1    6    6    0  501 -0.85651918921E+02 -0.85154480102E+01  0.21166853510E+03  0.22850018122E+03  0.00000000000E+00 0.  1.
          5    1    5    5  502    0  0.29291547322E+02 -0.35183097125E+02  0.27325050835E+02  0.53521897117E+02  0.47000000000E+01 0. -1.
         11    1    4    4    0    0  0.19152663123E+02 -0.22262224656E+02 -0.52491534043E+02  0.60148086399E+02  0.00000000000E+00 0. -1.
        -12    1    4    4    0    0  0.64949648498E+02  0.40846916744E+01 -0.76735662502E+00  0.65082489060E+02  0.00000000000E+00 0.  1.
         -5    1    3    3    0  504  0.21424904328E+02  0.70681031157E+02  0.41439814765E+02  0.84818529453E+02  0.47000000000E+01 0.  1.
<mgrwt>
<rscale>  2 0.20942668E+03</rscale>
<asrwt>0</asrwt>
<pdfrwt beam="1">  1       21 0.62079862E-01 0.20971632E+03</pdfrwt>
<pdfrwt beam="2">  1       21 0.22562683E-01 0.20971632E+03</pdfrwt>
<totfact> 0.43937598E+04</totfact>
</mgrwt>
</event>
<event>
12    1  0.1410528E-001  0.1875913E+03  0.7546771E-02  0.1161101E+00
         21   -1    0    0  502  503  0.00000000000E+00  0.00000000000E+00  0.16719513546E+04  0.16719513546E+04  0.00000000000E+00 0.  1.
         21   -1    0    0  503  504 -0.00000000000E+00 -0.00000000000E+00 -0.48410702613E+02  0.48410702613E+02  0.00000000000E+00 0.  1.
         -6    2    1    2    0  504  0.51293823791E+02 -0.41633671030E+02  0.16068180181E+03  0.24552426511E+03  0.17349093465E+03 0.  0.
        -24    2    3    3    0    0  0.87661382202E+02 -0.22057239193E+02  0.16320858962E+03  0.20387920965E+03  0.82211000913E+02 0.  0.
          6    2    1    2  502    0 -0.51293823791E+02  0.41633671030E+02  0.14628588502E+04  0.14748377921E+04  0.17557357016E+03 0.  0.
         24    2    5    5    0    0 -0.32200102701E+02  0.66975567695E+02  0.13994721258E+04  0.14037973196E+04  0.81253370546E+02 0.  0.
          4    1    6    6  501    0  0.19989833545E+02  0.34550307956E+02  0.84277613753E+03  0.84372088703E+03  0.00000000000E+00 0. -1.
         -3    1    6    6    0  501 -0.52189936247E+02  0.32425259739E+02  0.55669598827E+03  0.56007643253E+03  0.00000000000E+00 0.  1.
          5    1    5    5  502    0 -0.19093721090E+02 -0.25341896665E+02  0.63386724382E+02  0.71040472546E+02  0.47000000000E+01 0. -1.
         11    1    4    4    0    0 -0.13698819375E+02  0.61932175598E+01  0.34496413773E+02  0.37629990157E+02  0.00000000000E+00 0. -1.
        -12    1    4    4    0    0  0.10136020158E+03 -0.28250456753E+02  0.12871217584E+03  0.16624921949E+03  0.00000000000E+00 0.  1.
         -5    1    3    3    0  504 -0.36367558411E+02 -0.19576431837E+02 -0.25267878058E+01  0.41645055467E+02  0.47000000000E+01 0.  1.
<mgrwt>
<rscale>  2 0.18710246E+03</rscale>
<asrwt>0</asrwt>
<pdfrwt beam="1">  1       21 0.25722324E+00 0.18759130E+03</pdfrwt>
<pdfrwt beam="2">  1       21 0.74478017E-02 0.18759130E+03</pdfrwt>
<totfact> 0.82375883E+03</totfact>
</mgrwt>
</event>
<event>
12    1  0.1410528E-001  0.1878238E+03  0.7546771E-02  0.1161882E+00
         21   -1    0    0  502  503  0.00000000000E+00  0.00000000000E+00  0.18040921032E+03  0.18040921032E+03  0.00000000000E+00 0. -1.
         21   -1    0    0  503  504 -0.00000000000E+00 -0.00000000000E+00 -0.20530122995E+03  0.20530122995E+03  0.00000000000E+00 0. -1.
         -6    2    1    2    0  504  0.50437224842E+02 -0.24744907272E+02 -0.66722076776E+02  0.19932293748E+03  0.17922492514E+03 0.  0.
        -24    2    3    3    0    0  0.30427904933E+02  0.51628930278E+02 -0.66337740656E+02  0.12023075291E+03  0.80394864705E+02 0.  0.
          6    2    1    2  502    0 -0.50437224842E+02  0.24744907272E+02  0.41830057144E+02  0.18638750279E+03  0.17272615155E+03 0.  0.
         24    2    5    5    0    0 -0.30469035073E+02  0.42038855703E+01  0.91710873336E+02  0.12867400351E+03  0.84853285960E+02 0.  0.
          4    1    6    6  501    0 -0.43255721826E+02 -0.29633198498E+02  0.66013443242E+02  0.84302779388E+02  0.00000000000E+00 0. -1.
         -3    1    6    6    0  501  0.12786686753E+02  0.33837084068E+02  0.25697430094E+02  0.44371224118E+02  0.00000000000E+00 0.  1.
          5    1    5    5  502    0 -0.19968189770E+02  0.20541021702E+02 -0.49880816192E+02  0.57713499281E+02  0.47000000000E+01 0. -1.
         11    1    4    4    0    0  0.50833608444E+02  0.93985717736E+01 -0.23794628488E+02  0.56908463727E+02  0.00000000000E+00 0. -1.
        -12    1    4    4    0    0 -0.20405703511E+02  0.42230358504E+02 -0.42543112168E+02  0.63322289188E+02  0.00000000000E+00 0.  1.
         -5    1    3    3    0  504  0.20009319909E+02 -0.76373837550E+02 -0.38433611980E+00  0.79092184567E+02  0.47000000000E+01 0.  1.
<mgrwt>
<rscale>  2 0.18625663E+03</rscale>
<asrwt>0</asrwt>
<pdfrwt beam="1">  1       21 0.27755263E-01 0.18782385E+03</pdfrwt>
<pdfrwt beam="2">  1       21 0.31584805E-01 0.18782385E+03</pdfrwt>
<totfact> 0.11961352E+05</totfact>
</mgrwt>
</event>
<event>
12    1  0.1410528E-001  0.1795877E+03  0.7546771E-02  0.1168322E+00
         21   -1    0    0  502  503  0.00000000000E+00  0.00000000000E+00  0.80498609894E+03  0.80498609894E+03  0.00000000000E+00 0.  1.
         21   -1    0    0  503  504 -0.00000000000E+00 -0.00000000000E+00 -0.85562994110E+02  0.85562994110E+02  0.00000000000E+00 0.  1.
         -6    2    1    2    0  504 -0.47002156117E+02 -0.21480901475E+02  0.34852349765E+02  0.18293834900E+03  0.17199163190E+03 0.  0.
        -24    2    3    3    0    0 -0.88141148963E+01  0.11891340669E+02 -0.40331287007E+02  0.92126993567E+02  0.81496488438E+02 0.  0.
          6    2    1    2  502    0  0.47002156117E+02  0.21480901475E+02  0.68457075507E+03  0.70761074405E+03  0.17147948738E+03 0.  0.
         24    2    5    5    0    0  0.86859254837E+02  0.47681214881E+02  0.42362472370E+03  0.44229966998E+03  0.79706104688E+02 0.  0.
          2    1    6    6  501    0  0.54294688538E+02  0.36337744795E+02  0.11921689340E+03  0.13594488799E+03  0.00000000000E+00 0. -1.
         -1    1    6    6    0  501  0.32564566299E+02  0.11343470086E+02  0.30440783031E+03  0.30635478198E+03  0.00000000000E+00 0.  1.
          5    1    5    5  502    0 -0.39857098721E+02 -0.26200313406E+02  0.26094603137E+03  0.26531107407E+03  0.47000000000E+01 0. -1.
         11    1    4    4    0    0 -0.41793436556E+02 -0.16532703268E+01 -0.53285677220E+01  0.42164182382E+02  0.00000000000E+00 0. -1.
        -12    1    4    4    0    0  0.32979321660E+02  0.13544610996E+02 -0.35002719285E+02  0.49962811185E+02  0.00000000000E+00 0.  1.
         -5    1    3    3    0  504 -0.38188041220E+02 -0.33372242144E+02  0.75183636772E+02  0.90811355436E+02  0.47000000000E+01 0.  1.
<mgrwt>
<rscale>  2 0.17946500E+03</rscale>
<asrwt>0</asrwt>
<pdfrwt beam="1">  1       21 0.12384401E+00 0.17958773E+03</pdfrwt>
<pdfrwt beam="2">  1       21 0.13163538E-01 0.17958773E+03</pdfrwt>
<totfact> 0.24461118E+04</totfact>
</mgrwt>
</event>
<event>
12    1  0.1410528E-001  0.2356907E+03  0.7546771E-02  0.1122998E+00
         21   -1    0    0  502  503  0.00000000000E+00  0.00000000000E+00  0.80017351524E+03  0.80017351524E+03  0.00000000000E+00 0. -1.
         21   -1    0    0  503  504 -0.00000000000E+00 -0.00000000000E+00 -0.75616471941E+02  0.75616471941E+02  0.00000000000E+00 0.  1.
         -6    2    1    2    0  504  0.12737435985E+03  0.95302606924E+02  0.23306208795E+03  0.33146346451E+03  0.17390594306E+03 0.  0.
        -24    2    3    3    0    0  0.97876307693E+02  0.13392853089E+03  0.16513854311E+03  0.24781064013E+03  0.81380292127E+02 0.  0.
          6    2    1    2  502    0 -0.12737435985E+03 -0.95302606924E+02  0.49149495534E+03  0.54432652267E+03  0.17151459913E+03 0.  0.
         24    2    5    5    0    0 -0.98275228395E+02 -0.30232177138E+02  0.43196786052E+03  0.45134004353E+03  0.80867776772E+02 0.  0.
          2    1    6    6  501    0 -0.47378339728E+02 -0.48751897354E+02  0.31762091540E+03  0.32481456320E+03  0.00000000000E+00 0. -1.
         -1    1    6    6    0  501 -0.50896888667E+02  0.18519720216E+02  0.11434694513E+03  0.12652548033E+03  0.00000000000E+00 0.  1.
          5    1    5    5  502    0 -0.29099131454E+02 -0.65070429786E+02  0.59527094821E+02  0.92986479134E+02  0.47000000000E+01 0. -1.
         13    1    4    4    0    0  0.10415766495E+03  0.86742490411E+02  0.13591883322E+03  0.19195574499E+03  0.00000000000E+00 0. -1.
        -14    1    4    4    0    0 -0.62813572549E+01  0.47186040480E+02  0.29219709888E+02  0.55854895140E+02  0.00000000000E+00 0.  1.
         -5    1    3    3    0  504  0.29498052156E+02 -0.38625923967E+02  0.67923544843E+02  0.83652824383E+02  0.47000000000E+01 0.  1.
<mgrwt>
<rscale>  2 0.23524971E+03</rscale>
<asrwt>0</asrwt>
<pdfrwt beam="1">  1       21 0.12310361E+00 0.23569067E+03</pdfrwt>
<pdfrwt beam="2">  1       21 0.11633304E-01 0.23569067E+03</pdfrwt>
<totfact> 0.30012207E+04</totfact>
</mgrwt>
</event>
<event>
12    1  0.1410528E-001  0.4396517E+03  0.7546771E-02  0.1030891E+00
         21   -1    0    0  502  503  0.00000000000E+00  0.00000000000E+00  0.12363802019E+03  0.12363802019E+03  0.00000000000E+00 0.  1.
         21   -1    0    0  503  504 -0.00000000000E+00 -0.00000000000E+00 -0.19320589542E+04  0.19320589542E+04  0.00000000000E+00 0. -1.
         -6    2    1    2    0  504 -0.38818470974E+03  0.11112069600E+03 -0.13546414954E+04  0.14242005619E+04  0.17394965182E+03 0.  0.
        -24    2    3    3    0    0 -0.25559900617E+03  0.12407255675E+03 -0.77037607211E+03  0.82492191686E+03  0.79322286573E+02 0.  0.
          6    2    1    2  502    0  0.38818470974E+03 -0.11112069600E+03 -0.45377943861E+03  0.63149641253E+03  0.17273321101E+03 0.  0.
         24    2    5    5    0    0  0.36632874299E+03 -0.58243190481E+02 -0.37227386174E+03  0.53180206499E+03  0.81465274914E+02 0.  0.
          4    1    6    6  501    0  0.97742087082E+02  0.92867352383E+01 -0.63021374063E+02  0.11666813030E+03  0.00000000000E+00 0. -1.
         -3    1    6    6    0  501  0.26858665590E+03 -0.67529925719E+02 -0.30925248768E+03  0.41513393469E+03  0.00000000000E+00 0.  1.
          5    1    5    5  502    0  0.21855966755E+02 -0.52877505514E+02 -0.81505576861E+02  0.99694347541E+02  0.47000000000E+01 0. -1.
         13    1    4    4    0    0 -0.20677277791E+03  0.11128873759E+03 -0.69986713746E+03  0.73821011568E+03  0.00000000000E+00 0. -1.
        -14    1    4    4    0    0 -0.48826228260E+02  0.12783819163E+02 -0.70508934646E+02  0.86711801177E+02  0.00000000000E+00 0.  1.
         -5    1    3    3    0  504 -0.13258570357E+03 -0.12951860758E+02 -0.58426542333E+03  0.59927864503E+03  0.47000000000E+01 0.  1.
<mgrwt>
<rscale>  2 0.43953173E+03</rscale>
<asrwt>0</asrwt>
<pdfrwt beam="1">  1       21 0.19021234E-01 0.43965175E+03</pdfrwt>
<pdfrwt beam="2">  1       21 0.29723984E+00 0.43965175E+03</pdfrwt>
<totfact> 0.72515723E+02</totfact>
</mgrwt>
</event>
<event>
12    1  0.1410528E-001  0.2076968E+03  0.7546771E-02  0.1143579E+00
         21   -1    0    0  502  503  0.00000000000E+00  0.00000000000E+00  0.15933652427E+03  0.15933652427E+03  0.00000000000E+00 0. -1.
         21   -1    0    0  503  504 -0.00000000000E+00 -0.00000000000E+00 -0.27317931143E+03  0.27317931143E+03  0.00000000000E+00 0. -1.
         -6    2    1    2    0  504  0.11431560551E+03  0.86824261730E+01 -0.81563726479E+02  0.22232568147E+03  0.17214129365E+03 0.  0.
        -24    2    3    3    0    0  0.10284338447E+03 -0.31294985122E+02 -0.10818984350E+03  0.17271877291E+03  0.81059203408E+02 0.  0.
          6    2    1    2  502    0 -0.11431560551E+03 -0.86824261730E+01 -0.32279060680E+02  0.21019015423E+03  0.17318926350E+03 0.  0.
         24    2    5    5    0    0 -0.11937355250E+03 -0.35459421295E+02 -0.69516549027E+02  0.16380792882E+03  0.80579596422E+02 0.  0.
          2    1    6    6  501    0 -0.10843277560E+03 -0.53388811355E+02 -0.74815829878E+02  0.14214584201E+03  0.00000000000E+00 0. -1.
         -1    1    6    6    0  501 -0.10940776907E+02  0.17929390060E+02  0.52992808504E+01  0.21662086806E+02  0.00000000000E+00 0.  1.
          5    1    5    5  502    0  0.50579469969E+01  0.26776995122E+02  0.37237488347E+02  0.46382225410E+02  0.47000000000E+01 0. -1.
         13    1    4    4    0    0  0.60494051808E+02  0.23331481026E+02 -0.43727911240E+02  0.78204977670E+02  0.00000000000E+00 0. -1.
        -14    1    4    4    0    0  0.42349332666E+02 -0.54626466148E+02 -0.64461932256E+02  0.94513795243E+02  0.00000000000E+00 0.  1.
         -5    1    3    3    0  504  0.11472221032E+02  0.39977411294E+02  0.26626117018E+02  0.49606908558E+02  0.47000000000E+01 0.  1.
<mgrwt>
<rscale>  2 0.20747820E+03</rscale>
<asrwt>0</asrwt>
<pdfrwt beam="1">  1       21 0.24513312E-01 0.20769681E+03</pdfrwt>
<pdfrwt beam="2">  1       21 0.42027586E-01 0.20769681E+03</pdfrwt>
<totfact> 0.85146540E+04</totfact>
</mgrwt>
</event>
<event>
12    1  0.1410528E-001  0.2221993E+03  0.7546771E-02  0.1132279E+00
         21   -1    0    0  502  503  0.00000000000E+00  0.00000000000E+00  0.65005465627E+03  0.65005465627E+03  0.00000000000E+00 0.  1.
         21   -1    0    0  503  504 -0.00000000000E+00 -0.00000000000E+00 -0.12634276813E+03  0.12634276813E+03  0.00000000000E+00 0.  1.
         -6    2    1    2    0  504  0.88968920191E+01 -0.13874113108E+03  0.16626275724E+02  0.22282044342E+03  0.17333280365E+03 0.  0.
        -24    2    3    3    0    0 -0.21415279649E+02 -0.55937697770E+02  0.68249045035E+02  0.12053536812E+03  0.79266654934E+02 0.  0.
          6    2    1    2  502    0 -0.88968920191E+01  0.13874113108E+03  0.50708561242E+03  0.55357698098E+03  0.17315715235E+03 0.  0.
         24    2    5    5    0    0 -0.72370764076E+02  0.10241972159E+03  0.33608961823E+03  0.36753962654E+03  0.80011366232E+02 0.  0.
          4    1    6    6  501    0  0.15155733525E+02  0.25264917623E+02  0.43445610851E+02  0.52493175017E+02  0.00000000000E+00 0. -1.
         -3    1    6    6    0  501 -0.87526497601E+02  0.77154803970E+02  0.29264400738E+03  0.31504645152E+03  0.00000000000E+00 0.  1.
          5    1    5    5  502    0  0.63473872057E+02  0.36321409486E+02  0.17099599418E+03  0.18603735444E+03  0.47000000000E+01 0. -1.
         13    1    4    4    0    0 -0.42529203546E+02 -0.25913833107E+02  0.86607111494E+01  0.50549656954E+02  0.00000000000E+00 0. -1.
        -14    1    4    4    0    0  0.21113923897E+02 -0.30023864664E+02  0.59588333885E+02  0.69985711162E+02  0.00000000000E+00 0.  1.
         -5    1    3    3    0  504  0.30312171668E+02 -0.82803433309E+02 -0.51622769311E+02  0.10228507531E+03  0.47000000000E+01 0.  1.
<mgrwt>
<rscale>  2 0.22216502E+03</rscale>
<asrwt>0</asrwt>
<pdfrwt beam="1">  1       21 0.10000841E+00 0.22219927E+03</pdfrwt>
<pdfrwt beam="2">  1       21 0.19437349E-01 0.22219927E+03</pdfrwt>
<totfact> 0.19630548E+04</totfact>
</mgrwt>
</event>
<event>
12    1  0.1410528E-001  0.2810700E+03  0.7546771E-02  0.1095244E+00
         21   -1    0    0  502  503  0.00000000000E+00  0.00000000000E+00  0.27861826481E+03  0.27861826481E+03  0.00000000000E+00 0.  1.
         21   -1    0    0  503  504 -0.00000000000E+00 -0.00000000000E+00 -0.58521006975E+03  0.58521006975E+03  0.00000000000E+00 0.  1.
         -6    2    1    2    0  504  0.18432359570E+03  0.12186137445E+03 -0.46405645337E+03  0.54253916155E+03  0.17370943376E+03 0.  0.
        -24    2    3    3    0    0  0.31941340535E+02  0.67238647263E+02 -0.13602804336E+03  0.17671308020E+03  0.84750216597E+02 0.  0.
          6    2    1    2  502    0 -0.18432359570E+03 -0.12186137445E+03  0.15746464843E+03  0.32128917302E+03  0.17206462355E+03 0.  0.
         24    2    5    5    0    0 -0.18954534916E+03 -0.13421791549E+03  0.10629673935E+03  0.26818365790E+03  0.81740989385E+02 0.  0.
          4    1    6    6  501    0 -0.44353189917E+02 -0.79464324910E+02  0.36941045610E+02  0.98216216787E+02  0.00000000000E+00 0. -1.
         -3    1    6    6    0  501 -0.14519215924E+03 -0.54753590579E+02  0.69355693737E+02  0.16996744112E+03  0.00000000000E+00 0.  1.
          5    1    5    5  502    0  0.52217534513E+01  0.12356541043E+02  0.51167909086E+02  0.53105515118E+02  0.47000000000E+01 0. -1.
         13    1    4    4    0    0  0.37234409525E+02 -0.47656875200E+01 -0.28220265376E+02  0.46962712956E+02  0.00000000000E+00 0. -1.
        -14    1    4    4    0    0 -0.52930689902E+01  0.72004334783E+02 -0.10780777798E+03  0.12975036725E+03  0.00000000000E+00 0.  1.
         -5    1    3    3    0  504  0.15238225517E+03  0.54622727183E+02 -0.32802841001E+03  0.36582608134E+03  0.47000000000E+01 0.  1.
<mgrwt>
<rscale>  2 0.28081628E+03</rscale>
<asrwt>0</asrwt>
<pdfrwt beam="1">  1       21 0.42864349E-01 0.28107001E+03</pdfrwt>
<pdfrwt beam="2">  1       21 0.90032318E-01 0.28107001E+03</pdfrwt>
<totfact> 0.51831448E+03</totfact>
</mgrwt>
</event>
<event>
12    1  0.1410528E-001  0.2028315E+03  0.7546771E-02  0.1149232E+00
         21   -1    0    0  502  503  0.00000000000E+00  0.00000000000E+00  0.45841683348E+03  0.45841683348E+03  0.00000000000E+00 0. -1.
         21   -1    0    0  503  504 -0.00000000000E+00 -0.00000000000E+00 -0.87638332580E+02  0.87638332580E+02  0.00000000000E+00 0. -1.
         -6    2    1    2    0  504 -0.83566862141E+00 -0.96359994227E+02  0.21975047219E+03  0.29317165374E+03  0.16844406105E+03 0.  0.
        -24    2    3    3    0    0  0.31531124728E+02 -0.10986605537E+03  0.10566194246E+03  0.17372164070E+03  0.77136245797E+02 0.  0.
          6    2    1    2  502    0  0.83566862141E+00  0.96359994227E+02  0.15102802871E+03  0.25288351232E+03  0.17847873407E+03 0.  0.
         24    2    5    5    0    0  0.51838610782E+02  0.41561157192E+02  0.14363188374E+03  0.17751106636E+03  0.80408266353E+02 0.  0.
          4    1    6    6  501    0 -0.19155559946E+02  0.11244600639E+02  0.58580670959E+02  0.62650391303E+02  0.00000000000E+00 0. -1.
         -3    1    6    6    0  501  0.70994170728E+02  0.30316556553E+02  0.85051212780E+02  0.11486067505E+03  0.00000000000E+00 0.  1.
          5    1    5    5  502    0 -0.51002942160E+02  0.54798837034E+02  0.73961449716E+01  0.75372445959E+02  0.47000000000E+01 0. -1.
         11    1    4    4    0    0  0.15912804846E+02  0.27168958028E+01  0.38386351951E+02  0.41642657180E+02  0.00000000000E+00 0. -1.
        -12    1    4    4    0    0  0.15618319882E+02 -0.11258295117E+03  0.67275590507E+02  0.13207898352E+03  0.00000000000E+00 0.  1.
         -5    1    3    3    0  504 -0.32366793350E+02  0.13506061143E+02  0.11408852973E+03  0.11945001304E+03  0.47000000000E+01 0.  1.
<mgrwt>
<rscale>  2 0.20060216E+03</rscale>
<asrwt>0</asrwt>
<pdfrwt beam="1">  1       21 0.70525665E-01 0.20283147E+03</pdfrwt>
<pdfrwt beam="2">  1       21 0.13482821E-01 0.20283147E+03</pdfrwt>
<totfact> 0.86367962E+04</totfact>
</mgrwt>
</event>
<event>
12    1  0.1410528E-001  0.1783290E+03  0.7546771E-02  0.1169535E+00
         21   -1    0    0  502  503  0.00000000000E+00  0.00000000000E+00  0.90684765981E+03  0.90684765981E+03  0.00000000000E+00 0.  1.
         21   -1    0    0  503  504 -0.00000000000E+00 -0.00000000000E+00 -0.49901709251E+02  0.49901709251E+02  0.00000000000E+00 0.  1.
         -6    2    1    2    0  504 -0.34035606334E+02 -0.30673715538E+02  0.16655935155E+03  0.24370316436E+03  0.17190088832E+03 0.  0.
        -24    2    3    3    0    0 -0.71498228125E+02 -0.40614783794E+02  0.59167810133E+02  0.12943459458E+03  0.80566290915E+02 0.  0.
          6    2    1    2  502    0  0.34035606334E+02  0.30673715538E+02  0.69038659900E+03  0.71304620470E+03  0.17234249224E+03 0.  0.
         24    2    5    5    0    0  0.27921763094E+02  0.74984627796E+02  0.62377301812E+03  0.63267024323E+03  0.69112511694E+02 0.  0.
          4    1    6    6  501    0  0.13200732275E+01  0.69090578158E+02  0.54402100061E+03  0.54839228631E+03  0.00000000000E+00 0. -1.
         -3    1    6    6    0  501  0.26601689866E+02  0.58940496377E+01  0.79752017511E+02  0.84277956916E+02  0.00000000000E+00 0.  1.
          5    1    5    5  502    0  0.61138432403E+01 -0.44310912258E+02  0.66613580881E+02  0.80375961469E+02  0.47000000000E+01 0. -1.
         11    1    4    4    0    0  0.30961162026E+01  0.13857754727E+00 -0.15797738114E+02  0.16098871662E+02  0.00000000000E+00 0. -1.
        -12    1    4    4    0    0 -0.74594344327E+02 -0.40753361341E+02  0.74965548248E+02  0.11333572292E+03  0.00000000000E+00 0.  1.
         -5    1    3    3    0  504  0.37462621791E+02  0.99410682559E+01  0.10739154142E+03  0.11426856977E+03  0.47000000000E+01 0.  1.
<mgrwt>
<rscale>  2 0.17822222E+03</rscale>
<asrwt>0</asrwt>
<pdfrwt beam="1">  1       21 0.13951501E+00 0.17832900E+03</pdfrwt>
<pdfrwt beam="2">  1       21 0.76771867E-02 0.17832900E+03</pdfrwt>
<totfact> 0.46915367E+04</totfact>
</mgrwt>
</event>
<event>
12    1  0.1410528E-001  0.2247258E+03  0.7546771E-02  0.1130571E+00
         21   -1    0    0  502  503  0.00000000000E+00  0.00000000000E+00  0.50861221449E+02  0.50861221449E+02  0.00000000000E+00 0.  1.
         21   -1    0    0  503  504 -0.00000000000E+00 -0.00000000000E+00 -0.17881404044E+04  0.17881404044E+04  0.00000000000E+00 0.  1.
         -6    2    1    2    0  504 -0.10417969743E+03  0.98164556337E+02 -0.14823887009E+04  0.14991916346E+04  0.17207442355E+03 0.  0.
        -24    2    3    3    0    0 -0.13516517735E+02  0.53824273747E+02 -0.39633124578E+03  0.40844475351E+03  0.81663404211E+02 0.  0.
          6    2    1    2  502    0  0.10417969743E+03 -0.98164556337E+02 -0.25489048206E+03  0.33980999125E+03  0.17323966876E+03 0.  0.
         24    2    5    5    0    0  0.20716870787E+02 -0.61134158690E+02 -0.42635722094E+02  0.10870078133E+03  0.76364134052E+02 0.  0.
          2    1    6    6  501    0 -0.21552954449E+02 -0.10526190993E+02  0.82984032531E+01  0.25380977894E+02  0.00000000000E+00 0. -1.
         -1    1    6    6    0  501  0.42269825237E+02 -0.50607967696E+02 -0.50934125347E+02  0.83319803437E+02  0.00000000000E+00 0.  1.
          5    1    5    5  502    0  0.83462826646E+02 -0.37030397647E+02 -0.21225475997E+03  0.23110920992E+03  0.47000000000E+01 0. -1.
         13    1    4    4    0    0  0.33002368327E+02  0.23525441274E+02 -0.12210643463E+03  0.12865684623E+03  0.00000000000E+00 0. -1.
        -14    1    4    4    0    0 -0.46518886062E+02  0.30298832473E+02 -0.27422481115E+03  0.27978790728E+03  0.00000000000E+00 0.  1.
         -5    1    3    3    0  504 -0.90663179699E+02  0.44340282589E+02 -0.10860574552E+04  0.10907468811E+04  0.47000000000E+01 0.  1.
<mgrwt>
<rscale>  2 0.22450117E+03</rscale>
<asrwt>0</asrwt>
<pdfrwt beam="1">  1       21 0.78248020E-02 0.22472577E+03</pdfrwt>
<pdfrwt beam="2">  1       21 0.27509857E+00 0.22472577E+03</pdfrwt>
<totfact> 0.57332630E+03</totfact>
</mgrwt>
</event>
<event>
12    1  0.1410528E-001  0.2834802E+03  0.7546771E-02  0.1094325E+00
         21   -1    0    0  502  503  0.00000000000E+00  0.00000000000E+00  0.26948794260E+03  0.26948794260E+03  0.00000000000E+00 0.  1.
         21   -1    0    0  503  504 -0.00000000000E+00 -0.00000000000E+00 -0.29422880676E+03  0.29422880676E+03  0.00000000000E+00 0.  1.
         -6    2    1    2    0  504 -0.15027753289E+03  0.16754178017E+03 -0.80059191377E+01  0.28359325336E+03  0.17235850317E+03 0.  0.
        -24    2    3    3    0    0 -0.88444921394E+02  0.12545689958E+03 -0.69295079805E+02  0.18677972004E+03  0.80764583571E+02 0.  0.
          6    2    1    2  502    0  0.15027753289E+03 -0.16754178017E+03 -0.16734945023E+02  0.28012349601E+03  0.16593833084E+03 0.  0.
         24    2    5    5    0    0  0.13365255044E+03 -0.58201241405E+02 -0.26319874977E+02  0.16901227093E+03  0.81375814368E+02 0.  0.
          2    1    6    6  501    0  0.91537232335E+02  0.41201697924E+01 -0.17406597447E+02  0.93268592449E+02  0.00000000000E+00 0. -1.
         -1    1    6    6    0  501  0.42115318106E+02 -0.62321411198E+02 -0.89132775297E+01  0.75743678477E+02  0.00000000000E+00 0.  1.
          5    1    5    5  502    0  0.16624982448E+02 -0.10934053876E+03  0.95849299534E+01  0.11111122509E+03  0.47000000000E+01 0. -1.
         13    1    4    4    0    0 -0.33407735116E+02 -0.29045837702E+01 -0.94897893829E+01  0.34850673954E+02  0.00000000000E+00 0. -1.
        -14    1    4    4    0    0 -0.55037186277E+02  0.12836148335E+03 -0.59805290422E+02  0.15192904609E+03  0.00000000000E+00 0.  1.
         -5    1    3    3    0  504 -0.61832611496E+02  0.42084880583E+02  0.61289160667E+02  0.96813533317E+02  0.47000000000E+01 0.  1.
<mgrwt>
<rscale>  2 0.28251100E+03</rscale>
<asrwt>0</asrwt>
<pdfrwt beam="1">  1       21 0.41459684E-01 0.28348023E+03</pdfrwt>
<pdfrwt beam="2">  1       21 0.45265970E-01 0.28348023E+03</pdfrwt>
<totfact> 0.25094142E+04</totfact>
</mgrwt>
</event>
<event>
12    1  0.1410528E-001  0.2236145E+03  0.7546771E-02  0.1131246E+00
         21   -1    0    0  502  503  0.00000000000E+00  0.00000000000E+00  0.18483689389E+03  0.18483689389E+03  0.00000000000E+00 0. -1.
         21   -1    0    0  503  504 -0.00000000000E+00 -0.00000000000E+00 -0.36277950370E+03  0.36277950370E+03  0.00000000000E+00 0. -1.
         -6    2    1    2    0  504  0.26257068069E+02 -0.13999890422E+03 -0.22716812396E+03  0.31864784139E+03  0.17216841600E+03 0.  0.
        -24    2    3    3    0    0  0.75550694564E+02 -0.89137624764E+02 -0.10184093974E+03  0.17461407984E+03  0.80405698010E+02 0.  0.
          6    2    1    2  502    0 -0.26257068069E+02  0.13999890422E+03  0.49225514148E+02  0.22896855620E+03  0.17237842580E+03 0.  0.
         24    2    5    5    0    0  0.37609626697E+02  0.10349315724E+03 -0.44827300986E+01  0.13776389753E+03  0.82664859397E+02 0.  0.
          4    1    6    6  501    0  0.45232717618E+02  0.61603533617E+02  0.30867135372E+02  0.82424354066E+02  0.00000000000E+00 0. -1.
         -3    1    6    6    0  501 -0.76230909209E+01  0.41889623620E+02 -0.35349865471E+02  0.55339543466E+02  0.00000000000E+00 0.  1.
          5    1    5    5  502    0 -0.63866694766E+02  0.36505746983E+02  0.53708244247E+02  0.91204658670E+02  0.47000000000E+01 0. -1.
         11    1    4    4    0    0  0.87802012449E+02 -0.91959802008E+02 -0.10030750156E+03  0.16194873709E+03  0.00000000000E+00 0. -1.
        -12    1    4    4    0    0 -0.12251317885E+02  0.28221772440E+01 -0.15334381824E+01  0.12665342750E+02  0.00000000000E+00 0.  1.
         -5    1    3    3    0  504 -0.49293626495E+02 -0.50861279456E+02 -0.12532718422E+03  0.14403376155E+03  0.47000000000E+01 0.  1.
<mgrwt>
<rscale>  2 0.22357403E+03</rscale>
<asrwt>0</asrwt>
<pdfrwt beam="1">  1       21 0.28436446E-01 0.22361451E+03</pdfrwt>
<pdfrwt beam="2">  1       21 0.55812231E-01 0.22361451E+03</pdfrwt>
<totfact> 0.35191143E+04</totfact>
</mgrwt>
</event>
<event>
12    1  0.1410528E-001  0.2941261E+03  0.7546771E-02  0.1088236E+00
         21   -1    0    0  502  503  0.00000000000E+00  0.00000000000E+00  0.53178229069E+02  0.53178229069E+02  0.00000000000E+00 0. -1.
         21   -1    0    0  503  504 -0.00000000000E+00 -0.00000000000E+00 -0.16297755120E+04  0.16297755120E+04  0.00000000000E+00 0. -1.
         -6    2    1    2    0  504 -0.23120390689E+03 -0.55668388225E+02 -0.82935382068E+03  0.87990769949E+03  0.17278768398E+03 0.  0.
        -24    2    3    3    0    0 -0.25237829651E+03 -0.48045913660E+02 -0.78512856647E+03  0.83006374294E+03  0.81090918685E+02 0.  0.
          6    2    1    2  502    0  0.23120390689E+03  0.55668388225E+02 -0.74724346222E+03  0.80304604155E+03  0.17307783512E+03 0.  0.
         24    2    5    5    0    0  0.11925448311E+03  0.92541185156E+02 -0.36987498783E+03  0.40767111555E+03  0.81257179048E+02 0.  0.
          2    1    6    6  501    0  0.70863695305E+02  0.48894239533E+02 -0.30006353853E+03  0.31217052572E+03  0.00000000000E+00 0. -1.
         -1    1    6    6    0  501  0.48390787804E+02  0.43646945623E+02 -0.69811449299E+02  0.95500589840E+02  0.00000000000E+00 0.  1.
          5    1    5    5  502    0  0.11194942378E+03 -0.36872796931E+02 -0.37736847440E+03  0.39537492600E+03  0.47000000000E+01 0. -1.
         13    1    4    4    0    0 -0.16291804035E+03 -0.69345508953E+02 -0.53734375083E+03  0.56576443335E+03  0.00000000000E+00 0. -1.
        -14    1    4    4    0    0 -0.89460256158E+02  0.21299595293E+02 -0.24778481563E+03  0.26429930959E+03  0.00000000000E+00 0.  1.
         -5    1    3    3    0  504  0.21174389619E+02 -0.76224745647E+01 -0.44225254211E+02  0.49843956547E+02  0.47000000000E+01 0.  1.
<mgrwt>
<rscale>  2 0.29408341E+03</rscale>
<asrwt>0</asrwt>
<pdfrwt beam="1">  1       21 0.81812656E-02 0.29412608E+03</pdfrwt>
<pdfrwt beam="2">  1       21 0.25073471E+00 0.29412608E+03</pdfrwt>
<totfact> 0.69981297E+03</totfact>
</mgrwt>
</event>
<event>
12    1  0.1410528E-001  0.2398694E+03  0.7546771E-02  0.1122348E+00
         21   -1    0    0  502  503  0.00000000000E+00  0.00000000000E+00  0.18480296487E+03  0.18480296487E+03  0.00000000000E+00 0. -1.
         21   -1    0    0  503  504 -0.00000000000E+00 -0.00000000000E+00 -0.93472450166E+03  0.93472450166E+03  0.00000000000E+00 0. -1.
         -6    2    1    2    0  504  0.35866143187E+02  0.14041874625E+03 -0.83507214944E+03  0.86499272869E+03  0.17280949448E+03 0.  0.
        -24    2    3    3    0    0  0.45555859466E+02  0.31444554313E+02 -0.22542953551E+03  0.24559344564E+03  0.80209530206E+02 0.  0.
          6    2    1    2  502    0 -0.35866143187E+02 -0.14041874625E+03  0.85150612654E+02  0.25453473785E+03  0.19113738884E+03 0.  0.
         24    2    5    5    0    0  0.50737451549E+02 -0.76799437384E+02  0.77237008368E+01  0.12200317272E+03  0.79703676375E+02 0.  0.
          4    1    6    6  501    0  0.93674606940E+01  0.10478932655E+02  0.20205402767E+02  0.24613322620E+02  0.00000000000E+00 0. -1.
         -3    1    6    6    0  501  0.41369990855E+02 -0.87278370039E+02 -0.12481701930E+02  0.97389850103E+02  0.00000000000E+00 0.  1.
          5    1    5    5  502    0 -0.86603594736E+02 -0.63619308865E+02  0.77426911817E+02  0.13253156513E+03  0.47000000000E+01 0. -1.
         11    1    4    4    0    0 -0.17806451894E+02  0.28778604000E+02 -0.71166046087E+02  0.78802816529E+02  0.00000000000E+00 0. -1.
        -12    1    4    4    0    0  0.63362311361E+02  0.26659503139E+01 -0.15426348942E+03  0.16679062911E+03  0.00000000000E+00 0.  1.
         -5    1    3    3    0  504 -0.96897162795E+01  0.10897419193E+03 -0.60964261394E+03  0.61939928304E+03  0.47000000000E+01 0.  1.
<mgrwt>
<rscale>  2 0.23620305E+03</rscale>
<asrwt>0</asrwt>
<pdfrwt beam="1">  1       21 0.28431225E-01 0.23986935E+03</pdfrwt>
<pdfrwt beam="2">  1       21 0.14380377E+00 0.23986935E+03</pdfrwt>
<totfact> 0.38021978E+03</totfact>
</mgrwt>
</event>
<event>
12    1  0.1410528E-001  0.1955834E+03  0.7546771E-02  0.1153817E+00
         21   -1    0    0  502  503  0.00000000000E+00  0.00000000000E+00  0.48117306833E+03  0.48117306833E+03  0.00000000000E+00 0.  1.
         21   -1    0    0  503  504 -0.00000000000E+00 -0.00000000000E+00 -0.94992539182E+02  0.94992539182E+02  0.00000000000E+00 0. -1.
         -6    2    1    2    0  504  0.26719899229E+02  0.85749360981E+02  0.75250242480E+02  0.20956019491E+03  0.17374110157E+03 0.  0.
        -24    2    3    3    0    0  0.77547301036E+02  0.30499736804E+02  0.66419008732E+02  0.13382363547E+03  0.80953460994E+02 0.  0.
          6    2    1    2  502    0 -0.26719899229E+02 -0.85749360981E+02  0.31093028666E+03  0.36660541260E+03  0.17220621202E+03 0.  0.
         24    2    5    5    0    0  0.36922376816E+02 -0.28912252628E+02  0.23156612249E+03  0.24997970042E+03  0.81656605827E+02 0.  0.
          4    1    6    6  501    0  0.32481523340E+02 -0.25170392919E+02  0.36905154223E+02  0.55232132373E+02  0.00000000000E+00 0. -1.
         -3    1    6    6    0  501  0.44408534755E+01 -0.37418597084E+01  0.19466096826E+03  0.19474756804E+03  0.00000000000E+00 0.  1.
          5    1    5    5  502    0 -0.63642276045E+02 -0.56837108353E+02  0.79364164177E+02  0.11662571218E+03  0.47000000000E+01 0. -1.
         11    1    4    4    0    0  0.19942300821E+02  0.30068551899E+02 -0.10635897994E+02  0.37615628420E+02  0.00000000000E+00 0. -1.
        -12    1    4    4    0    0  0.57605000215E+02  0.43118490563E+00  0.77054906727E+02  0.96208007052E+02  0.00000000000E+00 0.  1.
         -5    1    3    3    0  504 -0.50827401807E+02  0.55249624177E+02  0.88312337477E+01  0.75736559439E+02  0.47000000000E+01 0.  1.
<mgrwt>
<rscale>  2 0.19524198E+03</rscale>
<asrwt>0</asrwt>
<pdfrwt beam="1">  1       21 0.74026625E-01 0.19558343E+03</pdfrwt>
<pdfrwt beam="2">  1       21 0.14614237E-01 0.19558343E+03</pdfrwt>
<totfact> 0.67241447E+04</totfact>
</mgrwt>
</event>
<event>
12    1  0.1410528E-001  0.2368924E+03  0.7546771E-02  0.1122400E+00
         21   -1    0    0  502  503  0.00000000000E+00  0.00000000000E+00  0.83944784341E+03  0.83944784341E+03  0.00000000000E+00 0. -1.
         21   -1    0    0  503  504 -0.00000000000E+00 -0.00000000000E+00 -0.11836553726E+03  0.11836553726E+03  0.00000000000E+00 0.  1.
         -6    2    1    2    0  504 -0.16187694378E+03  0.28020149243E+02  0.67779312758E+03  0.71699818860E+03  0.16641395662E+03 0.  0.
        -24    2    3    3    0    0 -0.47113753678E+02  0.63184612342E+02  0.34237202353E+03  0.36071664780E+03  0.81767331382E+02 0.  0.
          6    2    1    2  502    0  0.16187694378E+03 -0.28020149243E+02  0.43289178566E+02  0.24081519207E+03  0.17067140962E+03 0.  0.
         24    2    5    5    0    0  0.24472803374E+02  0.27335079694E+02  0.68659375462E+01  0.88195266580E+02  0.79907066408E+02 0.  0.
          4    1    6    6  501    0 -0.12898450776E+02 -0.11170778523E+02  0.26108674916E+02  0.31190050194E+02  0.00000000000E+00 0. -1.
         -3    1    6    6    0  501  0.37371254150E+02  0.38505858217E+02 -0.19242737370E+02  0.57005216386E+02  0.00000000000E+00 0.  1.
          5    1    5    5  502    0  0.13740414040E+03 -0.55355228936E+02  0.36423241019E+02  0.15261992549E+03  0.47000000000E+01 0. -1.
         13    1    4    4    0    0 -0.24016320972E+02 -0.12368840235E+02  0.15551505297E+03  0.15784392159E+03  0.00000000000E+00 0. -1.
        -14    1    4    4    0    0 -0.23097432706E+02  0.75553452577E+02  0.18685697056E+03  0.20287272621E+03  0.00000000000E+00 0.  1.
         -5    1    3    3    0  504 -0.11476319010E+03 -0.35164463099E+02  0.33542110405E+03  0.35628154079E+03  0.47000000000E+01 0.  1.
<mgrwt>
<rscale>  2 0.23612651E+03</rscale>
<asrwt>0</asrwt>
<pdfrwt beam="1">  1       21 0.12914582E+00 0.23689239E+03</pdfrwt>
<pdfrwt beam="2">  1       21 0.18210083E-01 0.23689239E+03</pdfrwt>
<totfact> 0.11727592E+04</totfact>
</mgrwt>
</event>
<event>
12    1  0.1410528E-001  0.1950804E+03  0.7546771E-02  0.1154031E+00
         21   -1    0    0  502  503  0.00000000000E+00  0.00000000000E+00  0.46650829355E+03  0.46650829355E+03  0.00000000000E+00 0.  1.
         21   -1    0    0  503  504 -0.00000000000E+00 -0.00000000000E+00 -0.13426320876E+03  0.13426320876E+03  0.00000000000E+00 0.  1.
         -6    2    1    2    0  504  0.21335210691E+02  0.86528743440E+02 -0.22386391612E+02  0.19602485951E+03  0.17315363224E+03 0.  0.
        -24    2    3    3    0    0  0.24560922803E+02  0.59975035793E+02  0.51252472187E+02  0.11753742822E+03  0.83594182095E+02 0.  0.
          6    2    1    2  502    0 -0.21335210691E+02 -0.86528743440E+02  0.35463147641E+03  0.40474664280E+03  0.17353370319E+03 0.  0.
         24    2    5    5    0    0  0.50516053182E+02 -0.35129144872E+02  0.22822839432E+03  0.25046005228E+03  0.82801626589E+02 0.  0.
          4    1    6    6  501    0  0.57796055152E+02 -0.33663948895E+02  0.90512180144E+02  0.11254377016E+03  0.00000000000E+00 0. -1.
         -3    1    6    6    0  501 -0.72800019705E+01 -0.14651959765E+01  0.13771621418E+03  0.13791628213E+03  0.00000000000E+00 0.  1.
          5    1    5    5  502    0 -0.71851263873E+02 -0.51399598568E+02  0.12640308208E+03  0.15428659052E+03  0.47000000000E+01 0. -1.
         11    1    4    4    0    0 -0.60540708729E+01 -0.85948566568E+01  0.40300288361E+02  0.41648968500E+02  0.00000000000E+00 0. -1.
        -12    1    4    4    0    0  0.30614993676E+02  0.68569892450E+02  0.10952183826E+02  0.75888459722E+02  0.00000000000E+00 0.  1.
         -5    1    3    3    0  504 -0.32257121123E+01  0.26553707647E+02 -0.73638863799E+02  0.78487431287E+02  0.47000000000E+01 0.  1.
<mgrwt>
<rscale>  2 0.19499584E+03</rscale>
<asrwt>0</asrwt>
<pdfrwt beam="1">  1       21 0.71770506E-01 0.19508040E+03</pdfrwt>
<pdfrwt beam="2">  1       21 0.20655878E-01 0.19508040E+03</pdfrwt>
<totfact> 0.38055813E+04</totfact>
</mgrwt>
</event>
<event>
12    1  0.1410528E-001  0.1998718E+03  0.7546771E-02  0.1150117E+00
         21   -1    0    0  502  503  0.00000000000E+00  0.00000000000E+00  0.50692238609E+03  0.50692238609E+03  0.00000000000E+00 0.  1.
         21   -1    0    0  503  504 -0.00000000000E+00 -0.00000000000E+00 -0.17516043323E+03  0.17516043323E+03  0.00000000000E+00 0.  1.
         -6    2    1    2    0  504 -0.91385533201E+02 -0.41271065142E+02 -0.87483104691E+02  0.21817888330E+03  0.17289914694E+03 0.  0.
        -24    2    3    3    0    0 -0.10006398450E+03 -0.17606855511E+02 -0.10955810053E+03  0.18434538251E+03  0.10796962678E+03 0.  0.
          6    2    1    2  502    0  0.91385533201E+02  0.41271065142E+02  0.41924505756E+03  0.46390393602E+03  0.17142294792E+03 0.  0.
         24    2    5    5    0    0  0.12613636687E+03  0.31671992998E+01  0.29526579356E+03  0.32954444460E+03  0.74143360617E+02 0.  0.
          2    1    6    6  501    0  0.46929818362E+02  0.28711399202E+02  0.17382333801E+03  0.18232198203E+03  0.00000000000E+00 0. -1.
         -1    1    6    6    0  501  0.79206548508E+02 -0.25544199903E+02  0.12144245555E+03  0.14722246257E+03  0.00000000000E+00 0.  1.
          5    1    5    5  502    0 -0.34750833669E+02  0.38103865842E+02  0.12397926400E+03  0.13435949142E+03  0.47000000000E+01 0. -1.
         13    1    4    4    0    0  0.22389609131E+02 -0.11629044569E+02 -0.13625983726E+02  0.28673972643E+02  0.00000000000E+00 0. -1.
        -14    1    4    4    0    0 -0.12245359363E+03 -0.59778109420E+01 -0.95932116800E+02  0.15567140987E+03  0.00000000000E+00 0.  1.
         -5    1    3    3    0  504  0.86784512950E+01 -0.23664209632E+02  0.22074995835E+02  0.33833500787E+02  0.47000000000E+01 0.  1.
<mgrwt>
<rscale>  2 0.19955212E+03</rscale>
<asrwt>0</asrwt>
<pdfrwt beam="1">  1       21 0.77988059E-01 0.19987179E+03</pdfrwt>
<pdfrwt beam="2">  1       21 0.26947759E-01 0.19987179E+03</pdfrwt>
<totfact> 0.19023700E+04</totfact>
</mgrwt>
</event>
<event>
12    1  0.1410528E-001  0.1827661E+03  0.7546771E-02  0.1166183E+00
         21   -1    0    0  502  503  0.00000000000E+00  0.00000000000E+00  0.98504226897E+02  0.98504226897E+02  0.00000000000E+00 0.  1.
         21   -1    0    0  503  504 -0.00000000000E+00 -0.00000000000E+00 -0.34533367348E+03  0.34533367348E+03  0.00000000000E+00 0.  1.
         -6    2    1    2    0  504  0.14317612756E+02  0.58059889110E+02 -0.16972546592E+03  0.24941968191E+03  0.17270639590E+03 0.  0.
        -24    2    3    3    0    0  0.10900352463E+02 -0.35464884224E+02 -0.69246357101E+02  0.11202717045E+03  0.79865219286E+02 0.  0.
          6    2    1    2  502    0 -0.14317612756E+02 -0.58059889110E+02 -0.77103980661E+02  0.19441821847E+03  0.16815907671E+03 0.  0.
         24    2    5    5    0    0 -0.24383937770E+02 -0.97905128994E+02 -0.32287005299E+02  0.13342948736E+03  0.81123280769E+02 0.  0.
          4    1    6    6  501    0 -0.35492884987E+02 -0.99588279302E+01  0.51152030036E+01  0.37216776328E+02  0.00000000000E+00 0. -1.
         -3    1    6    6    0  501  0.11108947218E+02 -0.87946301064E+02 -0.37402208303E+02  0.96212711037E+02  0.00000000000E+00 0.  1.
          5    1    5    5  502    0  0.10066325013E+02  0.39845239884E+02 -0.44816975362E+02  0.60988731101E+02  0.47000000000E+01 0. -1.
         11    1    4    4    0    0 -0.28613244704E+02 -0.30499518129E+01 -0.38545587765E+01  0.29032354398E+02  0.00000000000E+00 0. -1.
        -12    1    4    4    0    0  0.39513597166E+02 -0.32414932411E+02 -0.65391798324E+02  0.82994816057E+02  0.00000000000E+00 0.  1.
         -5    1    3    3    0  504  0.34172602933E+01  0.93524773334E+02 -0.10047910882E+03  0.13739251146E+03  0.47000000000E+01 0.  1.
<mgrwt>
<rscale>  2 0.18168381E+03</rscale>
<asrwt>0</asrwt>
<pdfrwt beam="1">  1       21 0.15154496E-01 0.18276609E+03</pdfrwt>
<pdfrwt beam="2">  1       21 0.53128257E-01 0.18276609E+03</pdfrwt>
<totfact> 0.12964055E+05</totfact>
</mgrwt>
</event>
<event>
12    1  0.1410528E-001  0.2534521E+03  0.7546771E-02  0.1111321E+00
         21   -1    0    0  502  503  0.00000000000E+00  0.00000000000E+00  0.33462895804E+03  0.33462895804E+03  0.00000000000E+00 0.  1.
         21   -1    0    0  503  504 -0.00000000000E+00 -0.00000000000E+00 -0.26929185607E+03  0.26929185607E+03  0.00000000000E+00 0. -1.
         -6    2    1    2    0  504  0.51487187041E+02 -0.17530638520E+03 -0.13009629938E+03  0.28387053011E+03  0.17399474598E+03 0.  0.
        -24    2    3    3    0    0 -0.23777954012E+02 -0.53241357320E+02 -0.92287793188E+02  0.13549167167E+03  0.80255361779E+02 0.  0.
          6    2    1    2  502    0 -0.51487187041E+02  0.17530638520E+03  0.19543340135E+03  0.32005028400E+03  0.17565509047E+03 0.  0.
         24    2    5    5    0    0 -0.18537381388E+02  0.22713041673E+02  0.26328495497E+02  0.89856936219E+02  0.80756191965E+02 0.  0.
          4    1    6    6  501    0 -0.41757474303E+02  0.37086059081E+02  0.67494745282E+01  0.56254936181E+02  0.00000000000E+00 0. -1.
         -3    1    6    6    0  501  0.23220092915E+02 -0.14373017408E+02  0.19579020969E+02  0.33602000037E+02  0.00000000000E+00 0.  1.
          5    1    5    5  502    0 -0.32949805653E+02  0.15259334353E+03  0.16910490585E+03  0.23019334779E+03  0.47000000000E+01 0. -1.
         13    1    4    4    0    0  0.44839453773E+01 -0.61866884754E+02 -0.84699685544E+02  0.10498406511E+03  0.00000000000E+00 0. -1.
        -14    1    4    4    0    0 -0.28261899389E+02  0.86255274340E+01 -0.75881076443E+01  0.30507606563E+02  0.00000000000E+00 0.  1.
         -5    1    3    3    0  504  0.75265141052E+02 -0.12206502788E+03 -0.37808506193E+02  0.14837885843E+03  0.47000000000E+01 0.  1.
<mgrwt>
<rscale>  2 0.25316465E+03</rscale>
<asrwt>0</asrwt>
<pdfrwt beam="1">  1       21 0.51481378E-01 0.25345211E+03</pdfrwt>
<pdfrwt beam="2">  1       21 0.41429516E-01 0.25345211E+03</pdfrwt>
<totfact> 0.19457044E+04</totfact>
</mgrwt>
</event>
<event>
12    1  0.1410528E-001  0.2349289E+03  0.7546771E-02  0.1123327E+00
         21   -1    0    0  502  503  0.00000000000E+00  0.00000000000E+00  0.75295225321E+02  0.75295225321E+02  0.00000000000E+00 0.  1.
         21   -1    0    0  503  504 -0.00000000000E+00 -0.00000000000E+00 -0.10688105874E+04  0.10688105874E+04  0.00000000000E+00 0. -1.
         -6    2    1    2    0  504  0.12422894947E+03  0.98546900129E+02 -0.81789423319E+03  0.85078963769E+03  0.17247523737E+03 0.  0.
        -24    2    3    3    0    0  0.31036414972E+02 -0.10502190707E+02 -0.38558946228E+03  0.39528326271E+03  0.80598196576E+02 0.  0.
          6    2    1    2  502    0 -0.12422894947E+03 -0.98546900129E+02 -0.17562112891E+03  0.29331617505E+03  0.17334149594E+03 0.  0.
         24    2    5    5    0    0 -0.46245504393E+02 -0.41077275578E+02 -0.23495430459E+02  0.11290416442E+03  0.91484019613E+02 0.  0.
          4    1    6    6  501    0 -0.54051814028E+02 -0.65361977376E+02 -0.15948297477E+02  0.86302577474E+02  0.00000000000E+00 0. -1.
         -3    1    6    6    0  501  0.78063096353E+01  0.24284701798E+02 -0.75471329817E+01  0.26601586941E+02  0.00000000000E+00 0.  1.
          5    1    5    5  502    0 -0.77983445081E+02 -0.57469624551E+02 -0.15212569845E+03  0.18041201064E+03  0.47000000000E+01 0. -1.
         13    1    4    4    0    0 -0.40129694709E+01  0.30521418929E+02 -0.99621063330E+02  0.10426896564E+03  0.00000000000E+00 0. -1.
        -14    1    4    4    0    0  0.35049384443E+02 -0.41023609636E+02 -0.28596839895E+03  0.29101429706E+03  0.00000000000E+00 0.  1.
         -5    1    3    3    0  504  0.93192534502E+02  0.10904909084E+03 -0.43230477091E+03  0.45550637498E+03  0.47000000000E+01 0.  1.
<mgrwt>
<rscale>  2 0.23476915E+03</rscale>
<asrwt>0</asrwt>
<pdfrwt beam="1">  1       21 0.11583882E-01 0.23492892E+03</pdfrwt>
<pdfrwt beam="2">  1       21 0.16443239E+00 0.23492892E+03</pdfrwt>
<totfact> 0.14188675E+04</totfact>
</mgrwt>
</event>
<event>
12    1  0.1410528E-001  0.2442349E+03  0.7546771E-02  0.1117269E+00
         21   -1    0    0  502  503  0.00000000000E+00  0.00000000000E+00  0.74148072191E+02  0.74148072191E+02  0.00000000000E+00 0.  1.
         21   -1    0    0  503  504 -0.00000000000E+00 -0.00000000000E+00 -0.12204005760E+04  0.12204005760E+04  0.00000000000E+00 0. -1.
         -6    2    1    2    0  504  0.14121354947E+03  0.95226192851E+02 -0.95467263382E+03  0.98541894956E+03  0.17504677668E+03 0.  0.
        -24    2    3    3    0    0  0.20292575703E+02  0.76974335104E+02 -0.31162794448E+03  0.33083238180E+03  0.77467749226E+02 0.  0.
          6    2    1    2  502    0 -0.14121354947E+03 -0.95226192851E+02 -0.19157987002E+03  0.30912969866E+03  0.17276871719E+03 0.  0.
         24    2    5    5    0    0 -0.76862406118E+02 -0.34949103679E+02 -0.22356028652E+02  0.11825488205E+03  0.79719230989E+02 0.  0.
          4    1    6    6  501    0 -0.21800356761E+02 -0.37130459016E+02  0.21219839230E+02  0.48002167853E+02  0.00000000000E+00 0. -1.
         -3    1    6    6    0  501 -0.55062049358E+02  0.21813553368E+01 -0.43575867881E+02  0.70252714198E+02  0.00000000000E+00 0.  1.
          5    1    5    5  502    0 -0.64351143349E+02 -0.60277089172E+02 -0.16922384137E+03  0.19087481661E+03  0.47000000000E+01 0. -1.
         13    1    4    4    0    0  0.48015944815E+02  0.64358805377E+02 -0.23675865403E+03  0.25000449405E+03  0.00000000000E+00 0. -1.
        -14    1    4    4    0    0 -0.27723369112E+02  0.12615529727E+02 -0.74869290454E+02  0.80827887751E+02  0.00000000000E+00 0.  1.
         -5    1    3    3    0  504  0.12092097376E+03  0.18251857747E+02 -0.64304468934E+03  0.65458656776E+03  0.47000000000E+01 0.  1.
<mgrwt>
<rscale>  2 0.24382696E+03</rscale>
<asrwt>0</asrwt>
<pdfrwt beam="1">  1       21 0.11407396E-01 0.24423486E+03</pdfrwt>
<pdfrwt beam="2">  1       21 0.18775393E+00 0.24423486E+03</pdfrwt>
<totfact> 0.99757318E+03</totfact>
</mgrwt>
</event>
<event>
12    1  0.1410528E-001  0.3096929E+03  0.7546771E-02  0.1080522E+00
         21   -1    0    0  502  503  0.00000000000E+00  0.00000000000E+00  0.22844246046E+03  0.22844246046E+03  0.00000000000E+00 0. -1.
         21   -1    0    0  503  504 -0.00000000000E+00 -0.00000000000E+00 -0.43632609326E+03  0.43632609326E+03  0.00000000000E+00 0.  1.
         -6    2    1    2    0  504 -0.33551518403E+02 -0.25406128425E+03 -0.38652631137E+02  0.31185382254E+03  0.17345299132E+03 0.  0.
        -24    2    3    3    0    0 -0.23725379740E+02 -0.27344898291E+03 -0.28351778842E+02  0.28734599893E+03  0.80166450833E+02 0.  0.
          6    2    1    2  502    0  0.33551518403E+02  0.25406128425E+03 -0.16923100167E+03  0.35291473118E+03  0.17388742052E+03 0.  0.
         24    2    5    5    0    0  0.59878626092E+02  0.13933500637E+03 -0.15934857214E+03  0.23469887840E+03  0.81804047681E+02 0.  0.
          4    1    6    6  501    0  0.71247336950E+02  0.90818088676E+02 -0.78040486650E+02  0.13933565879E+03  0.00000000000E+00 0. -1.
         -3    1    6    6    0  501 -0.11368710859E+02  0.48516917698E+02 -0.81308085488E+02  0.95363219614E+02  0.00000000000E+00 0.  1.
          5    1    5    5  502    0 -0.26327107689E+02  0.11472627787E+03 -0.98824295297E+01  0.11821585278E+03  0.47000000000E+01 0. -1.
         13    1    4    4    0    0 -0.40342606943E+02 -0.14126954845E+03  0.13933489909E+02  0.14757626298E+03  0.00000000000E+00 0. -1.
        -14    1    4    4    0    0  0.16617227203E+02 -0.13217943445E+03 -0.42285268751E+02  0.13976973594E+03  0.00000000000E+00 0.  1.
         -5    1    3    3    0  504 -0.98261386628E+01  0.19387698658E+02 -0.10300852295E+02  0.24507823614E+02  0.47000000000E+01 0.  1.
<mgrwt>
<rscale>  2 0.30963193E+03</rscale>
<asrwt>0</asrwt>
<pdfrwt beam="1">  1       21 0.35144994E-01 0.30969287E+03</pdfrwt>
<pdfrwt beam="2">  1       21 0.67127091E-01 0.30969287E+03</pdfrwt>
<totfact> 0.14930041E+04</totfact>
</mgrwt>
</event>
<event>
12    1  0.1410528E-001  0.1938595E+03  0.7546771E-02  0.1155063E+00
         21   -1    0    0  502  503  0.00000000000E+00  0.00000000000E+00  0.86923239439E+03  0.86923239439E+03  0.00000000000E+00 0. -1.
         21   -1    0    0  503  504 -0.00000000000E+00 -0.00000000000E+00 -0.91286423037E+02  0.91286423037E+02  0.00000000000E+00 0.  1.
         -6    2    1    2    0  504  0.49442848907E+02 -0.70851912929E+02  0.40316196072E+02  0.19783985085E+03  0.17335115242E+03 0.  0.
        -24    2    3    3    0    0 -0.35447131125E+02 -0.58182459180E+02  0.35895882457E+02  0.11176748048E+03  0.81004676750E+02 0.  0.
          6    2    1    2  502    0 -0.49442848907E+02  0.70851912929E+02  0.73762977528E+03  0.76267896657E+03  0.17354230551E+03 0.  0.
         24    2    5    5    0    0  0.19868724793E+02  0.66331447887E+02  0.27609238218E+03  0.29592058788E+03  0.80915781089E+02 0.  0.
          2    1    6    6  501    0  0.34704675749E+02 -0.34723928989E+01  0.10053404730E+03  0.10641224881E+03  0.00000000000E+00 0. -1.
         -1    1    6    6    0  501 -0.14835950955E+02  0.69803840786E+02  0.17555833489E+03  0.18950833907E+03  0.00000000000E+00 0.  1.
          5    1    5    5  502    0 -0.69311573700E+02  0.45204650419E+01  0.46153739310E+03  0.46675837869E+03  0.47000000000E+01 0. -1.
         13    1    4    4    0    0 -0.24122046659E+02 -0.55003482117E+02  0.60031644707E+02  0.84917928297E+02  0.00000000000E+00 0. -1.
        -14    1    4    4    0    0 -0.11325084466E+02 -0.31789770628E+01 -0.24135762249E+02  0.26849552188E+02  0.00000000000E+00 0.  1.
         -5    1    3    3    0  504  0.84889980032E+02 -0.12669453748E+02  0.44203136152E+01  0.86072370367E+02  0.47000000000E+01 0.  1.
<mgrwt>
<rscale>  2 0.19381675E+03</rscale>
<asrwt>0</asrwt>
<pdfrwt beam="1">  1       21 0.13372806E+00 0.19385954E+03</pdfrwt>
<pdfrwt beam="2">  1       21 0.14044066E-01 0.19385954E+03</pdfrwt>
<totfact> 0.17777396E+04</totfact>
</mgrwt>
</event>
<event>
12    1  0.1410528E-001  0.1932886E+03  0.7546771E-02  0.1155637E+00
         21   -1    0    0  502  503  0.00000000000E+00  0.00000000000E+00  0.23281989255E+03  0.23281989255E+03  0.00000000000E+00 0.  1.
         21   -1    0    0  503  504 -0.00000000000E+00 -0.00000000000E+00 -0.45738581475E+03  0.45738581475E+03  0.00000000000E+00 0.  1.
         -6    2    1    2    0  504  0.82488930120E+02  0.26045357502E+02 -0.39057472054E+03  0.43578559765E+03  0.17285164319E+03 0.  0.
        -24    2    3    3    0    0 -0.34172860071E+01  0.55440061296E+02 -0.24314363007E+03  0.26257490798E+03  0.82106511392E+02 0.  0.
          6    2    1    2  502    0 -0.82488930120E+02 -0.26045357502E+02  0.16600879834E+03  0.25442010965E+03  0.17230173194E+03 0.  0.
         24    2    5    5    0    0 -0.11793392949E+03 -0.40900221159E+02  0.10777812815E+03  0.18449217599E+03  0.82704282109E+02 0.  0.
          4    1    6    6  501    0 -0.52893196381E+02  0.17032667239E+02  0.70456189859E+02  0.89732249867E+02  0.00000000000E+00 0. -1.
         -3    1    6    6    0  501 -0.65040733113E+02 -0.57932888398E+02  0.37321938289E+02  0.94759926128E+02  0.00000000000E+00 0.  1.
          5    1    5    5  502    0  0.35444999374E+02  0.14854863657E+02  0.58230670191E+02  0.69927933659E+02  0.47000000000E+01 0. -1.
         13    1    4    4    0    0 -0.38846455051E+02  0.37609031337E+02 -0.96000329924E+02  0.11017962449E+03  0.00000000000E+00 0. -1.
        -14    1    4    4    0    0  0.35429169044E+02  0.17831029958E+02 -0.14714330015E+03  0.15239528348E+03  0.00000000000E+00 0.  1.
         -5    1    3    3    0  504  0.85906216127E+02 -0.29394703794E+02 -0.14743109047E+03  0.17321068967E+03  0.47000000000E+01 0.  1.
<mgrwt>
<rscale>  2 0.19316556E+03</rscale>
<asrwt>0</asrwt>
<pdfrwt beam="1">  1       21 0.35818445E-01 0.19328858E+03</pdfrwt>
<pdfrwt beam="2">  1       21 0.70367048E-01 0.19328858E+03</pdfrwt>
<totfact> 0.13762012E+04</totfact>
</mgrwt>
</event>
<event>
12    1  0.1410528E-001  0.2086320E+03  0.7546771E-02  0.1143455E+00
         21   -1    0    0  502  503  0.00000000000E+00  0.00000000000E+00  0.79136954116E+02  0.79136954116E+02  0.00000000000E+00 0. -1.
         21   -1    0    0  503  504 -0.00000000000E+00 -0.00000000000E+00 -0.69306055573E+03  0.69306055573E+03  0.00000000000E+00 0. -1.
         -6    2    1    2    0  504  0.70476579485E+02 -0.60935049558E+02 -0.48633565192E+03  0.52764485970E+03  0.18222706473E+03 0.  0.
        -24    2    3    3    0    0  0.79971044521E+02 -0.34980020720E+02 -0.48525969187E+03  0.49959033995E+03  0.80588891290E+02 0.  0.
          6    2    1    2  502    0 -0.70476579485E+02  0.60935049558E+02 -0.12758794970E+03  0.24455265015E+03  0.18667427586E+03 0.  0.
         24    2    5    5    0    0 -0.95662304018E+02 -0.12052832096E+02 -0.50587387589E+02  0.13540720520E+03  0.80495218896E+02 0.  0.
          4    1    6    6  501    0 -0.10584758295E+03  0.44025900886E+01 -0.46136514284E+02  0.11554943343E+03  0.00000000000E+00 0. -1.
         -3    1    6    6    0  501  0.10185278936E+02 -0.16455422185E+02 -0.44508733056E+01  0.19857771765E+02  0.00000000000E+00 0.  1.
          5    1    5    5  502    0  0.25185724533E+02  0.72987881654E+02 -0.77000562106E+02  0.10914544495E+03  0.47000000000E+01 0. -1.
         11    1    4    4    0    0  0.11057935534E+02 -0.44877277588E+02 -0.25036258952E+03  0.25459315430E+03  0.00000000000E+00 0. -1.
        -12    1    4    4    0    0  0.68913108987E+02  0.98972568678E+01 -0.23489710235E+03  0.24499718565E+03  0.00000000000E+00 0.  1.
         -5    1    3    3    0  504 -0.94944650355E+01 -0.25955028838E+02 -0.10759600414E+01  0.28054519748E+02  0.47000000000E+01 0.  1.
<mgrwt>
<rscale>  2 0.20763246E+03</rscale>
<asrwt>0</asrwt>
<pdfrwt beam="1">  1       21 0.12174916E-01 0.20863201E+03</pdfrwt>
<pdfrwt beam="2">  1       21 0.10662470E+00 0.20863201E+03</pdfrwt>
<totfact> 0.39916803E+04</totfact>
</mgrwt>
</event>
<event>
12    1  0.1410528E-001  0.2207993E+03  0.7546771E-02  0.1133675E+00
         21   -1    0    0  502  503  0.00000000000E+00  0.00000000000E+00  0.14401530270E+03  0.14401530270E+03  0.00000000000E+00 0. -1.
         21   -1    0    0  503  504 -0.00000000000E+00 -0.00000000000E+00 -0.33546971104E+03  0.33546971104E+03  0.00000000000E+00 0.  1.
         -6    2    1    2    0  504 -0.13113399233E+03  0.35043169345E+02 -0.10064758556E+03  0.24265669933E+03  0.17414990551E+03 0.  0.
        -24    2    3    3    0    0 -0.10110854581E+03  0.31449923699E+02 -0.14018794217E+03  0.19265701280E+03  0.79069777513E+02 0.  0.
          6    2    1    2  502    0  0.13113399233E+03 -0.35043169345E+02 -0.90806822773E+02  0.23682831442E+03  0.17151566630E+03 0.  0.
         24    2    5    5    0    0  0.12539121779E+03 -0.36962499865E+01 -0.12137928077E+03  0.19241689695E+03  0.80961180017E+02 0.  0.
          4    1    6    6  501    0  0.13120355618E+03 -0.50410687228E+01 -0.86963577174E+02  0.15748793377E+03  0.00000000000E+00 0. -1.
         -3    1    6    6    0  501 -0.58123383889E+01  0.13448187363E+01 -0.34415703600E+02  0.34928963187E+02  0.00000000000E+00 0.  1.
          5    1    5    5  502    0  0.57427745388E+01 -0.31346919358E+02  0.30572458001E+02  0.44411417461E+02  0.47000000000E+01 0. -1.
         11    1    4    4    0    0 -0.31848060390E+02  0.29895443125E+02 -0.94403334467E+01  0.44689555445E+02  0.00000000000E+00 0. -1.
        -12    1    4    4    0    0 -0.69260485420E+02  0.15544805738E+01 -0.13074760872E+03  0.14796745736E+03  0.00000000000E+00 0.  1.
         -5    1    3    3    0  504 -0.30025446517E+02  0.35932456455E+01  0.39540356602E+02  0.49999686529E+02  0.47000000000E+01 0.  1.
<mgrwt>
<rscale>  2 0.22027956E+03</rscale>
<asrwt>0</asrwt>
<pdfrwt beam="1">  1       21 0.22156201E-01 0.22079931E+03</pdfrwt>
<pdfrwt beam="2">  1       21 0.51610724E-01 0.22079931E+03</pdfrwt>
<totfact> 0.67088439E+04</totfact>
</mgrwt>
</event>
<event>
12    1  0.1410528E-001  0.1844987E+03  0.7546771E-02  0.1164100E+00
         21   -1    0    0  502  503  0.00000000000E+00  0.00000000000E+00  0.15125418292E+04  0.15125418292E+04  0.00000000000E+00 0.  1.
         21   -1    0    0  503  504 -0.00000000000E+00 -0.00000000000E+00 -0.40234250645E+02  0.40234250645E+02  0.00000000000E+00 0.  1.
         -6    2    1    2    0  504  0.20116641996E+01 -0.56015904645E+02  0.21372453848E+03  0.28074186642E+03  0.17319350116E+03 0.  0.
        -24    2    3    3    0    0  0.31633853261E+02 -0.29637846894E+02  0.22202175702E+03  0.23994713820E+03  0.80011661019E+02 0.  0.
          6    2    1    2  502    0 -0.20116641996E+01  0.56015904645E+02  0.12585830401E+04  0.12720342135E+04  0.17577810729E+03 0.  0.
         24    2    5    5    0    0 -0.35517199214E+02  0.62383163335E+02  0.45058773504E+03  0.46330578817E+03  0.80435165677E+02 0.  0.
          4    1    6    6  501    0 -0.38331302893E+02  0.13325796900E+02  0.82373855291E+02  0.91827652045E+02  0.00000000000E+00 0. -1.
         -3    1    6    6    0  501  0.28141036790E+01  0.49057366434E+02  0.36821387974E+03  0.37147813612E+03  0.00000000000E+00 0.  1.
          5    1    5    5  502    0  0.33505535014E+02 -0.63672586895E+01  0.80799530507E+03  0.80872842529E+03  0.47000000000E+01 0. -1.
         11    1    4    4    0    0  0.48228522307E+02 -0.17504037150E+02  0.71363090136E+02  0.87892390536E+02  0.00000000000E+00 0. -1.
        -12    1    4    4    0    0 -0.16594669045E+02 -0.12133809744E+02  0.15065866688E+03  0.15205474766E+03  0.00000000000E+00 0.  1.
         -5    1    3    3    0  504 -0.29622189062E+02 -0.26378057751E+02 -0.82972185320E+01  0.40794728224E+02  0.47000000000E+01 0.  1.
<mgrwt>
<rscale>  2 0.18388041E+03</rscale>
<asrwt>0</asrwt>
<pdfrwt beam="1">  1       21 0.23269870E+00 0.18449870E+03</pdfrwt>
<pdfrwt beam="2">  1       21 0.61898859E-02 0.18449870E+03</pdfrwt>
<totfact> 0.15859463E+04</totfact>
</mgrwt>
</event>
<event>
12    1  0.1410528E-001  0.2310028E+03  0.7546771E-02  0.1127801E+00
         21   -1    0    0  502  503  0.00000000000E+00  0.00000000000E+00  0.10111665844E+04  0.10111665844E+04  0.00000000000E+00 0. -1.
         21   -1    0    0  503  504 -0.00000000000E+00 -0.00000000000E+00 -0.50818132287E+02  0.50818132287E+02  0.00000000000E+00 0. -1.
         -6    2    1    2    0  504  0.13471503264E+03  0.70902733441E+02  0.51595623484E+03  0.56113868979E+03  0.15965730576E+03 0.  0.
        -24    2    3    3    0    0  0.14512293380E+03  0.18890754172E+02  0.39039248696E+03  0.42474985163E+03  0.81170290590E+02 0.  0.
          6    2    1    2  502    0 -0.13471503264E+03 -0.70902733441E+02  0.44439221731E+03  0.50084602693E+03  0.17374395604E+03 0.  0.
         24    2    5    5    0    0 -0.68282856269E+02 -0.10796644520E+03  0.33719818623E+03  0.36931807140E+03  0.79836829325E+02 0.  0.
          2    1    6    6  501    0 -0.39798690433E+02 -0.89854586724E+02  0.15153803910E+03  0.18061439536E+03  0.00000000000E+00 0. -1.
         -1    1    6    6    0  501 -0.28484165836E+02 -0.18111858479E+02  0.18566014712E+03  0.18870367604E+03  0.00000000000E+00 0.  1.
          5    1    5    5  502    0 -0.66432176372E+02  0.37063711762E+02  0.10719403108E+03  0.13152795554E+03  0.47000000000E+01 0. -1.
         11    1    4    4    0    0  0.61808498293E+02 -0.21981267272E+02  0.23277788332E+03  0.24184501139E+03  0.00000000000E+00 0. -1.
        -12    1    4    4    0    0  0.83314435510E+02  0.40872021444E+02  0.15761460364E+03  0.18290484024E+03  0.00000000000E+00 0.  1.
         -5    1    3    3    0  504 -0.10407901162E+02  0.52011979269E+02  0.12556374788E+03  0.13638883816E+03  0.47000000000E+01 0.  1.
<mgrwt>
<rscale>  2 0.22835784E+03</rscale>
<asrwt>0</asrwt>
<pdfrwt beam="1">  1       21 0.15556408E+00 0.23100281E+03</pdfrwt>
<pdfrwt beam="2">  1       21 0.78181749E-02 0.23100281E+03</pdfrwt>
<totfact> 0.33140226E+04</totfact>
</mgrwt>
</event>
<event>
12    1  0.1410528E-001  0.2300955E+03  0.7546771E-02  0.1126842E+00
         21   -1    0    0  502  503  0.00000000000E+00  0.00000000000E+00  0.56605926294E+03  0.56605926294E+03  0.00000000000E+00 0. -1.
         21   -1    0    0  503  504 -0.00000000000E+00 -0.00000000000E+00 -0.24553184201E+03  0.24553184201E+03  0.00000000000E+00 0. -1.
         -6    2    1    2    0  504  0.53165308882E+02 -0.13942830300E+03 -0.15987245118E+03  0.27892989614E+03  0.17313545151E+03 0.  0.
        -24    2    3    3    0    0 -0.82650002755E+01 -0.97855726065E+02 -0.16005046821E+03  0.20460571618E+03  0.81260650796E+02 0.  0.
          6    2    1    2  502    0 -0.53165308882E+02  0.13942830300E+03  0.48039987211E+03  0.53266120882E+03  0.17514886387E+03 0.  0.
         24    2    5    5    0    0 -0.58862829705E+02  0.22996422439E+02  0.25696252882E+03  0.28059934949E+03  0.93341231778E+02 0.  0.
          4    1    6    6  501    0 -0.79018279234E+02  0.19564938435E+01  0.14771670705E+03  0.16753489745E+03  0.00000000000E+00 0. -1.
         -3    1    6    6    0  501  0.20155449529E+02  0.21039928596E+02  0.10924582177E+03  0.11306445204E+03  0.00000000000E+00 0.  1.
          5    1    5    5  502    0  0.56975208234E+01  0.11643188056E+03  0.22343734329E+03  0.25206185933E+03  0.47000000000E+01 0. -1.
         13    1    4    4    0    0  0.35585140451E+02 -0.53238839127E+02 -0.69011728975E+02  0.94145073948E+02  0.00000000000E+00 0. -1.
        -14    1    4    4    0    0 -0.43850140727E+02 -0.44616886938E+02 -0.91038739232E+02  0.11046064223E+03  0.00000000000E+00 0.  1.
         -5    1    3    3    0  504  0.61430309157E+02 -0.41572576931E+02  0.17801702867E+00  0.74324179954E+02  0.47000000000E+01 0.  1.
<mgrwt>
<rscale>  2 0.22971230E+03</rscale>
<asrwt>0</asrwt>
<pdfrwt beam="1">  1       21 0.87086040E-01 0.23009547E+03</pdfrwt>
<pdfrwt beam="2">  1       21 0.37774130E-01 0.23009547E+03</pdfrwt>
<totfact> 0.74642632E+03</totfact>
</mgrwt>
</event>
<event>
12    1  0.1410528E-001  0.1856658E+03  0.7546771E-02  0.1162526E+00
         21   -1    0    0  502  503  0.00000000000E+00  0.00000000000E+00  0.18579991610E+04  0.18579991610E+04  0.00000000000E+00 0. -1.
         21   -1    0    0  503  504 -0.00000000000E+00 -0.00000000000E+00 -0.27891885591E+02  0.27891885591E+02  0.00000000000E+00 0. -1.
         -6    2    1    2    0  504 -0.67021418577E+02  0.29817827862E+02  0.36890424867E+03  0.41299167687E+03  0.17056027402E+03 0.  0.
        -24    2    3    3    0    0 -0.29659585856E+02 -0.46936366825E+01  0.72949845086E+02  0.11266178038E+03  0.80431807151E+02 0.  0.
          6    2    1    2  502    0  0.67021418577E+02 -0.29817827862E+02  0.14612030268E+04  0.14728993697E+04  0.17010965448E+03 0.  0.
         24    2    5    5    0    0 -0.63964992133E+01 -0.21018112813E+02  0.11322042513E+04  0.11356607155E+04  0.85767813685E+02 0.  0.
          2    1    6    6  501    0 -0.17373728491E+02 -0.52393598757E+02  0.68053343202E+03  0.68276839977E+03  0.00000000000E+00 0. -1.
         -1    1    6    6    0  501  0.10977229277E+02  0.31375485944E+02  0.45167081924E+03  0.45289231571E+03  0.00000000000E+00 0.  1.
          5    1    5    5  502    0  0.73417917790E+02 -0.87997150493E+01  0.32899877550E+03  0.33723865425E+03  0.47000000000E+01 0. -1.
         13    1    4    4    0    0 -0.55140388408E+02 -0.16749711947E+02  0.50535224693E+02  0.76647401906E+02  0.00000000000E+00 0. -1.
        -14    1    4    4    0    0  0.25480802552E+02  0.12056075265E+02  0.22414620393E+02  0.36014378474E+02  0.00000000000E+00 0.  1.
         -5    1    3    3    0  504 -0.37361832721E+02  0.34511464545E+02  0.29595440358E+03  0.30032989649E+03  0.47000000000E+01 0.  1.
<mgrwt>
<rscale>  2 0.18556222E+03</rscale>
<asrwt>0</asrwt>
<pdfrwt beam="1">  1       21 0.28584593E+00 0.18566578E+03</pdfrwt>
<pdfrwt beam="2">  1       21 0.42910608E-02 0.18566578E+03</pdfrwt>
<totfact> 0.14443384E+04</totfact>
</mgrwt>
</event>
<event>
12    1  0.1410528E-001  0.1803763E+03  0.7546771E-02  0.1167736E+00
         21   -1    0    0  502  503  0.00000000000E+00  0.00000000000E+00  0.24902760956E+03  0.24902760956E+03  0.00000000000E+00 0. -1.
         21   -1    0    0  503  504 -0.00000000000E+00 -0.00000000000E+00 -0.13453802015E+03  0.13453802015E+03  0.00000000000E+00 0. -1.
         -6    2    1    2    0  504 -0.75702717215E+01 -0.52566783094E+02  0.21310399721E+02  0.18163082197E+03  0.17238052864E+03 0.  0.
        -24    2    3    3    0    0  0.50789692658E+02 -0.19195990151E+02  0.49905254355E+02  0.10842391672E+03  0.79480389948E+02 0.  0.
          6    2    1    2  502    0  0.75702717215E+01  0.52566783094E+02  0.93179189688E+02  0.20193480775E+03  0.17109859581E+03 0.  0.
         24    2    5    5    0    0  0.56194396440E+02 -0.10736849957E+02  0.60930335735E+02  0.11571570288E+03  0.80028294638E+02 0.  0.
          2    1    6    6  501    0 -0.20486598307E+02 -0.52629550108E+01  0.92681636019E+01  0.23093251443E+02  0.00000000000E+00 0. -1.
         -1    1    6    6    0  501  0.76680994748E+02 -0.54738949458E+01  0.51662172133E+02  0.92622451440E+02  0.00000000000E+00 0.  1.
          5    1    5    5  502    0 -0.48624124719E+02  0.63303633051E+02  0.32248853954E+02  0.86219104863E+02  0.47000000000E+01 0. -1.
         13    1    4    4    0    0  0.45728538941E+02  0.74109106903E+00 -0.84863754153E+01  0.46515234680E+02  0.00000000000E+00 0. -1.
        -14    1    4    4    0    0  0.50611537171E+01 -0.19937081220E+02  0.58391629771E+02  0.61908682039E+02  0.00000000000E+00 0.  1.
         -5    1    3    3    0  504 -0.58359964380E+02 -0.33370792943E+02 -0.28594854635E+02  0.73206905246E+02  0.47000000000E+01 0.  1.
<mgrwt>
<rscale>  2 0.18006938E+03</rscale>
<asrwt>0</asrwt>
<pdfrwt beam="1">  1       21 0.38311940E-01 0.18037634E+03</pdfrwt>
<pdfrwt beam="2">  1       21 0.20698157E-01 0.18037634E+03</pdfrwt>
<totfact> 0.14279878E+05</totfact>
</mgrwt>
</event>
<event>
12    1  0.1410528E-001  0.2044395E+03  0.7546771E-02  0.1146105E+00
         21   -1    0    0  502  503  0.00000000000E+00  0.00000000000E+00  0.90183001001E+02  0.90183001001E+02  0.00000000000E+00 0.  1.
         21   -1    0    0  503  504 -0.00000000000E+00 -0.00000000000E+00 -0.63447928866E+03  0.63447928866E+03  0.00000000000E+00 0.  1.
         -6    2    1    2    0  504 -0.87452057359E+02  0.64052148215E+02 -0.46048048236E+03  0.50370844074E+03  0.17300109426E+03 0.  0.
        -24    2    3    3    0    0 -0.24756073563E+02 -0.59078912779E+01 -0.10297601128E+03  0.13403732968E+03  0.81940103074E+02 0.  0.
          6    2    1    2  502    0  0.87452057359E+02 -0.64052148215E+02 -0.83815805299E+02  0.22095384892E+03  0.17333486120E+03 0.  0.
         24    2    5    5    0    0  0.50023132623E+01 -0.15967129303E+02 -0.93999061934E+02  0.12485016501E+03  0.80447297668E+02 0.  0.
          4    1    6    6  501    0 -0.18994648878E+02  0.20459206215E+01 -0.92879415457E+02  0.94823880394E+02  0.00000000000E+00 0. -1.
         -3    1    6    6    0  501  0.23996962140E+02 -0.18013049925E+02 -0.11196464769E+01  0.30026284615E+02  0.00000000000E+00 0.  1.
          5    1    5    5  502    0  0.82449744097E+02 -0.48085018911E+02  0.10183256635E+02  0.96103683910E+02  0.47000000000E+01 0. -1.
         11    1    4    4    0    0 -0.30528753288E+02  0.29906986137E+02 -0.29006225243E+02  0.51650689250E+02  0.00000000000E+00 0. -1.
        -12    1    4    4    0    0  0.57726797255E+01 -0.35814877415E+02 -0.73969786038E+02  0.82386640433E+02  0.00000000000E+00 0.  1.
         -5    1    3    3    0  504 -0.62695983796E+02  0.69960039493E+02 -0.35750447108E+03  0.36967111106E+03  0.47000000000E+01 0.  1.
<mgrwt>
<rscale>  2 0.20436875E+03</rscale>
<asrwt>0</asrwt>
<pdfrwt beam="1">  1       21 0.13874307E-01 0.20443951E+03</pdfrwt>
<pdfrwt beam="2">  1       21 0.97612203E-01 0.20443951E+03</pdfrwt>
<totfact> 0.39034682E+04</totfact>
</mgrwt>
</event>
<event>
12    1  0.1410528E-001  0.2111694E+03  0.7546771E-02  0.1140946E+00
         21   -1    0    0  502  503  0.00000000000E+00  0.00000000000E+00  0.16662586371E+02  0.16662586371E+02  0.00000000000E+00 0.  1.
         21   -1    0    0  503  504 -0.00000000000E+00 -0.00000000000E+00 -0.34611089840E+04  0.34611089840E+04  0.00000000000E+00 0.  1.
         -6    2    1    2    0  504 -0.34952408770E+02 -0.11558631515E+03 -0.25556588593E+04  0.25642422583E+04  0.17136010892E+03 0.  0.
        -24    2    3    3    0    0 -0.80543876224E+02 -0.52972322035E+02 -0.18924287349E+04  0.18964882752E+04  0.78024857128E+02 0.  0.
          6    2    1    2  502    0  0.34952408770E+02  0.11558631515E+03 -0.88878753836E+03  0.91352931211E+03  0.17323581796E+03 0.  0.
         24    2    5    5    0    0  0.13513317237E+02  0.13431275906E+03 -0.51003248757E+03  0.53367698180E+03  0.80345849550E+02 0.  0.
          2    1    6    6  501    0  0.41196256528E+02  0.36592597413E+02 -0.19853822775E+03  0.20604265970E+03  0.00000000000E+00 0. -1.
         -1    1    6    6    0  501 -0.27682939291E+02  0.97720161643E+02 -0.31149425982E+03  0.32763432210E+03  0.00000000000E+00 0.  1.
          5    1    5    5  502    0  0.21439091533E+02 -0.18726443907E+02 -0.37875505078E+03  0.37985233031E+03  0.47000000000E+01 0. -1.
         13    1    4    4    0    0 -0.15433786840E+02 -0.12395031001E+02 -0.79166133698E+02  0.81603402469E+02  0.00000000000E+00 0. -1.
        -14    1    4    4    0    0 -0.65110089384E+02 -0.40577291034E+02 -0.18132626012E+04  0.18148848728E+04  0.00000000000E+00 0.  1.
         -5    1    3    3    0  504  0.45591467454E+02 -0.62613993113E+02 -0.66323012435E+03  0.66775398305E+03  0.47000000000E+01 0.  1.
<mgrwt>
<rscale>  2 0.21078434E+03</rscale>
<asrwt>0</asrwt>
<pdfrwt beam="1">  1       21 0.25634756E-02 0.21116940E+03</pdfrwt>
<pdfrwt beam="2">  1       21 0.53247814E+00 0.21116940E+03</pdfrwt>
<totfact> 0.88228521E+02</totfact>
</mgrwt>
</event>
<event>
12    1  0.1410528E-001  0.1766339E+03  0.7546771E-02  0.1171382E+00
         21   -1    0    0  502  503  0.00000000000E+00  0.00000000000E+00  0.46474123191E+02  0.46474123191E+02  0.00000000000E+00 0. -1.
         21   -1    0    0  503  504 -0.00000000000E+00 -0.00000000000E+00 -0.66780707102E+03  0.66780707102E+03  0.00000000000E+00 0. -1.
         -6    2    1    2    0  504 -0.36879311901E+02  0.43418353755E+00 -0.32171710100E+03  0.36647495343E+03  0.17158591507E+03 0.  0.
        -24    2    3    3    0    0 -0.45814518290E+02 -0.49408950646E+02 -0.12694878674E+03  0.16517676123E+03  0.81407330798E+02 0.  0.
          6    2    1    2  502    0  0.36879311901E+02 -0.43418353755E+00 -0.29961584683E+03  0.34780624079E+03  0.17274042172E+03 0.  0.
         24    2    5    5    0    0  0.33470340722E+02 -0.14991397389E+01 -0.50689659988E+02  0.98810072721E+02  0.77919687585E+02 0.  0.
          2    1    6    6  501    0  0.54352280788E+02  0.16190780527E+02 -0.40135572092E+02  0.69477880998E+02  0.00000000000E+00 0. -1.
         -1    1    6    6    0  501 -0.20881940065E+02 -0.17689920266E+02 -0.10554087897E+02  0.29332191722E+02  0.00000000000E+00 0.  1.
          5    1    5    5  502    0  0.34089711789E+01  0.10649562013E+01 -0.24892618684E+03  0.24899616807E+03  0.47000000000E+01 0. -1.
         13    1    4    4    0    0 -0.13953443568E+02  0.12720650005E+02 -0.77118653043E+02  0.79396474551E+02  0.00000000000E+00 0. -1.
        -14    1    4    4    0    0 -0.31861074721E+02 -0.62129600651E+02 -0.49830133695E+02  0.85780286684E+02  0.00000000000E+00 0.  1.
         -5    1    3    3    0  504  0.89352063884E+01  0.49843134184E+02 -0.19476831426E+03  0.20129819219E+03  0.47000000000E+01 0.  1.
<mgrwt>
<rscale>  2 0.17635097E+03</rscale>
<asrwt>0</asrwt>
<pdfrwt beam="1">  1       21 0.71498654E-02 0.17663387E+03</pdfrwt>
<pdfrwt beam="2">  1       21 0.10273955E+00 0.17663387E+03</pdfrwt>
<totfact> 0.11297138E+05</totfact>
</mgrwt>
</event>
<event>
12    1  0.1410528E-001  0.2141806E+03  0.7546771E-02  0.1138675E+00
         21   -1    0    0  502  503  0.00000000000E+00  0.00000000000E+00  0.13396355397E+03  0.13396355397E+03  0.00000000000E+00 0. -1.
         21   -1    0    0  503  504 -0.00000000000E+00 -0.00000000000E+00 -0.39580393319E+03  0.39580393319E+03  0.00000000000E+00 0. -1.
         -6    2    1    2    0  504  0.11256002512E+03 -0.52011864827E+02 -0.23149022337E+03  0.31537447665E+03  0.17463774984E+03 0.  0.
        -24    2    3    3    0    0  0.12547018034E+03 -0.80665899609E+02 -0.22815572936E+03  0.28342240837E+03  0.77611025094E+02 0.  0.
          6    2    1    2  502    0 -0.11256002512E+03  0.52011864827E+02 -0.30350155853E+02  0.21439301051E+03  0.17224470285E+03 0.  0.
         24    2    5    5    0    0 -0.26586330645E+02 -0.20209107439E+02  0.31231014205E+02  0.86245925169E+02  0.73128259649E+02 0.  0.
          2    1    6    6  501    0 -0.18013719056E+02 -0.47764743744E+02  0.15350496284E+02  0.53306683965E+02  0.00000000000E+00 0. -1.
         -1    1    6    6    0  501 -0.85726115888E+01  0.27555636305E+02  0.15880517921E+02  0.32939241204E+02  0.00000000000E+00 0.  1.
          5    1    5    5  502    0 -0.85973694473E+02  0.72220972266E+02 -0.61581170058E+02  0.12814708534E+03  0.47000000000E+01 0. -1.
         13    1    4    4    0    0  0.51963356481E+01 -0.12936784507E+02 -0.78906454380E+02  0.80128589407E+02  0.00000000000E+00 0. -1.
        -14    1    4    4    0    0  0.12027384469E+03 -0.67729115102E+02 -0.14924927498E+03  0.20329381897E+03  0.00000000000E+00 0.  1.
         -5    1    3    3    0  504 -0.12910155218E+02  0.28654034783E+02 -0.33344940139E+01  0.31952068281E+02  0.47000000000E+01 0.  1.
<mgrwt>
<rscale>  2 0.21369227E+03</rscale>
<asrwt>0</asrwt>
<pdfrwt beam="1">  1       21 0.20609778E-01 0.21418062E+03</pdfrwt>
<pdfrwt beam="2">  1       21 0.60892912E-01 0.21418062E+03</pdfrwt>
<totfact> 0.54222309E+04</totfact>
</mgrwt>
</event>
<event>
12    1  0.1410528E-001  0.1777218E+03  0.7546771E-02  0.1170076E+00
         21   -1    0    0  502  503  0.00000000000E+00  0.00000000000E+00  0.16037009247E+03  0.16037009247E+03  0.00000000000E+00 0.  1.
         21   -1    0    0  503  504 -0.00000000000E+00 -0.00000000000E+00 -0.31682501958E+03  0.31682501958E+03  0.00000000000E+00 0.  1.
         -6    2    1    2    0  504 -0.26656829390E+02 -0.36610781249E+02 -0.22515564148E+03  0.28684505114E+03  0.17185483587E+03 0.  0.
        -24    2    3    3    0    0  0.17087577604E+02 -0.17186390515E+02 -0.22339074910E+03  0.23871933095E+03  0.80598603320E+02 0.  0.
          6    2    1    2  502    0  0.26656829390E+02  0.36610781249E+02  0.68700714369E+02  0.19035006091E+03  0.17164621078E+03 0.  0.
         24    2    5    5    0    0 -0.14202227974E+02 -0.16995711681E+02 -0.13176089755E+02  0.84194421839E+02  0.80153189784E+02 0.  0.
          2    1    6    6  501    0 -0.42723411170E+02  0.54846877253E+01 -0.19585195676E+02  0.47317560705E+02  0.00000000000E+00 0. -1.
         -1    1    6    6    0  501  0.28521183196E+02 -0.22480399406E+02  0.64091059204E+01  0.36876861134E+02  0.00000000000E+00 0.  1.
          5    1    5    5  502    0  0.40859057364E+02  0.53606492930E+02  0.81876804124E+02  0.10615563907E+03  0.47000000000E+01 0. -1.
         11    1    4    4    0    0  0.36940277095E+02  0.19952532725E+02 -0.10676404718E+03  0.11472248866E+03  0.00000000000E+00 0. -1.
        -12    1    4    4    0    0 -0.19852699492E+02 -0.37138923240E+02 -0.11662670192E+03  0.12399684228E+03  0.00000000000E+00 0.  1.
         -5    1    3    3    0  504 -0.43744406994E+02 -0.19424390734E+02 -0.17648923846E+01  0.48125720189E+02  0.47000000000E+01 0.  1.
<mgrwt>
<rscale>  2 0.17767130E+03</rscale>
<asrwt>0</asrwt>
<pdfrwt beam="1">  1       21 0.24672322E-01 0.17772175E+03</pdfrwt>
<pdfrwt beam="2">  1       21 0.48742311E-01 0.17772175E+03</pdfrwt>
<totfact> 0.62823122E+04</totfact>
</mgrwt>
</event>
<event>
12    1  0.1410528E-001  0.1843372E+03  0.7546771E-02  0.1164117E+00
         21   -1    0    0  502  503  0.00000000000E+00  0.00000000000E+00  0.93884588904E+03  0.93884588904E+03  0.00000000000E+00 0.  1.
         21   -1    0    0  503  504 -0.00000000000E+00 -0.00000000000E+00 -0.44091554280E+02  0.44091554280E+02  0.00000000000E+00 0.  1.
         -6    2    1    2    0  504 -0.32407409752E+02 -0.55662255267E+02  0.23642175724E+03  0.29979236097E+03  0.17271851530E+03 0.  0.
        -24    2    3    3    0    0 -0.80124751911E+02 -0.70976178210E+02  0.17618780380E+03  0.22129599083E+03  0.80449857701E+02 0.  0.
          6    2    1    2  502    0  0.32407409752E+02  0.55662255267E+02  0.65833257752E+03  0.68314508235E+03  0.17069532522E+03 0.  0.
         24    2    5    5    0    0  0.83722549757E+01 -0.16875638373E+02  0.50255653914E+03  0.50957175833E+03  0.82130506098E+02 0.  0.
          4    1    6    6  501    0 -0.22610119119E+01 -0.40870546819E+02  0.43764569757E+03  0.43955576480E+03  0.00000000000E+00 0. -1.
         -3    1    6    6    0  501  0.10633266888E+02  0.23994908446E+02  0.64910841571E+02  0.70015993527E+02  0.00000000000E+00 0.  1.
          5    1    5    5  502    0  0.24035154776E+02  0.72537893640E+02  0.15577603838E+03  0.17357332402E+03  0.47000000000E+01 0. -1.
         11    1    4    4    0    0 -0.66178712107E+02 -0.44984748569E+02  0.17423863741E+03  0.19173510974E+03  0.00000000000E+00 0. -1.
        -12    1    4    4    0    0 -0.13946039804E+02 -0.25991429642E+02  0.19491663944E+01  0.29560881088E+02  0.00000000000E+00 0.  1.
         -5    1    3    3    0  504  0.47717342160E+02  0.15313922944E+02  0.60233953436E+02  0.78496370141E+02  0.47000000000E+01 0.  1.
<mgrwt>
<rscale>  2 0.18386181E+03</rscale>
<asrwt>0</asrwt>
<pdfrwt beam="1">  1       21 0.14443781E+00 0.18433722E+03</pdfrwt>
<pdfrwt beam="2">  1       21 0.67833167E-02 0.18433722E+03</pdfrwt>
<totfact> 0.52938275E+04</totfact>
</mgrwt>
</event>
<event>
12    1  0.1410528E-001  0.2197441E+03  0.7546771E-02  0.1134527E+00
         21   -1    0    0  502  503  0.00000000000E+00  0.00000000000E+00  0.30359319770E+03  0.30359319770E+03  0.00000000000E+00 0.  1.
         21   -1    0    0  503  504 -0.00000000000E+00 -0.00000000000E+00 -0.41105686943E+03  0.41105686943E+03  0.00000000000E+00 0. -1.
         -6    2    1    2    0  504  0.13420504030E+03 -0.21153355906E+02 -0.33458722688E+03  0.40029500130E+03  0.17271079402E+03 0.  0.
        -24    2    3    3    0    0  0.15803263749E+03 -0.40246758324E+02 -0.24203531942E+03  0.30272319196E+03  0.80412182138E+02 0.  0.
          6    2    1    2  502    0 -0.13420504030E+03  0.21153355906E+02  0.22712355514E+03  0.31435506582E+03  0.16963354857E+03 0.  0.
         24    2    5    5    0    0 -0.37865111745E+02  0.66437422388E+02  0.11698212978E+03  0.16110607857E+03  0.80141450482E+02 0.  0.
          4    1    6    6  501    0 -0.73038252603E+01  0.57146294868E+02  0.23328811177E+02  0.62155275814E+02  0.00000000000E+00 0. -1.
         -3    1    6    6    0  501 -0.30561286484E+02  0.92911275204E+01  0.93653318600E+02  0.98950802761E+02  0.00000000000E+00 0.  1.
          5    1    5    5  502    0 -0.96339928552E+02 -0.45284066482E+02  0.11014142537E+03  0.15324898725E+03  0.47000000000E+01 0. -1.
         11    1    4    4    0    0  0.52047275318E+02  0.13154105245E+02 -0.12501921513E+03  0.13605790497E+03  0.00000000000E+00 0. -1.
        -12    1    4    4    0    0  0.10598536217E+03 -0.53400863569E+02 -0.11701610429E+03  0.16666528699E+03  0.00000000000E+00 0.  1.
         -5    1    3    3    0  504 -0.23827597196E+02  0.19093402418E+02 -0.92551907460E+02  0.97571809344E+02  0.47000000000E+01 0.  1.
<mgrwt>
<rscale>  2 0.21913905E+03</rscale>
<asrwt>0</asrwt>
<pdfrwt beam="1">  1       21 0.46706646E-01 0.21974411E+03</pdfrwt>
<pdfrwt beam="2">  1       21 0.63239518E-01 0.21974411E+03</pdfrwt>
<totfact> 0.99715081E+03</totfact>
</mgrwt>
</event>
<event>
12    1  0.1410528E-001  0.1866593E+03  0.7546771E-02  0.1161543E+00
         21   -1    0    0  502  503  0.00000000000E+00  0.00000000000E+00  0.10475287059E+03  0.10475287059E+03  0.00000000000E+00 0.  1.
         21   -1    0    0  503  504 -0.00000000000E+00 -0.00000000000E+00 -0.54014930340E+03  0.54014930340E+03  0.00000000000E+00 0.  1.
         -6    2    1    2    0  504  0.70621838011E+02 -0.51243471231E+01 -0.41774947100E+03  0.45755470620E+03  0.17270780441E+03 0.  0.
        -24    2    3    3    0    0  0.67205347608E+01 -0.53111273535E+02 -0.29587808273E+03  0.31174370886E+03  0.82306301183E+02 0.  0.
          6    2    1    2  502    0 -0.70621838011E+02  0.51243471231E+01 -0.17646961805E+02  0.18734746779E+03  0.17255131262E+03 0.  0.
         24    2    5    5    0    0  0.10773461795E+02  0.48857128350E+02 -0.30528142512E+01  0.93684080449E+02  0.79147335932E+02 0.  0.
          4    1    6    6  501    0  0.79807408112E+01  0.62993083327E+02 -0.24320411660E+02  0.67994876235E+02  0.00000000000E+00 0. -1.
         -3    1    6    6    0  501  0.27927209842E+01 -0.14135954977E+02  0.21267597409E+02  0.25689204214E+02  0.00000000000E+00 0.  1.
          5    1    5    5  502    0 -0.81395299806E+02 -0.43732781227E+02 -0.14594147554E+02  0.93663387336E+02  0.47000000000E+01 0. -1.
         11    1    4    4    0    0 -0.22903179791E+02 -0.60967957316E+01 -0.22176449241E+02  0.32457995374E+02  0.00000000000E+00 0. -1.
        -12    1    4    4    0    0  0.29623714552E+02 -0.47014477804E+02 -0.27370163348E+03  0.27928571349E+03  0.00000000000E+00 0.  1.
         -5    1    3    3    0  504  0.63901303250E+02  0.47986926412E+02 -0.12187138828E+03  0.14581099734E+03  0.47000000000E+01 0.  1.
<mgrwt>
<rscale>  2 0.18662308E+03</rscale>
<asrwt>0</asrwt>
<pdfrwt beam="1">  1       21 0.16115826E-01 0.18665928E+03</pdfrwt>
<pdfrwt beam="2">  1       21 0.83099894E-01 0.18665928E+03</pdfrwt>
<totfact> 0.43546837E+04</totfact>
</mgrwt>
</event>
<event>
12    1  0.1410528E-001  0.2036400E+03  0.7546771E-02  0.1146732E+00
         21   -1    0    0  502  503  0.00000000000E+00  0.00000000000E+00  0.13262003212E+03  0.13262003212E+03  0.00000000000E+00 0. -1.
         21   -1    0    0  503  504 -0.00000000000E+00 -0.00000000000E+00 -0.40865312299E+03  0.40865312299E+03  0.00000000000E+00 0. -1.
         -6    2    1    2    0  504 -0.22987120771E+02 -0.10335765927E+03 -0.26934355419E+03  0.33766137858E+03  0.17394839164E+03 0.  0.
        -24    2    3    3    0    0 -0.35545443621E+02 -0.13316492030E+03 -0.17209998838E+03  0.23507197672E+03  0.81511064778E+02 0.  0.
          6    2    1    2  502    0  0.22987120771E+02  0.10335765927E+03 -0.66895366852E+01  0.20361177654E+03  0.17378662834E+03 0.  0.
         24    2    5    5    0    0 -0.37896803451E+02  0.50180418507E+02  0.39642740931E+02  0.11031954152E+03  0.81514490861E+02 0.  0.
          4    1    6    6  501    0 -0.62552275627E+02  0.37270072220E+02  0.38730258114E+02  0.82473500974E+02  0.00000000000E+00 0. -1.
         -3    1    6    6    0  501  0.24655472175E+02  0.12910346287E+02  0.91248281631E+00  0.27846040550E+02  0.00000000000E+00 0.  1.
          5    1    5    5  502    0  0.60883924222E+02  0.53177240767E+02 -0.46332277616E+02  0.93292235011E+02  0.47000000000E+01 0. -1.
         13    1    4    4    0    0  0.21206987493E+02 -0.78398468410E+02 -0.90000332129E+02  0.12122753792E+03  0.00000000000E+00 0. -1.
        -14    1    4    4    0    0 -0.56752431114E+02 -0.54766451887E+02 -0.82099656247E+02  0.11384443880E+03  0.00000000000E+00 0.  1.
         -5    1    3    3    0  504  0.12558322851E+02  0.29807261023E+02 -0.97243565810E+02  0.10258940186E+03  0.47000000000E+01 0.  1.
<mgrwt>
<rscale>  2 0.20360547E+03</rscale>
<asrwt>0</asrwt>
<pdfrwt beam="1">  1       21 0.20403082E-01 0.20364002E+03</pdfrwt>
<pdfrwt beam="2">  1       21 0.62869710E-01 0.20364002E+03</pdfrwt>
<totfact> 0.51823557E+04</totfact>
</mgrwt>
</event>
<event>
12    1  0.1410528E-001  0.1773527E+03  0.7546771E-02  0.1170819E+00
         21   -1    0    0  502  503  0.00000000000E+00  0.00000000000E+00  0.36238919362E+03  0.36238919362E+03  0.00000000000E+00 0. -1.
         21   -1    0    0  503  504 -0.00000000000E+00 -0.00000000000E+00 -0.12461518303E+03  0.12461518303E+03  0.00000000000E+00 0. -1.
         -6    2    1    2    0  504 -0.31344073742E+02 -0.13940375892E+00 -0.17145831874E+02  0.17645950994E+03  0.17280482836E+03 0.  0.
        -24    2    3    3    0    0 -0.88215985719E+02 -0.46182028397E+01 -0.35357035192E+01  0.11762245013E+03  0.77583191745E+02 0.  0.
          6    2    1    2  502    0  0.31344073742E+02  0.13940375892E+00  0.25491984247E+03  0.31054486671E+03  0.17456092851E+03 0.  0.
         24    2    5    5    0    0  0.29078640619E+02 -0.55282629941E+02  0.88907711804E+02  0.13544817475E+03  0.80869588295E+02 0.  0.
          4    1    6    6  501    0 -0.10996649270E+02 -0.58813592633E+02  0.39332861899E+02  0.71603344885E+02  0.00000000000E+00 0. -1.
         -3    1    6    6    0  501  0.40075289889E+02  0.35309626919E+01  0.49574849905E+02  0.63844829864E+02  0.00000000000E+00 0.  1.
          5    1    5    5  502    0  0.22654331237E+01  0.55422033700E+02  0.16601213066E+03  0.17509669196E+03  0.47000000000E+01 0. -1.
         13    1    4    4    0    0 -0.66906792616E+01 -0.22199715954E+02  0.20371361928E+02  0.30863975185E+02  0.00000000000E+00 0. -1.
        -14    1    4    4    0    0 -0.81525306458E+02  0.17581513114E+02 -0.23907065448E+02  0.86758474945E+02  0.00000000000E+00 0.  1.
         -5    1    3    3    0  504  0.56871911977E+02  0.44787990807E+01 -0.13610128355E+02  0.58837059809E+02  0.47000000000E+01 0.  1.
<mgrwt>
<rscale>  2 0.17691909E+03</rscale>
<asrwt>0</asrwt>
<pdfrwt beam="1">  1       21 0.55752183E-01 0.17735272E+03</pdfrwt>
<pdfrwt beam="2">  1       21 0.19171567E-01 0.17735272E+03</pdfrwt>
<totfact> 0.76185867E+04</totfact>
</mgrwt>
</event>
<event>
12    1  0.1410528E-001  0.2291988E+03  0.7546771E-02  0.1127242E+00
         21   -1    0    0  502  503  0.00000000000E+00  0.00000000000E+00  0.14293122566E+03  0.14293122566E+03  0.00000000000E+00 0.  1.
         21   -1    0    0  503  504 -0.00000000000E+00 -0.00000000000E+00 -0.44225082420E+03  0.44225082420E+03  0.00000000000E+00 0.  1.
         -6    2    1    2    0  504  0.15037008940E+03 -0.82192289041E+01 -0.27024712426E+03  0.35435235266E+03  0.17278125522E+03 0.  0.
        -24    2    3    3    0    0  0.34346379119E+02  0.25526461950E+02 -0.19429207503E+03  0.21155342934E+03  0.71931696960E+02 0.  0.
          6    2    1    2  502    0 -0.15037008940E+03  0.82192289041E+01 -0.29072474282E+02  0.23082969719E+03  0.17250629217E+03 0.  0.
         24    2    5    5    0    0 -0.11958409571E+03  0.55687512719E+02  0.20071688155E+02  0.15574138867E+03  0.80318444080E+02 0.  0.
          2    1    6    6  501    0 -0.27893266997E+02  0.55792123361E+02  0.28078159826E+01  0.62439404254E+02  0.00000000000E+00 0. -1.
         -1    1    6    6    0  501 -0.91690828712E+02 -0.10461064273E+00  0.17263872173E+02  0.93301984415E+02  0.00000000000E+00 0.  1.
          5    1    5    5  502    0 -0.30785993689E+02 -0.47468283815E+02 -0.49144162437E+02  0.75088308526E+02  0.47000000000E+01 0. -1.
         13    1    4    4    0    0 -0.10149960567E+02  0.36074720513E+02 -0.99036809339E+02  0.10589002202E+03  0.00000000000E+00 0. -1.
        -14    1    4    4    0    0  0.44496339686E+02 -0.10548258563E+02 -0.95255265687E+02  0.10566340731E+03  0.00000000000E+00 0.  1.
         -5    1    3    3    0  504  0.11602371028E+03 -0.33745690855E+02 -0.75955049238E+02  0.14279892333E+03  0.47000000000E+01 0.  1.
<mgrwt>
<rscale>  2 0.22914696E+03</rscale>
<asrwt>0</asrwt>
<pdfrwt beam="1">  1       21 0.21989420E-01 0.22919878E+03</pdfrwt>
<pdfrwt beam="2">  1       21 0.68038587E-01 0.22919878E+03</pdfrwt>
<totfact> 0.37413672E+04</totfact>
</mgrwt>
</event>
<event>
12    1  0.1410528E-001  0.1927943E+03  0.7546771E-02  0.1156075E+00
         21   -1    0    0  502  503  0.00000000000E+00  0.00000000000E+00  0.58124005185E+03  0.58124005185E+03  0.00000000000E+00 0. -1.
         21   -1    0    0  503  504 -0.00000000000E+00 -0.00000000000E+00 -0.70771846975E+02  0.70771846975E+02  0.00000000000E+00 0. -1.
         -6    2    1    2    0  504  0.42798752758E+02  0.69027832841E+02  0.15249221779E+03  0.24542062111E+03  0.17430097486E+03 0.  0.
        -24    2    3    3    0    0  0.38906727181E+02  0.52907996840E+02  0.12474876099E+02  0.10434637488E+03  0.80122118471E+02 0.  0.
          6    2    1    2  502    0 -0.42798752758E+02 -0.69027832841E+02  0.35797598709E+03  0.40659127771E+03  0.17485160804E+03 0.  0.
         24    2    5    5    0    0 -0.90469610545E+02 -0.18361056919E+02  0.22378098552E+03  0.25536290302E+03  0.81304390515E+02 0.  0.
          2    1    6    6  501    0 -0.54071523609E+02  0.98428274498E+01  0.19123419981E+03  0.19897519970E+03  0.00000000000E+00 0. -1.
         -1    1    6    6    0  501 -0.36398086936E+02 -0.28203884369E+02  0.32546785704E+02  0.56387703321E+02  0.00000000000E+00 0.  1.
          5    1    5    5  502    0  0.47670857788E+02 -0.50666775921E+02  0.13419500157E+03  0.15122837469E+03  0.47000000000E+01 0. -1.
         13    1    4    4    0    0  0.56966647225E+02  0.49769540648E+02  0.27659368104E+02  0.80543446141E+02  0.00000000000E+00 0. -1.
        -14    1    4    4    0    0 -0.18059920045E+02  0.31384561922E+01 -0.15184492005E+02  0.23802928743E+02  0.00000000000E+00 0.  1.
         -5    1    3    3    0  504  0.38920255770E+01  0.16119836001E+02  0.14001734169E+03  0.14107424623E+03  0.47000000000E+01 0.  1.
<mgrwt>
<rscale>  2 0.19266941E+03</rscale>
<asrwt>0</asrwt>
<pdfrwt beam="1">  1       21 0.89421543E-01 0.19279435E+03</pdfrwt>
<pdfrwt beam="2">  1       21 0.10887977E-01 0.19279435E+03</pdfrwt>
<totfact> 0.74423479E+04</totfact>
</mgrwt>
</event>
<event>
12    1  0.1410528E-001  0.2584771E+03  0.7546771E-02  0.1108313E+00
         21   -1    0    0  502  503  0.00000000000E+00  0.00000000000E+00  0.18256800150E+03  0.18256800150E+03  0.00000000000E+00 0.  1.
         21   -1    0    0  503  504 -0.00000000000E+00 -0.00000000000E+00 -0.39807345663E+03  0.39807345663E+03  0.00000000000E+00 0.  1.
         -6    2    1    2    0  504 -0.14291278571E+03  0.12907060895E+03 -0.19286175028E+03  0.32117439425E+03  0.16992366047E+03 0.  0.
        -24    2    3    3    0    0 -0.41456289835E+02  0.64484756905E+02 -0.24300117898E+02  0.11405156415E+03  0.80872465737E+02 0.  0.
          6    2    1    2  502    0  0.14291278571E+03 -0.12907060895E+03 -0.22643704859E+02  0.25946706388E+03  0.17241558356E+03 0.  0.
         24    2    5    5    0    0  0.28376058280E+02 -0.11309907920E+03 -0.22135038798E+02  0.14372553963E+03  0.81058425847E+02 0.  0.
          4    1    6    6  501    0 -0.21064869052E+02 -0.54526171299E+02 -0.31675386475E+02  0.66484300200E+02  0.00000000000E+00 0. -1.
         -3    1    6    6    0  501  0.49440927331E+02 -0.58572907902E+02  0.95403476773E+01  0.77241239434E+02  0.00000000000E+00 0.  1.
          5    1    5    5  502    0  0.11453672743E+03 -0.15971529754E+02 -0.50866606119E+00  0.11574152425E+03  0.47000000000E+01 0. -1.
         13    1    4    4    0    0  0.70875829063E+01  0.62374557456E+02 -0.11733122868E+02  0.63863020767E+02  0.00000000000E+00 0. -1.
        -14    1    4    4    0    0 -0.48543872741E+02  0.21101994492E+01 -0.12566995030E+02  0.50188543379E+02  0.00000000000E+00 0.  1.
         -5    1    3    3    0  504 -0.10145649588E+03  0.64585852050E+02 -0.16856163238E+03  0.20712283011E+03  0.47000000000E+01 0.  1.
<mgrwt>
<rscale>  2 0.25806224E+03</rscale>
<asrwt>0</asrwt>
<pdfrwt beam="1">  1       21 0.28087385E-01 0.25847712E+03</pdfrwt>
<pdfrwt beam="2">  1       21 0.61242070E-01 0.25847712E+03</pdfrwt>
<totfact> 0.29060956E+04</totfact>
</mgrwt>
</event>
<event>
12    1  0.1410528E-001  0.3451961E+03  0.7546771E-02  0.1064620E+00
         21   -1    0    0  502  503  0.00000000000E+00  0.00000000000E+00  0.49421092506E+03  0.49421092506E+03  0.00000000000E+00 0. -1.
         21   -1    0    0  503  504 -0.00000000000E+00 -0.00000000000E+00 -0.59811435283E+03  0.59811435283E+03  0.00000000000E+00 0.  1.
         -6    2    1    2    0  504 -0.13472745393E+03 -0.26661532276E+03 -0.47396313521E+03  0.58625752795E+03  0.17268936958E+03 0.  0.
        -24    2    3    3    0    0 -0.34907542000E+02 -0.40830091760E+02 -0.11416875690E+03  0.14988948373E+03  0.80911800118E+02 0.  0.
          6    2    1    2  502    0  0.13472745393E+03  0.26661532276E+03  0.37005970745E+03  0.50606774994E+03  0.17298891088E+03 0.  0.
         24    2    5    5    0    0  0.83593239007E+02  0.85198509463E+02  0.22953743567E+03  0.27091808070E+03  0.80390027071E+02 0.  0.
          2    1    6    6  501    0  0.98051508496E+02  0.82741990844E+02  0.21430087631E+03  0.24977029638E+03  0.00000000000E+00 0. -1.
         -1    1    6    6    0  501 -0.14458269489E+02  0.24565186184E+01  0.15236559358E+02  0.21147784314E+02  0.00000000000E+00 0.  1.
          5    1    5    5  502    0  0.51134214923E+02  0.18141681329E+03  0.14052227178E+03  0.23514966925E+03  0.47000000000E+01 0. -1.
         11    1    4    4    0    0 -0.13049679093E+02 -0.49033384511E+02 -0.22875674020E+02  0.55658452933E+02  0.00000000000E+00 0. -1.
        -12    1    4    4    0    0 -0.21857862907E+02  0.82032927504E+01 -0.91293082882E+02  0.94231030797E+02  0.00000000000E+00 0.  1.
         -5    1    3    3    0  504 -0.99819911930E+02 -0.22578523100E+03 -0.35979437830E+03  0.43636804422E+03  0.47000000000E+01 0.  1.
<mgrwt>
<rscale>  2 0.34515864E+03</rscale>
<asrwt>0</asrwt>
<pdfrwt beam="1">  1       21 0.76032450E-01 0.34519615E+03</pdfrwt>
<pdfrwt beam="2">  1       21 0.92017593E-01 0.34519615E+03</pdfrwt>
<totfact> 0.13809631E+03</totfact>
</mgrwt>
</event>
<event>
12    1  0.1410528E-001  0.1754473E+03  0.7546771E-02  0.1172309E+00
         21   -1    0    0  502  503  0.00000000000E+00  0.00000000000E+00  0.51318220033E+03  0.51318220033E+03  0.00000000000E+00 0.  1.
         21   -1    0    0  503  504 -0.00000000000E+00 -0.00000000000E+00 -0.78762768379E+02  0.78762768379E+02  0.00000000000E+00 0.  1.
         -6    2    1    2    0  504  0.11552122988E+02  0.32904841912E+02  0.72596270288E+02  0.18987354664E+03  0.17194640179E+03 0.  0.
        -24    2    3    3    0    0 -0.44780785552E+02 -0.10153684548E+02  0.18259210062E+02  0.10041942768E+03  0.87419944172E+02 0.  0.
          6    2    1    2  502    0 -0.11552122988E+02 -0.32904841912E+02  0.36182316166E+03  0.40207142206E+03  0.17184076338E+03 0.  0.
         24    2    5    5    0    0  0.83159612780E+01 -0.26898449072E+02  0.76966890000E+02  0.11642128110E+03  0.82688153700E+02 0.  0.
          2    1    6    6  501    0 -0.15187176433E+02  0.23623958268E+02  0.11232489221E+02  0.30247488265E+02  0.00000000000E+00 0. -1.
         -1    1    6    6    0  501  0.23503137711E+02 -0.50522407341E+02  0.65734400779E+02  0.86173792835E+02  0.00000000000E+00 0.  1.
          5    1    5    5  502    0 -0.19868084266E+02 -0.60063928400E+01  0.28485627166E+03  0.28565014096E+03  0.47000000000E+01 0. -1.
         13    1    4    4    0    0 -0.48633747546E+02  0.11616140824E+02 -0.21891804016E+02  0.54584129663E+02  0.00000000000E+00 0. -1.
        -14    1    4    4    0    0  0.38529619942E+01 -0.21769825373E+02  0.40151014078E+02  0.45835298018E+02  0.00000000000E+00 0.  1.
         -5    1    3    3    0  504  0.56332908540E+02  0.43058526461E+02  0.54337060225E+02  0.89454118964E+02  0.47000000000E+01 0.  1.
<mgrwt>
<rscale>  2 0.17542138E+03</rscale>
<asrwt>0</asrwt>
<pdfrwt beam="1">  1       21 0.78951106E-01 0.17544727E+03</pdfrwt>
<pdfrwt beam="2">  1       21 0.12117349E-01 0.17544727E+03</pdfrwt>
<totfact> 0.82309426E+04</totfact>
</mgrwt>
</event>
<event>
12    1  0.1410528E-001  0.2298867E+03  0.7546771E-02  0.1127002E+00
         21   -1    0    0  502  503  0.00000000000E+00  0.00000000000E+00  0.78092080684E+02  0.78092080684E+02  0.00000000000E+00 0.  1.
         21   -1    0    0  503  504 -0.00000000000E+00 -0.00000000000E+00 -0.75060118857E+03  0.75060118857E+03  0.00000000000E+00 0.  1.
         -6    2    1    2    0  504  0.11491996086E+03  0.93941101649E+02 -0.46924672656E+03  0.52183255452E+03  0.17345084776E+03 0.  0.
        -24    2    3    3    0    0  0.14340402155E+02  0.37547949843E+02 -0.32137148391E+03  0.33425427063E+03  0.82648600058E+02 0.  0.
          6    2    1    2  502    0 -0.11491996086E+03 -0.93941101649E+02 -0.20326238132E+03  0.30686071473E+03  0.17554593302E+03 0.  0.
         24    2    5    5    0    0 -0.56903203407E+02 -0.25648141687E+02 -0.19082006348E+03  0.21626946902E+03  0.80401398465E+02 0.  0.
          4    1    6    6  501    0 -0.13790628411E+02 -0.17314962755E+02 -0.16253960472E+03  0.16403997217E+03  0.00000000000E+00 0. -1.
         -3    1    6    6    0  501 -0.43112574996E+02 -0.83331789323E+01 -0.28280458761E+02  0.52229496854E+02  0.00000000000E+00 0.  1.
          5    1    5    5  502    0 -0.58016757451E+02 -0.68292959962E+02 -0.12442317845E+02  0.90591245708E+02  0.47000000000E+01 0. -1.
         13    1    4    4    0    0  0.11928747560E+02 -0.41129219881E+01 -0.25841617426E+03  0.25872404269E+03  0.00000000000E+00 0. -1.
        -14    1    4    4    0    0  0.24116545947E+01  0.41660871831E+02 -0.62955309649E+02  0.75530227939E+02  0.00000000000E+00 0.  1.
         -5    1    3    3    0  504  0.10057955870E+03  0.56393151806E+02 -0.14787524265E+03  0.18757828389E+03  0.47000000000E+01 0.  1.
<mgrwt>
<rscale>  2 0.22948671E+03</rscale>
<asrwt>0</asrwt>
<pdfrwt beam="1">  1       21 0.12014166E-01 0.22988672E+03</pdfrwt>
<pdfrwt beam="2">  1       21 0.11547711E+00 0.22988672E+03</pdfrwt>
<totfact> 0.33301262E+04</totfact>
</mgrwt>
</event>
<event>
12    1  0.1410528E-001  0.2243829E+03  0.7546771E-02  0.1130735E+00
         21   -1    0    0  502  503  0.00000000000E+00  0.00000000000E+00  0.50204083792E+03  0.50204083792E+03  0.00000000000E+00 0. -1.
         21   -1    0    0  503  504 -0.00000000000E+00 -0.00000000000E+00 -0.12124493040E+03  0.12124493040E+03  0.00000000000E+00 0.  1.
         -6    2    1    2    0  504 -0.12428108156E+03 -0.69407365174E+02  0.60083640519E+02  0.23187287086E+03  0.17289249495E+03 0.  0.
        -24    2    3    3    0    0 -0.15715196713E+03 -0.44908338368E+02  0.57975091285E+02  0.19055418970E+03  0.78970173958E+02 0.  0.
          6    2    1    2  502    0  0.12428108156E+03  0.69407365174E+02  0.32071226700E+03  0.39141289746E+03  0.17344892193E+03 0.  0.
         24    2    5    5    0    0  0.11055786073E+03  0.11409331878E+03  0.23746287366E+03  0.29582151327E+03  0.76690451735E+02 0.  0.
          4    1    6    6  501    0 -0.20724025338E+01  0.39102473338E+02  0.73092761159E+02  0.82920745337E+02  0.00000000000E+00 0. -1.
         -3    1    6    6    0  501  0.11263026326E+03  0.74990845440E+02  0.16437011250E+03  0.21290076793E+03  0.00000000000E+00 0.  1.
          5    1    5    5  502    0  0.13723220827E+02 -0.44685953605E+02  0.83249393341E+02  0.95591384189E+02  0.47000000000E+01 0. -1.
         11    1    4    4    0    0 -0.55322686581E+02 -0.66610728046E+01  0.59834978866E+02  0.81763037109E+02  0.00000000000E+00 0. -1.
        -12    1    4    4    0    0 -0.10182928055E+03 -0.38247265564E+02 -0.18598875811E+01  0.10879115259E+03  0.00000000000E+00 0.  1.
         -5    1    3    3    0  504  0.32870885575E+02 -0.24499026805E+02  0.21085492340E+01  0.41318681160E+02  0.47000000000E+01 0.  1.
<mgrwt>
<rscale>  2 0.22427539E+03</rscale>
<asrwt>0</asrwt>
<pdfrwt beam="1">  1       21 0.77237051E-01 0.22438293E+03</pdfrwt>
<pdfrwt beam="2">  1       21 0.18653067E-01 0.22438293E+03</pdfrwt>
<totfact> 0.38499271E+04</totfact>
</mgrwt>
</event>
<event>
12    1  0.1410528E-001  0.1859839E+03  0.7546771E-02  0.1163761E+00
         21   -1    0    0  502  503  0.00000000000E+00  0.00000000000E+00  0.61060102442E+03  0.61060102442E+03  0.00000000000E+00 0. -1.
         21   -1    0    0  503  504 -0.00000000000E+00 -0.00000000000E+00 -0.62495938809E+02  0.62495938809E+02  0.00000000000E+00 0. -1.
         -6    2    1    2    0  504 -0.48656476416E+02  0.50884903772E+01  0.14973894657E+03  0.23345440879E+03  0.17229586017E+03 0.  0.
        -24    2    3    3    0    0 -0.19387528759E+02  0.45100432826E+02  0.15720439707E+03  0.18310115878E+03  0.80018039072E+02 0.  0.
          6    2    1    2  502    0  0.48656476416E+02 -0.50884903772E+01  0.39836613905E+03  0.43964255444E+03  0.17943424842E+03 0.  0.
         24    2    5    5    0    0  0.60705560055E+02  0.55940294554E+02  0.19610124807E+03  0.22797567198E+03  0.81870177389E+02 0.  0.
          2    1    6    6  501    0  0.34781699766E+02  0.14310248284E+02  0.16649483407E+03  0.17069001030E+03  0.00000000000E+00 0. -1.
         -1    1    6    6    0  501  0.25923860289E+02  0.41630046270E+02  0.29606414003E+02  0.57285661686E+02  0.00000000000E+00 0.  1.
          5    1    5    5  502    0 -0.12049083639E+02 -0.61028784932E+02  0.20226489098E+03  0.21166688246E+03  0.47000000000E+01 0. -1.
         11    1    4    4    0    0 -0.34683587618E+02 -0.10322924141E+02  0.55068813663E+02  0.65894523680E+02  0.00000000000E+00 0. -1.
        -12    1    4    4    0    0  0.15296058858E+02  0.55423356967E+02  0.10213558340E+03  0.11720663510E+03  0.00000000000E+00 0.  1.
         -5    1    3    3    0  504 -0.29268947657E+02 -0.40011942449E+02 -0.74654505002E+01  0.50353250011E+02  0.47000000000E+01 0.  1.
<mgrwt>
<rscale>  2 0.18424020E+03</rscale>
<asrwt>0</asrwt>
<pdfrwt beam="1">  1       21 0.93938615E-01 0.18598386E+03</pdfrwt>
<pdfrwt beam="2">  1       21 0.96147602E-02 0.18598386E+03</pdfrwt>
<totfact> 0.82943736E+04</totfact>
</mgrwt>
</event>
<event>
12    1  0.1410528E-001  0.1890983E+03  0.7546771E-02  0.1159595E+00
         21   -1    0    0  502  503  0.00000000000E+00  0.00000000000E+00  0.22336897618E+03  0.22336897618E+03  0.00000000000E+00 0.  1.
         21   -1    0    0  503  504 -0.00000000000E+00 -0.00000000000E+00 -0.45605662373E+03  0.45605662373E+03  0.00000000000E+00 0.  1.
         -6    2    1    2    0  504  0.72770612533E+02 -0.91215893589E+01 -0.39070730735E+03  0.43406264146E+03  0.17429690546E+03 0.  0.
        -24    2    3    3    0    0  0.91779046931E+02 -0.97719537533E+01 -0.39547398273E+03  0.41389943868E+03  0.79963677951E+02 0.  0.
          6    2    1    2  502    0 -0.72770612533E+02  0.91215893589E+01  0.15801965980E+03  0.24536295844E+03  0.17278310986E+03 0.  0.
         24    2    5    5    0    0  0.91362035204E+01  0.30903774134E+02  0.30376420755E+02  0.92072134965E+02  0.80721977358E+02 0.  0.
          2    1    6    6  501    0 -0.34243085616E+02  0.25493215537E+02  0.19993727522E+02  0.47140662821E+02  0.00000000000E+00 0. -1.
         -1    1    6    6    0  501  0.43379289136E+02  0.54105585970E+01  0.10382693233E+02  0.44931472145E+02  0.00000000000E+00 0.  1.
          5    1    5    5  502    0 -0.81906816054E+02 -0.21782184776E+02  0.12764323904E+03  0.15329082348E+03  0.47000000000E+01 0. -1.
         11    1    4    4    0    0  0.62352400860E+02 -0.80405630003E+01 -0.10836712393E+03  0.12528330334E+03  0.00000000000E+00 0. -1.
        -12    1    4    4    0    0  0.29426646072E+02 -0.17313907531E+01 -0.28710685880E+03  0.28861613534E+03  0.00000000000E+00 0.  1.
         -5    1    3    3    0  504 -0.19008434398E+02  0.65036439443E+00  0.47666753759E+01  0.20163202778E+02  0.47000000000E+01 0.  1.
<mgrwt>
<rscale>  2 0.18874876E+03</rscale>
<asrwt>0</asrwt>
<pdfrwt beam="1">  1       21 0.34364458E-01 0.18909833E+03</pdfrwt>
<pdfrwt beam="2">  1       21 0.70162557E-01 0.18909833E+03</pdfrwt>
<totfact> 0.15077757E+04</totfact>
</mgrwt>
</event>
<event>
12    1  0.1410528E-001  0.2513643E+03  0.7546771E-02  0.1112490E+00
         21   -1    0    0  502  503  0.00000000000E+00  0.00000000000E+00  0.96167076687E+02  0.96167076687E+02  0.00000000000E+00 0.  1.
         21   -1    0    0  503  504 -0.00000000000E+00 -0.00000000000E+00 -0.11696388082E+04  0.11696388082E+04  0.00000000000E+00 0.  1.
         -6    2    1    2    0  504  0.10867655212E+02 -0.18172870301E+03 -0.95586015978E+03  0.98828746475E+03  0.17291628176E+03 0.  0.
        -24    2    3    3    0    0 -0.57557342556E+02 -0.84826323310E+02 -0.42322506235E+03  0.44258215185E+03  0.79064245572E+02 0.  0.
          6    2    1    2  502    0 -0.10867655212E+02  0.18172870301E+03 -0.11761157171E+03  0.27751842011E+03  0.17332214018E+03 0.  0.
         24    2    5    5    0    0 -0.45839848070E+02  0.19104329329E+03 -0.11366244851E+03  0.24081009082E+03  0.80445733629E+02 0.  0.
          2    1    6    6  501    0  0.17125376295E+01  0.10788522215E+03 -0.26063046535E+02  0.11100196547E+03  0.00000000000E+00 0. -1.
         -1    1    6    6    0  501 -0.47552385699E+02  0.83158071138E+02 -0.87599401974E+02  0.12980812535E+03  0.00000000000E+00 0.  1.
          5    1    5    5  502    0  0.34972192857E+02 -0.93145902794E+01 -0.39491232021E+01  0.36708329292E+02  0.47000000000E+01 0. -1.
         11    1    4    4    0    0 -0.74684974930E+02 -0.83681097709E+02 -0.35999132163E+03  0.37705984040E+03  0.00000000000E+00 0. -1.
        -12    1    4    4    0    0  0.17127632374E+02 -0.11452256008E+01 -0.63233740719E+02  0.65522311450E+02  0.00000000000E+00 0.  1.
         -5    1    3    3    0  504  0.68424997769E+02 -0.96902379701E+02 -0.53263509743E+03  0.54570531290E+03  0.47000000000E+01 0.  1.
<mgrwt>
<rscale>  2 0.25129431E+03</rscale>
<asrwt>0</asrwt>
<pdfrwt beam="1">  1       21 0.14794936E-01 0.25136426E+03</pdfrwt>
<pdfrwt beam="2">  1       21 0.17994442E+00 0.25136426E+03</pdfrwt>
<totfact> 0.70061222E+03</totfact>
</mgrwt>
</event>
<event>
12    1  0.1410528E-001  0.2424534E+03  0.7546771E-02  0.1118242E+00
         21   -1    0    0  502  503  0.00000000000E+00  0.00000000000E+00  0.10897391671E+04  0.10897391671E+04  0.00000000000E+00 0.  1.
         21   -1    0    0  503  504 -0.00000000000E+00 -0.00000000000E+00 -0.26241124116E+03  0.26241124116E+03  0.00000000000E+00 0. -1.
         -6    2    1    2    0  504 -0.16850529028E+03  0.13508518714E+02 -0.18899373874E+03  0.30741222518E+03  0.17380198495E+03 0.  0.
        -24    2    3    3    0    0 -0.30696387576E+02 -0.11185343536E+01 -0.13080978114E+03  0.15703700359E+03  0.81276702217E+02 0.  0.
          6    2    1    2  502    0  0.16850529028E+03 -0.13508518714E+02  0.10163216647E+04  0.10447381831E+04  0.17318092325E+03 0.  0.
         24    2    5    5    0    0  0.13366865218E+03 -0.73759548944E+02  0.76945666398E+03  0.78820710005E+03  0.76805567389E+02 0.  0.
          2    1    6    6  501    0  0.10536215123E+02 -0.18480299407E+02  0.31509461644E+02  0.38018146566E+02  0.00000000000E+00 0. -1.
         -1    1    6    6    0  501  0.12313243706E+03 -0.55279249537E+02  0.73794720234E+03  0.75018895348E+03  0.00000000000E+00 0.  1.
          5    1    5    5  502    0  0.34836638098E+02  0.60251030230E+02  0.24686500069E+03  0.25653108303E+03  0.47000000000E+01 0. -1.
         13    1    4    4    0    0 -0.57918364013E+02 -0.69245312426E+01 -0.78709820444E+02  0.97967963422E+02  0.00000000000E+00 0. -1.
        -14    1    4    4    0    0  0.27221976437E+02  0.58059968890E+01 -0.52099960698E+02  0.59069040163E+02  0.00000000000E+00 0.  1.
         -5    1    3    3    0  504 -0.13780890270E+03  0.14627053067E+02 -0.58183957600E+02  0.15037522159E+03  0.47000000000E+01 0.  1.
<mgrwt>
<rscale>  2 0.24234210E+03</rscale>
<asrwt>0</asrwt>
<pdfrwt beam="1">  1       21 0.16765218E+00 0.24245338E+03</pdfrwt>
<pdfrwt beam="2">  1       21 0.40370961E-01 0.24245338E+03</pdfrwt>
<totfact> 0.12502958E+03</totfact>
</mgrwt>
</event>
<event>
12    1  0.1410528E-001  0.1928095E+03  0.7546771E-02  0.1157359E+00
         21   -1    0    0  502  503  0.00000000000E+00  0.00000000000E+00  0.19423133221E+03  0.19423133221E+03  0.00000000000E+00 0.  1.
         21   -1    0    0  503  504 -0.00000000000E+00 -0.00000000000E+00 -0.26461019119E+03  0.26461019119E+03  0.00000000000E+00 0.  1.
         -6    2    1    2    0  504  0.55826391996E+02 -0.62196220383E+02 -0.16123020293E+03  0.25133782038E+03  0.17375432582E+03 0.  0.
        -24    2    3    3    0    0 -0.35081108116E+02 -0.24336205376E+02 -0.11771927535E+03  0.14357490871E+03  0.70235258830E+02 0.  0.
          6    2    1    2  502    0 -0.55826391996E+02  0.62196220383E+02  0.90851343947E+02  0.20750370303E+03  0.16678988039E+03 0.  0.
         24    2    5    5    0    0 -0.53056578683E+02  0.55726593532E+02  0.12723222600E+03  0.17015150743E+03  0.82722683581E+02 0.  0.
          4    1    6    6  501    0 -0.30276561011E+01  0.66234502887E+01  0.90907993722E+02  0.91199233099E+02  0.00000000000E+00 0. -1.
         -3    1    6    6    0  501 -0.50028922582E+02  0.49103143243E+02  0.36324232275E+02  0.78952274327E+02  0.00000000000E+00 0.  1.
          5    1    5    5  502    0 -0.27698133124E+01  0.64696268512E+01 -0.36380882050E+02  0.37352195600E+02  0.47000000000E+01 0. -1.
         13    1    4    4    0    0 -0.32879362344E+02 -0.40929825013E+01 -0.10971590061E+02  0.34902446366E+02  0.00000000000E+00 0. -1.
        -14    1    4    4    0    0 -0.22017457721E+01 -0.20243222875E+02 -0.10674768529E+03  0.10867246234E+03  0.00000000000E+00 0.  1.
         -5    1    3    3    0  504  0.90907500111E+02 -0.37860015007E+02 -0.43510927579E+02  0.10776291167E+03  0.47000000000E+01 0.  1.
<mgrwt>
<rscale>  2 0.19122724E+03</rscale>
<asrwt>0</asrwt>
<pdfrwt beam="1">  1       21 0.29881744E-01 0.19280955E+03</pdfrwt>
<pdfrwt beam="2">  1       21 0.40709260E-01 0.19280955E+03</pdfrwt>
<totfact> 0.62424168E+04</totfact>
</mgrwt>
</event>
<event>
12    1  0.1410528E-001  0.2646939E+03  0.7546771E-02  0.1104419E+00
         21   -1    0    0  502  503  0.00000000000E+00  0.00000000000E+00  0.23379451860E+03  0.23379451860E+03  0.00000000000E+00 0.  1.
         21   -1    0    0  503  504 -0.00000000000E+00 -0.00000000000E+00 -0.36217984492E+03  0.36217984492E+03  0.00000000000E+00 0. -1.
         -6    2    1    2    0  504  0.39782728118E+02  0.19631483777E+03 -0.18842258453E+03  0.32455706192E+03  0.17237179322E+03 0.  0.
        -24    2    3    3    0    0  0.62318291122E+02  0.73098500026E+02 -0.44261083114E+02  0.13352108108E+03  0.81497702414E+02 0.  0.
          6    2    1    2  502    0 -0.39782728118E+02 -0.19631483777E+03  0.60037258213E+02  0.27141730160E+03  0.17303380666E+03 0.  0.
         24    2    5    5    0    0  0.44416696861E+02 -0.84619082446E+02  0.21968129875E+02  0.12637650231E+03  0.79719442628E+02 0.  0.
          2    1    6    6  501    0  0.16386428669E+02 -0.20044511796E+02 -0.29442354848E+02  0.39206501459E+02  0.00000000000E+00 0. -1.
         -1    1    6    6    0  501  0.28030268192E+02 -0.64574570650E+02  0.51410484723E+02  0.87170000855E+02  0.00000000000E+00 0.  1.
          5    1    5    5  502    0 -0.84199424979E+02 -0.11169575533E+03  0.38069128338E+02  0.14504079928E+03  0.47000000000E+01 0. -1.
         11    1    4    4    0    0 -0.18269622195E+01 -0.15970503030E+02 -0.77467165374E+01  0.17843945054E+02  0.00000000000E+00 0. -1.
        -12    1    4    4    0    0  0.64145253342E+02  0.89069003056E+02 -0.36514366577E+02  0.11567713602E+03  0.00000000000E+00 0.  1.
         -5    1    3    3    0  504 -0.22535563004E+02  0.12321633775E+03 -0.14416150141E+03  0.19103598085E+03  0.47000000000E+01 0.  1.
<mgrwt>
<rscale>  2 0.26458580E+03</rscale>
<asrwt>0</asrwt>
<pdfrwt beam="1">  1       21 0.35968388E-01 0.26469394E+03</pdfrwt>
<pdfrwt beam="2">  1       21 0.55719976E-01 0.26469394E+03</pdfrwt>
<totfact> 0.21786721E+04</totfact>
</mgrwt>
</event>
<event>
12    1  0.1410528E-001  0.1803125E+03  0.7546771E-02  0.1167569E+00
         21   -1    0    0  502  503  0.00000000000E+00  0.00000000000E+00  0.18113883057E+03  0.18113883057E+03  0.00000000000E+00 0.  1.
         21   -1    0    0  503  504 -0.00000000000E+00 -0.00000000000E+00 -0.25975715286E+03  0.25975715286E+03  0.00000000000E+00 0.  1.
         -6    2    1    2    0  504 -0.47774433000E+02 -0.21314228689E+02 -0.16204498444E+03  0.24221883644E+03  0.17226344636E+03 0.  0.
        -24    2    3    3    0    0  0.18145596497E+02  0.22931610631E+02 -0.13107154840E+03  0.15686903664E+03  0.81074178490E+02 0.  0.
          6    2    1    2  502    0  0.47774433000E+02  0.21314228689E+02  0.83426662152E+02  0.19867714699E+03  0.17255697026E+03 0.  0.
         24    2    5    5    0    0  0.76089713112E+02  0.56249071785E+02  0.27519752221E+02  0.12677533250E+03  0.79756163707E+02 0.  0.
          2    1    6    6  501    0  0.14633529794E+02  0.51359531739E+02  0.36200488749E+02  0.64516796885E+02  0.00000000000E+00 0. -1.
         -1    1    6    6    0  501  0.61456183317E+02  0.48895400454E+01 -0.86807365280E+01  0.62258535611E+02  0.00000000000E+00 0.  1.
          5    1    5    5  502    0 -0.28315280112E+02 -0.34934843095E+02  0.55906909932E+02  0.71901814498E+02  0.47000000000E+01 0. -1.
         13    1    4    4    0    0  0.14706003127E+02 -0.29355720979E+02 -0.62149942940E+02  0.70289688359E+02  0.00000000000E+00 0. -1.
        -14    1    4    4    0    0  0.34395933702E+01  0.52287331610E+02 -0.68921605464E+02  0.86579348283E+02  0.00000000000E+00 0.  1.
         -5    1    3    3    0  504 -0.65920029497E+02 -0.44245839320E+02 -0.30973436037E+02  0.85349799800E+02  0.47000000000E+01 0.  1.
<mgrwt>
<rscale>  2 0.18024225E+03</rscale>
<asrwt>0</asrwt>
<pdfrwt beam="1">  1       21 0.27867512E-01 0.18031251E+03</pdfrwt>
<pdfrwt beam="2">  1       21 0.39962639E-01 0.18031251E+03</pdfrwt>
<totfact> 0.74584906E+04</totfact>
</mgrwt>
</event>
<event>
12    1  0.1410528E-001  0.1756201E+03  0.7546771E-02  0.1172659E+00
         21   -1    0    0  502  503  0.00000000000E+00  0.00000000000E+00  0.80128773179E+02  0.80128773179E+02  0.00000000000E+00 0. -1.
         21   -1    0    0  503  504 -0.00000000000E+00 -0.00000000000E+00 -0.83711559825E+03  0.83711559825E+03  0.00000000000E+00 0. -1.
         -6    2    1    2    0  504 -0.93768068089E+01  0.28001303780E+02 -0.71841267616E+03  0.73956689423E+03  0.17311967031E+03 0.  0.
        -24    2    3    3    0    0  0.21863525228E+02 -0.30953404478E+01 -0.66186313768E+03  0.66771357189E+03  0.85387389017E+02 0.  0.
          6    2    1    2  502    0  0.93768068089E+01 -0.28001303780E+02 -0.38574148903E+02  0.17767747720E+03  0.17090735332E+03 0.  0.
         24    2    5    5    0    0 -0.33327544683E+02 -0.39359752740E+02  0.27534048085E+02  0.98021594123E+02  0.78677784286E+02 0.  0.
          4    1    6    6  501    0 -0.43416562821E+02 -0.42229734706E+02  0.46493212696E+02  0.76354222197E+02  0.00000000000E+00 0. -1.
         -3    1    6    6    0  501  0.10089018137E+02  0.28699819664E+01 -0.18959164611E+02  0.21667371927E+02  0.00000000000E+00 0.  1.
          5    1    5    5  502    0  0.42704351492E+02  0.11358448960E+02 -0.66108196988E+02  0.79655883073E+02  0.47000000000E+01 0. -1.
         11    1    4    4    0    0 -0.12257103499E+02 -0.29729490459E+02 -0.46676689248E+03  0.46787328531E+03  0.00000000000E+00 0. -1.
        -12    1    4    4    0    0  0.34120628727E+02  0.26634150012E+02 -0.19509624520E+03  0.19984028659E+03  0.00000000000E+00 0.  1.
         -5    1    3    3    0  504 -0.31240332037E+02  0.31096644228E+02 -0.56549538484E+02  0.71853322337E+02  0.47000000000E+01 0.  1.
<mgrwt>
<rscale>  2 0.17507243E+03</rscale>
<asrwt>0</asrwt>
<pdfrwt beam="1">  1       21 0.12327503E-01 0.17562009E+03</pdfrwt>
<pdfrwt beam="2">  1       21 0.12878702E+00 0.17562009E+03</pdfrwt>
<totfact> 0.25014306E+04</totfact>
</mgrwt>
</event>
<event>
12    1  0.1410528E-001  0.1817350E+03  0.7546771E-02  0.1166312E+00
         21   -1    0    0  502  503  0.00000000000E+00  0.00000000000E+00  0.93458121296E+02  0.93458121296E+02  0.00000000000E+00 0. -1.
         21   -1    0    0  503  504 -0.00000000000E+00 -0.00000000000E+00 -0.51520710036E+03  0.51520710036E+03  0.00000000000E+00 0. -1.
         -6    2    1    2    0  504 -0.49843884790E+02 -0.27837808801E+02 -0.38189208493E+03  0.42261099014E+03  0.17175310189E+03 0.  0.
        -24    2    3    3    0    0 -0.75100859781E+02  0.30286877527E+02 -0.27864444206E+03  0.30137337343E+03  0.81398716423E+02 0.  0.
          6    2    1    2  502    0  0.49843884790E+02  0.27837808801E+02 -0.39856894142E+02  0.18605423152E+03  0.17253477506E+03 0.  0.
         24    2    5    5    0    0  0.18605307997E+02  0.71871633074E+02 -0.63014449736E+02  0.12712046581E+03  0.81713541258E+02 0.  0.
          2    1    6    6  501    0  0.19426615041E+02  0.73510218257E+02 -0.79806866160E+02  0.11022831508E+03  0.00000000000E+00 0. -1.
         -1    1    6    6    0  501 -0.82130704378E+00 -0.16385851835E+01  0.16792416423E+02  0.16892150722E+02  0.00000000000E+00 0.  1.
          5    1    5    5  502    0  0.31238576793E+02 -0.44033824273E+02  0.23157555594E+02  0.58933765714E+02  0.47000000000E+01 0. -1.
         13    1    4    4    0    0 -0.38617660784E+02 -0.15202715878E+02 -0.47918163315E+02  0.63392402305E+02  0.00000000000E+00 0. -1.
        -14    1    4    4    0    0 -0.36483198997E+02  0.45489593406E+02 -0.23072627874E+03  0.23798097113E+03  0.00000000000E+00 0.  1.
         -5    1    3    3    0  504  0.25256974991E+02 -0.58124686329E+02 -0.10324764287E+03  0.12123761671E+03  0.47000000000E+01 0.  1.
<mgrwt>
<rscale>  2 0.18154922E+03</rscale>
<asrwt>0</asrwt>
<pdfrwt beam="1">  1       21 0.14378172E-01 0.18173499E+03</pdfrwt>
<pdfrwt beam="2">  1       21 0.79262631E-01 0.18173499E+03</pdfrwt>
<totfact> 0.59799334E+04</totfact>
</mgrwt>
</event>
<event>
12    1  0.1410528E-001  0.2502135E+03  0.7546771E-02  0.1113846E+00
         21   -1    0    0  502  503  0.00000000000E+00  0.00000000000E+00  0.11892065491E+04  0.11892065491E+04  0.00000000000E+00 0.  1.
         21   -1    0    0  503  504 -0.00000000000E+00 -0.00000000000E+00 -0.51787503671E+02  0.51787503671E+02  0.00000000000E+00 0.  1.
         -6    2    1    2    0  504  0.17770175382E+03  0.29780665702E+02  0.54867984588E+03  0.60129047997E+03  0.16743914319E+03 0.  0.
        -24    2    3    3    0    0  0.79822979149E+02  0.11094932281E+02  0.44323623134E+03  0.45613588304E+03  0.71461748497E+02 0.  0.
          6    2    1    2  502    0 -0.17770175382E+03 -0.29780665702E+02  0.58873919954E+03  0.63970357279E+03  0.17361455756E+03 0.  0.
         24    2    5    5    0    0 -0.31530152598E+02 -0.38750085064E+02  0.19502141476E+03  0.21960552287E+03  0.87735476553E+02 0.  0.
          2    1    6    6  501    0 -0.11420679799E+02 -0.65576018556E+02  0.14275016073E+03  0.15750636344E+03  0.00000000000E+00 0. -1.
         -1    1    6    6    0  501 -0.20109472800E+02  0.26825933492E+02  0.52271254026E+02  0.62099159426E+02  0.00000000000E+00 0.  1.
          5    1    5    5  502    0 -0.14617160122E+03  0.89694193622E+01  0.39371778478E+03  0.42009804992E+03  0.47000000000E+01 0. -1.
         11    1    4    4    0    0  0.53660199363E+02 -0.28110405252E+02  0.24912441668E+03  0.25638367121E+03  0.00000000000E+00 0. -1.
        -12    1    4    4    0    0  0.26162779786E+02  0.39205337533E+02  0.19411181466E+03  0.19975221182E+03  0.00000000000E+00 0.  1.
         -5    1    3    3    0  504  0.97878774674E+02  0.18685733421E+02  0.10544361454E+03  0.14515459694E+03  0.47000000000E+01 0.  1.
<mgrwt>
<rscale>  2 0.24914555E+03</rscale>
<asrwt>0</asrwt>
<pdfrwt beam="1">  1       21 0.18295483E+00 0.25021354E+03</pdfrwt>
<pdfrwt beam="2">  1       21 0.79673092E-02 0.25021354E+03</pdfrwt>
<totfact> 0.20222865E+04</totfact>
</mgrwt>
</event>
<event>
12    1  0.1410528E-001  0.1861580E+03  0.7546771E-02  0.1162431E+00
         21   -1    0    0  502  503  0.00000000000E+00  0.00000000000E+00  0.17176310747E+03  0.17176310747E+03  0.00000000000E+00 0. -1.
         21   -1    0    0  503  504 -0.00000000000E+00 -0.00000000000E+00 -0.23038242699E+03  0.23038242699E+03  0.00000000000E+00 0. -1.
         -6    2    1    2    0  504  0.54441718621E+02  0.36745235967E+02 -0.10290238645E+03  0.21270565846E+03  0.17418577127E+03 0.  0.
        -24    2    3    3    0    0  0.90250730505E+02 -0.14734130789E+02 -0.72495997386E+02  0.14285546856E+03  0.82399795475E+02 0.  0.
          6    2    1    2  502    0 -0.54441718621E+02 -0.36745235967E+02  0.44283066923E+02  0.18943987600E+03  0.17208243231E+03 0.  0.
         24    2    5    5    0    0 -0.79355001019E+02 -0.26078515186E+02 -0.21025691765E+02  0.11857539594E+03  0.81490733633E+02 0.  0.
          4    1    6    6  501    0 -0.94111146537E+02 -0.21664808740E+02 -0.55354716733E+01  0.96731139179E+02  0.00000000000E+00 0. -1.
         -3    1    6    6    0  501  0.14756145518E+02 -0.44137064464E+01 -0.15490220092E+02  0.21844256765E+02  0.00000000000E+00 0.  1.
          5    1    5    5  502    0  0.24913282398E+02 -0.10666720781E+02  0.65308758688E+02  0.70864480055E+02  0.47000000000E+01 0. -1.
         11    1    4    4    0    0  0.97187152571E+02 -0.16445374986E+02 -0.34866341179E+02  0.10455359741E+03  0.00000000000E+00 0. -1.
        -12    1    4    4    0    0 -0.69364220663E+01  0.17112441970E+01 -0.37629656208E+02  0.38301871156E+02  0.00000000000E+00 0.  1.
         -5    1    3    3    0  504 -0.35809011884E+02  0.51479366755E+02 -0.30406389062E+02  0.69850189903E+02  0.47000000000E+01 0.  1.
<mgrwt>
<rscale>  2 0.18566438E+03</rscale>
<asrwt>0</asrwt>
<pdfrwt beam="1">  1       21 0.26425094E-01 0.18615799E+03</pdfrwt>
<pdfrwt beam="2">  1       21 0.35443450E-01 0.18615799E+03</pdfrwt>
<totfact> 0.10479450E+05</totfact>
</mgrwt>
</event>
<event>
12    1  0.1410528E-001  0.1836031E+03  0.7546771E-02  0.1165171E+00
         21   -1    0    0  502  503  0.00000000000E+00  0.00000000000E+00  0.24605044933E+03  0.24605044933E+03  0.00000000000E+00 0.  1.
         21   -1    0    0  503  504 -0.00000000000E+00 -0.00000000000E+00 -0.37644939940E+03  0.37644939940E+03  0.00000000000E+00 0.  1.
         -6    2    1    2    0  504 -0.44675189421E+02  0.38762034012E+02 -0.31495186812E+03  0.36456109423E+03  0.17381525931E+03 0.  0.
        -24    2    3    3    0    0 -0.11341953065E+02  0.45187362461E+01 -0.44248951841E+02  0.89632254408E+02  0.76986443057E+02 0.  0.
          6    2    1    2  502    0  0.44675189421E+02 -0.38762034012E+02  0.18455291804E+03  0.25793875450E+03  0.17021825308E+03 0.  0.
         24    2    5    5    0    0  0.24000678072E+02  0.44622912437E+02  0.93108005602E+02  0.13238101190E+03  0.79299399382E+02 0.  0.
          2    1    6    6  501    0 -0.13446916262E+01  0.57195500517E+02  0.33245631903E+02  0.66169521047E+02  0.00000000000E+00 0. -1.
         -1    1    6    6    0  501  0.25345369699E+02 -0.12572588080E+02  0.59862373699E+02  0.66211490854E+02  0.00000000000E+00 0.  1.
          5    1    5    5  502    0  0.20674511349E+02 -0.83384946449E+02  0.91444912442E+02  0.12555774259E+03  0.47000000000E+01 0. -1.
         11    1    4    4    0    0 -0.28931037087E+02 -0.20947506070E+02 -0.10392035867E+00  0.35718534642E+02  0.00000000000E+00 0. -1.
        -12    1    4    4    0    0  0.17589084023E+02  0.25466242316E+02 -0.44145031482E+02  0.53913719766E+02  0.00000000000E+00 0.  1.
         -5    1    3    3    0  504 -0.33333236356E+02  0.34243297766E+02 -0.27070291628E+03  0.27492883983E+03  0.47000000000E+01 0.  1.
<mgrwt>
<rscale>  2 0.18274678E+03</rscale>
<asrwt>0</asrwt>
<pdfrwt beam="1">  1       21 0.37853915E-01 0.18360314E+03</pdfrwt>
<pdfrwt beam="2">  1       21 0.57915292E-01 0.18360314E+03</pdfrwt>
<totfact> 0.18914056E+04</totfact>
</mgrwt>
</event>
<event>
12    1  0.1410528E-001  0.1858925E+03  0.7546771E-02  0.1162378E+00
         21   -1    0    0  502  503  0.00000000000E+00  0.00000000000E+00  0.66302582733E+03  0.66302582733E+03  0.00000000000E+00 0.  1.
         21   -1    0    0  503  504 -0.00000000000E+00 -0.00000000000E+00 -0.15900716949E+03  0.15900716949E+03  0.00000000000E+00 0.  1.
         -6    2    1    2    0  504 -0.42433832632E+02 -0.53602304061E+02 -0.85433193717E+02  0.20396382374E+03  0.17212952581E+03 0.  0.
        -24    2    3    3    0    0 -0.59062230440E+01 -0.10622285614E+02 -0.11316273264E+03  0.14093553187E+03  0.83122221227E+02 0.  0.
          6    2    1    2  502    0  0.42433832632E+02  0.53602304061E+02  0.58945185155E+03  0.61806917308E+03  0.17286462987E+03 0.  0.
         24    2    5    5    0    0  0.89242560870E+02  0.66083663769E+02  0.42643984901E+03  0.44794614597E+03  0.80458185288E+02 0.  0.
          4    1    6    6  501    0  0.51030717904E+02 -0.17104627927E+01  0.24915277319E+03  0.25433081653E+03  0.00000000000E+00 0. -1.
         -3    1    6    6    0  501  0.38211842966E+02  0.67794126562E+02  0.17728707583E+03  0.19361532944E+03  0.00000000000E+00 0.  1.
          5    1    5    5  502    0 -0.46808728238E+02 -0.12481359708E+02  0.16301200254E+03  0.17012302711E+03  0.47000000000E+01 0. -1.
         11    1    4    4    0    0  0.21370272615E+01 -0.37077598695E+02 -0.10607771836E+03  0.11239126987E+03  0.00000000000E+00 0. -1.
        -12    1    4    4    0    0 -0.80432503054E+01  0.26455313081E+02 -0.70850142828E+01  0.28544261999E+02  0.00000000000E+00 0.  1.
         -5    1    3    3    0  504 -0.36527609588E+02 -0.42980018447E+02  0.27729538923E+02  0.63028291876E+02  0.47000000000E+01 0.  1.
<mgrwt>
<rscale>  2 0.18572141E+03</rscale>
<asrwt>0</asrwt>
<pdfrwt beam="1">  1       21 0.10200397E+00 0.18589249E+03</pdfrwt>
<pdfrwt beam="2">  1       21 0.24462642E-01 0.18589249E+03</pdfrwt>
<totfact> 0.12419353E+04</totfact>
</mgrwt>
</event>
<event>
12    1  0.1410528E-001  0.2779262E+03  0.7546771E-02  0.1096943E+00
         21   -1    0    0  502  503  0.00000000000E+00  0.00000000000E+00  0.37646153547E+03  0.37646153547E+03  0.00000000000E+00 0.  1.
         21   -1    0    0  503  504 -0.00000000000E+00 -0.00000000000E+00 -0.25460281112E+03  0.25460281112E+03  0.00000000000E+00 0. -1.
         -6    2    1    2    0  504 -0.16719232009E+03  0.13940737476E+03 -0.78885435737E+02  0.28890465101E+03  0.17278685532E+03 0.  0.
        -24    2    3    3    0    0 -0.47641383606E+02  0.11391399679E+03 -0.91429710791E+01  0.14809115695E+03  0.81248364599E+02 0.  0.
          6    2    1    2  502    0  0.16719232009E+03 -0.13940737476E+03  0.20074416009E+03  0.34215969557E+03  0.17142739404E+03 0.  0.
         24    2    5    5    0    0  0.56499028055E+02 -0.11850154437E+03  0.69819175304E+02  0.16937804062E+03  0.81113791762E+02 0.  0.
          4    1    6    6  501    0  0.35224013473E+02 -0.52139607574E+02 -0.96749090393E+01  0.63662183972E+02  0.00000000000E+00 0. -1.
         -3    1    6    6    0  501  0.21275014582E+02 -0.66361936800E+02  0.79494084344E+02  0.10571585665E+03  0.00000000000E+00 0.  1.
          5    1    5    5  502    0  0.11069329204E+03 -0.20905830390E+02  0.13092498479E+03  0.17278165495E+03  0.47000000000E+01 0. -1.
         11    1    4    4    0    0 -0.39289831442E+02  0.11970707453E+03  0.10032164451E+02  0.12638876086E+03  0.00000000000E+00 0. -1.
        -12    1    4    4    0    0 -0.83515521641E+01 -0.57930777473E+01 -0.19175135530E+02  0.21702396087E+02  0.00000000000E+00 0.  1.
         -5    1    3    3    0  504 -0.11955093648E+03  0.25493377977E+02 -0.69742464658E+02  0.14081349407E+03  0.47000000000E+01 0.  1.
<mgrwt>
<rscale>  2 0.27771520E+03</rscale>
<asrwt>0</asrwt>
<pdfrwt beam="1">  1       21 0.57917159E-01 0.27792622E+03</pdfrwt>
<pdfrwt beam="2">  1       21 0.39169663E-01 0.27792622E+03</pdfrwt>
<totfact> 0.16781392E+04</totfact>
</mgrwt>
</event>
<event>
12    1  0.1410528E-001  0.1746099E+03  0.7546771E-02  0.1173189E+00
         21   -1    0    0  502  503  0.00000000000E+00  0.00000000000E+00  0.43209123398E+02  0.43209123398E+02  0.00000000000E+00 0. -1.
         21   -1    0    0  503  504 -0.00000000000E+00 -0.00000000000E+00 -0.20163758080E+04  0.20163758080E+04  0.00000000000E+00 0. -1.
         -6    2    1    2    0  504  0.34921824209E+00 -0.75732711928E+01 -0.15622293969E+03  0.23429513642E+03  0.17444519963E+03 0.  0.
        -24    2    3    3    0    0 -0.41314927893E+02 -0.15310105253E+02 -0.21823627923E+02  0.93295048908E+02  0.79286649729E+02 0.  0.
          6    2    1    2  502    0 -0.34921824209E+00  0.75732711928E+01 -0.18169437449E+04  0.18252897950E+04  0.17418607030E+03 0.  0.
         24    2    5    5    0    0 -0.65914685765E+02  0.24399152431E+02 -0.11576514636E+04  0.11625150648E+04  0.79651115456E+02 0.  0.
          4    1    6    6  501    0 -0.25522825851E+02 -0.16560645377E+02 -0.77175379268E+03  0.77235327806E+03  0.00000000000E+00 0. -1.
         -3    1    6    6    0  501 -0.40391859914E+02  0.40959797808E+02 -0.38589767094E+03  0.39016178673E+03  0.00000000000E+00 0.  1.
          5    1    5    5  502    0  0.65565467523E+02 -0.16825881238E+02 -0.65929228128E+03  0.66277473018E+03  0.47000000000E+01 0. -1.
         13    1    4    4    0    0 -0.17400132008E+02  0.17178771404E+02  0.22593907149E+02  0.33292032396E+02  0.00000000000E+00 0. -1.
        -14    1    4    4    0    0 -0.23914795886E+02 -0.32488876657E+02 -0.44417535071E+02  0.60003016512E+02  0.00000000000E+00 0.  1.
         -5    1    3    3    0  504  0.41664146136E+02  0.77368340601E+01 -0.13439931177E+03  0.14100008751E+03  0.47000000000E+01 0.  1.
<mgrwt>
<rscale>  2 0.17454511E+03</rscale>
<asrwt>0</asrwt>
<pdfrwt beam="1">  1       21 0.66475594E-02 0.17460986E+03</pdfrwt>
<pdfrwt beam="2">  1       21 0.31021157E+00 0.17460986E+03</pdfrwt>
<totfact> 0.50410193E+03</totfact>
</mgrwt>
</event>
<event>
12    1  0.1410528E-001  0.2063921E+03  0.7546771E-02  0.1144649E+00
         21   -1    0    0  502  503  0.00000000000E+00  0.00000000000E+00  0.29522380493E+03  0.29522380493E+03  0.00000000000E+00 0.  1.
         21   -1    0    0  503  504 -0.00000000000E+00 -0.00000000000E+00 -0.16496293371E+03  0.16496293371E+03  0.00000000000E+00 0.  1.
         -6    2    1    2    0  504  0.91452081746E+02 -0.66088253942E+02 -0.17492922655E+02  0.20713212241E+03  0.17281948162E+03 0.  0.
        -24    2    3    3    0    0  0.11343564585E+02 -0.80302004185E+02  0.21517682095E+02  0.11678101561E+03  0.81226268103E+02 0.  0.
          6    2    1    2  502    0 -0.91452081746E+02  0.66088253942E+02  0.14775379387E+03  0.25305461623E+03  0.17168085108E+03 0.  0.
         24    2    5    5    0    0 -0.66966401174E+02  0.22313725937E+02  0.16773729275E+03  0.19885878537E+03  0.80166176709E+02 0.  0.
          4    1    6    6  501    0 -0.13048089328E+02 -0.11241038883E+02  0.11507809742E+03  0.11635970994E+03  0.00000000000E+00 0. -1.
         -3    1    6    6    0  501 -0.53918311846E+02  0.33554764821E+02  0.52659195324E+02  0.82499075429E+02  0.00000000000E+00 0.  1.
          5    1    5    5  502    0 -0.24485680572E+02  0.43774528005E+02 -0.19983498881E+02  0.54195830860E+02  0.47000000000E+01 0. -1.
         13    1    4    4    0    0 -0.29754768409E+02 -0.37010760194E+02 -0.11085480934E+02  0.48765054093E+02  0.00000000000E+00 0. -1.
        -14    1    4    4    0    0  0.41098332994E+02 -0.43291243991E+02  0.32603163029E+02  0.68015961513E+02  0.00000000000E+00 0.  1.
         -5    1    3    3    0  504  0.80108517162E+02  0.14213750243E+02 -0.39010604750E+02  0.90351106804E+02  0.47000000000E+01 0.  1.
<mgrwt>
<rscale>  2 0.20615360E+03</rscale>
<asrwt>0</asrwt>
<pdfrwt beam="1">  1       21 0.45419047E-01 0.20639214E+03</pdfrwt>
<pdfrwt beam="2">  1       21 0.25378913E-01 0.20639214E+03</pdfrwt>
<totfact> 0.68004915E+04</totfact>
</mgrwt>
</event>
<event>
12    1  0.1410528E-001  0.3400352E+03  0.7546771E-02  0.1067678E+00
         21   -1    0    0  502  503  0.00000000000E+00  0.00000000000E+00  0.81625225901E+02  0.81625225901E+02  0.00000000000E+00 0. -1.
         21   -1    0    0  503  504 -0.00000000000E+00 -0.00000000000E+00 -0.15343656700E+04  0.15343656700E+04  0.00000000000E+00 0.  1.
         -6    2    1    2    0  504 -0.54271073826E+02  0.27852975713E+03 -0.97278833877E+03  0.10277919979E+04  0.17179948713E+03 0.  0.
        -24    2    3    3    0    0  0.31997669445E+02  0.10997909851E+03 -0.46857987624E+03  0.48918278492E+03  0.81323082132E+02 0.  0.
          6    2    1    2  502    0  0.54271073826E+02 -0.27852975713E+03 -0.47995210537E+03  0.58819889807E+03  0.18734925990E+03 0.  0.
         24    2    5    5    0    0  0.40989588607E+02 -0.89044881371E+02 -0.30360924027E+03  0.32896963263E+03  0.80207924437E+02 0.  0.
          4    1    6    6  501    0 -0.14672118429E+02 -0.60865801063E+02 -0.17861980064E+03  0.18927480017E+03  0.00000000000E+00 0. -1.
         -3    1    6    6    0  501  0.55661707037E+02 -0.28179080308E+02 -0.12498943963E+03  0.13969483246E+03  0.00000000000E+00 0.  1.
          5    1    5    5  502    0  0.13281485218E+02 -0.18948487576E+03 -0.17634286510E+03  0.25922926544E+03  0.47000000000E+01 0. -1.
         13    1    4    4    0    0 -0.16257610739E+02  0.78364761420E+01 -0.21595379860E+02  0.28143928236E+02  0.00000000000E+00 0. -1.
        -14    1    4    4    0    0  0.48255280183E+02  0.10214262237E+03 -0.44698449638E+03  0.46103885668E+03  0.00000000000E+00 0.  1.
         -5    1    3    3    0  504 -0.86268743270E+02  0.16855065861E+03 -0.50420846254E+03  0.53860921296E+03  0.47000000000E+01 0.  1.
<mgrwt>
<rscale>  2 0.33793746E+03</rscale>
<asrwt>0</asrwt>
<pdfrwt beam="1">  1       21 0.12557728E-01 0.34003518E+03</pdfrwt>
<pdfrwt beam="2">  1       21 0.23605624E+00 0.34003518E+03</pdfrwt>
<totfact> 0.38833265E+03</totfact>
</mgrwt>
</event>
<event>
12    1  0.1410528E-001  0.4809655E+03  0.7546771E-02  0.1018894E+00
         21   -1    0    0  502  503  0.00000000000E+00  0.00000000000E+00  0.22233269629E+03  0.22233269629E+03  0.00000000000E+00 0. -1.
         21   -1    0    0  503  504 -0.00000000000E+00 -0.00000000000E+00 -0.16567237187E+04  0.16567237187E+04  0.00000000000E+00 0.  1.
         -6    2    1    2    0  504 -0.26237978180E+03 -0.36331378417E+03 -0.12904024141E+04  0.13770001555E+04  0.17364038196E+03 0.  0.
        -24    2    3    3    0    0 -0.18742900460E+03 -0.31983846330E+03 -0.11597072364E+04  0.12201210874E+04  0.79676341569E+02 0.  0.
          6    2    1    2  502    0  0.26237978180E+03  0.36331378417E+03 -0.14398860827E+03  0.50205625945E+03  0.17460730993E+03 0.  0.
         24    2    5    5    0    0  0.23719014117E+03  0.23064969032E+03 -0.12506656378E+03  0.36562161004E+03  0.92623288884E+02 0.  0.
          2    1    6    6  501    0  0.11498400250E+03  0.59921466585E+02 -0.21220717653E+02  0.13138577490E+03  0.00000000000E+00 0. -1.
         -1    1    6    6    0  501  0.12220613867E+03  0.17072822373E+03 -0.10384584613E+03  0.23423583515E+03  0.00000000000E+00 0.  1.
          5    1    5    5  502    0  0.25189640635E+02  0.13266409385E+03 -0.18922044482E+02  0.13643464941E+03  0.47000000000E+01 0. -1.
         13    1    4    4    0    0  0.76602148671E+01 -0.19920477571E+02 -0.60939405614E+02  0.64568688039E+02  0.00000000000E+00 0. -1.
        -14    1    4    4    0    0 -0.19508921947E+03 -0.29991798573E+03 -0.10987678308E+04  0.11555523994E+04  0.00000000000E+00 0.  1.
         -5    1    3    3    0  504 -0.74950777201E+02 -0.43475320867E+02 -0.13069517766E+03  0.15687906804E+03  0.47000000000E+01 0.  1.
<mgrwt>
<rscale>  2 0.48087788E+03</rscale>
<asrwt>0</asrwt>
<pdfrwt beam="1">  1       21 0.34205031E-01 0.48096545E+03</pdfrwt>
<pdfrwt beam="2">  1       21 0.25488057E+00 0.48096545E+03</pdfrwt>
<totfact> 0.40672129E+02</totfact>
</mgrwt>
</event>
<event>
12    1  0.1410528E-001  0.2347948E+03  0.7546771E-02  0.1123531E+00
         21   -1    0    0  502  503  0.00000000000E+00  0.00000000000E+00  0.24626367024E+03  0.24626367024E+03  0.00000000000E+00 0. -1.
         21   -1    0    0  503  504 -0.00000000000E+00 -0.00000000000E+00 -0.22339162127E+03  0.22339162127E+03  0.00000000000E+00 0.  1.
         -6    2    1    2    0  504  0.15562469271E+03 -0.33393406883E+02 -0.22031613463E+01  0.23480515719E+03  0.17261066977E+03 0.  0.
        -24    2    3    3    0    0  0.17721705455E+03 -0.31265921223E+02 -0.30255272368E+02  0.19903132293E+03  0.79464732732E+02 0.  0.
          6    2    1    2  502    0 -0.15562469271E+03  0.33393406883E+02  0.25075210317E+02  0.23485013431E+03  0.17085565489E+03 0.  0.
         24    2    5    5    0    0 -0.27344059508E+02  0.61880210077E+02  0.14154737032E+02  0.10290785318E+03  0.76241797440E+02 0.  0.
          2    1    6    6  501    0 -0.31977923393E+02  0.76307129366E+02  0.84719106629E+00  0.82741061810E+02  0.00000000000E+00 0. -1.
         -1    1    6    6    0  501  0.46338638850E+01 -0.14426919290E+02  0.13307545966E+02  0.20166791374E+02  0.00000000000E+00 0.  1.
          5    1    5    5  502    0 -0.12828063321E+03 -0.28486803193E+02  0.10920473284E+02  0.13194228113E+03  0.47000000000E+01 0. -1.
         13    1    4    4    0    0  0.56111224915E+02  0.23783460722E+02  0.57511034934E+01  0.61214359073E+02  0.00000000000E+00 0. -1.
        -14    1    4    4    0    0  0.12110582964E+03 -0.55049381945E+02 -0.36006375862E+02  0.13781696386E+03  0.00000000000E+00 0.  1.
         -5    1    3    3    0  504 -0.21592361837E+02 -0.21274856604E+01  0.28052111022E+02  0.35773834261E+02  0.47000000000E+01 0.  1.
<mgrwt>
<rscale>  2 0.23447236E+03</rscale>
<asrwt>0</asrwt>
<pdfrwt beam="1">  1       21 0.37886719E-01 0.23479482E+03</pdfrwt>
<pdfrwt beam="2">  1       21 0.34367942E-01 0.23479482E+03</pdfrwt>
<totfact> 0.53787467E+04</totfact>
</mgrwt>
</event>
<event>
12    1  0.1410528E-001  0.1987934E+03  0.7546771E-02  0.1150867E+00
         21   -1    0    0  502  503  0.00000000000E+00  0.00000000000E+00  0.29947144181E+03  0.29947144181E+03  0.00000000000E+00 0. -1.
         21   -1    0    0  503  504 -0.00000000000E+00 -0.00000000000E+00 -0.17448026599E+03  0.17448026599E+03  0.00000000000E+00 0. -1.
         -6    2    1    2    0  504  0.43879251179E+02 -0.87158606020E+02 -0.54880211037E+02  0.20622962736E+03  0.17319587279E+03 0.  0.
        -24    2    3    3    0    0  0.21403056322E+02 -0.33018624104E+02 -0.10170770118E+03  0.13105502520E+03  0.72681791341E+02 0.  0.
          6    2    1    2  502    0 -0.43879251179E+02  0.87158606020E+02  0.17987138685E+03  0.26772208044E+03  0.17262498446E+03 0.  0.
         24    2    5    5    0    0 -0.71420806387E+01 -0.79031616418E+00  0.14489495238E+03  0.16608511088E+03  0.80858412766E+02 0.  0.
          2    1    6    6  501    0 -0.43435307543E+02 -0.22282110776E+01  0.93833721591E+02  0.10342319940E+03  0.00000000000E+00 0. -1.
         -1    1    6    6    0  501  0.36293226904E+02  0.14378949134E+01  0.51061230791E+02  0.62661911483E+02  0.00000000000E+00 0.  1.
          5    1    5    5  502    0 -0.36737170540E+02  0.87948922184E+02  0.34976434473E+02  0.10163696956E+03  0.47000000000E+01 0. -1.
         13    1    4    4    0    0 -0.84506288509E+01 -0.28959582116E+02 -0.60541956312E+01  0.30768877280E+02  0.00000000000E+00 0. -1.
        -14    1    4    4    0    0  0.29853685173E+02 -0.40590419873E+01 -0.95653505551E+02  0.10028614792E+03  0.00000000000E+00 0.  1.
         -5    1    3    3    0  504  0.22476194857E+02 -0.54139981916E+02  0.46827490145E+02  0.75174602164E+02  0.47000000000E+01 0.  1.
<mgrwt>
<rscale>  2 0.19866900E+03</rscale>
<asrwt>0</asrwt>
<pdfrwt beam="1">  1       21 0.46072530E-01 0.19879341E+03</pdfrwt>
<pdfrwt beam="2">  1       21 0.26843118E-01 0.19879341E+03</pdfrwt>
<totfact> 0.59496323E+04</totfact>
</mgrwt>
</event>
<event>
12    1  0.1410528E-001  0.1912770E+03  0.7546771E-02  0.1157865E+00
         21   -1    0    0  502  503  0.00000000000E+00  0.00000000000E+00  0.45447239436E+02  0.45447239436E+02  0.00000000000E+00 0.  1.
         21   -1    0    0  503  504 -0.00000000000E+00 -0.00000000000E+00 -0.84435600322E+03  0.84435600322E+03  0.00000000000E+00 0.  1.
         -6    2    1    2    0  504  0.77994319405E+02 -0.10220126144E+02 -0.50484141747E+03  0.53900058240E+03  0.17166597274E+03 0.  0.
        -24    2    3    3    0    0  0.60826967786E+02 -0.52621265921E+01 -0.13386085727E+03  0.16756018911E+03  0.80187766392E+02 0.  0.
          6    2    1    2  502    0 -0.77994319405E+02  0.10220126144E+02 -0.29406734631E+03  0.35080266026E+03  0.17435405770E+03 0.  0.
         24    2    5    5    0    0 -0.11107159311E+03 -0.27588746354E+02 -0.20394406301E+03  0.24751707041E+03  0.81077010244E+02 0.  0.
          2    1    6    6  501    0 -0.34258955437E+02 -0.42177825814E+02 -0.45658201005E+02  0.70974053970E+02  0.00000000000E+00 0. -1.
         -1    1    6    6    0  501 -0.76812637670E+02  0.14589079460E+02 -0.15828586200E+03  0.17654301644E+03  0.00000000000E+00 0.  1.
          5    1    5    5  502    0  0.33077273702E+02  0.37808872497E+02 -0.90123283309E+02  0.10328558984E+03  0.47000000000E+01 0. -1.
         13    1    4    4    0    0  0.65980857358E+01  0.33409348776E+02 -0.49296392576E+02  0.59915387356E+02  0.00000000000E+00 0. -1.
        -14    1    4    4    0    0  0.54228882050E+02 -0.38671475368E+02 -0.84564464690E+02  0.10764480175E+03  0.00000000000E+00 0.  1.
         -5    1    3    3    0  504  0.17167351619E+02 -0.49579995515E+01 -0.37098056020E+03  0.37144039329E+03  0.47000000000E+01 0.  1.
<mgrwt>
<rscale>  2 0.19066232E+03</rscale>
<asrwt>0</asrwt>
<pdfrwt beam="1">  1       21 0.69918834E-02 0.19127703E+03</pdfrwt>
<pdfrwt beam="2">  1       21 0.12990092E+00 0.19127703E+03</pdfrwt>
<totfact> 0.65689091E+04</totfact>
</mgrwt>
</event>
<event>
12    1  0.1410528E-001  0.1760633E+03  0.7546771E-02  0.1171799E+00
         21   -1    0    0  502  503  0.00000000000E+00  0.00000000000E+00  0.91521471197E+03  0.91521471197E+03  0.00000000000E+00 0. -1.
         21   -1    0    0  503  504 -0.00000000000E+00 -0.00000000000E+00 -0.50989665963E+02  0.50989665963E+02  0.00000000000E+00 0. -1.
         -6    2    1    2    0  504  0.11831363018E+02  0.32405426386E+02  0.71243468698E+03  0.73374230547E+03  0.17211767724E+03 0.  0.
        -24    2    3    3    0    0  0.54492530319E+02  0.64217479821E+02  0.36827585698E+03  0.38546171141E+03  0.76552619471E+02 0.  0.
          6    2    1    2  502    0 -0.11831363018E+02 -0.32405426386E+02  0.15179035903E+03  0.23246207246E+03  0.17265054077E+03 0.  0.
         24    2    5    5    0    0 -0.70819120779E+02 -0.11100485343E+01  0.71593292889E+02  0.12799860680E+03  0.79002934634E+02 0.  0.
          4    1    6    6  501    0 -0.37537856337E+02 -0.26773701883E+02  0.72548840269E+02  0.85960781728E+02  0.00000000000E+00 0. -1.
         -3    1    6    6    0  501 -0.33281264442E+02  0.25663653349E+02 -0.95554738081E+00  0.42037825073E+02  0.00000000000E+00 0.  1.
          5    1    5    5  502    0  0.58987757760E+02 -0.31295377851E+02  0.80197066140E+02  0.10446346566E+03  0.47000000000E+01 0. -1.
         13    1    4    4    0    0 -0.88886694741E+01  0.33519154578E+02  0.20094210219E+03  0.20391240914E+03  0.00000000000E+00 0. -1.
        -14    1    4    4    0    0  0.63381199793E+02  0.30698325243E+02  0.16733375479E+03  0.18154930226E+03  0.00000000000E+00 0.  1.
         -5    1    3    3    0  504 -0.42661167301E+02 -0.31812053435E+02  0.34415883000E+03  0.34828059407E+03  0.47000000000E+01 0.  1.
<mgrwt>
<rscale>  2 0.17593258E+03</rscale>
<asrwt>0</asrwt>
<pdfrwt beam="1">  1       21 0.14080225E+00 0.17606335E+03</pdfrwt>
<pdfrwt beam="2">  1       21 0.78445647E-02 0.17606335E+03</pdfrwt>
<totfact> 0.44193834E+04</totfact>
</mgrwt>
</event>
<event>
12    1  0.1410528E-001  0.1775123E+03  0.7546771E-02  0.1170983E+00
         21   -1    0    0  502  503  0.00000000000E+00  0.00000000000E+00  0.86557902522E+02  0.86557902522E+02  0.00000000000E+00 0. -1.
         21   -1    0    0  503  504 -0.00000000000E+00 -0.00000000000E+00 -0.40399813587E+03  0.40399813587E+03  0.00000000000E+00 0. -1.
         -6    2    1    2    0  504  0.25290455421E+02 -0.29190354232E+02 -0.24279865972E+03  0.30076866224E+03  0.17325967538E+03 0.  0.
        -24    2    3    3    0    0  0.78921508018E+02 -0.27485091471E+02 -0.20386409157E+03  0.23430673088E+03  0.79718514938E+02 0.  0.
          6    2    1    2  502    0 -0.25290455421E+02  0.29190354232E+02 -0.74641573637E+02  0.18978737615E+03  0.17016521300E+03 0.  0.
         24    2    5    5    0    0  0.36325590925E+02  0.51007888225E+02 -0.15633784269E+02  0.10160262031E+03  0.78468618096E+02 0.  0.
          4    1    6    6  501    0  0.24886996032E+02 -0.10291098674E+02 -0.27093637273E+02  0.38201236421E+02  0.00000000000E+00 0. -1.
         -3    1    6    6    0  501  0.11438594893E+02  0.61298986900E+02  0.11459853004E+02  0.63401383888E+02  0.00000000000E+00 0.  1.
          5    1    5    5  502    0 -0.61616046347E+02 -0.21817533993E+02 -0.59007789368E+02  0.88184755843E+02  0.47000000000E+01 0. -1.
         11    1    4    4    0    0  0.35963794893E+02 -0.41896690752E+02 -0.16700939216E+03  0.17590015437E+03  0.00000000000E+00 0. -1.
        -12    1    4    4    0    0  0.42957713126E+02  0.14411599281E+02 -0.36854699411E+02  0.58406576509E+02  0.00000000000E+00 0.  1.
         -5    1    3    3    0  504 -0.53631052597E+02 -0.17052627613E+01 -0.38934568146E+02  0.66461931363E+02  0.47000000000E+01 0.  1.
<mgrwt>
<rscale>  2 0.17675263E+03</rscale>
<asrwt>0</asrwt>
<pdfrwt beam="1">  1       21 0.13316600E-01 0.17751225E+03</pdfrwt>
<pdfrwt beam="2">  1       21 0.62153561E-01 0.17751225E+03</pdfrwt>
<totfact> 0.11754656E+05</totfact>
</mgrwt>
</event>
<event>
12    1  0.1410528E-001  0.2134477E+03  0.7546771E-02  0.1138907E+00
         21   -1    0    0  502  503  0.00000000000E+00  0.00000000000E+00  0.26907138847E+03  0.26907138847E+03  0.00000000000E+00 0.  1.
         21   -1    0    0  503  504 -0.00000000000E+00 -0.00000000000E+00 -0.25614198462E+03  0.25614198462E+03  0.00000000000E+00 0.  1.
         -6    2    1    2    0  504  0.98352339993E+02 -0.75396141843E+02 -0.14657675401E+03  0.25875113026E+03  0.17352130015E+03 0.  0.
        -24    2    3    3    0    0  0.26674629410E+02 -0.84392444029E+02 -0.33528816575E+02  0.12451047394E+03  0.80901521109E+02 0.  0.
          6    2    1    2  502    0 -0.98352339993E+02  0.75396141843E+02  0.15950615786E+03  0.26646224283E+03  0.17378766203E+03 0.  0.
         24    2    5    5    0    0 -0.20942401345E+02 -0.20328992233E+02  0.87669574996E+02  0.12385023586E+03  0.82468627022E+02 0.  0.
          2    1    6    6  501    0  0.30529495977E+02 -0.17828882241E+02  0.28702018788E+02  0.45538171341E+02  0.00000000000E+00 0. -1.
         -1    1    6    6    0  501 -0.51471897322E+02 -0.25001099919E+01  0.58967556207E+02  0.78312064517E+02  0.00000000000E+00 0.  1.
          5    1    5    5  502    0 -0.77409938649E+02  0.95725134077E+02  0.71836582868E+02  0.14261200698E+03  0.47000000000E+01 0. -1.
         13    1    4    4    0    0 -0.15773077111E+02  0.11005323728E+00  0.11745876722E+02  0.19666410278E+02  0.00000000000E+00 0. -1.
        -14    1    4    4    0    0  0.42447706521E+02 -0.84502497266E+02 -0.45274693296E+02  0.10484406367E+03  0.00000000000E+00 0.  1.
         -5    1    3    3    0  504  0.71677710583E+02  0.89963021855E+01 -0.11304793744E+03  0.13424065631E+03  0.47000000000E+01 0.  1.
<mgrwt>
<rscale>  2 0.21339346E+03</rscale>
<asrwt>0</asrwt>
<pdfrwt beam="1">  1       21 0.41395598E-01 0.21344768E+03</pdfrwt>
<pdfrwt beam="2">  1       21 0.39406459E-01 0.21344768E+03</pdfrwt>
<totfact> 0.34507228E+04</totfact>
</mgrwt>
</event>
<event>
12    1  0.1410528E-001  0.1793003E+03  0.7546771E-02  0.1168813E+00
         21   -1    0    0  502  503  0.00000000000E+00  0.00000000000E+00  0.16616046308E+04  0.16616046308E+04  0.00000000000E+00 0.  1.
         21   -1    0    0  503  504 -0.00000000000E+00 -0.00000000000E+00 -0.65637429886E+02  0.65637429886E+02  0.00000000000E+00 0.  1.
         -6    2    1    2    0  504  0.41600832920E+02  0.10848295873E+02  0.70703956526E+02  0.19147627427E+03  0.17267252044E+03 0.  0.
        -24    2    3    3    0    0  0.38022898294E+02  0.73516636370E+02  0.43198813233E+02  0.12278314925E+03  0.79744138704E+02 0.  0.
          6    2    1    2  502    0 -0.41600832920E+02 -0.10848295873E+02  0.15252632444E+04  0.15357657865E+04  0.17406973095E+03 0.  0.
         24    2    5    5    0    0  0.38845536151E+02 -0.24693453494E+02  0.95510875633E+03  0.95977834130E+03  0.82601366094E+02 0.  0.
          2    1    6    6  501    0 -0.18099669254E+02 -0.12881886421E+02  0.55712655036E+03  0.55756930883E+03  0.00000000000E+00 0. -1.
         -1    1    6    6    0  501  0.56945205405E+02 -0.11811567073E+02  0.39798220597E+03  0.40220903247E+03  0.00000000000E+00 0.  1.
          5    1    5    5  502    0 -0.80446369071E+02  0.13845157621E+02  0.57015448809E+03  0.57598744516E+03  0.47000000000E+01 0. -1.
         11    1    4    4    0    0 -0.11052594121E+02  0.44725456859E+02  0.46928699248E+02  0.65763433161E+02  0.00000000000E+00 0. -1.
        -12    1    4    4    0    0  0.49075492415E+02  0.28791179512E+02 -0.37298860146E+01  0.57019716091E+02  0.00000000000E+00 0.  1.
         -5    1    3    3    0  504  0.35779346265E+01 -0.62668340497E+02  0.27505143293E+02  0.68693125015E+02  0.47000000000E+01 0.  1.
<mgrwt>
<rscale>  2 0.17896027E+03</rscale>
<asrwt>0</asrwt>
<pdfrwt beam="1">  1       21 0.25563145E+00 0.17930027E+03</pdfrwt>
<pdfrwt beam="2">  1       21 0.10098067E-01 0.17930027E+03</pdfrwt>
<totfact> 0.49866315E+03</totfact>
</mgrwt>
</event>
<event>
12    1  0.1410528E-001  0.1812517E+03  0.7546771E-02  0.1170242E+00
         21   -1    0    0  502  503  0.00000000000E+00  0.00000000000E+00  0.30891472234E+03  0.30891472234E+03  0.00000000000E+00 0.  1.
         21   -1    0    0  503  504 -0.00000000000E+00 -0.00000000000E+00 -0.11494015458E+03  0.11494015458E+03  0.00000000000E+00 0.  1.
         -6    2    1    2    0  504  0.17871242956E+02  0.11218979946E+02  0.18177015776E+03  0.25669551100E+03  0.18001929974E+03 0.  0.
        -24    2    3    3    0    0  0.35086778685E+02  0.67430103041E+02  0.69704152450E+02  0.13005845254E+03  0.79237815298E+02 0.  0.
          6    2    1    2  502    0 -0.17871242956E+02 -0.11218979946E+02  0.12204410009E+02  0.16715936592E+03  0.16537248609E+03 0.  0.
         24    2    5    5    0    0  0.96074276562E+01  0.54380394675E+00 -0.51711256025E+02  0.96443435697E+02  0.80837391722E+02 0.  0.
          2    1    6    6  501    0  0.30160277982E+01 -0.94979166269E+01 -0.72096785899E+02  0.72782232591E+02  0.00000000000E+00 0. -1.
         -1    1    6    6    0  501  0.65913998581E+01  0.10041720574E+02  0.20385529874E+02  0.23661203106E+02  0.00000000000E+00 0.  1.
          5    1    5    5  502    0 -0.27478670612E+02 -0.11762783892E+02  0.63915666034E+02  0.70715930228E+02  0.47000000000E+01 0. -1.
         11    1    4    4    0    0  0.33346192643E+02 -0.95382328693E+00  0.47685318628E+02  0.58195944492E+02  0.00000000000E+00 0. -1.
        -12    1    4    4    0    0  0.17405860412E+01  0.68383926328E+02  0.22018833822E+02  0.71862508046E+02  0.00000000000E+00 0.  1.
         -5    1    3    3    0  504 -0.17215535729E+02 -0.56211123095E+02  0.11206600531E+03  0.12663705846E+03  0.47000000000E+01 0.  1.
<mgrwt>
<rscale>  2 0.17750238E+03</rscale>
<asrwt>0</asrwt>
<pdfrwt beam="1">  1       21 0.47525341E-01 0.18125175E+03</pdfrwt>
<pdfrwt beam="2">  1       21 0.17683101E-01 0.18125175E+03</pdfrwt>
<totfact> 0.12333378E+05</totfact>
</mgrwt>
</event>
<event>
12    1  0.1410528E-001  0.1988197E+03  0.7546771E-02  0.1151010E+00
         21   -1    0    0  502  503  0.00000000000E+00  0.00000000000E+00  0.57480354637E+03  0.57480354637E+03  0.00000000000E+00 0. -1.
         21   -1    0    0  503  504 -0.00000000000E+00 -0.00000000000E+00 -0.11138225544E+03  0.11138225544E+03  0.00000000000E+00 0. -1.
         -6    2    1    2    0  504  0.33666202703E+02 -0.90230262779E+02  0.17951767363E+02  0.19836168314E+03  0.17248239870E+03 0.  0.
        -24    2    3    3    0    0 -0.37802657710E+02 -0.18160338817E+02 -0.15319435097E+02  0.91446133000E+02  0.79805208559E+02 0.  0.
          6    2    1    2  502    0 -0.33666202703E+02  0.90230262779E+02  0.44546952356E+03  0.48782411868E+03  0.17393780731E+03 0.  0.
         24    2    5    5    0    0 -0.59859125384E+02 -0.13535031129E+01  0.26926121914E+03  0.28746166730E+03  0.80917607304E+02 0.  0.
          2    1    6    6  501    0 -0.79073861140E+02 -0.33983279744E+01  0.23688641516E+03  0.24975867920E+03  0.00000000000E+00 0. -1.
         -1    1    6    6    0  501  0.19214735756E+02  0.20448248615E+01  0.32374803977E+02  0.37702988097E+02  0.00000000000E+00 0.  1.
          5    1    5    5  502    0  0.26192922681E+02  0.91583765892E+02  0.17620830443E+03  0.20036245138E+03  0.47000000000E+01 0. -1.
         13    1    4    4    0    0  0.82330166050E+01 -0.27133462217E+02 -0.30981342425E+02  0.41998225114E+02  0.00000000000E+00 0. -1.
        -14    1    4    4    0    0 -0.46035674315E+02  0.89731233995E+01  0.15661907328E+02  0.49447907886E+02  0.00000000000E+00 0.  1.
         -5    1    3    3    0  504  0.71468860412E+02 -0.72069923962E+02  0.33271202460E+02  0.10691555014E+03  0.47000000000E+01 0.  1.
<mgrwt>
<rscale>  2 0.19850094E+03</rscale>
<asrwt>0</asrwt>
<pdfrwt beam="1">  1       21 0.88431313E-01 0.19881970E+03</pdfrwt>
<pdfrwt beam="2">  1       21 0.17135732E-01 0.19881970E+03</pdfrwt>
<totfact> 0.33523559E+04</totfact>
</mgrwt>
</event>
<event>
12    1  0.1410528E-001  0.2012947E+03  0.7546771E-02  0.1148703E+00
         21   -1    0    0  502  503  0.00000000000E+00  0.00000000000E+00  0.24823891627E+03  0.24823891627E+03  0.00000000000E+00 0.  1.
         21   -1    0    0  503  504 -0.00000000000E+00 -0.00000000000E+00 -0.16313007059E+03  0.16313007059E+03  0.00000000000E+00 0.  1.
         -6    2    1    2    0  504 -0.10351576410E+03  0.62617914096E+01  0.37413478777E+02  0.20450088092E+03  0.17223855101E+03 0.  0.
        -24    2    3    3    0    0 -0.73577922462E+02 -0.15300705189E+01  0.88777271478E+02  0.14435674842E+03  0.86841321343E+02 0.  0.
          6    2    1    2  502    0  0.10351576410E+03 -0.62617914096E+01  0.47695366906E+02  0.20686810594E+03  0.17252490191E+03 0.  0.
         24    2    5    5    0    0  0.12431608031E+03  0.17335301555E+02  0.74126936303E+02  0.16551361632E+03  0.78389756961E+02 0.  0.
          4    1    6    6  501    0  0.11533761503E+02  0.16580032048E+02  0.44550904146E+02  0.48915316389E+02  0.00000000000E+00 0. -1.
         -3    1    6    6    0  501  0.11278231881E+03  0.75526950678E+00  0.29576032156E+02  0.11659829993E+03  0.00000000000E+00 0.  1.
          5    1    5    5  502    0 -0.20800316212E+02 -0.23597092965E+02 -0.26431569397E+02  0.41354489620E+02  0.47000000000E+01 0. -1.
         11    1    4    4    0    0  0.31809562626E+01  0.29885547670E+02  0.16178525563E+02  0.34132230101E+02  0.00000000000E+00 0. -1.
        -12    1    4    4    0    0 -0.76758878725E+02 -0.31415618189E+02  0.72598745915E+02  0.11022451831E+03  0.00000000000E+00 0.  1.
         -5    1    3    3    0  504 -0.29937841637E+02  0.77918619285E+01 -0.51363792701E+02  0.60144132505E+02  0.47000000000E+01 0.  1.
<mgrwt>
<rscale>  2 0.20123335E+03</rscale>
<asrwt>0</asrwt>
<pdfrwt beam="1">  1       21 0.38190603E-01 0.20129472E+03</pdfrwt>
<pdfrwt beam="2">  1       21 0.25096934E-01 0.20129472E+03</pdfrwt>
<totfact> 0.99064922E+04</totfact>
</mgrwt>
</event>
<event>
12    1  0.1410528E-001  0.2134222E+03  0.7546771E-02  0.1139147E+00
         21   -1    0    0  502  503  0.00000000000E+00  0.00000000000E+00  0.59181107231E+03  0.59181107231E+03  0.00000000000E+00 0. -1.
         21   -1    0    0  503  504 -0.00000000000E+00 -0.00000000000E+00 -0.97455856444E+02  0.97455856444E+02  0.00000000000E+00 0. -1.
         -6    2    1    2    0  504 -0.11649266968E+03 -0.40346039969E+02  0.86671420714E+02  0.22909833886E+03  0.17255656658E+03 0.  0.
        -24    2    3    3    0    0 -0.42701277974E+02  0.16698818076E+01  0.10733962730E+03  0.14157821582E+03  0.81831582912E+02 0.  0.
          6    2    1    2  502    0  0.11649266968E+03  0.40346039969E+02  0.40768379515E+03  0.46016858989E+03  0.17421454953E+03 0.  0.
         24    2    5    5    0    0  0.10061031729E+03  0.86639134873E+02  0.24278719058E+03  0.28809802311E+03  0.80162805442E+02 0.  0.
          2    1    6    6  501    0 -0.52484084011E+01  0.26334512825E+02  0.17719601697E+02  0.32171985341E+02  0.00000000000E+00 0. -1.
         -1    1    6    6    0  501  0.10585872569E+03  0.60304622048E+02  0.22506758888E+03  0.25592603777E+03  0.00000000000E+00 0.  1.
          5    1    5    5  502    0  0.15882352392E+02 -0.46293094904E+02  0.16489660457E+03  0.17207056678E+03  0.47000000000E+01 0. -1.
         13    1    4    4    0    0 -0.49274018114E+02 -0.10244952169E+02  0.21602894385E+02  0.54768357214E+02  0.00000000000E+00 0. -1.
        -14    1    4    4    0    0  0.65727401401E+01  0.11914833977E+02  0.85736732911E+02  0.86809858610E+02  0.00000000000E+00 0.  1.
         -5    1    3    3    0  504 -0.73791391706E+02 -0.42015921776E+02 -0.20668206582E+02  0.87520123034E+02  0.47000000000E+01 0.  1.
<mgrwt>
<rscale>  2 0.21308363E+03</rscale>
<asrwt>0</asrwt>
<pdfrwt beam="1">  1       21 0.91047855E-01 0.21342224E+03</pdfrwt>
<pdfrwt beam="2">  1       21 0.14993209E-01 0.21342224E+03</pdfrwt>
<totfact> 0.39719575E+04</totfact>
</mgrwt>
</event>
<event>
12    1  0.1410528E-001  0.1868194E+03  0.7546771E-02  0.1161509E+00
         21   -1    0    0  502  503  0.00000000000E+00  0.00000000000E+00  0.15935705008E+03  0.15935705008E+03  0.00000000000E+00 0.  1.
         21   -1    0    0  503  504 -0.00000000000E+00 -0.00000000000E+00 -0.22660100846E+03  0.22660100846E+03  0.00000000000E+00 0.  1.
         -6    2    1    2    0  504 -0.18149026148E+02 -0.65971217057E+02 -0.70573182261E+02  0.19910897759E+03  0.17315375327E+03 0.  0.
        -24    2    3    3    0    0 -0.63285408419E+01 -0.67358763054E+01 -0.10369503456E+03  0.13006046880E+03  0.77959238658E+02 0.  0.
          6    2    1    2  502    0  0.18149026148E+02  0.65971217057E+02  0.33292238795E+01  0.18684908096E+03  0.17383873761E+03 0.  0.
         24    2    5    5    0    0  0.67132548757E+02  0.54744637609E+02  0.40307365219E+02  0.12427996309E+03  0.79480004317E+02 0.  0.
          2    1    6    6  501    0  0.27532809086E+02  0.11245213786E+02 -0.23196627894E+02  0.37717289867E+02  0.00000000000E+00 0. -1.
         -1    1    6    6    0  501  0.39599739671E+02  0.43499423823E+02  0.63503993112E+02  0.86562673227E+02  0.00000000000E+00 0.  1.
          5    1    5    5  502    0 -0.48983522609E+02  0.11226579448E+02 -0.36978141339E+02  0.62569117863E+02  0.47000000000E+01 0. -1.
         11    1    4    4    0    0 -0.11949926852E+01  0.23416896468E+02 -0.16222060902E+01  0.23503416779E+02  0.00000000000E+00 0. -1.
        -12    1    4    4    0    0 -0.51335481567E+01 -0.30152772773E+02 -0.10207282847E+03  0.10655705202E+03  0.00000000000E+00 0.  1.
         -5    1    3    3    0  504 -0.11820485306E+02 -0.59235340752E+02  0.33121852300E+02  0.69048508794E+02  0.47000000000E+01 0.  1.
<mgrwt>
<rscale>  2 0.18665991E+03</rscale>
<asrwt>0</asrwt>
<pdfrwt beam="1">  1       21 0.24516469E-01 0.18681942E+03</pdfrwt>
<pdfrwt beam="2">  1       21 0.34861694E-01 0.18681942E+03</pdfrwt>
<totfact> 0.12494662E+05</totfact>
</mgrwt>
</event>
<event>
12    1  0.1410528E-001  0.2049382E+03  0.7546771E-02  0.1145784E+00
         21   -1    0    0  502  503  0.00000000000E+00  0.00000000000E+00  0.16628239346E+03  0.16628239346E+03  0.00000000000E+00 0.  1.
         21   -1    0    0  503  504 -0.00000000000E+00 -0.00000000000E+00 -0.30251129266E+03  0.30251129266E+03  0.00000000000E+00 0.  1.
         -6    2    1    2    0  504 -0.28080468914E+02 -0.10513176427E+03  0.28043473833E+02  0.20614355080E+03  0.17282223965E+03 0.  0.
        -24    2    3    3    0    0 -0.12076322039E+02 -0.13539234010E+03 -0.58146182977E+01  0.15776694933E+03  0.79872881527E+02 0.  0.
          6    2    1    2  502    0  0.28080468914E+02  0.10513176427E+03 -0.16427237303E+03  0.26265013533E+03  0.17366197181E+03 0.  0.
         24    2    5    5    0    0  0.40918574843E+01  0.88530874952E+02 -0.18767135884E+03  0.22495868349E+03  0.86783703729E+02 0.  0.
          2    1    6    6  501    0 -0.36225778857E+02  0.34631984237E+02 -0.11740976889E+03  0.12765866683E+03  0.00000000000E+00 0. -1.
         -1    1    6    6    0  501  0.40317636342E+02  0.53898890715E+02 -0.70261589952E+02  0.97300016665E+02  0.00000000000E+00 0.  1.
          5    1    5    5  502    0  0.23988611429E+02  0.16600889315E+02  0.23398985809E+02  0.37691451833E+02  0.47000000000E+01 0. -1.
         13    1    4    4    0    0  0.88941765431E+01 -0.29376181782E+02 -0.34277794220E+02  0.46011233509E+02  0.00000000000E+00 0. -1.
        -14    1    4    4    0    0 -0.20970498582E+02 -0.10601615832E+03  0.28463175922E+02  0.11175571582E+03  0.00000000000E+00 0.  1.
         -5    1    3    3    0  504 -0.16004146874E+02  0.30260575831E+02  0.33858092130E+02  0.48376601467E+02  0.47000000000E+01 0.  1.
<mgrwt>
<rscale>  2 0.20476023E+03</rscale>
<asrwt>0</asrwt>
<pdfrwt beam="1">  1       21 0.25581907E-01 0.20493824E+03</pdfrwt>
<pdfrwt beam="2">  1       21 0.46540198E-01 0.20493824E+03</pdfrwt>
<totfact> 0.63729944E+04</totfact>
</mgrwt>
</event>
<event>
12    1  0.1410528E-001  0.2070279E+03  0.7546771E-02  0.1143954E+00
         21   -1    0    0  502  503  0.00000000000E+00  0.00000000000E+00  0.21665168370E+03  0.21665168370E+03  0.00000000000E+00 0.  1.
         21   -1    0    0  503  504 -0.00000000000E+00 -0.00000000000E+00 -0.50521415461E+03  0.50521415461E+03  0.00000000000E+00 0.  1.
         -6    2    1    2    0  504  0.23838167268E+02 -0.11160777755E+03 -0.42583167929E+03  0.47346414108E+03  0.17265896900E+03 0.  0.
        -24    2    3    3    0    0 -0.14476980730E+02 -0.23724257210E+02 -0.32215225352E+03  0.33217338752E+03  0.76056962735E+02 0.  0.
          6    2    1    2  502    0 -0.23838167268E+02  0.11160777755E+03  0.13726920838E+03  0.24840169723E+03  0.17273104350E+03 0.  0.
         24    2    5    5    0    0  0.44774886763E+02  0.36429736957E+02  0.11061308916E+03  0.14308252679E+03  0.70038830359E+02 0.  0.
          2    1    6    6  501    0  0.27821712994E+02 -0.70990541891E+01  0.85190355767E+02  0.89899060062E+02  0.00000000000E+00 0. -1.
         -1    1    6    6    0  501  0.16953173768E+02  0.43528791147E+02  0.25422733395E+02  0.53183466724E+02  0.00000000000E+00 0.  1.
          5    1    5    5  502    0 -0.68613054031E+02  0.75178040594E+02  0.26656119222E+02  0.10531917044E+03  0.47000000000E+01 0. -1.
         13    1    4    4    0    0 -0.91351612512E+01  0.27569614918E+02 -0.10141966540E+03  0.10549636661E+03  0.00000000000E+00 0. -1.
        -14    1    4    4    0    0 -0.53418194790E+01 -0.51293872129E+02 -0.22073258811E+03  0.22667702091E+03  0.00000000000E+00 0.  1.
         -5    1    3    3    0  504  0.38315147998E+02 -0.87883520341E+02 -0.10367942577E+03  0.14129075356E+03  0.47000000000E+01 0.  1.
<mgrwt>
<rscale>  2 0.20701290E+03</rscale>
<asrwt>0</asrwt>
<pdfrwt beam="1">  1       21 0.33331028E-01 0.20702794E+03</pdfrwt>
<pdfrwt beam="2">  1       21 0.77725254E-01 0.20702794E+03</pdfrwt>
<totfact> 0.12602648E+04</totfact>
</mgrwt>
</event>
<event>
12    1  0.1410528E-001  0.1963408E+03  0.7546771E-02  0.1153461E+00
         21   -1    0    0  502  503  0.00000000000E+00  0.00000000000E+00  0.23561666919E+03  0.23561666919E+03  0.00000000000E+00 0.  1.
         21   -1    0    0  503  504 -0.00000000000E+00 -0.00000000000E+00 -0.23209089438E+03  0.23209089438E+03  0.00000000000E+00 0.  1.
         -6    2    1    2    0  504 -0.79444669195E+02 -0.41519809885E+02 -0.12734758942E+03  0.23402371526E+03  0.17468354443E+03 0.  0.
        -24    2    3    3    0    0  0.81320940329E+01  0.18658884598E+02 -0.25598508025E+02  0.86829522805E+02  0.80435051375E+02 0.  0.
          6    2    1    2  502    0  0.79444669195E+02  0.41519809885E+02  0.13087336422E+03  0.23368384832E+03  0.17159531878E+03 0.  0.
         24    2    5    5    0    0  0.10201699654E+03  0.36926367013E+02  0.15119855747E+03  0.20260631367E+03  0.80107992095E+02 0.  0.
          2    1    6    6  501    0  0.70706066758E+02 -0.10831039797E+02  0.11356356036E+03  0.13421379043E+03  0.00000000000E+00 0. -1.
         -1    1    6    6    0  501  0.31310929779E+02  0.47757406810E+02  0.37634997111E+02  0.68392523249E+02  0.00000000000E+00 0.  1.
          5    1    5    5  502    0 -0.22572327342E+02  0.45934428721E+01 -0.20325193246E+02  0.31077534644E+02  0.47000000000E+01 0. -1.
         11    1    4    4    0    0 -0.28863155848E+02  0.32488909628E+02 -0.12547684987E+02  0.45233344038E+02  0.00000000000E+00 0. -1.
        -12    1    4    4    0    0  0.36995249881E+02 -0.13830025030E+02 -0.13050823038E+02  0.41596178767E+02  0.00000000000E+00 0.  1.
         -5    1    3    3    0  504 -0.87576763228E+02 -0.60178694483E+02 -0.10174908139E+03  0.14719419245E+03  0.47000000000E+01 0.  1.
<mgrwt>
<rscale>  2 0.19565152E+03</rscale>
<asrwt>0</asrwt>
<pdfrwt beam="1">  1       21 0.36248719E-01 0.19634075E+03</pdfrwt>
<pdfrwt beam="2">  1       21 0.35706291E-01 0.19634075E+03</pdfrwt>
<totfact> 0.55412294E+04</totfact>
</mgrwt>
</event>
<event>
12    1  0.1410528E-001  0.1819169E+03  0.7546771E-02  0.1166150E+00
         21   -1    0    0  502  503  0.00000000000E+00  0.00000000000E+00  0.16570367116E+03  0.16570367116E+03  0.00000000000E+00 0. -1.
         21   -1    0    0  503  504 -0.00000000000E+00 -0.00000000000E+00 -0.21414037226E+03  0.21414037226E+03  0.00000000000E+00 0. -1.
         -6    2    1    2    0  504 -0.51121627530E+02  0.25487254284E+02 -0.75018785909E+02  0.19677801561E+03  0.17271580199E+03 0.  0.
        -24    2    3    3    0    0 -0.42257970774E+02  0.50412299870E+02  0.13551209285E+02  0.10422232234E+03  0.79696431092E+02 0.  0.
          6    2    1    2  502    0  0.51121627530E+02 -0.25487254284E+02  0.26582084815E+02  0.18306602781E+03  0.17188235038E+03 0.  0.
         24    2    5    5    0    0  0.18782604504E+02 -0.80289292817E+02  0.33517255036E+02  0.11888454743E+03  0.78809723127E+02 0.  0.
          2    1    6    6  501    0 -0.67100841152E+01 -0.39471674906E+02 -0.21780131039E+02  0.45578640357E+02  0.00000000000E+00 0. -1.
         -1    1    6    6    0  501  0.25492688619E+02 -0.40817617911E+02  0.55297386075E+02  0.73305907073E+02  0.00000000000E+00 0.  1.
          5    1    5    5  502    0  0.32339023026E+02  0.54802038533E+02 -0.69351702213E+01  0.64181480379E+02  0.47000000000E+01 0. -1.
         11    1    4    4    0    0 -0.37409712439E+02 -0.13089814699E+02  0.61171706452E+01  0.40102987549E+02  0.00000000000E+00 0. -1.
        -12    1    4    4    0    0 -0.48482583350E+01  0.63502114569E+02  0.74340386399E+01  0.64119334792E+02  0.00000000000E+00 0.  1.
         -5    1    3    3    0  504 -0.88636567557E+01 -0.24925045586E+02 -0.88569995195E+02  0.92555693273E+02  0.47000000000E+01 0.  1.
<mgrwt>
<rscale>  2 0.18171883E+03</rscale>
<asrwt>0</asrwt>
<pdfrwt beam="1">  1       21 0.25492873E-01 0.18191693E+03</pdfrwt>
<pdfrwt beam="2">  1       21 0.32944673E-01 0.18191693E+03</pdfrwt>
<totfact> 0.12990188E+05</totfact>
</mgrwt>
</event>
<event>
12    1  0.1410528E-001  0.1892935E+03  0.7546771E-02  0.1159330E+00
         21   -1    0    0  502  503  0.00000000000E+00  0.00000000000E+00  0.37536549921E+03  0.37536549921E+03  0.00000000000E+00 0.  1.
         21   -1    0    0  503  504 -0.00000000000E+00 -0.00000000000E+00 -0.94998603703E+02  0.94998603703E+02  0.00000000000E+00 0.  1.
         -6    2    1    2    0  504  0.74851529920E+01  0.74315145909E+02  0.14593622408E+03  0.23901760128E+03  0.17393465381E+03 0.  0.
        -24    2    3    3    0    0  0.35583362721E+02  0.28611390288E+02  0.12007468608E+02  0.94666140569E+02  0.82053101776E+02 0.  0.
          6    2    1    2  502    0 -0.74851529920E+01 -0.74315145909E+02  0.13443067143E+03  0.23134650163E+03  0.17283179675E+03 0.  0.
         24    2    5    5    0    0 -0.26157628268E+02 -0.55368387644E+02  0.16276059396E+03  0.19220170003E+03  0.81857209091E+02 0.  0.
          2    1    6    6  501    0 -0.24742028684E+02  0.16888741308E+02  0.47738791309E+02  0.56359469142E+02  0.00000000000E+00 0. -1.
         -1    1    6    6    0  501 -0.14155995838E+01 -0.72257128952E+02  0.11502180266E+03  0.13584223089E+03  0.00000000000E+00 0.  1.
          5    1    5    5  502    0  0.18672475276E+02 -0.18946758265E+02 -0.28329922534E+02  0.39144801602E+02  0.47000000000E+01 0. -1.
         11    1    4    4    0    0  0.21259793022E+02  0.26210954792E+01  0.45274595116E+02  0.50086304553E+02  0.00000000000E+00 0. -1.
        -12    1    4    4    0    0  0.14323569700E+02  0.25990294808E+02 -0.33267126508E+02  0.44579836016E+02  0.00000000000E+00 0.  1.
         -5    1    3    3    0  504 -0.28098209729E+02  0.45703755622E+02  0.13392875547E+03  0.14435146071E+03  0.47000000000E+01 0.  1.
<mgrwt>
<rscale>  2 0.18903978E+03</rscale>
<asrwt>0</asrwt>
<pdfrwt beam="1">  1       21 0.57748538E-01 0.18929351E+03</pdfrwt>
<pdfrwt beam="2">  1       21 0.14615170E-01 0.18929351E+03</pdfrwt>
<totfact> 0.11580377E+05</totfact>
</mgrwt>
</event>
<event>
12    1  0.1410528E-001  0.2306060E+03  0.7546771E-02  0.1126948E+00
         21   -1    0    0  502  503  0.00000000000E+00  0.00000000000E+00  0.43242003382E+03  0.43242003382E+03  0.00000000000E+00 0. -1.
         21   -1    0    0  503  504 -0.00000000000E+00 -0.00000000000E+00 -0.15857780663E+03  0.15857780663E+03  0.00000000000E+00 0. -1.
         -6    2    1    2    0  504 -0.15190539782E+03 -0.16995830214E+02 -0.82873373589E+01  0.22661309880E+03  0.16709490853E+03 0.  0.
        -24    2    3    3    0    0 -0.64706305748E+02 -0.48091312319E+02 -0.41849696144E+02  0.12802743761E+03  0.90221656989E+02 0.  0.
          6    2    1    2  502    0  0.15190539782E+03  0.16995830214E+02  0.28212956454E+03  0.36438474165E+03  0.17267032353E+03 0.  0.
         24    2    5    5    0    0  0.16827680843E+03 -0.23649389009E+02  0.22532374885E+03  0.29248865256E+03  0.76827353350E+02 0.  0.
          2    1    6    6  501    0  0.13717718918E+03 -0.35476763550E+02  0.21529660775E+03  0.25773787322E+03  0.00000000000E+00 0. -1.
         -1    1    6    6    0  501  0.31099619247E+02  0.11827374541E+02  0.10027141103E+02  0.34750779337E+02  0.00000000000E+00 0.  1.
          5    1    5    5  502    0 -0.16371410608E+02  0.40645219223E+02  0.56805815687E+02  0.71896089093E+02  0.47000000000E+01 0. -1.
         13    1    4    4    0    0 -0.78118730780E+02 -0.47592120471E+02 -0.82492470646E+01  0.91845501288E+02  0.00000000000E+00 0. -1.
        -14    1    4    4    0    0  0.13412425033E+02 -0.49919184739E+00 -0.33600449079E+02  0.36181936323E+02  0.00000000000E+00 0.  1.
         -5    1    3    3    0  504 -0.87199092070E+02  0.31095482105E+02  0.33562358785E+02  0.98585661191E+02  0.47000000000E+01 0.  1.
<mgrwt>
<rscale>  2 0.22956286E+03</rscale>
<asrwt>0</asrwt>
<pdfrwt beam="1">  1       21 0.66526159E-01 0.23060605E+03</pdfrwt>
<pdfrwt beam="2">  1       21 0.24396586E-01 0.23060605E+03</pdfrwt>
<totfact> 0.32239248E+04</totfact>
</mgrwt>
</event>
<event>
12    1  0.1410528E-001  0.2464492E+03  0.7546771E-02  0.1115810E+00
         21   -1    0    0  502  503  0.00000000000E+00  0.00000000000E+00  0.11083141495E+03  0.11083141495E+03  0.00000000000E+00 0. -1.
         21   -1    0    0  503  504 -0.00000000000E+00 -0.00000000000E+00 -0.55170797556E+03  0.55170797556E+03  0.00000000000E+00 0. -1.
         -6    2    1    2    0  504  0.12152635965E+03  0.12566531567E+03 -0.18244922732E+03  0.30543734213E+03  0.17159202128E+03 0.  0.
        -24    2    3    3    0    0  0.36930002158E+02  0.13351971669E+03 -0.13568071467E+03  0.20834141487E+03  0.76194153396E+02 0.  0.
          6    2    1    2  502    0 -0.12152635965E+03 -0.12566531567E+03 -0.25842733328E+03  0.35710204837E+03  0.17371458981E+03 0.  0.
         24    2    5    5    0    0 -0.78389899768E+02 -0.14596221120E+02 -0.18670093677E+03  0.21794794713E+03  0.79284562256E+02 0.  0.
          2    1    6    6  501    0 -0.47361847251E+02  0.29009823712E+02 -0.68437237152E+02  0.88138356439E+02  0.00000000000E+00 0. -1.
         -1    1    6    6    0  501 -0.31028052517E+02 -0.43606044831E+02 -0.11826369962E+03  0.12980959069E+03  0.00000000000E+00 0.  1.
          5    1    5    5  502    0 -0.43136459879E+02 -0.11106909455E+03 -0.71726396514E+02  0.13915410124E+03  0.47000000000E+01 0. -1.
         11    1    4    4    0    0  0.26443528266E+02  0.47347868081E+02 -0.10143631175E+03  0.11502350256E+03  0.00000000000E+00 0. -1.
        -12    1    4    4    0    0  0.10486473892E+02  0.86171848606E+02 -0.34244402925E+02  0.93317912314E+02  0.00000000000E+00 0.  1.
         -5    1    3    3    0  504  0.84596357489E+02 -0.78544010135E+01 -0.46768512650E+02  0.97095927263E+02  0.47000000000E+01 0.  1.
<mgrwt>
<rscale>  2 0.24607543E+03</rscale>
<asrwt>0</asrwt>
<pdfrwt beam="1">  1       21 0.17050987E-01 0.24644916E+03</pdfrwt>
<pdfrwt beam="2">  1       21 0.84878150E-01 0.24644916E+03</pdfrwt>
<totfact> 0.36318160E+04</totfact>
</mgrwt>
</event>
<event>
12    1  0.1410528E-001  0.1769581E+03  0.7546771E-02  0.1170845E+00
         21   -1    0    0  502  503  0.00000000000E+00  0.00000000000E+00  0.30466497915E+03  0.30466497915E+03  0.00000000000E+00 0.  1.
         21   -1    0    0  503  504 -0.00000000000E+00 -0.00000000000E+00 -0.11105145480E+03  0.11105145480E+03  0.00000000000E+00 0.  1.
         -6    2    1    2    0  504  0.36201947731E+02 -0.49710856360E+01  0.39502609514E+02  0.18105852599E+03  0.17287695324E+03 0.  0.
        -24    2    3    3    0    0 -0.18242642679E+02 -0.40787191684E+02  0.63131748505E+02  0.11157879450E+03  0.80422762303E+02 0.  0.
          6    2    1    2  502    0 -0.36201947731E+02  0.49710856360E+01  0.15411091484E+03  0.23465790797E+03  0.17314406425E+03 0.  0.
         24    2    5    5    0    0 -0.49429471986E+02 -0.59221817159E+02  0.12081034296E+03  0.16099167245E+03  0.73298590062E+02 0.  0.
          4    1    6    6  501    0 -0.38262396740E+02 -0.10163494412E+02  0.12417616833E+02  0.41491021087E+02  0.00000000000E+00 0. -1.
         -3    1    6    6    0  501 -0.11167075246E+02 -0.49058322746E+02  0.10839272612E+03  0.11950065137E+03  0.00000000000E+00 0.  1.
          5    1    5    5  502    0  0.13227524255E+02  0.64192902795E+02  0.33300571883E+02  0.73666235514E+02  0.47000000000E+01 0. -1.
         13    1    4    4    0    0 -0.25899920395E+02 -0.44706180324E+02  0.39963263927E+01  0.51821029132E+02  0.00000000000E+00 0. -1.
        -14    1    4    4    0    0  0.76572777165E+01  0.39189886400E+01  0.59135422112E+02  0.59757765373E+02  0.00000000000E+00 0.  1.
         -5    1    3    3    0  504  0.54444590410E+02  0.35816106048E+02 -0.23629138991E+02  0.69479731482E+02  0.47000000000E+01 0.  1.
<mgrwt>
<rscale>  2 0.17689270E+03</rscale>
<asrwt>0</asrwt>
<pdfrwt beam="1">  1       21 0.46871535E-01 0.17695807E+03</pdfrwt>
<pdfrwt beam="2">  1       21 0.17084839E-01 0.17695807E+03</pdfrwt>
<totfact> 0.13541204E+05</totfact>
</mgrwt>
</event>
<event>
12    1  0.1410528E-001  0.2096226E+03  0.7546771E-02  0.1142704E+00
         21   -1    0    0  502  503  0.00000000000E+00  0.00000000000E+00  0.21262082625E+03  0.21262082625E+03  0.00000000000E+00 0. -1.
         21   -1    0    0  503  504 -0.00000000000E+00 -0.00000000000E+00 -0.88286965064E+03  0.88286965064E+03  0.00000000000E+00 0. -1.
         -6    2    1    2    0  504 -0.11476710928E+03  0.35001818140E+02 -0.81516362489E+03  0.84065339197E+03  0.16676262603E+03 0.  0.
        -24    2    3    3    0    0 -0.22496046563E+02  0.94018156140E+01 -0.58948812726E+03  0.59545789981E+03  0.80494670755E+02 0.  0.
          6    2    1    2  502    0  0.11476710928E+03 -0.35001818140E+02  0.14491480050E+03  0.25483708492E+03  0.17188665975E+03 0.  0.
         24    2    5    5    0    0  0.80010205191E+02 -0.87169646799E+02  0.90181878712E+02  0.17148657528E+03  0.85291816699E+02 0.  0.
          2    1    6    6  501    0 -0.91694799513E+01 -0.14732696607E+02 -0.91417851923E+01  0.19613871326E+02  0.00000000000E+00 0. -1.
         -1    1    6    6    0  501  0.89179685142E+02 -0.72436950191E+02  0.99323663904E+02  0.15187270395E+03  0.00000000000E+00 0.  1.
          5    1    5    5  502    0  0.34756904087E+02  0.52167828659E+02  0.54732921793E+02  0.83350509637E+02  0.47000000000E+01 0. -1.
         13    1    4    4    0    0  0.13619095320E+01  0.41554757674E+02 -0.22806061378E+03  0.23181953378E+03  0.00000000000E+00 0. -1.
        -14    1    4    4    0    0 -0.23857956095E+02 -0.32152942060E+02 -0.36142751348E+03  0.36363836603E+03  0.00000000000E+00 0.  1.
         -5    1    3    3    0  504 -0.92271062715E+02  0.25600002526E+02 -0.22567549763E+03  0.24519549216E+03  0.47000000000E+01 0.  1.
<mgrwt>
<rscale>  2 0.20856954E+03</rscale>
<asrwt>0</asrwt>
<pdfrwt beam="1">  1       21 0.32710896E-01 0.20962261E+03</pdfrwt>
<pdfrwt beam="2">  1       21 0.13582610E+00 0.20962261E+03</pdfrwt>
<totfact> 0.34289910E+03</totfact>
</mgrwt>
</event>
<event>
12    1  0.1410528E-001  0.2120385E+03  0.7546771E-02  0.1140939E+00
         21   -1    0    0  502  503  0.00000000000E+00  0.00000000000E+00  0.34934087554E+03  0.34934087554E+03  0.00000000000E+00 0. -1.
         21   -1    0    0  503  504 -0.00000000000E+00 -0.00000000000E+00 -0.30629001863E+03  0.30629001863E+03  0.00000000000E+00 0. -1.
         -6    2    1    2    0  504  0.10775378974E+03 -0.53402258058E+02  0.27311361871E+03  0.34275842065E+03  0.16861081173E+03 0.  0.
        -24    2    3    3    0    0  0.13852722449E+03 -0.20957282661E+02  0.22827591434E+03  0.27925888957E+03  0.79035654699E+02 0.  0.
          6    2    1    2  502    0 -0.10775378974E+03  0.53402258058E+02 -0.23006276180E+03  0.31287247352E+03  0.17463570640E+03 0.  0.
         24    2    5    5    0    0 -0.14080464640E+03  0.42233375936E+02 -0.14930806478E+03  0.22477869312E+03  0.81381546952E+02 0.  0.
          4    1    6    6  501    0 -0.83709884400E+02  0.57150241028E+02 -0.12506791425E+03  0.16098284992E+03  0.00000000000E+00 0. -1.
         -3    1    6    6    0  501 -0.57094761997E+02 -0.14916865092E+02 -0.24240150533E+02  0.63795843200E+02  0.00000000000E+00 0.  1.
          5    1    5    5  502    0  0.33050856657E+02  0.11168882122E+02 -0.80754697025E+02  0.88093780401E+02  0.47000000000E+01 0. -1.
         11    1    4    4    0    0 -0.96110318352E-01  0.53207087652E+01  0.57466921167E+02  0.57712790674E+02  0.00000000000E+00 0. -1.
        -12    1    4    4    0    0  0.13862333480E+03 -0.26277991426E+02  0.17080899318E+03  0.22154609890E+03  0.00000000000E+00 0.  1.
         -5    1    3    3    0  504 -0.30773434746E+02 -0.32444975397E+02  0.44837704365E+02  0.63499531080E+02  0.47000000000E+01 0.  1.
<mgrwt>
<rscale>  2 0.21079407E+03</rscale>
<asrwt>0</asrwt>
<pdfrwt beam="1">  1       21 0.53744750E-01 0.21203846E+03</pdfrwt>
<pdfrwt beam="2">  1       21 0.47121541E-01 0.21203846E+03</pdfrwt>
<totfact> 0.13940904E+04</totfact>
</mgrwt>
</event>
<event>
12    1  0.1410528E-001  0.2074095E+03  0.7546771E-02  0.1143703E+00
         21   -1    0    0  502  503  0.00000000000E+00  0.00000000000E+00  0.73790776140E+03  0.73790776140E+03  0.00000000000E+00 0. -1.
         21   -1    0    0  503  504 -0.00000000000E+00 -0.00000000000E+00 -0.10534891748E+03  0.10534891748E+03  0.00000000000E+00 0.  1.
         -6    2    1    2    0  504  0.75586930767E+02 -0.83750832361E+02  0.34073947285E+02  0.20985092225E+03  0.17363406826E+03 0.  0.
        -24    2    3    3    0    0  0.68302425570E+02 -0.45181485252E+02  0.86377811778E+02  0.14428841167E+03  0.81556308314E+02 0.  0.
          6    2    1    2  502    0 -0.75586930767E+02  0.83750832361E+02  0.59848489664E+03  0.63340575663E+03  0.17404337104E+03 0.  0.
         24    2    5    5    0    0 -0.83111932675E+02  0.27894850707E+02  0.20962497697E+03  0.24045455932E+03  0.78676858605E+02 0.  0.
          4    1    6    6  501    0  0.27073657170E+01 -0.92511708763E+01 -0.13027539260E+01  0.97268267950E+01  0.00000000000E+00 0. -1.
         -3    1    6    6    0  501 -0.85819298392E+02  0.37146021583E+02  0.21092773089E+03  0.23072773253E+03  0.00000000000E+00 0.  1.
          5    1    5    5  502    0  0.75250019082E+01  0.55855981654E+02  0.38885991967E+03  0.39295119731E+03  0.47000000000E+01 0. -1.
         11    1    4    4    0    0  0.83143550618E+02 -0.52639991461E+02  0.78620546942E+02  0.12595637781E+03  0.00000000000E+00 0. -1.
        -12    1    4    4    0    0 -0.14841125047E+02  0.74585062094E+01  0.77572648366E+01  0.18332033856E+02  0.00000000000E+00 0.  1.
         -5    1    3    3    0  504  0.72845051965E+01 -0.38569347109E+02 -0.52303864494E+02  0.65562510578E+02  0.47000000000E+01 0.  1.
<mgrwt>
<rscale>  2 0.20732356E+03</rscale>
<asrwt>0</asrwt>
<pdfrwt beam="1">  1       21 0.11352427E+00 0.20740945E+03</pdfrwt>
<pdfrwt beam="2">  1       21 0.16207526E-01 0.20740945E+03</pdfrwt>
<totfact> 0.20413560E+04</totfact>
</mgrwt>
</event>
<event>
12    1  0.1410528E-001  0.1948253E+03  0.7546771E-02  0.1154567E+00
         21   -1    0    0  502  503  0.00000000000E+00  0.00000000000E+00  0.71428213065E+03  0.71428213065E+03  0.00000000000E+00 0.  1.
         21   -1    0    0  503  504 -0.00000000000E+00 -0.00000000000E+00 -0.54599867564E+02  0.54599867564E+02  0.00000000000E+00 0.  1.
         -6    2    1    2    0  504  0.61249338194E+02 -0.63270993219E+02  0.25882542904E+03  0.32395602276E+03  0.17378780726E+03 0.  0.
        -24    2    3    3    0    0 -0.32357959718E+01  0.35854881363E+02  0.13267727102E+03  0.15098284764E+03  0.62422104599E+02 0.  0.
          6    2    1    2  502    0 -0.61249338194E+02  0.63270993219E+02  0.40085683405E+03  0.44492597545E+03  0.17180867912E+03 0.  0.
         24    2    5    5    0    0 -0.53599126013E+02  0.10809341473E+03  0.33292915543E+03  0.36304902669E+03  0.80035745921E+02 0.  0.
          4    1    6    6  501    0 -0.61262783024E+02  0.93118539007E+02  0.19919021836E+03  0.22825629012E+03  0.00000000000E+00 0. -1.
         -3    1    6    6    0  501  0.76636570112E+01  0.14974875728E+02  0.13373893707E+03  0.13479273656E+03  0.00000000000E+00 0.  1.
          5    1    5    5  502    0 -0.76502121812E+01 -0.44822421516E+02  0.67927678618E+02  0.81876948767E+02  0.47000000000E+01 0. -1.
         13    1    4    4    0    0 -0.31563830553E+02  0.12416222313E+02  0.49106111032E+02  0.59681220802E+02  0.00000000000E+00 0. -1.
        -14    1    4    4    0    0  0.28328034581E+02  0.23438659050E+02  0.83571159985E+02  0.91301626834E+02  0.00000000000E+00 0.  1.
         -5    1    3    3    0  504  0.64485134166E+02 -0.99125874581E+02  0.12614815802E+03  0.17297317512E+03  0.47000000000E+01 0.  1.
<mgrwt>
<rscale>  2 0.19438297E+03</rscale>
<asrwt>0</asrwt>
<pdfrwt beam="1">  1       21 0.10988955E+00 0.19482531E+03</pdfrwt>
<pdfrwt beam="2">  1       21 0.83999801E-02 0.19482531E+03</pdfrwt>
<totfact> 0.72086413E+04</totfact>
</mgrwt>
</event>
<event>
12    1  0.1410528E-001  0.3246182E+03  0.7546771E-02  0.1073545E+00
         21   -1    0    0  502  503  0.00000000000E+00  0.00000000000E+00  0.10464207356E+04  0.10464207356E+04  0.00000000000E+00 0. -1.
         21   -1    0    0  503  504 -0.00000000000E+00 -0.00000000000E+00 -0.16007368021E+03  0.16007368021E+03  0.00000000000E+00 0. -1.
         -6    2    1    2    0  504  0.21198949224E+03  0.17534127190E+03  0.75771072888E+02  0.33333326684E+03  0.17229539995E+03 0.  0.
        -24    2    3    3    0    0  0.17013634697E+03  0.19553672219E+03  0.87116956798E+02  0.28526705144E+03  0.81283086752E+02 0.  0.
          6    2    1    2  502    0 -0.21198949224E+03 -0.17534127190E+03  0.81057598253E+03  0.87316114900E+03  0.17231616935E+03 0.  0.
         24    2    5    5    0    0 -0.94712393280E+02 -0.24135560902E+02  0.23406318171E+03  0.26570235658E+03  0.79115147217E+02 0.  0.
          4    1    6    6  501    0 -0.54868280580E+02 -0.13875130431E+02  0.45257788578E+02  0.72465956733E+02  0.00000000000E+00 0. -1.
         -3    1    6    6    0  501 -0.39844112700E+02 -0.10260430471E+02  0.18880539313E+03  0.19323639985E+03  0.00000000000E+00 0.  1.
          5    1    5    5  502    0 -0.11727709896E+03 -0.15120571100E+03  0.57651280083E+03  0.60745879243E+03  0.47000000000E+01 0. -1.
         13    1    4    4    0    0  0.13644292234E+03  0.18052726503E+03  0.47658801532E+02  0.23125338017E+03  0.00000000000E+00 0. -1.
        -14    1    4    4    0    0  0.33693424630E+02  0.15009457160E+02  0.39458155266E+02  0.54013671275E+02  0.00000000000E+00 0.  1.
         -5    1    3    3    0  504  0.41853145262E+02 -0.20195450285E+02 -0.11345883910E+02  0.48066215394E+02  0.47000000000E+01 0.  1.
<mgrwt>
<rscale>  2 0.32461543E+03</rscale>
<asrwt>0</asrwt>
<pdfrwt beam="1">  1       21 0.16098780E+00 0.32461819E+03</pdfrwt>
<pdfrwt beam="2">  1       21 0.24626721E-01 0.32461819E+03</pdfrwt>
<totfact> 0.35201934E+03</totfact>
</mgrwt>
</event>
<event>
12    1  0.1410528E-001  0.2125270E+03  0.7546771E-02  0.1140012E+00
         21   -1    0    0  502  503  0.00000000000E+00  0.00000000000E+00  0.21041146042E+03  0.21041146042E+03  0.00000000000E+00 0.  1.
         21   -1    0    0  503  504 -0.00000000000E+00 -0.00000000000E+00 -0.48105781550E+03  0.48105781550E+03  0.00000000000E+00 0. -1.
         -6    2    1    2    0  504 -0.84156861472E+02  0.83946453177E+02  0.12333593357E+03  0.24382010675E+03  0.17351399832E+03 0.  0.
        -24    2    3    3    0    0 -0.74000005453E+02  0.88102758886E+01  0.12845780277E+02  0.10973516787E+03  0.79518370376E+02 0.  0.
          6    2    1    2  502    0  0.84156861472E+02 -0.83946453177E+02 -0.39398228865E+03  0.44764916918E+03  0.17617704323E+03 0.  0.
         24    2    5    5    0    0  0.30153818137E+02 -0.11749051587E+03 -0.30322593942E+03  0.33674228140E+03  0.82073867193E+02 0.  0.
          4    1    6    6  501    0  0.31390665984E+02 -0.12892193763E+03 -0.29170483767E+03  0.32046521221E+03  0.00000000000E+00 0. -1.
         -3    1    6    6    0  501 -0.12368478473E+01  0.11431421758E+02 -0.11521101747E+02  0.16277069192E+02  0.00000000000E+00 0.  1.
          5    1    5    5  502    0  0.54003043335E+02  0.33544062694E+02 -0.90756349229E+02  0.11090688778E+03  0.47000000000E+01 0. -1.
         11    1    4    4    0    0 -0.17090054180E+01 -0.21969452327E+02 -0.14684894448E+02  0.26480628014E+02  0.00000000000E+00 0. -1.
        -12    1    4    4    0    0 -0.72291000035E+02  0.30779728216E+02  0.27530674725E+02  0.83254539851E+02  0.00000000000E+00 0.  1.
         -5    1    3    3    0  504 -0.10156856019E+02  0.75136177289E+02  0.11049015329E+03  0.13408493888E+03  0.47000000000E+01 0.  1.
<mgrwt>
<rscale>  2 0.21197430E+03</rscale>
<asrwt>0</asrwt>
<pdfrwt beam="1">  1       21 0.32370994E-01 0.21252702E+03</pdfrwt>
<pdfrwt beam="2">  1       21 0.74008895E-01 0.21252702E+03</pdfrwt>
<totfact> 0.14850274E+04</totfact>
</mgrwt>
</event>
<event>
12    1  0.1410528E-001  0.3989382E+03  0.7546771E-02  0.1044205E+00
         21   -1    0    0  502  503  0.00000000000E+00  0.00000000000E+00  0.82689537083E+03  0.82689537083E+03  0.00000000000E+00 0. -1.
         21   -1    0    0  503  504 -0.00000000000E+00 -0.00000000000E+00 -0.19236880568E+03  0.19236880568E+03  0.00000000000E+00 0.  1.
         -6    2    1    2    0  504 -0.19213116844E+03 -0.30370216820E+03  0.30047910881E+03  0.49943906806E+03  0.17321170577E+03 0.  0.
        -24    2    3    3    0    0 -0.19018623611E+02 -0.10791942131E+03  0.12442717428E+03  0.18429590883E+03  0.80464593279E+02 0.  0.
          6    2    1    2  502    0  0.19213116844E+03  0.30370216820E+03  0.33404745633E+03  0.51982510845E+03  0.17170045848E+03 0.  0.
         24    2    5    5    0    0  0.30170052890E+02  0.10419099948E+03  0.72187555694E+02  0.15290712449E+03  0.80022178543E+02 0.  0.
          2    1    6    6  501    0  0.33360005317E+02  0.65532182598E+01  0.50485152821E+01  0.34370367046E+02  0.00000000000E+00 0. -1.
         -1    1    6    6    0  501 -0.31899524271E+01  0.97637781218E+02  0.67139040411E+02  0.11853675744E+03  0.00000000000E+00 0.  1.
          5    1    5    5  502    0  0.16196111555E+03  0.19951116873E+03  0.26185990064E+03  0.36691798397E+03  0.47000000000E+01 0. -1.
         13    1    4    4    0    0 -0.29241017085E+02 -0.15014547315E+02  0.66916580543E+02  0.74554023787E+02  0.00000000000E+00 0. -1.
        -14    1    4    4    0    0  0.10222393474E+02 -0.92904873995E+02  0.57510593735E+02  0.10974188504E+03  0.00000000000E+00 0.  1.
         -5    1    3    3    0  504 -0.17311254482E+03 -0.19578274689E+03  0.17605193453E+03  0.31514315923E+03  0.47000000000E+01 0.  1.
<mgrwt>
<rscale>  2 0.39877464E+03</rscale>
<asrwt>0</asrwt>
<pdfrwt beam="1">  1       21 0.12721467E+00 0.39893820E+03</pdfrwt>
<pdfrwt beam="2">  1       21 0.29595201E-01 0.39893820E+03</pdfrwt>
<totfact> 0.44421556E+03</totfact>
</mgrwt>
</event>
<event>
12    1  0.1410528E-001  0.2226118E+03  0.7546771E-02  0.1134783E+00
         21   -1    0    0  502  503  0.00000000000E+00  0.00000000000E+00  0.38188279611E+03  0.38188279611E+03  0.00000000000E+00 0.  1.
         21   -1    0    0  503  504 -0.00000000000E+00 -0.00000000000E+00 -0.30134546248E+03  0.30134546248E+03  0.00000000000E+00 0.  1.
         -6    2    1    2    0  504 -0.61418730883E+02 -0.96537403712E+02 -0.22432484091E+03  0.30574058439E+03  0.17338956103E+03 0.  0.
        -24    2    3    3    0    0 -0.70811639359E+02 -0.44707565240E+02 -0.22436886595E+03  0.25285721438E+03  0.81131548704E+02 0.  0.
          6    2    1    2  502    0  0.61418730883E+02  0.96537403712E+02  0.30486217454E+03  0.37748767421E+03  0.19095619365E+03 0.  0.
         24    2    5    5    0    0  0.11303002716E+03  0.99139910130E+02  0.23596622937E+03  0.29123664404E+03  0.80834476612E+02 0.  0.
          4    1    6    6  501    0  0.67716272147E+02  0.15646975144E+02  0.62538193877E+02  0.93495171202E+02  0.00000000000E+00 0. -1.
         -3    1    6    6    0  501  0.45313755015E+02  0.83492934986E+02  0.17342803549E+03  0.19774147284E+03  0.00000000000E+00 0.  1.
          5    1    5    5  502    0 -0.51611296279E+02 -0.26025064182E+01  0.68895945173E+02  0.86251030165E+02  0.47000000000E+01 0. -1.
         11    1    4    4    0    0 -0.51098814412E+02  0.15297807700E+02 -0.10793949900E+03  0.12039953156E+03  0.00000000000E+00 0. -1.
        -12    1    4    4    0    0 -0.19712824948E+02 -0.60005372940E+02 -0.11642936695E+03  0.13245768282E+03  0.00000000000E+00 0.  1.
         -5    1    3    3    0  504  0.93929084765E+01 -0.51829838472E+02  0.44025042275E-01  0.52883370013E+02  0.47000000000E+01 0.  1.
<mgrwt>
<rscale>  2 0.21879673E+03</rscale>
<asrwt>0</asrwt>
<pdfrwt beam="1">  1       21 0.58751199E-01 0.22261177E+03</pdfrwt>
<pdfrwt beam="2">  1       21 0.46360840E-01 0.22261177E+03</pdfrwt>
<totfact> 0.11850917E+04</totfact>
</mgrwt>
</event>
<event>
12    1  0.1410528E-001  0.1769826E+03  0.7546771E-02  0.1170859E+00
         21   -1    0    0  502  503  0.00000000000E+00  0.00000000000E+00  0.98597841817E+02  0.98597841817E+02  0.00000000000E+00 0. -1.
         21   -1    0    0  503  504 -0.00000000000E+00 -0.00000000000E+00 -0.31987796164E+03  0.31987796164E+03  0.00000000000E+00 0. -1.
         -6    2    1    2    0  504 -0.33395727558E+02 -0.19959668679E+02 -0.13059202213E+03  0.21961110640E+03  0.17222397864E+03 0.  0.
        -24    2    3    3    0    0 -0.78384012509E+02 -0.24215923002E+02 -0.13087599639E+03  0.17417728502E+03  0.80490594748E+02 0.  0.
          6    2    1    2  502    0  0.33395727558E+02  0.19959668679E+02 -0.90688097694E+02  0.19886469705E+03  0.17265333381E+03 0.  0.
         24    2    5    5    0    0 -0.32895221573E+02 -0.10453373656E+02 -0.67212510384E+01  0.87545496471E+02  0.80172751691E+02 0.  0.
          4    1    6    6  501    0 -0.39577865780E+02  0.95753300749E+01  0.26210705362E+02  0.48426185906E+02  0.00000000000E+00 0. -1.
         -3    1    6    6    0  501  0.66826442071E+01 -0.20028703730E+02 -0.32931956401E+02  0.39119310565E+02  0.00000000000E+00 0.  1.
          5    1    5    5  502    0  0.66290949132E+02  0.30413042334E+02 -0.83966846656E+02  0.11131920058E+03  0.47000000000E+01 0. -1.
         13    1    4    4    0    0 -0.75433469528E+02 -0.70378119767E+01 -0.48449816455E+02  0.89928437310E+02  0.00000000000E+00 0. -1.
        -14    1    4    4    0    0 -0.29505429818E+01 -0.17178111026E+02 -0.82426179936E+02  0.84248847714E+02  0.00000000000E+00 0.  1.
         -5    1    3    3    0  504  0.44988284951E+02  0.42562543235E+01  0.28397426445E+00  0.45433821379E+02  0.47000000000E+01 0.  1.
<mgrwt>
<rscale>  2 0.17687779E+03</rscale>
<asrwt>0</asrwt>
<pdfrwt beam="1">  1       21 0.15168899E-01 0.17698259E+03</pdfrwt>
<pdfrwt beam="2">  1       21 0.49211994E-01 0.17698259E+03</pdfrwt>
<totfact> 0.15215829E+05</totfact>
</mgrwt>
</event>
<event>
12    1  0.1410528E-001  0.2340151E+03  0.7546771E-02  0.1124216E+00
         21   -1    0    0  502  503  0.00000000000E+00  0.00000000000E+00  0.12529865654E+03  0.12529865654E+03  0.00000000000E+00 0.  1.
         21   -1    0    0  503  504 -0.00000000000E+00 -0.00000000000E+00 -0.51009502340E+03  0.51009502340E+03  0.00000000000E+00 0.  1.
         -6    2    1    2    0  504  0.15120276048E+03  0.38763634532E+02 -0.68192625625E+02  0.24169202158E+03  0.17146400487E+03 0.  0.
        -24    2    3    3    0    0  0.57199865106E+02 -0.30519323724E+02 -0.69755348341E+02  0.12481086507E+03  0.80676450900E+02 0.  0.
          6    2    1    2  502    0 -0.15120276048E+03 -0.38763634532E+02 -0.31660374123E+03  0.39370165836E+03  0.17435071751E+03 0.  0.
         24    2    5    5    0    0 -0.14020419178E+03 -0.35349145452E+02 -0.33372292057E+03  0.37254076163E+03  0.80677468257E+02 0.  0.
          4    1    6    6  501    0 -0.67007526640E+02 -0.38345528809E+02 -0.92743142998E+02  0.12067178121E+03  0.00000000000E+00 0. -1.
         -3    1    6    6    0  501 -0.73196665136E+02  0.29963833574E+01 -0.24097977757E+03  0.25186898042E+03  0.00000000000E+00 0.  1.
          5    1    5    5  502    0 -0.10998568703E+02 -0.34144890805E+01  0.17119179341E+02  0.21160896732E+02  0.47000000000E+01 0. -1.
         13    1    4    4    0    0  0.38467917054E+02  0.24323323657E+02 -0.29136885853E+02  0.54040381507E+02  0.00000000000E+00 0. -1.
        -14    1    4    4    0    0  0.18731948051E+02 -0.54842647381E+02 -0.40618462489E+02  0.70770483568E+02  0.00000000000E+00 0.  1.
         -5    1    3    3    0  504  0.94002895374E+02  0.69282958256E+02  0.15627227166E+01  0.11688115650E+03  0.47000000000E+01 0.  1.
<mgrwt>
<rscale>  2 0.23347757E+03</rscale>
<asrwt>0</asrwt>
<pdfrwt beam="1">  1       21 0.19276717E-01 0.23401510E+03</pdfrwt>
<pdfrwt beam="2">  1       21 0.78476157E-01 0.23401510E+03</pdfrwt>
<totfact> 0.34770041E+04</totfact>
</mgrwt>
</event>
<event>
12    1  0.1410528E-001  0.3206490E+03  0.7546771E-02  0.1075376E+00
         21   -1    0    0  502  503  0.00000000000E+00  0.00000000000E+00  0.22673520741E+03  0.22673520741E+03  0.00000000000E+00 0.  1.
         21   -1    0    0  503  504 -0.00000000000E+00 -0.00000000000E+00 -0.46067746024E+03  0.46067746024E+03  0.00000000000E+00 0. -1.
         -6    2    1    2    0  504 -0.14278860685E+03  0.22847777848E+03 -0.16093467924E+03  0.35876976463E+03  0.17385364972E+03 0.  0.
        -24    2    3    3    0    0 -0.10702939469E+03  0.11424880420E+03 -0.16336452437E+03  0.23895751998E+03  0.76841707054E+02 0.  0.
          6    2    1    2  502    0  0.14278860685E+03 -0.22847777848E+03 -0.73007573589E+02  0.32864290302E+03  0.17345134879E+03 0.  0.
         24    2    5    5    0    0  0.13290730205E+03 -0.12447303260E+03  0.32561328915E+01  0.19921002359E+03  0.80722638180E+02 0.  0.
          2    1    6    6  501    0  0.98123050028E+02 -0.81476661385E+02 -0.34647509794E+02  0.13216288901E+03  0.00000000000E+00 0. -1.
         -1    1    6    6    0  501  0.34784252027E+02 -0.42996371216E+02  0.37903642685E+02  0.67047134582E+02  0.00000000000E+00 0.  1.
          5    1    5    5  502    0  0.98813047932E+01 -0.10400474588E+03 -0.76263706481E+02  0.12943287943E+03  0.47000000000E+01 0. -1.
         11    1    4    4    0    0 -0.79793093372E+00 -0.40407825140E+01 -0.33275435758E+02  0.33529378789E+02  0.00000000000E+00 0. -1.
        -12    1    4    4    0    0 -0.10623146375E+03  0.11828958672E+03 -0.13008908862E+03  0.20542814119E+03  0.00000000000E+00 0.  1.
         -5    1    3    3    0  504 -0.35759212160E+02  0.11422897428E+03  0.24298451369E+01  0.11981224464E+03  0.47000000000E+01 0.  1.
<mgrwt>
<rscale>  2 0.32059449E+03</rscale>
<asrwt>0</asrwt>
<pdfrwt beam="1">  1       21 0.34882340E-01 0.32064899E+03</pdfrwt>
<pdfrwt beam="2">  1       21 0.70873454E-01 0.32064899E+03</pdfrwt>
<totfact> 0.13370542E+04</totfact>
</mgrwt>
</event>
<event>
12    1  0.1410528E-001  0.1907746E+03  0.7546771E-02  0.1157891E+00
         21   -1    0    0  502  503  0.00000000000E+00  0.00000000000E+00  0.12412344073E+03  0.12412344073E+03  0.00000000000E+00 0.  1.
         21   -1    0    0  503  504 -0.00000000000E+00 -0.00000000000E+00 -0.29300732452E+03  0.29300732452E+03  0.00000000000E+00 0.  1.
         -6    2    1    2    0  504 -0.78529244778E+02 -0.75598350569E+01 -0.94452962758E+02  0.21287628874E+03  0.17369789504E+03 0.  0.
        -24    2    3    3    0    0  0.16810868839E+02  0.24587262277E+02 -0.26582599017E+02  0.91419920414E+02  0.82242498141E+02 0.  0.
          6    2    1    2  502    0  0.78529244778E+02  0.75598350569E+01 -0.74430921027E+02  0.20425447651E+03  0.17307783156E+03 0.  0.
         24    2    5    5    0    0  0.82068911938E+02  0.40024595112E+02  0.28360461859E+01  0.12023802508E+03  0.78178417715E+02 0.  0.
          4    1    6    6  501    0  0.12841590433E+02  0.18561947950E+02 -0.32528517125E+02  0.39592382890E+02  0.00000000000E+00 0. -1.
         -3    1    6    6    0  501  0.69227321505E+02  0.21462647161E+02  0.35364563311E+02  0.80645642189E+02  0.00000000000E+00 0.  1.
          5    1    5    5  502    0 -0.35396671600E+01 -0.32464760055E+02 -0.77266967213E+02  0.84016451432E+02  0.47000000000E+01 0. -1.
         13    1    4    4    0    0  0.89892175535E+01  0.93130542460E+01  0.29796815453E+02  0.32486754574E+02  0.00000000000E+00 0. -1.
        -14    1    4    4    0    0  0.78216512858E+01  0.15274208031E+02 -0.56379414470E+02  0.58933165839E+02  0.00000000000E+00 0.  1.
         -5    1    3    3    0  504 -0.95340113617E+02 -0.32147097334E+02 -0.67870363741E+02  0.12145636832E+03  0.47000000000E+01 0.  1.
<mgrwt>
<rscale>  2 0.19063336E+03</rscale>
<asrwt>0</asrwt>
<pdfrwt beam="1">  1       21 0.19095914E-01 0.19077461E+03</pdfrwt>
<pdfrwt beam="2">  1       21 0.45078049E-01 0.19077461E+03</pdfrwt>
<totfact> 0.11889183E+05</totfact>
</mgrwt>
</event>
<event>
12    1  0.1410528E-001  0.1748231E+03  0.7546771E-02  0.1174001E+00
         21   -1    0    0  502  503  0.00000000000E+00  0.00000000000E+00  0.16839162114E+03  0.16839162114E+03  0.00000000000E+00 0. -1.
         21   -1    0    0  503  504 -0.00000000000E+00 -0.00000000000E+00 -0.28451640340E+03  0.28451640340E+03  0.00000000000E+00 0. -1.
         -6    2    1    2    0  504 -0.95850322328E+01 -0.19454923502E+02 -0.19676381564E+03  0.26038331735E+03  0.16915408926E+03 0.  0.
        -24    2    3    3    0    0 -0.13798537477E+01  0.16000434007E+02 -0.28366058883E+02  0.88033957581E+02  0.81776686813E+02 0.  0.
          6    2    1    2  502    0  0.95850322328E+01  0.19454923502E+02  0.80639033385E+02  0.19252470719E+03  0.17347259807E+03 0.  0.
         24    2    5    5    0    0 -0.41752145710E+02 -0.95303334002E+01 -0.20892801888E+01  0.90830485016E+02  0.80073360054E+02 0.  0.
          4    1    6    6  501    0  0.44092835772E+01  0.25743625394E+02  0.15196304137E+02  0.30217605622E+02  0.00000000000E+00 0. -1.
         -3    1    6    6    0  501 -0.46161429287E+02 -0.35273958794E+02 -0.17285584326E+02  0.60612879394E+02  0.00000000000E+00 0.  1.
          5    1    5    5  502    0  0.51337177943E+02  0.28985256902E+02  0.82728313574E+02  0.10169422217E+03  0.47000000000E+01 0. -1.
         13    1    4    4    0    0  0.17415389529E+02 -0.25153837512E+02 -0.29881084664E+02  0.42765529983E+02  0.00000000000E+00 0. -1.
        -14    1    4    4    0    0 -0.18795243277E+02  0.41154271519E+02  0.15150257803E+01  0.45268427598E+02  0.00000000000E+00 0.  1.
         -5    1    3    3    0  504 -0.82051784851E+01 -0.35455357509E+02 -0.16839775676E+03  0.17234935977E+03  0.47000000000E+01 0.  1.
<mgrwt>
<rscale>  2 0.17374202E+03</rscale>
<asrwt>0</asrwt>
<pdfrwt beam="1">  1       21 0.25906403E-01 0.17482308E+03</pdfrwt>
<pdfrwt beam="2">  1       21 0.43771754E-01 0.17482308E+03</pdfrwt>
<totfact> 0.71503429E+04</totfact>
</mgrwt>
</event>
<event>
12    1  0.1410528E-001  0.2120438E+03  0.7546771E-02  0.1139987E+00
         21   -1    0    0  502  503  0.00000000000E+00  0.00000000000E+00  0.58945577614E+03  0.58945577614E+03  0.00000000000E+00 0. -1.
         21   -1    0    0  503  504 -0.00000000000E+00 -0.00000000000E+00 -0.88277728190E+02  0.88277728190E+02  0.00000000000E+00 0. -1.
         -6    2    1    2    0  504  0.51619933126E+01 -0.12156187445E+03  0.12529254873E+03  0.24616371229E+03  0.17347741925E+03 0.  0.
        -24    2    3    3    0    0 -0.48833481865E+02 -0.12614710469E+03  0.82923872949E+02  0.17721641094E+03  0.78939765839E+02 0.  0.
          6    2    1    2  502    0 -0.51619933126E+01  0.12156187445E+03  0.37588549922E+03  0.43156979204E+03  0.17366243514E+03 0.  0.
         24    2    5    5    0    0 -0.34187831018E+02  0.14655541920E+03  0.33035130229E+03  0.37188202424E+03  0.80727680174E+02 0.  0.
          4    1    6    6  501    0  0.17434713811E+00  0.92427476753E+02  0.11698862870E+03  0.14909462801E+03  0.00000000000E+00 0. -1.
         -3    1    6    6    0  501 -0.34362178156E+02  0.54127942448E+02  0.21336267359E+03  0.22278739624E+03  0.00000000000E+00 0.  1.
          5    1    5    5  502    0  0.29025837706E+02 -0.24993544750E+02  0.45534196937E+02  0.59687767795E+02  0.47000000000E+01 0. -1.
         13    1    4    4    0    0 -0.13726401579E+02 -0.90461743027E+02  0.87940040798E+02  0.12690623242E+03  0.00000000000E+00 0. -1.
        -14    1    4    4    0    0 -0.35107080287E+02 -0.35685361662E+02 -0.50161678485E+01  0.50310178524E+02  0.00000000000E+00 0.  1.
         -5    1    3    3    0  504  0.53995475178E+02  0.45852302383E+01  0.42368675779E+02  0.68947301349E+02  0.47000000000E+01 0.  1.
<mgrwt>
<rscale>  2 0.21200592E+03</rscale>
<asrwt>0</asrwt>
<pdfrwt beam="1">  1       21 0.90685501E-01 0.21204381E+03</pdfrwt>
<pdfrwt beam="2">  1       21 0.13581189E-01 0.21204381E+03</pdfrwt>
<totfact> 0.48019871E+04</totfact>
</mgrwt>
</event>
<event>
12    1  0.1410528E-001  0.1925749E+03  0.7546771E-02  0.1156813E+00
         21   -1    0    0  502  503  0.00000000000E+00  0.00000000000E+00  0.65513028921E+03  0.65513028921E+03  0.00000000000E+00 0. -1.
         21   -1    0    0  503  504 -0.00000000000E+00 -0.00000000000E+00 -0.62615474346E+02  0.62615474346E+02  0.00000000000E+00 0. -1.
         -6    2    1    2    0  504 -0.60464436555E+02 -0.52633547131E+02  0.17541415692E+03  0.25833522707E+03  0.17187415373E+03 0.  0.
        -24    2    3    3    0    0 -0.37913844151E+02 -0.98745857494E+02  0.15413359427E+03  0.20256940661E+03  0.78032016880E+02 0.  0.
          6    2    1    2  502    0  0.60464436555E+02  0.52633547131E+02  0.41710065794E+03  0.45941053650E+03  0.17509666991E+03 0.  0.
         24    2    5    5    0    0  0.58226319513E+02 -0.34211698856E+02  0.22207482836E+03  0.24585897334E+03  0.81047274852E+02 0.  0.
          2    1    6    6  501    0  0.12752947432E+02 -0.16871835103E+02  0.29016025422E+01  0.21347500680E+02  0.00000000000E+00 0. -1.
         -1    1    6    6    0  501  0.45473372081E+02 -0.17339863752E+02  0.21917322582E+03  0.22451147266E+03  0.00000000000E+00 0.  1.
          5    1    5    5  502    0  0.22381170423E+01  0.86845245987E+02  0.19502582959E+03  0.21355156315E+03  0.47000000000E+01 0. -1.
         11    1    4    4    0    0  0.36494438685E+01 -0.57248261417E+02  0.28868891919E+02  0.64219115507E+02  0.00000000000E+00 0. -1.
        -12    1    4    4    0    0 -0.41563288020E+02 -0.41497596077E+02  0.12526470235E+03  0.13835029110E+03  0.00000000000E+00 0.  1.
         -5    1    3    3    0  504 -0.22550592404E+02  0.46112310363E+02  0.21280562651E+02  0.55765820459E+02  0.47000000000E+01 0.  1.
<mgrwt>
<rscale>  2 0.19183935E+03</rscale>
<asrwt>0</asrwt>
<pdfrwt beam="1">  1       21 0.10078927E+00 0.19257487E+03</pdfrwt>
<pdfrwt beam="2">  1       21 0.96331503E-02 0.19257487E+03</pdfrwt>
<totfact> 0.69846029E+04</totfact>
</mgrwt>
</event>
<event>
12    1  0.1410528E-001  0.1946195E+03  0.7546771E-02  0.1154749E+00
         21   -1    0    0  502  503  0.00000000000E+00  0.00000000000E+00  0.10019061432E+04  0.10019061432E+04  0.00000000000E+00 0.  1.
         21   -1    0    0  503  504 -0.00000000000E+00 -0.00000000000E+00 -0.56127033139E+02  0.56127033139E+02  0.00000000000E+00 0.  1.
         -6    2    1    2    0  504  0.42190313489E+02  0.77035866009E+02  0.77651984970E+03  0.80010787836E+03  0.17168282624E+03 0.  0.
        -24    2    3    3    0    0 -0.24655139182E+02  0.13994649527E+02  0.22591488828E+03  0.24186919906E+03  0.81605432448E+02 0.  0.
          6    2    1    2  502    0 -0.42190313489E+02 -0.77035866009E+02  0.16925926033E+03  0.25792529795E+03  0.17367272357E+03 0.  0.
         24    2    5    5    0    0 -0.56784066085E+02 -0.70917378469E+02  0.39686018907E+02  0.12730474675E+03  0.79861215352E+02 0.  0.
          4    1    6    6  501    0 -0.75277535794E+01 -0.40469349673E+02 -0.18575395977E+02  0.45160609746E+02  0.00000000000E+00 0. -1.
         -3    1    6    6    0  501 -0.49256312506E+02 -0.30448028796E+02  0.58261414885E+02  0.82144137001E+02  0.00000000000E+00 0.  1.
          5    1    5    5  502    0  0.14593752596E+02 -0.61184875398E+01  0.12957324142E+03  0.13062055121E+03  0.47000000000E+01 0. -1.
         13    1    4    4    0    0 -0.82176370861E+00  0.82995893528E+01  0.21480003184E+03  0.21496188536E+03  0.00000000000E+00 0. -1.
        -14    1    4    4    0    0 -0.23833375474E+02  0.56950601743E+01  0.11114856435E+02  0.26907313698E+02  0.00000000000E+00 0.  1.
         -5    1    3    3    0  504  0.66845452672E+02  0.63041216482E+02  0.55060496143E+03  0.55823867930E+03  0.47000000000E+01 0.  1.
<mgrwt>
<rscale>  2 0.19417460E+03</rscale>
<asrwt>0</asrwt>
<pdfrwt beam="1">  1       21 0.15413939E+00 0.19461953E+03</pdfrwt>
<pdfrwt beam="2">  1       21 0.86349290E-02 0.19461953E+03</pdfrwt>
<totfact> 0.29179252E+04</totfact>
</mgrwt>
</event>
<event>
12    1  0.1410528E-001  0.2395266E+03  0.7546771E-02  0.1120123E+00
         21   -1    0    0  502  503  0.00000000000E+00  0.00000000000E+00  0.46504372913E+03  0.46504372913E+03  0.00000000000E+00 0.  1.
         21   -1    0    0  503  504 -0.00000000000E+00 -0.00000000000E+00 -0.36006283934E+03  0.36006283934E+03  0.00000000000E+00 0. -1.
         -6    2    1    2    0  504 -0.97000500034E+02  0.13331770566E+03 -0.28202688928E+03  0.37001644958E+03  0.17375355833E+03 0.  0.
        -24    2    3    3    0    0  0.98771255386E+01  0.54686747502E+02 -0.17101866817E+03  0.19695412097E+03  0.80345148846E+02 0.  0.
          6    2    1    2  502    0  0.97000500034E+02 -0.13331770566E+03  0.38700777906E+03  0.45509011889E+03  0.17363550216E+03 0.  0.
         24    2    5    5    0    0  0.13306749287E+03 -0.87117166039E+02  0.31709205820E+03  0.36373577659E+03  0.80374022688E+02 0.  0.
          4    1    6    6  501    0  0.39426263530E+02 -0.66815792466E+02  0.18449004951E+03  0.20013834902E+03  0.00000000000E+00 0. -1.
         -3    1    6    6    0  501  0.93641229337E+02 -0.20301373572E+02  0.13260200869E+03  0.16359742757E+03  0.00000000000E+00 0.  1.
          5    1    5    5  502    0 -0.36066992833E+02 -0.46200539626E+02  0.69915720864E+02  0.91354342304E+02  0.47000000000E+01 0. -1.
         11    1    4    4    0    0 -0.14394296027E+02  0.60678966105E+02 -0.15547453726E+03  0.16751556471E+03  0.00000000000E+00 0. -1.
        -12    1    4    4    0    0  0.24271421566E+02 -0.59922186025E+01 -0.15544130910E+02  0.29438556254E+02  0.00000000000E+00 0.  1.
         -5    1    3    3    0  504 -0.10687762557E+03  0.78630958163E+02 -0.11100822111E+03  0.17306232861E+03  0.47000000000E+01 0.  1.
<mgrwt>
<rscale>  2 0.23950522E+03</rscale>
<asrwt>0</asrwt>
<pdfrwt beam="1">  1       21 0.71545189E-01 0.23952663E+03</pdfrwt>
<pdfrwt beam="2">  1       21 0.55394283E-01 0.23952663E+03</pdfrwt>
<totfact> 0.52460988E+03</totfact>
</mgrwt>
</event>
<event>
12    1  0.1410528E-001  0.1784348E+03  0.7546771E-02  0.1169515E+00
         21   -1    0    0  502  503  0.00000000000E+00  0.00000000000E+00  0.50779621691E+03  0.50779621691E+03  0.00000000000E+00 0. -1.
         21   -1    0    0  503  504 -0.00000000000E+00 -0.00000000000E+00 -0.64467875074E+02  0.64467875074E+02  0.00000000000E+00 0. -1.
         -6    2    1    2    0  504 -0.35959321838E+02  0.21331601224E+02  0.27299408918E+03  0.32613609346E+03  0.17346719774E+03 0.  0.
        -24    2    3    3    0    0 -0.70623701325E+02  0.63284457716E+02  0.18872473951E+03  0.22571162101E+03  0.79599489808E+02 0.  0.
          6    2    1    2  502    0  0.35959321838E+02 -0.21331601224E+02  0.17033425266E+03  0.24612799853E+03  0.17267635621E+03 0.  0.
         24    2    5    5    0    0 -0.34226735578E+01 -0.71762783981E+01  0.18448263597E+03  0.20170298895E+03  0.81160576107E+02 0.  0.
          2    1    6    6  501    0  0.10603989832E+02  0.35104211795E+02  0.92414964985E+02  0.99424725492E+02  0.00000000000E+00 0. -1.
         -1    1    6    6    0  501 -0.14026663390E+02 -0.42280490193E+02  0.92067670980E+02  0.10227826346E+03  0.00000000000E+00 0.  1.
          5    1    5    5  502    0  0.39381995396E+02 -0.14155322826E+02 -0.14148383305E+02  0.44425009576E+02  0.47000000000E+01 0. -1.
         13    1    4    4    0    0 -0.14503636931E+02 -0.18994863862E+02  0.43174718970E+02  0.49347914803E+02  0.00000000000E+00 0. -1.
        -14    1    4    4    0    0 -0.56120064395E+02  0.82279321578E+02  0.14555002054E+03  0.17636370621E+03  0.00000000000E+00 0.  1.
         -5    1    3    3    0  504  0.34664379487E+02 -0.41952856492E+02  0.84269349669E+02  0.10042447245E+03  0.47000000000E+01 0.  1.
<mgrwt>
<rscale>  2 0.17824231E+03</rscale>
<asrwt>0</asrwt>
<pdfrwt beam="1">  1       21 0.78122492E-01 0.17843480E+03</pdfrwt>
<pdfrwt beam="2">  1       21 0.99181350E-02 0.17843480E+03</pdfrwt>
<totfact> 0.12009565E+05</totfact>
</mgrwt>
</event>
<event>
12    1  0.1410528E-001  0.1963582E+03  0.7546771E-02  0.1155882E+00
         21   -1    0    0  502  503  0.00000000000E+00  0.00000000000E+00  0.13724874673E+04  0.13724874673E+04  0.00000000000E+00 0. -1.
         21   -1    0    0  503  504 -0.00000000000E+00 -0.00000000000E+00 -0.29969187000E+02  0.29969187000E+02  0.00000000000E+00 0. -1.
         -6    2    1    2    0  504 -0.39014130327E+01  0.92990645048E+02  0.44335562114E+03  0.48489249461E+03  0.17289893997E+03 0.  0.
        -24    2    3    3    0    0  0.36549784619E+01  0.35801799061E+02  0.85633105574E+02  0.12251816978E+03  0.79890834714E+02 0.  0.
          6    2    1    2  502    0  0.39014130327E+01 -0.92990645048E+02  0.89916265919E+03  0.91756415972E+03  0.15737858313E+03 0.  0.
         24    2    5    5    0    0  0.85297543633E+01 -0.18018711985E+02  0.23682861060E+03  0.25096780943E+03  0.80620220060E+02 0.  0.
          4    1    6    6  501    0 -0.27472471742E+02 -0.27555448214E+02  0.70546647305E+02  0.80565928754E+02  0.00000000000E+00 0. -1.
         -3    1    6    6    0  501  0.36002226106E+02  0.95367362295E+01  0.16628196329E+03  0.17040188068E+03  0.00000000000E+00 0.  1.
          5    1    5    5  502    0 -0.46283413306E+01 -0.74971933063E+02  0.66233404859E+03  0.66659635028E+03  0.47000000000E+01 0. -1.
         13    1    4    4    0    0  0.30477776713E+02  0.48598785891E+02  0.62676130860E+02  0.84964900065E+02  0.00000000000E+00 0. -1.
        -14    1    4    4    0    0 -0.26822798251E+02 -0.12796986830E+02  0.22956974714E+02  0.37553269711E+02  0.00000000000E+00 0.  1.
         -5    1    3    3    0  504 -0.75563914946E+01  0.57188845987E+02  0.35772251557E+03  0.36237432484E+03  0.47000000000E+01 0.  1.
<mgrwt>
<rscale>  2 0.19288771E+03</rscale>
<asrwt>0</asrwt>
<pdfrwt beam="1">  1       21 0.21115187E+00 0.19635815E+03</pdfrwt>
<pdfrwt beam="2">  1       21 0.46106452E-02 0.19635815E+03</pdfrwt>
<totfact> 0.35119614E+04</totfact>
</mgrwt>
</event>
<event>
12    1  0.1410528E-001  0.1864594E+03  0.7546771E-02  0.1161985E+00
         21   -1    0    0  502  503  0.00000000000E+00  0.00000000000E+00  0.74434297078E+02  0.74434297078E+02  0.00000000000E+00 0.  1.
         21   -1    0    0  503  504 -0.00000000000E+00 -0.00000000000E+00 -0.46490608212E+03  0.46490608212E+03  0.00000000000E+00 0.  1.
         -6    2    1    2    0  504  0.43479157222E+02 -0.52555621584E+02 -0.18362065526E+03  0.26169382183E+03  0.17353553203E+03 0.  0.
        -24    2    3    3    0    0  0.14153685465E+02 -0.94182506763E+02 -0.86183269646E+02  0.15165330667E+03  0.80625666287E+02 0.  0.
          6    2    1    2  502    0 -0.43479157222E+02  0.52555621584E+02 -0.20685112979E+03  0.27764655737E+03  0.17218504711E+03 0.  0.
         24    2    5    5    0    0 -0.44614872605E+02 -0.34882151889E+02 -0.96808908302E+02  0.13701215692E+03  0.78696347050E+02 0.  0.
          2    1    6    6  501    0 -0.15807180102E+02 -0.49401176185E+02 -0.90248854483E+02  0.10409226142E+03  0.00000000000E+00 0. -1.
         -1    1    6    6    0  501 -0.28807692502E+02  0.14519024296E+02 -0.65600538183E+01  0.32919895503E+02  0.00000000000E+00 0.  1.
          5    1    5    5  502    0  0.11357153824E+01  0.87437773473E+02 -0.11004222149E+03  0.14063440045E+03  0.47000000000E+01 0. -1.
         11    1    4    4    0    0 -0.89190989874E+01 -0.16850393858E+02  0.13527472376E+02  0.23376881931E+02  0.00000000000E+00 0. -1.
        -12    1    4    4    0    0  0.23072784452E+02 -0.77332112905E+02 -0.99710742023E+02  0.12827642474E+03  0.00000000000E+00 0.  1.
         -5    1    3    3    0  504  0.29325471757E+02  0.41626885179E+02 -0.97437385610E+02  0.11004051517E+03  0.47000000000E+01 0.  1.
<mgrwt>
<rscale>  2 0.18614456E+03</rscale>
<asrwt>0</asrwt>
<pdfrwt beam="1">  1       21 0.11451430E-01 0.18645941E+03</pdfrwt>
<pdfrwt beam="2">  1       21 0.71524012E-01 0.18645941E+03</pdfrwt>
<totfact> 0.11297729E+05</totfact>
</mgrwt>
</event>
<event>
12    1  0.1410528E-001  0.2021296E+03  0.7546771E-02  0.1148384E+00
         21   -1    0    0  502  503  0.00000000000E+00  0.00000000000E+00  0.16452267243E+03  0.16452267243E+03  0.00000000000E+00 0.  1.
         21   -1    0    0  503  504 -0.00000000000E+00 -0.00000000000E+00 -0.35842221856E+03  0.35842221856E+03  0.00000000000E+00 0. -1.
         -6    2    1    2    0  504  0.88786475166E+02 -0.47586912649E+02 -0.24316774935E+03  0.31489750182E+03  0.17286506271E+03 0.  0.
        -24    2    3    3    0    0  0.97930998756E+02 -0.42196344033E+02 -0.26135588277E+03  0.29332022815E+03  0.79742377777E+02 0.  0.
          6    2    1    2  502    0 -0.88786475166E+02  0.47586912649E+02  0.49268203216E+02  0.20804738916E+03  0.17523928744E+03 0.  0.
         24    2    5    5    0    0 -0.16337372527E+02  0.44453925562E+02 -0.32841541870E+02  0.98398913026E+02  0.79754109445E+02 0.  0.
          4    1    6    6  501    0 -0.62954849721E+01  0.84181414718E+01 -0.54275955513E+02  0.55284514864E+02  0.00000000000E+00 0. -1.
         -3    1    6    6    0  501 -0.10041887555E+02  0.36035784090E+02  0.21434413643E+02  0.43114398162E+02  0.00000000000E+00 0.  1.
          5    1    5    5  502    0 -0.72449102639E+02  0.31329870870E+01  0.82109745086E+02  0.10964847614E+03  0.47000000000E+01 0. -1.
         13    1    4    4    0    0  0.21255588588E+02 -0.49277937134E+02 -0.80438312864E+02  0.96697659283E+02  0.00000000000E+00 0. -1.
        -14    1    4    4    0    0  0.76675410169E+02  0.70815931009E+01 -0.18091756991E+03  0.19662256887E+03  0.00000000000E+00 0.  1.
         -5    1    3    3    0  504 -0.91445235902E+01 -0.53905686160E+01  0.18188133427E+02  0.21577273675E+02  0.47000000000E+01 0.  1.
<mgrwt>
<rscale>  2 0.20161388E+03</rscale>
<asrwt>0</asrwt>
<pdfrwt beam="1">  1       21 0.25311180E-01 0.20212956E+03</pdfrwt>
<pdfrwt beam="2">  1       21 0.55141880E-01 0.20212956E+03</pdfrwt>
<totfact> 0.45673732E+04</totfact>
</mgrwt>
</event>
<event>
12    1  0.1410528E-001  0.9605368E+03  0.7546771E-02  0.9352922E-01
         21   -1    0    0  502  503  0.00000000000E+00  0.00000000000E+00  0.87708965724E+03  0.87708965724E+03  0.00000000000E+00 0.  1.
         21   -1    0    0  503  504 -0.00000000000E+00 -0.00000000000E+00 -0.13778763666E+04  0.13778763666E+04  0.00000000000E+00 0. -1.
         -6    2    1    2    0  504 -0.91904876662E+03 -0.21848752442E+03 -0.79878472585E+03  0.12492750205E+04  0.17390688537E+03 0.  0.
        -24    2    3    3    0    0 -0.30239418682E+03 -0.12176772043E+03 -0.31387114912E+03  0.45884421504E+03  0.75850467836E+02 0.  0.
          6    2    1    2  502    0  0.91904876662E+03  0.21848752442E+03  0.29799801648E+03  0.10056910034E+04  0.17385092087E+03 0.  0.
         24    2    5    5    0    0  0.92333427154E+03  0.22042166648E+03  0.30065274728E+03  0.99853250818E+03  0.74452719148E+02 0.  0.
          2    1    6    6  501    0  0.59147501229E+03  0.15804768980E+03  0.16037446218E+03  0.63288366272E+03  0.00000000000E+00 0. -1.
         -1    1    6    6    0  501  0.33185925924E+03  0.62373976680E+02  0.14027828510E+03  0.36564884546E+03  0.00000000000E+00 0.  1.
          5    1    5    5  502    0 -0.42855049133E+01 -0.19341420617E+01 -0.26547308041E+01  0.71584951993E+01  0.47000000000E+01 0. -1.
         13    1    4    4    0    0 -0.17460815322E+03 -0.61276365284E+02 -0.22715489479E+03  0.29298830410E+03  0.00000000000E+00 0. -1.
        -14    1    4    4    0    0 -0.12778603360E+03 -0.60491355145E+02 -0.86716254328E+02  0.16585591094E+03  0.00000000000E+00 0.  1.
         -5    1    3    3    0  504 -0.61665457981E+03 -0.96719803993E+02 -0.48491357674E+03  0.79043080544E+03  0.47000000000E+01 0.  1.
<mgrwt>
<rscale>  2 0.96053432E+03</rscale>
<asrwt>0</asrwt>
<pdfrwt beam="1">  1       21 0.13493687E+00 0.96053685E+03</pdfrwt>
<pdfrwt beam="2">  1       21 0.21198098E+00 0.96053685E+03</pdfrwt>
<totfact> 0.27681976E+01</totfact>
</mgrwt>
</event>
<event>
12    1  0.1410528E-001  0.1907842E+03  0.7546771E-02  0.1158218E+00
         21   -1    0    0  502  503  0.00000000000E+00  0.00000000000E+00  0.60224305181E+03  0.60224305181E+03  0.00000000000E+00 0.  1.
         21   -1    0    0  503  504 -0.00000000000E+00 -0.00000000000E+00 -0.67932096825E+02  0.67932096825E+02  0.00000000000E+00 0. -1.
         -6    2    1    2    0  504  0.17398251061E+02 -0.73037356323E+02  0.15242726778E+03  0.24419805309E+03  0.17538945982E+03 0.  0.
        -24    2    3    3    0    0 -0.19415237049E+02 -0.22853451743E+02  0.31249386618E+01  0.82374282699E+02  0.76658499348E+02 0.  0.
          6    2    1    2  502    0 -0.17398251061E+02  0.73037356323E+02  0.38188368721E+03  0.42597709554E+03  0.17315940867E+03 0.  0.
         24    2    5    5    0    0 -0.43246111854E+02 -0.11124583287E+02  0.25541771210E+03  0.27181135081E+03  0.81542750966E+02 0.  0.
          4    1    6    6  501    0 -0.48907048485E+02 -0.22504169202E+02  0.83032578391E+02  0.98958304842E+02  0.00000000000E+00 0. -1.
         -3    1    6    6    0  501  0.56609366312E+01  0.11379585915E+02  0.17238513370E+03  0.17285304597E+03  0.00000000000E+00 0.  1.
          5    1    5    5  502    0  0.25847860793E+02  0.84161939610E+02  0.12646597512E+03  0.15416574473E+03  0.47000000000E+01 0. -1.
         13    1    4    4    0    0  0.16176985425E+02 -0.39269050140E+02 -0.35335241416E+01  0.42617355023E+02  0.00000000000E+00 0. -1.
        -14    1    4    4    0    0 -0.35592222474E+02  0.16415598396E+02  0.66584628034E+01  0.39756927676E+02  0.00000000000E+00 0.  1.
         -5    1    3    3    0  504  0.36813488110E+02 -0.50183904579E+02  0.14930232912E+03  0.16182377040E+03  0.47000000000E+01 0.  1.
<mgrwt>
<rscale>  2 0.19027013E+03</rscale>
<asrwt>0</asrwt>
<pdfrwt beam="1">  1       21 0.92652774E-01 0.19078422E+03</pdfrwt>
<pdfrwt beam="2">  1       21 0.10451092E-01 0.19078422E+03</pdfrwt>
<totfact> 0.73769060E+04</totfact>
</mgrwt>
</event>
<event>
12    1  0.1410528E-001  0.1773455E+03  0.7546771E-02  0.1170509E+00
         21   -1    0    0  502  503  0.00000000000E+00  0.00000000000E+00  0.54499769255E+03  0.54499769255E+03  0.00000000000E+00 0. -1.
         21   -1    0    0  503  504 -0.00000000000E+00 -0.00000000000E+00 -0.76740168056E+02  0.76740168056E+02  0.00000000000E+00 0. -1.
         -6    2    1    2    0  504 -0.27873935235E+02 -0.27615783647E+02  0.78495513678E+02  0.19352546714E+03  0.17248470365E+03 0.  0.
        -24    2    3    3    0    0  0.96153034185E+01 -0.49796179737E+02  0.10537696252E+03  0.14212395668E+03  0.80763861083E+02 0.  0.
          6    2    1    2  502    0  0.27873935235E+02  0.27615783647E+02  0.38976201082E+03  0.42821239346E+03  0.17295040060E+03 0.  0.
         24    2    5    5    0    0  0.33093592370E+02  0.26331293360E+02  0.80873805638E+02  0.11924166987E+03  0.76742951013E+02 0.  0.
          4    1    6    6  501    0  0.58732650138E+01  0.46995157904E+02  0.67686281634E+02  0.82610367568E+02  0.00000000000E+00 0. -1.
         -3    1    6    6    0  501  0.27220327356E+02 -0.20663864544E+02  0.13187524004E+02  0.36631302306E+02  0.00000000000E+00 0.  1.
          5    1    5    5  502    0 -0.52196571350E+01  0.12844902870E+01  0.30888820518E+03  0.30897072359E+03  0.47000000000E+01 0. -1.
         11    1    4    4    0    0  0.99470878051E+01  0.20714804245E+02  0.14784348299E+02  0.27324432754E+02  0.00000000000E+00 0. -1.
        -12    1    4    4    0    0 -0.33178438660E+00 -0.70510983982E+02  0.90592614223E+02  0.11479952393E+03  0.00000000000E+00 0.  1.
         -5    1    3    3    0  504 -0.37489238654E+02  0.22180396090E+02 -0.26881448844E+02  0.51401510459E+02  0.47000000000E+01 0.  1.
<mgrwt>
<rscale>  2 0.17723187E+03</rscale>
<asrwt>0</asrwt>
<pdfrwt beam="1">  1       21 0.83845796E-01 0.17734551E+03</pdfrwt>
<pdfrwt beam="2">  1       21 0.11806180E-01 0.17734551E+03</pdfrwt>
<totfact> 0.75189995E+04</totfact>
</mgrwt>
</event>
<event>
12    1  0.1410528E-001  0.2169359E+03  0.7546771E-02  0.1136314E+00
         21   -1    0    0  502  503  0.00000000000E+00  0.00000000000E+00  0.11013187809E+04  0.11013187809E+04  0.00000000000E+00 0. -1.
         21   -1    0    0  503  504 -0.00000000000E+00 -0.00000000000E+00 -0.42642148953E+02  0.42642148953E+02  0.00000000000E+00 0.  1.
         -6    2    1    2    0  504 -0.76143591793E+02 -0.10655872915E+03  0.54608703534E+03  0.58735579868E+03  0.17211384240E+03 0.  0.
        -24    2    3    3    0    0 -0.56333964011E+02  0.64241081969E+01  0.30396445711E+03  0.31939502585E+03  0.80025037842E+02 0.  0.
          6    2    1    2  502    0  0.76143591793E+02  0.10655872915E+03  0.51258959659E+03  0.55660513116E+03  0.17294093839E+03 0.  0.
         24    2    5    5    0    0  0.40772373121E+02  0.20573405876E+02  0.11235740490E+03  0.14568847757E+03  0.80717374971E+02 0.  0.
          2    1    6    6  501    0  0.24459118200E+02 -0.25732187869E+02  0.19139918357E+02  0.40332746378E+02  0.00000000000E+00 0. -1.
         -1    1    6    6    0  501  0.16313254920E+02  0.46305593745E+02  0.93217486538E+02  0.10535573119E+03  0.00000000000E+00 0.  1.
          5    1    5    5  502    0  0.35371218672E+02  0.85985323272E+02  0.40023219170E+03  0.41091665359E+03  0.47000000000E+01 0. -1.
         13    1    4    4    0    0 -0.50922080004E+01  0.86128760011E+01 -0.10847632064E+01  0.10064239988E+02  0.00000000000E+00 0. -1.
        -14    1    4    4    0    0 -0.51241756011E+02 -0.21887678043E+01  0.30504922032E+03  0.30933078586E+03  0.00000000000E+00 0.  1.
         -5    1    3    3    0  504 -0.19809627782E+02 -0.11298283735E+03  0.24212257823E+03  0.26796077283E+03  0.47000000000E+01 0.  1.
<mgrwt>
<rscale>  2 0.21677100E+03</rscale>
<asrwt>0</asrwt>
<pdfrwt beam="1">  1       21 0.16943364E+00 0.21693588E+03</pdfrwt>
<pdfrwt beam="2">  1       21 0.65603314E-02 0.21693588E+03</pdfrwt>
<totfact> 0.35884241E+04</totfact>
</mgrwt>
</event>
<event>
12    1  0.1410528E-001  0.2127998E+03  0.7546771E-02  0.1139949E+00
         21   -1    0    0  502  503  0.00000000000E+00  0.00000000000E+00  0.19194101359E+03  0.19194101359E+03  0.00000000000E+00 0. -1.
         21   -1    0    0  503  504 -0.00000000000E+00 -0.00000000000E+00 -0.36792493425E+03  0.36792493425E+03  0.00000000000E+00 0.  1.
         -6    2    1    2    0  504  0.60800184248E+02  0.10534968847E+03 -0.25733893013E+03  0.33204494428E+03  0.17098333486E+03 0.  0.
        -24    2    3    3    0    0  0.51965525281E+02  0.74838155816E+02 -0.67153894935E+02  0.13916818976E+03  0.80975144659E+02 0.  0.
          6    2    1    2  502    0 -0.60800184248E+02 -0.10534968847E+03  0.81355009466E+02  0.22782100356E+03  0.17460971575E+03 0.  0.
         24    2    5    5    0    0 -0.54687461892E+01 -0.26210117955E+02 -0.21578672202E+02  0.86604600545E+02  0.79484843042E+02 0.  0.
          4    1    6    6  501    0  0.33984971600E+02 -0.13509105812E+02  0.56610935755E+01  0.37007056286E+02  0.00000000000E+00 0. -1.
         -3    1    6    6    0  501 -0.39453717790E+02 -0.12701012144E+02 -0.27239765777E+02  0.49597544259E+02  0.00000000000E+00 0.  1.
          5    1    5    5  502    0 -0.55331438059E+02 -0.79139570516E+02  0.10293368167E+03  0.14121640302E+03  0.47000000000E+01 0. -1.
         11    1    4    4    0    0 -0.42778153437E+01  0.18720125773E+02  0.15382877587E+02  0.24604384486E+02  0.00000000000E+00 0. -1.
        -12    1    4    4    0    0  0.56243340625E+02  0.56118030043E+02 -0.82536772522E+02  0.11456380527E+03  0.00000000000E+00 0.  1.
         -5    1    3    3    0  504  0.88346589669E+01  0.30511532656E+02 -0.19018503519E+03  0.19287675452E+03  0.47000000000E+01 0.  1.
<mgrwt>
<rscale>  2 0.21205460E+03</rscale>
<asrwt>0</asrwt>
<pdfrwt beam="1">  1       21 0.29529387E-01 0.21279984E+03</pdfrwt>
<pdfrwt beam="2">  1       21 0.56603836E-01 0.21279984E+03</pdfrwt>
<totfact> 0.31904724E+04</totfact>
</mgrwt>
</event>
<event>
12    1  0.1410528E-001  0.2112812E+03  0.7546771E-02  0.1140636E+00
         21   -1    0    0  502  503  0.00000000000E+00  0.00000000000E+00  0.82209221704E+02  0.82209221704E+02  0.00000000000E+00 0.  1.
         21   -1    0    0  503  504 -0.00000000000E+00 -0.00000000000E+00 -0.16047171781E+04  0.16047171781E+04  0.00000000000E+00 0.  1.
         -6    2    1    2    0  504  0.76065410217E+02 -0.93291987366E+02 -0.14474184425E+04  0.14626984680E+04  0.17313959458E+03 0.  0.
        -24    2    3    3    0    0  0.95106071769E+02 -0.30592912543E+02 -0.11920691048E+04  0.11990337282E+04  0.81682553577E+02 0.  0.
          6    2    1    2  502    0 -0.76065410217E+02  0.93291987366E+02 -0.75089513962E+02  0.22422793182E+03  0.17363867300E+03 0.  0.
         24    2    5    5    0    0 -0.86145695375E+02  0.62588802316E+02  0.91139721094E+01  0.13391395290E+03  0.80693514529E+02 0.  0.
          4    1    6    6  501    0 -0.96334866150E+02  0.61654835957E+02 -0.72604500866E+01  0.11460558175E+03  0.00000000000E+00 0. -1.
         -3    1    6    6    0  501  0.10189170775E+02  0.93396635899E+00  0.16374422196E+02  0.19308371151E+02  0.00000000000E+00 0.  1.
          5    1    5    5  502    0  0.10080285158E+02  0.30703185051E+02 -0.84203486072E+02  0.90313978916E+02  0.47000000000E+01 0. -1.
         13    1    4    4    0    0  0.15840123560E+02  0.20415869253E+02 -0.48789900086E+03  0.48858279981E+03  0.00000000000E+00 0. -1.
        -14    1    4    4    0    0  0.79265948209E+02 -0.51008781796E+02 -0.70417010397E+03  0.71045092842E+03  0.00000000000E+00 0.  1.
         -5    1    3    3    0  504 -0.19040661552E+02 -0.62699074823E+02 -0.25534933763E+03  0.26366473979E+03  0.47000000000E+01 0.  1.
<mgrwt>
<rscale>  2 0.21117860E+03</rscale>
<asrwt>0</asrwt>
<pdfrwt beam="1">  1       21 0.12647572E-01 0.21128116E+03</pdfrwt>
<pdfrwt beam="2">  1       21 0.24687958E+00 0.21128116E+03</pdfrwt>
<totfact> 0.36340680E+03</totfact>
</mgrwt>
</event>
<event>
12    1  0.1410528E-001  0.1958864E+03  0.7546771E-02  0.1153654E+00
         21   -1    0    0  502  503  0.00000000000E+00  0.00000000000E+00  0.40807176896E+03  0.40807176896E+03  0.00000000000E+00 0. -1.
         21   -1    0    0  503  504 -0.00000000000E+00 -0.00000000000E+00 -0.13030572197E+03  0.13030572197E+03  0.00000000000E+00 0. -1.
         -6    2    1    2    0  504  0.79871423370E+01  0.87450861562E+02 -0.53062744009E+01  0.19413713080E+03  0.17305958909E+03 0.  0.
        -24    2    3    3    0    0  0.30278537184E+02  0.11655145261E+03 -0.35101407506E+02  0.14666513231E+03  0.76010007953E+02 0.  0.
          6    2    1    2  502    0 -0.79871423370E+01 -0.87450861562E+02  0.28307232139E+03  0.34424036014E+03  0.17510008218E+03 0.  0.
         24    2    5    5    0    0  0.56837579950E+02 -0.18404533723E+02  0.14403058200E+03  0.17594200809E+03  0.81495670468E+02 0.  0.
          2    1    6    6  501    0  0.37456724593E+02 -0.34449490989E+02  0.29799392928E+02  0.58972684062E+02  0.00000000000E+00 0. -1.
         -1    1    6    6    0  501  0.19380855357E+02  0.16044957266E+02  0.11423118907E+03  0.11696932403E+03  0.00000000000E+00 0.  1.
          5    1    5    5  502    0 -0.64824722287E+02 -0.69046327839E+02  0.13904173939E+03  0.16829835204E+03  0.47000000000E+01 0. -1.
         13    1    4    4    0    0  0.50321833851E+02  0.50402342770E+02 -0.30236099910E+02  0.77375091966E+02  0.00000000000E+00 0. -1.
        -14    1    4    4    0    0 -0.20043296668E+02  0.66149109837E+02 -0.48653075961E+01  0.69290040349E+02  0.00000000000E+00 0.  1.
         -5    1    3    3    0  504 -0.22291394847E+02 -0.29100591045E+02  0.29795133105E+02  0.47471998485E+02  0.47000000000E+01 0.  1.
<mgrwt>
<rscale>  2 0.19542936E+03</rscale>
<asrwt>0</asrwt>
<pdfrwt beam="1">  1       21 0.62780272E-01 0.19588641E+03</pdfrwt>
<pdfrwt beam="2">  1       21 0.20047034E-01 0.19588641E+03</pdfrwt>
<totfact> 0.53929210E+04</totfact>
</mgrwt>
</event>
<event>
12    1  0.1410528E-001  0.1842551E+03  0.7546771E-02  0.1163888E+00
         21   -1    0    0  502  503  0.00000000000E+00  0.00000000000E+00  0.10359743446E+03  0.10359743446E+03  0.00000000000E+00 0.  1.
         21   -1    0    0  503  504 -0.00000000000E+00 -0.00000000000E+00 -0.39443556690E+03  0.39443556690E+03  0.00000000000E+00 0.  1.
         -6    2    1    2    0  504 -0.11469877720E+02  0.63554700203E+02 -0.24845397973E+03  0.30896591020E+03  0.17192962401E+03 0.  0.
        -24    2    3    3    0    0 -0.51365611757E+02  0.30798368997E+02 -0.68599116141E+02  0.12179083498E+03  0.80871522467E+02 0.  0.
          6    2    1    2  502    0  0.11469877720E+02 -0.63554700203E+02 -0.42384152713E+02  0.18906709117E+03  0.17256648153E+03 0.  0.
         24    2    5    5    0    0  0.71501767975E+02 -0.32708878549E+02 -0.44573279628E+02  0.12137532773E+03  0.81011229866E+02 0.  0.
          2    1    6    6  501    0  0.38082549454E+02  0.23034769534E+02 -0.32886854009E+02  0.55339193588E+02  0.00000000000E+00 0. -1.
         -1    1    6    6    0  501  0.33419218521E+02 -0.55743648083E+02 -0.11686425619E+02  0.66036134138E+02  0.00000000000E+00 0.  1.
          5    1    5    5  502    0 -0.60031890255E+02 -0.30845821653E+02  0.21891269154E+01  0.67691763441E+02  0.47000000000E+01 0. -1.
         11    1    4    4    0    0  0.19357821170E+02 -0.57554408851E+01 -0.20503118061E+02  0.28778953950E+02  0.00000000000E+00 0. -1.
        -12    1    4    4    0    0 -0.70723432926E+02  0.36553809882E+02 -0.48095998080E+02  0.93011881032E+02  0.00000000000E+00 0.  1.
         -5    1    3    3    0  504  0.39895734037E+02  0.32756331206E+02 -0.17985486358E+03  0.18717507522E+03  0.47000000000E+01 0.  1.
<mgrwt>
<rscale>  2 0.18410586E+03</rscale>
<asrwt>0</asrwt>
<pdfrwt beam="1">  1       21 0.15938067E-01 0.18425512E+03</pdfrwt>
<pdfrwt beam="2">  1       21 0.60682396E-01 0.18425512E+03</pdfrwt>
<totfact> 0.89104957E+04</totfact>
</mgrwt>
</event>
<event>
12    1  0.1410528E-001  0.2367126E+03  0.7546771E-02  0.1122225E+00
         21   -1    0    0  502  503  0.00000000000E+00  0.00000000000E+00  0.48474763129E+03  0.48474763129E+03  0.00000000000E+00 0.  1.
         21   -1    0    0  503  504 -0.00000000000E+00 -0.00000000000E+00 -0.20892991722E+03  0.20892991722E+03  0.00000000000E+00 0.  1.
         -6    2    1    2    0  504  0.15427980254E+03 -0.48599679834E+02 -0.94915931866E+02  0.25381816240E+03  0.17102759745E+03 0.  0.
        -24    2    3    3    0    0  0.59873775734E+02  0.32480306993E+02 -0.69242212919E+02  0.12666592292E+03  0.81301492088E+02 0.  0.
          6    2    1    2  502    0 -0.15427980254E+03  0.48599679834E+02  0.37073364594E+03  0.43985938611E+03  0.17282551017E+03 0.  0.
         24    2    5    5    0    0 -0.11350819534E+03 -0.27476349955E+02  0.16683777854E+03  0.21839719745E+03  0.78888727265E+02 0.  0.
          4    1    6    6  501    0  0.37717468812E+01 -0.46457347136E+01 -0.58737313665E+01  0.83850847182E+01  0.00000000000E+00 0. -1.
         -3    1    6    6    0  501 -0.11727994222E+03 -0.22830615242E+02  0.17271150990E+03  0.21001211273E+03  0.00000000000E+00 0.  1.
          5    1    5    5  502    0 -0.40771607194E+02  0.76076029790E+02  0.20389586741E+03  0.22146218866E+03  0.47000000000E+01 0. -1.
         13    1    4    4    0    0  0.30864131081E+02  0.50057137305E+02 -0.11834385039E+02  0.59986367216E+02  0.00000000000E+00 0. -1.
        -14    1    4    4    0    0  0.29009644653E+02 -0.17576830312E+02 -0.57407827880E+02  0.66679555702E+02  0.00000000000E+00 0.  1.
         -5    1    3    3    0  504  0.94406026801E+02 -0.81079986827E+02 -0.25673718947E+02  0.12715223948E+03  0.47000000000E+01 0.  1.
<mgrwt>
<rscale>  2 0.23638453E+03</rscale>
<asrwt>0</asrwt>
<pdfrwt beam="1">  1       21 0.74576558E-01 0.23671258E+03</pdfrwt>
<pdfrwt beam="2">  1       21 0.32143064E-01 0.23671258E+03</pdfrwt>
<totfact> 0.14598122E+04</totfact>
</mgrwt>
</event>
<event>
12    1  0.1410528E-001  0.1748631E+03  0.7546771E-02  0.1173092E+00
         21   -1    0    0  502  503  0.00000000000E+00  0.00000000000E+00  0.28672121924E+02  0.28672121924E+02  0.00000000000E+00 0.  1.
         21   -1    0    0  503  504 -0.00000000000E+00 -0.00000000000E+00 -0.13964765077E+04  0.13964765077E+04  0.00000000000E+00 0.  1.
         -6    2    1    2    0  504  0.20811375501E+02  0.40602506522E+01 -0.10344414506E+04  0.10491168805E+04  0.17357279510E+03 0.  0.
        -24    2    3    3    0    0  0.75587960061E+02  0.31739330514E+02 -0.60509695881E+03  0.61538264353E+03  0.76371091251E+02 0.  0.
          6    2    1    2  502    0 -0.20811375501E+02 -0.40602506522E+01 -0.33336293519E+03  0.37603174916E+03  0.17268303574E+03 0.  0.
         24    2    5    5    0    0 -0.32026123692E+02 -0.29409740993E+02 -0.80872751638E+02  0.12198106519E+03  0.80301761142E+02 0.  0.
          4    1    6    6  501    0  0.77771981075E+01 -0.14854882296E+02  0.11512003149E+02  0.20339089334E+02  0.00000000000E+00 0. -1.
         -3    1    6    6    0  501 -0.39803321800E+02 -0.14554858697E+02 -0.92384754787E+02  0.10164197585E+03  0.00000000000E+00 0.  1.
          5    1    5    5  502    0  0.11214748192E+02  0.25349490341E+02 -0.25249018355E+03  0.25405068397E+03  0.47000000000E+01 0. -1.
         13    1    4    4    0    0  0.14156358454E+02  0.35056441956E+02 -0.10664006979E+03  0.11314354198E+03  0.00000000000E+00 0. -1.
        -14    1    4    4    0    0  0.61431601607E+02 -0.33171114416E+01 -0.49845688902E+03  0.50223910154E+03  0.00000000000E+00 0.  1.
         -5    1    3    3    0  504 -0.54776584560E+02 -0.27679079862E+02 -0.42934449180E+03  0.43373423697E+03  0.47000000000E+01 0.  1.
<mgrwt>
<rscale>  2 0.17464192E+03</rscale>
<asrwt>0</asrwt>
<pdfrwt beam="1">  1       21 0.44110954E-02 0.17486313E+03</pdfrwt>
<pdfrwt beam="2">  1       21 0.21484255E+00 0.17486313E+03</pdfrwt>
<totfact> 0.36462669E+04</totfact>
</mgrwt>
</event>
<event>
12    1  0.1410528E-001  0.1913603E+03  0.7546771E-02  0.1157256E+00
         21   -1    0    0  502  503  0.00000000000E+00  0.00000000000E+00  0.15942064743E+04  0.15942064743E+04  0.00000000000E+00 0. -1.
         21   -1    0    0  503  504 -0.00000000000E+00 -0.00000000000E+00 -0.40524390716E+02  0.40524390716E+02  0.00000000000E+00 0. -1.
         -6    2    1    2    0  504  0.48706651872E+02 -0.59248651285E+02  0.23882865699E+03  0.30603574855E+03  0.17531688846E+03 0.  0.
        -24    2    3    3    0    0  0.36227130052E+02 -0.91846371878E+01  0.33605209560E+02  0.94373523896E+02  0.79876713696E+02 0.  0.
          6    2    1    2  502    0 -0.48706651872E+02  0.59248651285E+02  0.13148534266E+04  0.13286951164E+04  0.17523823345E+03 0.  0.
         24    2    5    5    0    0 -0.30325395893E+02 -0.48452446960E+00  0.31096592174E+03  0.32285311333E+03  0.81329354505E+02 0.  0.
          4    1    6    6  501    0 -0.27685422611E+02  0.13128430742E+02  0.34911018486E+02  0.46450161793E+02  0.00000000000E+00 0. -1.
         -3    1    6    6    0  501 -0.26399732821E+01 -0.13612955212E+02  0.27605490326E+03  0.27640295154E+03  0.00000000000E+00 0.  1.
          5    1    5    5  502    0 -0.18381255980E+02  0.59733175755E+02  0.10038875048E+04  0.10058420031E+04  0.47000000000E+01 0. -1.
         13    1    4    4    0    0 -0.12610582316E+02 -0.28491932785E+02 -0.15180752645E+01  0.31194896580E+02  0.00000000000E+00 0. -1.
        -14    1    4    4    0    0  0.48837712368E+02  0.19307295597E+02  0.35123284824E+02  0.63178627315E+02  0.00000000000E+00 0.  1.
         -5    1    3    3    0  504  0.12479521820E+02 -0.50064014097E+02  0.20522344743E+03  0.21166222466E+03  0.47000000000E+01 0.  1.
<mgrwt>
<rscale>  2 0.19134225E+03</rscale>
<asrwt>0</asrwt>
<pdfrwt beam="1">  1       21 0.24526249E+00 0.19136027E+03</pdfrwt>
<pdfrwt beam="2">  1       21 0.62345229E-02 0.19136027E+03</pdfrwt>
<totfact> 0.13108267E+04</totfact>
</mgrwt>
</event>
<event>
12    1  0.1410528E-001  0.2081450E+03  0.7546771E-02  0.1143246E+00
         21   -1    0    0  502  503  0.00000000000E+00  0.00000000000E+00  0.69932178300E+03  0.69932178300E+03  0.00000000000E+00 0. -1.
         21   -1    0    0  503  504 -0.00000000000E+00 -0.00000000000E+00 -0.19160578011E+03  0.19160578011E+03  0.00000000000E+00 0.  1.
         -6    2    1    2    0  504 -0.10925314611E+03 -0.25746239300E+02 -0.11320331276E+03  0.23604961449E+03  0.17408420866E+03 0.  0.
        -24    2    3    3    0    0 -0.54384686452E+02 -0.60901342289E+02 -0.12522749133E+03  0.16961844709E+03  0.80136292618E+02 0.  0.
          6    2    1    2  502    0  0.10925314611E+03  0.25746239300E+02  0.62091931565E+03  0.65487794863E+03  0.17528608694E+03 0.  0.
         24    2    5    5    0    0  0.75623274599E+02 -0.54437442484E+01  0.58729617350E+03  0.59781316947E+03  0.81946788688E+02 0.  0.
          2    1    6    6  501    0  0.70574595957E+02  0.13237575416E+01  0.58474913023E+03  0.58899411817E+03  0.00000000000E+00 0. -1.
         -1    1    6    6    0  501  0.50486786419E+01 -0.67675017900E+01  0.25470432651E+01  0.88190513039E+01  0.00000000000E+00 0.  1.
          5    1    5    5  502    0  0.33629871516E+02  0.31189983548E+02  0.33623142154E+02  0.57064779157E+02  0.47000000000E+01 0. -1.
         11    1    4    4    0    0  0.60370319505E+01 -0.40432182930E+02 -0.17607204782E+02  0.44510906882E+02  0.00000000000E+00 0. -1.
        -12    1    4    4    0    0 -0.60421718403E+02 -0.20469159360E+02 -0.10762028655E+03  0.12510754021E+03  0.00000000000E+00 0.  1.
         -5    1    3    3    0  504 -0.54868459662E+02  0.35155102990E+02  0.12024178567E+02  0.66431167400E+02  0.47000000000E+01 0.  1.
<mgrwt>
<rscale>  2 0.20789173E+03</rscale>
<asrwt>0</asrwt>
<pdfrwt beam="1">  1       21 0.10758797E+00 0.20814498E+03</pdfrwt>
<pdfrwt beam="2">  1       21 0.29477813E-01 0.20814498E+03</pdfrwt>
<totfact> 0.75114276E+03</totfact>
</mgrwt>
</event>
<event>
12    1  0.1410528E-001  0.1778038E+03  0.7546771E-02  0.1170337E+00
         21   -1    0    0  502  503  0.00000000000E+00  0.00000000000E+00  0.15021582787E+03  0.15021582787E+03  0.00000000000E+00 0.  1.
         21   -1    0    0  503  504 -0.00000000000E+00 -0.00000000000E+00 -0.31027283952E+03  0.31027283952E+03  0.00000000000E+00 0. -1.
         -6    2    1    2    0  504 -0.33296773497E+02  0.21259053539E+02 -0.21159653946E+03  0.27536573557E+03  0.17173401041E+03 0.  0.
        -24    2    3    3    0    0 -0.61775185412E+02  0.35674839691E+02 -0.21759113394E+03  0.24255019049E+03  0.79973905868E+02 0.  0.
          6    2    1    2  502    0  0.33296773497E+02 -0.21259053539E+02  0.51539527810E+02  0.18512293182E+03  0.17335961028E+03 0.  0.
         24    2    5    5    0    0  0.65723219823E+02 -0.64997739188E+02  0.25641576428E+02  0.12464697851E+03  0.79593536706E+02 0.  0.
          4    1    6    6  501    0  0.19931242735E+02 -0.68170707176E+02 -0.20224000461E+01  0.71053429585E+02  0.00000000000E+00 0. -1.
         -3    1    6    6    0  501  0.45791977088E+02  0.31729679881E+01  0.27663976475E+02  0.53593548921E+02  0.00000000000E+00 0.  1.
          5    1    5    5  502    0 -0.32426446326E+02  0.43738685648E+02  0.25897951381E+02  0.60475953315E+02  0.47000000000E+01 0. -1.
         11    1    4    4    0    0  0.81102893351E+01  0.52858680310E+01 -0.11153301261E+03  0.11195235636E+03  0.00000000000E+00 0. -1.
        -12    1    4    4    0    0 -0.69885474747E+02  0.30388971660E+02 -0.10605812133E+03  0.13059783413E+03  0.00000000000E+00 0.  1.
         -5    1    3    3    0  504  0.28478411915E+02 -0.14415786151E+02  0.59945944781E+01  0.32815545074E+02  0.47000000000E+01 0.  1.
<mgrwt>
<rscale>  2 0.17740628E+03</rscale>
<asrwt>0</asrwt>
<pdfrwt beam="1">  1       21 0.23110128E-01 0.17780376E+03</pdfrwt>
<pdfrwt beam="2">  1       21 0.47734283E-01 0.17780376E+03</pdfrwt>
<totfact> 0.74261206E+04</totfact>
</mgrwt>
</event>
<event>
12    1  0.1410528E-001  0.2270379E+03  0.7546771E-02  0.1128864E+00
         21   -1    0    0  502  503  0.00000000000E+00  0.00000000000E+00  0.54485647649E+03  0.54485647649E+03  0.00000000000E+00 0.  1.
         21   -1    0    0  503  504 -0.00000000000E+00 -0.00000000000E+00 -0.13997099317E+03  0.13997099317E+03  0.00000000000E+00 0. -1.
         -6    2    1    2    0  504  0.14601340886E+03  0.14292357207E+02  0.66915520701E+01  0.22645578065E+03  0.17237533663E+03 0.  0.
        -24    2    3    3    0    0  0.12160239746E+03  0.38234287615E+02 -0.50899387430E+02  0.15931473641E+03  0.80879130677E+02 0.  0.
          6    2    1    2  502    0 -0.14601340886E+03 -0.14292357207E+02  0.39819393125E+03  0.45837168901E+03  0.17326861044E+03 0.  0.
         24    2    5    5    0    0 -0.43248335222E+02  0.51566942194E+02  0.20794341571E+03  0.23228441307E+03  0.78651232636E+02 0.  0.
          4    1    6    6  501    0  0.11901557910E+02  0.46035560164E+02  0.84283417078E+02  0.96770937138E+02  0.00000000000E+00 0. -1.
         -3    1    6    6    0  501 -0.55149893132E+02  0.55313820307E+01  0.12365999863E+03  0.13551347594E+03  0.00000000000E+00 0.  1.
          5    1    5    5  502    0 -0.10276507364E+03 -0.65859299401E+02  0.19025051554E+03  0.22608727594E+03  0.47000000000E+01 0. -1.
         11    1    4    4    0    0  0.13283200949E+03  0.35166458923E+02 -0.53379549824E+02  0.14741234317E+03  0.00000000000E+00 0. -1.
        -12    1    4    4    0    0 -0.11229612034E+02  0.30678286922E+01  0.24801623947E+01  0.11902393240E+02  0.00000000000E+00 0.  1.
         -5    1    3    3    0  504  0.24411011403E+02 -0.23941930409E+02  0.57590939500E+02  0.67141044242E+02  0.47000000000E+01 0.  1.
<mgrwt>
<rscale>  2 0.22686744E+03</rscale>
<asrwt>0</asrwt>
<pdfrwt beam="1">  1       21 0.83824072E-01 0.22703788E+03</pdfrwt>
<pdfrwt beam="2">  1       21 0.21533999E-01 0.22703788E+03</pdfrwt>
<totfact> 0.24385181E+04</totfact>
</mgrwt>
</event>
<event>
12    1  0.1410528E-001  0.1803630E+03  0.7546771E-02  0.1167821E+00
         21   -1    0    0  502  503  0.00000000000E+00  0.00000000000E+00  0.90015587687E+02  0.90015587687E+02  0.00000000000E+00 0.  1.
         21   -1    0    0  503  504 -0.00000000000E+00 -0.00000000000E+00 -0.50245483102E+03  0.50245483102E+03  0.00000000000E+00 0.  1.
         -6    2    1    2    0  504 -0.39320676853E+02  0.26253824288E+02 -0.36424070512E+03  0.40577840192E+03  0.17248026344E+03 0.  0.
        -24    2    3    3    0    0 -0.48982151209E+02  0.77061127263E+02 -0.19910112823E+03  0.23266602229E+03  0.78450941329E+02 0.  0.
          6    2    1    2  502    0  0.39320676853E+02 -0.26253824288E+02 -0.48198538206E+02  0.18669201679E+03  0.17405582762E+03 0.  0.
         24    2    5    5    0    0  0.19753238182E+02 -0.68489358353E+02 -0.77921279362E+02  0.13126407856E+03  0.77958642352E+02 0.  0.
          2    1    6    6  501    0 -0.80773174057E+01  0.45593026443E+01 -0.45835756171E+02  0.46764803441E+02  0.00000000000E+00 0. -1.
         -1    1    6    6    0  501  0.27830555587E+02 -0.73048660997E+02 -0.32085523191E+02  0.84499275122E+02  0.00000000000E+00 0.  1.
          5    1    5    5  502    0  0.19567438671E+02  0.42235534065E+02  0.29722741156E+02  0.55427938223E+02  0.47000000000E+01 0. -1.
         13    1    4    4    0    0 -0.58296509809E+02  0.19691238983E+02 -0.89565756805E+02  0.10866578459E+03  0.00000000000E+00 0. -1.
        -14    1    4    4    0    0  0.93143585994E+01  0.57369888280E+02 -0.10953537142E+03  0.12400023770E+03  0.00000000000E+00 0.  1.
         -5    1    3    3    0  504  0.96614743565E+01 -0.50807302975E+02 -0.16513957690E+03  0.17311237963E+03  0.47000000000E+01 0.  1.
<mgrwt>
<rscale>  2 0.17998179E+03</rscale>
<asrwt>0</asrwt>
<pdfrwt beam="1">  1       21 0.13848552E-01 0.18036300E+03</pdfrwt>
<pdfrwt beam="2">  1       21 0.77300744E-01 0.18036300E+03</pdfrwt>
<totfact> 0.67751169E+04</totfact>
</mgrwt>
</event>
<event>
12    1  0.1410528E-001  0.2562240E+03  0.7546771E-02  0.1109551E+00
         21   -1    0    0  502  503  0.00000000000E+00  0.00000000000E+00  0.19029569835E+03  0.19029569835E+03  0.00000000000E+00 0. -1.
         21   -1    0    0  503  504 -0.00000000000E+00 -0.00000000000E+00 -0.38898566936E+03  0.38898566936E+03  0.00000000000E+00 0. -1.
         -6    2    1    2    0  504 -0.92115962816E+02  0.16370053971E+03 -0.19775165992E+03  0.32305560858E+03  0.17313575577E+03 0.  0.
        -24    2    3    3    0    0 -0.12696061497E+03  0.15021056812E+03 -0.14879040934E+03  0.26128649675E+03  0.86312426367E+02 0.  0.
          6    2    1    2  502    0  0.92115962816E+02 -0.16370053971E+03 -0.93831109071E+00  0.25622575913E+03  0.17426285291E+03 0.  0.
         24    2    5    5    0    0  0.52134382813E+02 -0.73956047572E+02  0.66751145915E+02  0.13682495009E+03  0.77960635209E+02 0.  0.
          2    1    6    6  501    0  0.60546770008E+02 -0.80067361795E+02  0.39883895413E+02  0.10801582707E+03  0.00000000000E+00 0. -1.
         -1    1    6    6    0  501 -0.84123871949E+01  0.61113142233E+01  0.26867250503E+02  0.28809123024E+02  0.00000000000E+00 0.  1.
          5    1    5    5  502    0  0.39981580003E+02 -0.89744492141E+02 -0.67689457006E+02  0.11940080904E+03  0.47000000000E+01 0. -1.
         11    1    4    4    0    0 -0.10929492002E+03  0.11774116038E+03 -0.15565648450E+03  0.22369019102E+03  0.00000000000E+00 0. -1.
        -12    1    4    4    0    0 -0.17665694954E+02  0.32469407734E+02  0.68660751605E+01  0.37596305735E+02  0.00000000000E+00 0.  1.
         -5    1    3    3    0  504  0.34844652158E+02  0.13489971598E+02 -0.48961250572E+02  0.61769111822E+02  0.47000000000E+01 0.  1.
<mgrwt>
<rscale>  2 0.25603252E+03</rscale>
<asrwt>0</asrwt>
<pdfrwt beam="1">  1       21 0.29276262E-01 0.25622404E+03</pdfrwt>
<pdfrwt beam="2">  1       21 0.59843948E-01 0.25622404E+03</pdfrwt>
<totfact> 0.28203932E+04</totfact>
</mgrwt>
</event>
<event>
12    1  0.1410528E-001  0.3316748E+03  0.7546771E-02  0.1070406E+00
         21   -1    0    0  502  503  0.00000000000E+00  0.00000000000E+00  0.39233366982E+03  0.39233366982E+03  0.00000000000E+00 0.  1.
         21   -1    0    0  503  504 -0.00000000000E+00 -0.00000000000E+00 -0.40617464017E+03  0.40617464017E+03  0.00000000000E+00 0. -1.
         -6    2    1    2    0  504  0.55276842217E+02 -0.27782282323E+03 -0.22914731186E+03  0.40307820094E+03  0.17240213209E+03 0.  0.
        -24    2    3    3    0    0  0.77641065586E+02 -0.24617660081E+03 -0.24038875948E+03  0.36245675310E+03  0.83409162140E+02 0.  0.
          6    2    1    2  502    0 -0.55276842217E+02  0.27782282323E+03  0.21530634151E+03  0.39543010905E+03  0.17253144657E+03 0.  0.
         24    2    5    5    0    0 -0.37471935232E+02  0.47257871776E+02  0.59908636866E+02  0.11677665373E+03  0.80064284864E+02 0.  0.
          4    1    6    6  501    0 -0.15090305573E+01 -0.15871773583E+02 -0.75436061760E+01  0.17637924028E+02  0.00000000000E+00 0. -1.
         -3    1    6    6    0  501 -0.35962904674E+02  0.63129645359E+02  0.67452243042E+02  0.99138729703E+02  0.00000000000E+00 0.  1.
          5    1    5    5  502    0 -0.17804906985E+02  0.23056495145E+03  0.15539770465E+03  0.27865345532E+03  0.47000000000E+01 0. -1.
         13    1    4    4    0    0  0.42594224451E+02 -0.20234229566E+03 -0.22203915184E+03  0.30341070766E+03  0.00000000000E+00 0. -1.
        -14    1    4    4    0    0  0.35046841135E+02 -0.43834305150E+02 -0.18349607636E+02  0.59046045438E+02  0.00000000000E+00 0.  1.
         -5    1    3    3    0  504 -0.22364223369E+02 -0.31646222419E+02  0.11241447621E+02  0.40621447844E+02  0.47000000000E+01 0.  1.
<mgrwt>
<rscale>  2 0.33165795E+03</rscale>
<asrwt>0</asrwt>
<pdfrwt beam="1">  1       21 0.60359026E-01 0.33167477E+03</pdfrwt>
<pdfrwt beam="2">  1       21 0.62488406E-01 0.33167477E+03</pdfrwt>
<totfact> 0.55980986E+03</totfact>
</mgrwt>
</event>
<event>
12    1  0.1410528E-001  0.1845151E+03  0.7546771E-02  0.1164815E+00
         21   -1    0    0  502  503  0.00000000000E+00  0.00000000000E+00  0.15568446166E+03  0.15568446166E+03  0.00000000000E+00 0.  1.
         21   -1    0    0  503  504 -0.00000000000E+00 -0.00000000000E+00 -0.64932624585E+03  0.64932624585E+03  0.00000000000E+00 0.  1.
         -6    2    1    2    0  504 -0.51977574813E+02  0.37952592257E+02 -0.57827918367E+03  0.60700300637E+03  0.17292705957E+03 0.  0.
        -24    2    3    3    0    0 -0.13454155541E+02 -0.44417843217E+02 -0.31805576021E+03  0.33130885955E+03  0.80325181087E+02 0.  0.
          6    2    1    2  502    0  0.51977574813E+02 -0.37952592257E+02  0.84637399484E+02  0.19800770114E+03  0.16703739934E+03 0.  0.
         24    2    5    5    0    0  0.27866114318E+02 -0.74704775279E+02  0.13444654212E+02  0.11420685113E+03  0.80654338638E+02 0.  0.
          2    1    6    6  501    0 -0.65092278468E+01 -0.76065799702E+02  0.20587258151E+02  0.79070924679E+02  0.00000000000E+00 0. -1.
         -1    1    6    6    0  501  0.34375342164E+02  0.13610244235E+01 -0.71426039389E+01  0.35135926449E+02  0.00000000000E+00 0.  1.
          5    1    5    5  502    0  0.24111460495E+02  0.36752183021E+02  0.71192745272E+02  0.83800850016E+02  0.47000000000E+01 0. -1.
         11    1    4    4    0    0 -0.46557756065E+00 -0.50159261926E+02 -0.91823831204E+02  0.10463166010E+03  0.00000000000E+00 0. -1.
        -12    1    4    4    0    0 -0.12988577980E+02  0.57414187083E+01 -0.22623192900E+03  0.22667719944E+03  0.00000000000E+00 0.  1.
         -5    1    3    3    0  504 -0.38523419272E+02  0.82370435475E+02 -0.26022342346E+03  0.27569414682E+03  0.47000000000E+01 0.  1.
<mgrwt>
<rscale>  2 0.18312245E+03</rscale>
<asrwt>0</asrwt>
<pdfrwt beam="1">  1       21 0.23951456E-01 0.18451514E+03</pdfrwt>
<pdfrwt beam="2">  1       21 0.99896344E-01 0.18451514E+03</pdfrwt>
<totfact> 0.13599198E+04</totfact>
</mgrwt>
</event>
<event>
12    1  0.1410528E-001  0.1876654E+03  0.7546771E-02  0.1160605E+00
         21   -1    0    0  502  503  0.00000000000E+00  0.00000000000E+00  0.14139241254E+04  0.14139241254E+04  0.00000000000E+00 0. -1.
         21   -1    0    0  503  504 -0.00000000000E+00 -0.00000000000E+00 -0.27803885383E+02  0.27803885383E+02  0.00000000000E+00 0. -1.
         -6    2    1    2    0  504  0.69607900401E+02  0.18326100635E+02  0.46008842464E+03  0.49688998107E+03  0.17331240300E+03 0.  0.
        -24    2    3    3    0    0  0.10665712580E+03  0.45234178036E+02  0.31945219424E+03  0.34891251983E+03  0.79173030420E+02 0.  0.
          6    2    1    2  502    0 -0.69607900401E+02 -0.18326100635E+02  0.92603181537E+03  0.94483802971E+03  0.17321337577E+03 0.  0.
         24    2    5    5    0    0 -0.47532977838E+02  0.88006358552E+01  0.88833365730E+03  0.89320080321E+03  0.79587392156E+02 0.  0.
          2    1    6    6  501    0 -0.49294688888E+02 -0.23336623225E+02  0.70134267379E+03  0.70346009866E+03  0.00000000000E+00 0. -1.
         -1    1    6    6    0  501  0.17617110503E+01  0.32137259080E+02  0.18699098351E+03  0.18974070455E+03  0.00000000000E+00 0.  1.
          5    1    5    5  502    0 -0.22074922564E+02 -0.27126736491E+02  0.37698158074E+02  0.51637226504E+02  0.47000000000E+01 0. -1.
         13    1    4    4    0    0  0.54683325347E+02  0.46823879993E+02  0.98982811188E+02  0.12239419398E+03  0.00000000000E+00 0. -1.
        -14    1    4    4    0    0  0.51973800451E+02 -0.15897019572E+01  0.22046938305E+03  0.22651832586E+03  0.00000000000E+00 0.  1.
         -5    1    3    3    0  504 -0.37049225396E+02 -0.26908077400E+02  0.14063623040E+03  0.14797746124E+03  0.47000000000E+01 0.  1.
<mgrwt>
<rscale>  2 0.18764251E+03</rscale>
<asrwt>0</asrwt>
<pdfrwt beam="1">  1       21 0.21752673E+00 0.18766538E+03</pdfrwt>
<pdfrwt beam="2">  1       21 0.42775219E-02 0.18766538E+03</pdfrwt>
<totfact> 0.36608971E+04</totfact>
</mgrwt>
</event>
<event>
12    1  0.1410528E-001  0.1813545E+03  0.7546771E-02  0.1166838E+00
         21   -1    0    0  502  503  0.00000000000E+00  0.00000000000E+00  0.30837638473E+03  0.30837638473E+03  0.00000000000E+00 0. -1.
         21   -1    0    0  503  504 -0.00000000000E+00 -0.00000000000E+00 -0.26215536697E+03  0.26215536697E+03  0.00000000000E+00 0. -1.
         -6    2    1    2    0  504 -0.40275746529E+02 -0.39774791123E+02 -0.19721265350E+03  0.26697055790E+03  0.17081065048E+03 0.  0.
        -24    2    3    3    0    0 -0.33084019084E+02 -0.91406694300E+02 -0.12346170138E+03  0.17653346757E+03  0.80445866161E+02 0.  0.
          6    2    1    2  502    0  0.40275746529E+02  0.39774791123E+02  0.24343367127E+03  0.30356119380E+03  0.17229415633E+03 0.  0.
         24    2    5    5    0    0 -0.34055518191E+02 -0.17783826606E+00  0.17281976041E+03  0.19342598636E+03  0.79919538697E+02 0.  0.
          2    1    6    6  501    0  0.55361678623E+01 -0.34215166291E+02  0.68400574856E+02  0.76680932438E+02  0.00000000000E+00 0. -1.
         -1    1    6    6    0  501 -0.39591686053E+02  0.34037328025E+02  0.10441918556E+03  0.11674505393E+03  0.00000000000E+00 0.  1.
          5    1    5    5  502    0  0.74331264720E+02  0.39952629389E+02  0.70613910858E+02  0.11013520743E+03  0.47000000000E+01 0. -1.
         11    1    4    4    0    0 -0.25649315542E+02 -0.20529039877E+02 -0.93717125379E+02  0.99308753166E+02  0.00000000000E+00 0. -1.
        -12    1    4    4    0    0 -0.74347035420E+01 -0.70877654422E+02 -0.29744576004E+02  0.77224714404E+02  0.00000000000E+00 0.  1.
         -5    1    3    3    0  504 -0.71917274456E+01  0.51631903177E+02 -0.73750952120E+02  0.90437090333E+02  0.47000000000E+01 0.  1.
<mgrwt>
<rscale>  2 0.18100125E+03</rscale>
<asrwt>0</asrwt>
<pdfrwt beam="1">  1       21 0.47442521E-01 0.18135448E+03</pdfrwt>
<pdfrwt beam="2">  1       21 0.40331595E-01 0.18135448E+03</pdfrwt>
<totfact> 0.25333467E+04</totfact>
</mgrwt>
</event>
<event>
12    1  0.1410528E-001  0.2244138E+03  0.7546771E-02  0.1130664E+00
         21   -1    0    0  502  503  0.00000000000E+00  0.00000000000E+00  0.10021161722E+03  0.10021161722E+03  0.00000000000E+00 0. -1.
         21   -1    0    0  503  504 -0.00000000000E+00 -0.00000000000E+00 -0.56438298769E+03  0.56438298769E+03  0.00000000000E+00 0.  1.
         -6    2    1    2    0  504 -0.50456179622E+02 -0.13195682086E+03 -0.12184789806E+03  0.25535947298E+03  0.17436490915E+03 0.  0.
        -24    2    3    3    0    0 -0.77243266533E+02 -0.30970613825E+02 -0.85770615703E+02  0.14472755019E+03  0.81631881768E+02 0.  0.
          6    2    1    2  502    0  0.50456179622E+02  0.13195682086E+03 -0.34232347240E+03  0.40923513194E+03  0.17415396871E+03 0.  0.
         24    2    5    5    0    0 -0.21054810594E+02  0.41997192515E+02 -0.99167764575E+02  0.14024936149E+03  0.87341677558E+02 0.  0.
          4    1    6    6  501    0 -0.44947031177E+01  0.65896912654E+02 -0.48913274969E+02  0.82189500070E+02  0.00000000000E+00 0. -1.
         -3    1    6    6    0  501 -0.16560107476E+02 -0.23899720139E+02 -0.50254489606E+02  0.58059861418E+02  0.00000000000E+00 0.  1.
          5    1    5    5  502    0  0.71510990215E+02  0.89959628347E+02 -0.24315570783E+03  0.26898577045E+03  0.47000000000E+01 0. -1.
         13    1    4    4    0    0  0.16193030989E+02  0.21349870045E+01 -0.56953061065E+01  0.17297656886E+02  0.00000000000E+00 0. -1.
        -14    1    4    4    0    0 -0.93436297521E+02 -0.33105600830E+02 -0.80075309597E+02  0.12742989331E+03  0.00000000000E+00 0.  1.
         -5    1    3    3    0  504  0.26787086911E+02 -0.10098620704E+03 -0.36077282359E+02  0.11063192279E+03  0.47000000000E+01 0.  1.
<mgrwt>
<rscale>  2 0.22437282E+03</rscale>
<asrwt>0</asrwt>
<pdfrwt beam="1">  1       21 0.15417172E-01 0.22441379E+03</pdfrwt>
<pdfrwt beam="2">  1       21 0.86828150E-01 0.22441379E+03</pdfrwt>
<totfact> 0.41906619E+04</totfact>
</mgrwt>
</event>
<event>
12    1  0.1410528E-001  0.1970029E+03  0.7546771E-02  0.1152402E+00
         21   -1    0    0  502  503  0.00000000000E+00  0.00000000000E+00  0.56673791343E+03  0.56673791343E+03  0.00000000000E+00 0. -1.
         21   -1    0    0  503  504 -0.00000000000E+00 -0.00000000000E+00 -0.88514670139E+02  0.88514670139E+02  0.00000000000E+00 0. -1.
         -6    2    1    2    0  504 -0.92004400436E+02  0.21035576685E+02  0.82319700764E+02  0.21304252226E+03  0.17234638949E+03 0.  0.
        -24    2    3    3    0    0 -0.94862567029E+02 -0.18061046407E+02  0.37810470797E+01  0.12513845423E+03  0.79499864085E+02 0.  0.
          6    2    1    2  502    0  0.92004400436E+02 -0.21035576685E+02  0.39590354253E+03  0.44221006131E+03  0.17292431336E+03 0.  0.
         24    2    5    5    0    0  0.55931966403E+02 -0.26798036414E+01  0.93016554026E+02  0.13659466133E+03  0.82888213685E+02 0.  0.
          4    1    6    6  501    0  0.19919795044E+02 -0.40982502668E+02  0.56491618867E+02  0.72578693579E+02  0.00000000000E+00 0. -1.
         -3    1    6    6    0  501  0.36012171359E+02  0.38302699027E+02  0.36524935159E+02  0.64015967751E+02  0.00000000000E+00 0.  1.
          5    1    5    5  502    0  0.36072434032E+02 -0.18355773044E+02  0.30288698850E+03  0.30561539998E+03  0.47000000000E+01 0. -1.
         11    1    4    4    0    0 -0.82261770147E+02  0.17966112447E+02 -0.94806698528E+01  0.84732892817E+02  0.00000000000E+00 0. -1.
        -12    1    4    4    0    0 -0.12600796882E+02 -0.36027158854E+02  0.13261716933E+02  0.40405561414E+02  0.00000000000E+00 0.  1.
         -5    1    3    3    0  504  0.28581665934E+01  0.39096623092E+02  0.78538653684E+02  0.87904068029E+02  0.47000000000E+01 0.  1.
<mgrwt>
<rscale>  2 0.19687596E+03</rscale>
<asrwt>0</asrwt>
<pdfrwt beam="1">  1       21 0.87190446E-01 0.19700285E+03</pdfrwt>
<pdfrwt beam="2">  1       21 0.13617642E-01 0.19700285E+03</pdfrwt>
<totfact> 0.52727495E+04</totfact>
</mgrwt>
</event>
<event>
12    1  0.1410528E-001  0.2067980E+03  0.7546771E-02  0.1144146E+00
         21   -1    0    0  502  503  0.00000000000E+00  0.00000000000E+00  0.14770756094E+03  0.14770756094E+03  0.00000000000E+00 0.  1.
         21   -1    0    0  503  504 -0.00000000000E+00 -0.00000000000E+00 -0.28981834438E+03  0.28981834438E+03  0.00000000000E+00 0.  1.
         -6    2    1    2    0  504  0.91676985923E+02 -0.58817693760E+02 -0.79448733860E+02  0.22153446525E+03  0.17578744874E+03 0.  0.
        -24    2    3    3    0    0  0.78435301804E+01 -0.86682399508E+02 -0.51322031281E+02  0.12870294298E+03  0.79719114942E+02 0.  0.
          6    2    1    2  502    0 -0.91676985923E+02  0.58817693760E+02 -0.62662049577E+02  0.21599144007E+03  0.17567463926E+03 0.  0.
         24    2    5    5    0    0  0.13559744394E+02  0.62114546245E+02 -0.29820187307E+02  0.10559978929E+03  0.78866903101E+02 0.  0.
          4    1    6    6  501    0  0.40567409147E+02  0.20131487763E+02 -0.32287494142E+02  0.55619005407E+02  0.00000000000E+00 0. -1.
         -3    1    6    6    0  501 -0.27007664754E+02  0.41983058482E+02  0.24673068354E+01  0.49980783887E+02  0.00000000000E+00 0.  1.
          5    1    5    5  502    0 -0.10523673032E+03 -0.32968524845E+01 -0.32841862270E+02  0.11039165078E+03  0.47000000000E+01 0. -1.
         11    1    4    4    0    0 -0.41197373803E+00 -0.48162674157E+02  0.15956984150E+02  0.50738922412E+02  0.00000000000E+00 0. -1.
        -12    1    4    4    0    0  0.82555039185E+01 -0.38519725351E+02 -0.67279015431E+02  0.77964020570E+02  0.00000000000E+00 0.  1.
         -5    1    3    3    0  504  0.83833455742E+02  0.27864705748E+02 -0.28126702578E+02  0.92831522265E+02  0.47000000000E+01 0.  1.
<mgrwt>
<rscale>  2 0.20677404E+03</rscale>
<asrwt>0</asrwt>
<pdfrwt beam="1">  1       21 0.22724241E-01 0.20679801E+03</pdfrwt>
<pdfrwt beam="2">  1       21 0.44587437E-01 0.20679801E+03</pdfrwt>
<totfact> 0.87168844E+04</totfact>
</mgrwt>
</event>
<event>
12    1  0.1410528E-001  0.2789614E+03  0.7546771E-02  0.1096285E+00
         21   -1    0    0  502  503  0.00000000000E+00  0.00000000000E+00  0.23525601294E+03  0.23525601294E+03  0.00000000000E+00 0. -1.
         21   -1    0    0  503  504 -0.00000000000E+00 -0.00000000000E+00 -0.62407874089E+03  0.62407874089E+03  0.00000000000E+00 0. -1.
         -6    2    1    2    0  504 -0.21149332921E+03  0.57202556049E+02 -0.48904764198E+03  0.56291531038E+03  0.17234990520E+03 0.  0.
        -24    2    3    3    0    0 -0.21434800429E+03  0.77592250923E+01 -0.40535064745E+03  0.46554966429E+03  0.80137818908E+02 0.  0.
          6    2    1    2  502    0  0.21149332921E+03 -0.57202556049E+02  0.10022491403E+03  0.29641944345E+03  0.17267858103E+03 0.  0.
         24    2    5    5    0    0  0.96988952242E+02  0.86708345204E+01 -0.73138334657E+01  0.12601630926E+03  0.79652858150E+02 0.  0.
          2    1    6    6  501    0  0.10743691799E+03  0.21070930906E+02 -0.80957326602E+01  0.10978258680E+03  0.00000000000E+00 0. -1.
         -1    1    6    6    0  501 -0.10447965749E+02 -0.12400096386E+02  0.78189919451E+00  0.16233722463E+02  0.00000000000E+00 0.  1.
          5    1    5    5  502    0  0.11450437697E+03 -0.65873390569E+02  0.10753874749E+03  0.17040313419E+03  0.47000000000E+01 0. -1.
         11    1    4    4    0    0 -0.19494759944E+02  0.25639571140E+02 -0.74551734585E+02  0.81212033611E+02  0.00000000000E+00 0. -1.
        -12    1    4    4    0    0 -0.19485324434E+03 -0.17880346048E+02 -0.33079891286E+03  0.38433763068E+03  0.00000000000E+00 0.  1.
         -5    1    3    3    0  504  0.28546750782E+01  0.49443330956E+02 -0.83696994527E+02  0.97365646091E+02  0.47000000000E+01 0.  1.
<mgrwt>
<rscale>  2 0.27891054E+03</rscale>
<asrwt>0</asrwt>
<pdfrwt beam="1">  1       21 0.36193233E-01 0.27896138E+03</pdfrwt>
<pdfrwt beam="2">  1       21 0.96012113E-01 0.27896138E+03</pdfrwt>
<totfact> 0.62916324E+03</totfact>
</mgrwt>
</event>
<event>
12    1  0.1410528E-001  0.1846178E+03  0.7546771E-02  0.1163463E+00
         21   -1    0    0  502  503  0.00000000000E+00  0.00000000000E+00  0.22633369175E+03  0.22633369175E+03  0.00000000000E+00 0. -1.
         21   -1    0    0  503  504 -0.00000000000E+00 -0.00000000000E+00 -0.15712697411E+03  0.15712697411E+03  0.00000000000E+00 0. -1.
         -6    2    1    2    0  504 -0.58334284750E+02  0.29770729658E+02 -0.50594079917E+01  0.18468708257E+03  0.17261093748E+03 0.  0.
        -24    2    3    3    0    0  0.27973552328E+02  0.86042041196E+01  0.28871245045E+02  0.89448205212E+02  0.79441051522E+02 0.  0.
          6    2    1    2  502    0  0.58334284750E+02 -0.29770729658E+02  0.74266125632E+02  0.19877358330E+03  0.17235514173E+03 0.  0.
         24    2    5    5    0    0  0.29331049418E+02 -0.58346972453E+02  0.10168242626E+03  0.14946300784E+03  0.87949958773E+02 0.  0.
          2    1    6    6  501    0  0.41698540963E+02 -0.69572762040E+02  0.50319369271E+02  0.95452482734E+02  0.00000000000E+00 0. -1.
         -1    1    6    6    0  501 -0.12367491545E+02  0.11225789587E+02  0.51363056990E+02  0.54010525107E+02  0.00000000000E+00 0.  1.
          5    1    5    5  502    0  0.29003235332E+02  0.28576242795E+02 -0.27416300629E+02  0.49310575460E+02  0.47000000000E+01 0. -1.
         11    1    4    4    0    0  0.63194642739E+01 -0.27059359805E+02  0.37667813991E+02  0.46808212876E+02  0.00000000000E+00 0. -1.
        -12    1    4    4    0    0  0.21654088054E+02  0.35663563925E+02 -0.87965689459E+01  0.42639992337E+02  0.00000000000E+00 0.  1.
         -5    1    3    3    0  504 -0.86307837078E+02  0.21166525539E+02 -0.33930653037E+02  0.95238877356E+02  0.47000000000E+01 0.  1.
<mgrwt>
<rscale>  2 0.18455796E+03</rscale>
<asrwt>0</asrwt>
<pdfrwt beam="1">  1       21 0.34820568E-01 0.18461777E+03</pdfrwt>
<pdfrwt beam="2">  1       21 0.24173381E-01 0.18461777E+03</pdfrwt>
<totfact> 0.12873813E+05</totfact>
</mgrwt>
</event>
<event>
12    1  0.1410528E-001  0.1938606E+03  0.7546771E-02  0.1155681E+00
         21   -1    0    0  502  503  0.00000000000E+00  0.00000000000E+00  0.42504186238E+03  0.42504186238E+03  0.00000000000E+00 0.  1.
         21   -1    0    0  503  504 -0.00000000000E+00 -0.00000000000E+00 -0.87929177670E+02  0.87929177670E+02  0.00000000000E+00 0. -1.
         -6    2    1    2    0  504 -0.38089330523E+02  0.67836011148E+02  0.14453363704E+03  0.24180968023E+03  0.17756527732E+03 0.  0.
        -24    2    3    3    0    0 -0.33871371830E+02 -0.33746020204E+02  0.71795171633E+02  0.11671102069E+03  0.78618394616E+02 0.  0.
          6    2    1    2  502    0  0.38089330523E+02 -0.67836011148E+02  0.19257904767E+03  0.27116135982E+03  0.17432519023E+03 0.  0.
         24    2    5    5    0    0  0.17158807568E+02 -0.10833988874E+03  0.10403583384E+03  0.17145859353E+03  0.80886577395E+02 0.  0.
          2    1    6    6  501    0  0.82985026387E+01 -0.11074213706E+03  0.59502752740E+02  0.12598914100E+03  0.00000000000E+00 0. -1.
         -1    1    6    6    0  501  0.88603049297E+01  0.24022483238E+01  0.44533081104E+02  0.45469452526E+02  0.00000000000E+00 0.  1.
          5    1    5    5  502    0  0.20930522954E+02  0.40503877590E+02  0.88543213825E+02  0.99702766288E+02  0.47000000000E+01 0. -1.
         13    1    4    4    0    0 -0.23971080541E+02 -0.22862258382E+02 -0.92088511105E+01  0.34381659346E+02  0.00000000000E+00 0. -1.
        -14    1    4    4    0    0 -0.99002912895E+01 -0.10883761821E+02  0.81004022744E+02  0.82329361346E+02  0.00000000000E+00 0.  1.
         -5    1    3    3    0  504 -0.42179586922E+01  0.10158203135E+03  0.72738465408E+02  0.12509865954E+03  0.47000000000E+01 0.  1.
<mgrwt>
<rscale>  2 0.19311553E+03</rscale>
<asrwt>0</asrwt>
<pdfrwt beam="1">  1       21 0.65391054E-01 0.19386064E+03</pdfrwt>
<pdfrwt beam="2">  1       21 0.13527566E-01 0.19386064E+03</pdfrwt>
<totfact> 0.10173469E+05</totfact>
</mgrwt>
</event>
<event>
12    1  0.1410528E-001  0.2468474E+03  0.7546771E-02  0.1116112E+00
         21   -1    0    0  502  503  0.00000000000E+00  0.00000000000E+00  0.75229954468E+02  0.75229954468E+02  0.00000000000E+00 0. -1.
         21   -1    0    0  503  504 -0.00000000000E+00 -0.00000000000E+00 -0.81428364976E+03  0.81428364976E+03  0.00000000000E+00 0.  1.
         -6    2    1    2    0  504  0.16952474836E+03 -0.12673480366E+01 -0.44349419630E+03  0.50756354317E+03  0.17942519812E+03 0.  0.
        -24    2    3    3    0    0  0.55821868204E+02 -0.58236378002E+02 -0.14904563361E+03  0.18678969542E+03  0.78538097267E+02 0.  0.
          6    2    1    2  502    0 -0.16952474836E+03  0.12673480366E+01 -0.29555949899E+03  0.38195006106E+03  0.17259833494E+03 0.  0.
         24    2    5    5    0    0 -0.20819329795E+02  0.19902821779E+02 -0.65928506105E+02  0.10770005598E+03  0.80144665034E+02 0.  0.
          4    1    6    6  501    0  0.18163852284E+01  0.40579740177E+02 -0.69241898527E+01  0.41206297738E+02  0.00000000000E+00 0. -1.
         -3    1    6    6    0  501 -0.22635715024E+02 -0.20676918398E+02 -0.59004316253E+02  0.66493758245E+02  0.00000000000E+00 0.  1.
          5    1    5    5  502    0 -0.14870541856E+03 -0.18635473742E+02 -0.22963099288E+03  0.27425000507E+03  0.47000000000E+01 0. -1.
         11    1    4    4    0    0  0.41819225891E+02 -0.39272247996E+02 -0.28681458247E+02  0.64138780500E+02  0.00000000000E+00 0. -1.
        -12    1    4    4    0    0  0.14002642313E+02 -0.18964130006E+02 -0.12036417537E+03  0.12265091492E+03  0.00000000000E+00 0.  1.
         -5    1    3    3    0  504  0.11370288016E+03  0.56969029965E+02 -0.29444856269E+03  0.32077384775E+03  0.47000000000E+01 0.  1.
<mgrwt>
<rscale>  2 0.24560893E+03</rscale>
<asrwt>0</asrwt>
<pdfrwt beam="1">  1       21 0.11573839E-01 0.24684742E+03</pdfrwt>
<pdfrwt beam="2">  1       21 0.12527441E+00 0.24684742E+03</pdfrwt>
<totfact> 0.28825723E+04</totfact>
</mgrwt>
</event>
<event>
12    1  0.1410528E-001  0.2954057E+03  0.7546771E-02  0.1087648E+00
         21   -1    0    0  502  503  0.00000000000E+00  0.00000000000E+00  0.10617399482E+03  0.10617399482E+03  0.00000000000E+00 0.  1.
         21   -1    0    0  503  504 -0.00000000000E+00 -0.00000000000E+00 -0.83795320096E+03  0.83795320096E+03  0.00000000000E+00 0. -1.
         -6    2    1    2    0  504  0.19431022206E+03 -0.13826928845E+03 -0.29636009485E+03  0.41795768714E+03  0.17316022609E+03 0.  0.
        -24    2    3    3    0    0  0.13409347015E+03 -0.15623159381E+03 -0.27272415899E+03  0.35065650522E+03  0.78690203420E+02 0.  0.
          6    2    1    2  502    0 -0.19431022206E+03  0.13826928845E+03 -0.43541911130E+03  0.52616950864E+03  0.17432639162E+03 0.  0.
         24    2    5    5    0    0 -0.17283633717E+03  0.16820348924E+03 -0.34522229309E+03  0.42862597926E+03  0.79856028015E+02 0.  0.
          2    1    6    6  501    0 -0.16975797757E+03  0.14032550198E+03 -0.27057689281E+03  0.34888518509E+03  0.00000000000E+00 0. -1.
         -1    1    6    6    0  501 -0.30783596046E+01  0.27877987262E+02 -0.74645400284E+02  0.79740794172E+02  0.00000000000E+00 0.  1.
          5    1    5    5  502    0 -0.21473884890E+02 -0.29934200793E+02 -0.90196818203E+02  0.97543529377E+02  0.47000000000E+01 0. -1.
         11    1    4    4    0    0  0.81787073085E+02 -0.54028338574E+02 -0.17178512931E+03  0.19778351131E+03  0.00000000000E+00 0. -1.
        -12    1    4    4    0    0  0.52306397063E+02 -0.10220325524E+03 -0.10093902968E+03  0.15287299391E+03  0.00000000000E+00 0.  1.
         -5    1    3    3    0  504  0.60216751912E+02  0.17962305360E+02 -0.23635935856E+02  0.67301181925E+02  0.47000000000E+01 0.  1.
<mgrwt>
<rscale>  2 0.29523392E+03</rscale>
<asrwt>0</asrwt>
<pdfrwt beam="1">  1       21 0.16334460E-01 0.29540574E+03</pdfrwt>
<pdfrwt beam="2">  1       21 0.12891588E+00 0.29540574E+03</pdfrwt>
<totfact> 0.13977717E+04</totfact>
</mgrwt>
</event>
<event>
12    1  0.1410528E-001  0.2226197E+03  0.7546771E-02  0.1133493E+00
         21   -1    0    0  502  503  0.00000000000E+00  0.00000000000E+00  0.61071161967E+03  0.61071161967E+03  0.00000000000E+00 0. -1.
         21   -1    0    0  503  504 -0.00000000000E+00 -0.00000000000E+00 -0.99614382278E+02  0.99614382278E+02  0.00000000000E+00 0. -1.
         -6    2    1    2    0  504 -0.13589761459E+03 -0.40607398076E+02  0.86978811721E+02  0.23133124714E+03  0.16072246198E+03 0.  0.
        -24    2    3    3    0    0 -0.11319673249E+03 -0.36421950066E+02  0.13179932592E+01  0.14249030026E+03  0.78496432201E+02 0.  0.
          6    2    1    2  502    0  0.13589761459E+03  0.40607398076E+02  0.42411842568E+03  0.47899475481E+03  0.17158791830E+03 0.  0.
         24    2    5    5    0    0  0.32949863328E+02  0.49767563600E+02  0.30589756479E+03  0.32189475459E+03  0.80500987591E+02 0.  0.
          4    1    6    6  501    0  0.37092166288E+02  0.68906512961E+02  0.26862108914E+03  0.27978782293E+03  0.00000000000E+00 0. -1.
         -3    1    6    6    0  501 -0.41423029594E+01 -0.19138949361E+02  0.37276475656E+02  0.42106931659E+02  0.00000000000E+00 0.  1.
          5    1    5    5  502    0  0.10294775127E+03 -0.91601655238E+01  0.11822086088E+03  0.15710000023E+03  0.47000000000E+01 0. -1.
         11    1    4    4    0    0 -0.19725223939E+01 -0.30876151950E+02  0.32650052991E+01  0.31110896218E+02  0.00000000000E+00 0. -1.
        -12    1    4    4    0    0 -0.11122421010E+03 -0.55457981160E+01 -0.19470120399E+01  0.11137940404E+03  0.00000000000E+00 0.  1.
         -5    1    3    3    0  504 -0.22700882100E+02 -0.41854480097E+01  0.85660818462E+02  0.88840946881E+02  0.47000000000E+01 0.  1.
<mgrwt>
<rscale>  2 0.22052459E+03</rscale>
<asrwt>0</asrwt>
<pdfrwt beam="1">  1       21 0.93955632E-01 0.22261971E+03</pdfrwt>
<pdfrwt beam="2">  1       21 0.15325290E-01 0.22261971E+03</pdfrwt>
<totfact> 0.35295028E+04</totfact>
</mgrwt>
</event>
<event>
12    1  0.1410528E-001  0.1873377E+03  0.7546771E-02  0.1161471E+00
         21   -1    0    0  502  503  0.00000000000E+00  0.00000000000E+00  0.24402838049E+03  0.24402838049E+03  0.00000000000E+00 0.  1.
         21   -1    0    0  503  504 -0.00000000000E+00 -0.00000000000E+00 -0.14705505786E+03  0.14705505786E+03  0.00000000000E+00 0.  1.
         -6    2    1    2    0  504 -0.55953867078E+02 -0.33036015051E+02  0.84853273477E+02  0.20335409827E+03  0.17300461766E+03 0.  0.
        -24    2    3    3    0    0  0.27555682710E+02  0.16405555153E+02  0.37774936032E+02  0.95387558888E+02  0.81506948837E+02 0.  0.
          6    2    1    2  502    0  0.55953867078E+02  0.33036015051E+02  0.12120049154E+02  0.18772934008E+03  0.17570770046E+03 0.  0.
         24    2    5    5    0    0 -0.28635632796E+02 -0.17277501478E+02  0.19299023440E+02  0.88934294115E+02  0.80114573213E+02 0.  0.
          4    1    6    6  501    0 -0.17646561371E+02 -0.21377336031E+02  0.49390618351E+02  0.56637662426E+02  0.00000000000E+00 0. -1.
         -3    1    6    6    0  501 -0.10989071425E+02  0.40998345524E+01 -0.30091594911E+02  0.32296631689E+02  0.00000000000E+00 0.  1.
          5    1    5    5  502    0  0.84589499874E+02  0.50313516530E+02 -0.71789742856E+01  0.98795045961E+02  0.47000000000E+01 0. -1.
         13    1    4    4    0    0 -0.60798266240E+01 -0.15645811880E+02 -0.16776622633E+02  0.23732062450E+02  0.00000000000E+00 0. -1.
        -14    1    4    4    0    0  0.33635509334E+02  0.32051367034E+02  0.54551558665E+02  0.71655496437E+02  0.00000000000E+00 0.  1.
         -5    1    3    3    0  504 -0.83509549789E+02 -0.49441570205E+02  0.47078337445E+02  0.10796653938E+03  0.47000000000E+01 0.  1.
<mgrwt>
<rscale>  2 0.18670123E+03</rscale>
<asrwt>0</asrwt>
<pdfrwt beam="1">  1       21 0.37542828E-01 0.18733769E+03</pdfrwt>
<pdfrwt beam="2">  1       21 0.22623855E-01 0.18733769E+03</pdfrwt>
<totfact> 0.12552309E+05</totfact>
</mgrwt>
</event>
<event>
12    1  0.1410528E-001  0.1967493E+03  0.7546771E-02  0.1152737E+00
         21   -1    0    0  502  503  0.00000000000E+00  0.00000000000E+00  0.22592689869E+02  0.22592689869E+02  0.00000000000E+00 0. -1.
         21   -1    0    0  503  504 -0.00000000000E+00 -0.00000000000E+00 -0.28991529097E+04  0.28991529097E+04  0.00000000000E+00 0. -1.
         -6    2    1    2    0  504 -0.82846410797E+02  0.42310190308E+02 -0.23783769114E+04  0.23865010000E+04  0.17336842350E+03 0.  0.
        -24    2    3    3    0    0 -0.94749985039E+02  0.90710424788E+02 -0.17676141114E+04  0.17736898010E+04  0.65649999300E+02 0.  0.
          6    2    1    2  502    0  0.82846410797E+02 -0.42310190308E+02 -0.49818330844E+03  0.53524459959E+03  0.17218156870E+03 0.  0.
         24    2    5    5    0    0  0.69851526208E+02 -0.56708572683E+02 -0.50076703895E+03  0.51512132690E+03  0.80543504998E+02 0.  0.
          4    1    6    6  501    0  0.43868919014E+02 -0.76377794674E+02 -0.37417179749E+03  0.38439899013E+03  0.00000000000E+00 0. -1.
         -3    1    6    6    0  501  0.25982607194E+02  0.19669221991E+02 -0.12659524146E+03  0.13072233677E+03  0.00000000000E+00 0.  1.
          5    1    5    5  502    0  0.12994884589E+02  0.14398382376E+02  0.25837305107E+01  0.20123272693E+02  0.47000000000E+01 0. -1.
         13    1    4    4    0    0 -0.57108745826E+02  0.21549998686E+02 -0.10490694580E+04  0.10508437272E+04  0.00000000000E+00 0. -1.
        -14    1    4    4    0    0 -0.37641239213E+02  0.69160426102E+02 -0.71854465338E+03  0.72284607375E+03  0.00000000000E+00 0.  1.
         -5    1    3    3    0  504  0.11903574242E+02 -0.48400234481E+02 -0.61076280003E+03  0.61281119904E+03  0.47000000000E+01 0.  1.
<mgrwt>
<rscale>  2 0.19648753E+03</rscale>
<asrwt>0</asrwt>
<pdfrwt beam="1">  1       21 0.34758004E-02 0.19674931E+03</pdfrwt>
<pdfrwt beam="2">  1       21 0.44602328E+00 0.19674931E+03</pdfrwt>
<totfact> 0.21770003E+03</totfact>
</mgrwt>
</event>
<event>
12    1  0.1410528E-001  0.2118656E+03  0.7546771E-02  0.1140170E+00
         21   -1    0    0  502  503  0.00000000000E+00  0.00000000000E+00  0.47079224435E+03  0.47079224435E+03  0.00000000000E+00 0. -1.
         21   -1    0    0  503  504 -0.00000000000E+00 -0.00000000000E+00 -0.96609763612E+02  0.96609763612E+02  0.00000000000E+00 0. -1.
         -6    2    1    2    0  504 -0.10098653322E+03  0.68559382355E+02  0.22181035416E+03  0.30673581637E+03  0.17317147292E+03 0.  0.
        -24    2    3    3    0    0 -0.97453669591E+02  0.10470705799E+03  0.21484209926E+03  0.26945603424E+03  0.77386310574E+02 0.  0.
          6    2    1    2  502    0  0.10098653322E+03 -0.68559382355E+02  0.15237212659E+03  0.26066619160E+03  0.17271632720E+03 0.  0.
         24    2    5    5    0    0  0.13871613899E+03 -0.61585148377E+02  0.13721340006E+03  0.21914462996E+03  0.78498114418E+02 0.  0.
          2    1    6    6  501    0  0.14660980577E+03 -0.66291824607E+02  0.12443133444E+03  0.20340156869E+03  0.00000000000E+00 0. -1.
         -1    1    6    6    0  501 -0.78936667807E+01  0.47066762298E+01  0.12782065627E+02  0.15743061268E+02  0.00000000000E+00 0.  1.
          5    1    5    5  502    0 -0.37729605769E+02 -0.69742339785E+01  0.15158726522E+02  0.41521561637E+02  0.47000000000E+01 0. -1.
         11    1    4    4    0    0 -0.32378324160E+02  0.47188797073E+02  0.15153289876E+03  0.16197949824E+03  0.00000000000E+00 0. -1.
        -12    1    4    4    0    0 -0.65075345432E+02  0.57518260917E+02  0.63309200502E+02  0.10747653600E+03  0.00000000000E+00 0.  1.
         -5    1    3    3    0  504 -0.35328636257E+01 -0.36147675634E+02  0.69682548916E+01  0.37279782127E+02  0.47000000000E+01 0.  1.
<mgrwt>
<rscale>  2 0.21177256E+03</rscale>
<asrwt>0</asrwt>
<pdfrwt beam="1">  1       21 0.72429575E-01 0.21186559E+03</pdfrwt>
<pdfrwt beam="2">  1       21 0.14863041E-01 0.21186559E+03</pdfrwt>
<totfact> 0.67943112E+04</totfact>
</mgrwt>
</event>
<event>
12    1  0.1410528E-001  0.6839495E+03  0.7546771E-02  0.9745686E-01
         21   -1    0    0  502  503  0.00000000000E+00  0.00000000000E+00  0.35549585419E+03  0.35549585419E+03  0.00000000000E+00 0. -1.
         21   -1    0    0  503  504 -0.00000000000E+00 -0.00000000000E+00 -0.18994339573E+04  0.18994339573E+04  0.00000000000E+00 0.  1.
         -6    2    1    2    0  504 -0.23233067971E+02  0.66001060286E+03 -0.13977788535E+04  0.15555375763E+04  0.17250407739E+03 0.  0.
        -24    2    3    3    0    0  0.25950757442E+02  0.50511858677E+03 -0.11550589771E+04  0.12633978602E+04  0.78706315375E+02 0.  0.
          6    2    1    2  502    0  0.23233067971E+02 -0.66001060286E+03 -0.14615924960E+03  0.69939223515E+03  0.17785724896E+03 0.  0.
         24    2    5    5    0    0  0.70046114150E+02 -0.33084765220E+03 -0.11134786669E+03  0.36506659784E+03  0.80676182178E+02 0.  0.
          4    1    6    6  501    0  0.34648720592E+02 -0.21144537452E+03 -0.10924973428E+03  0.24051025901E+03  0.00000000000E+00 0. -1.
         -3    1    6    6    0  501  0.35397393558E+02 -0.11940227767E+03 -0.20981324057E+01  0.12455633883E+03  0.00000000000E+00 0.  1.
          5    1    5    5  502    0 -0.46813046179E+02 -0.32916295066E+03 -0.34811382907E+02  0.33432563731E+03  0.47000000000E+01 0. -1.
         11    1    4    4    0    0 -0.20229290950E+02  0.44236410645E+02 -0.11445101883E+03  0.12435883543E+03  0.00000000000E+00 0. -1.
        -12    1    4    4    0    0  0.46180048392E+02  0.46088217613E+03 -0.10406079583E+04  0.11390390248E+04  0.00000000000E+00 0.  1.
         -5    1    3    3    0  504 -0.49183825413E+02  0.15489201608E+03 -0.24271987637E+03  0.29213971609E+03  0.47000000000E+01 0.  1.
<mgrwt>
<rscale>  2 0.68360616E+03</rscale>
<asrwt>0</asrwt>
<pdfrwt beam="1">  1       21 0.54691669E-01 0.68394954E+03</pdfrwt>
<pdfrwt beam="2">  1       21 0.29222061E+00 0.68394954E+03</pdfrwt>
<totfact> 0.82046480E+01</totfact>
</mgrwt>
</event>
<event>
12    1  0.1410528E-001  0.2115989E+03  0.7546771E-02  0.1140358E+00
         21   -1    0    0  502  503  0.00000000000E+00  0.00000000000E+00  0.22142315857E+03  0.22142315857E+03  0.00000000000E+00 0. -1.
         21   -1    0    0  503  504 -0.00000000000E+00 -0.00000000000E+00 -0.50538855680E+03  0.50538855680E+03  0.00000000000E+00 0.  1.
         -6    2    1    2    0  504  0.42279747095E+02 -0.11439178807E+03 -0.42353162965E+03  0.47333027124E+03  0.17259619393E+03 0.  0.
        -24    2    3    3    0    0  0.40009628143E+02 -0.11599296634E+02 -0.10498073696E+03  0.13856436651E+03  0.80273373578E+02 0.  0.
          6    2    1    2  502    0 -0.42279747095E+02  0.11439178807E+03  0.13956623142E+03  0.25348144413E+03  0.17291920475E+03 0.  0.
         24    2    5    5    0    0 -0.69529930061E+02  0.45144122688E+02  0.13686938875E+03  0.17886794272E+03  0.79925642732E+02 0.  0.
          2    1    6    6  501    0 -0.67970286238E+01  0.20557706948E+02  0.99482542550E+02  0.10181156705E+03  0.00000000000E+00 0. -1.
         -1    1    6    6    0  501 -0.62732901438E+02  0.24586415739E+02  0.37386846204E+02  0.77056375666E+02  0.00000000000E+00 0.  1.
          5    1    5    5  502    0  0.27250182967E+02  0.69247665379E+02  0.26968426684E+01  0.74613501409E+02  0.47000000000E+01 0. -1.
         11    1    4    4    0    0  0.26422654910E+02 -0.44554689866E+02 -0.44167387323E+02  0.68073748130E+02  0.00000000000E+00 0. -1.
        -12    1    4    4    0    0  0.13586973233E+02  0.32955393232E+02 -0.60813349638E+02  0.70490618375E+02  0.00000000000E+00 0.  1.
         -5    1    3    3    0  504  0.22701189519E+01 -0.10279249143E+03 -0.31855089269E+03  0.33476590473E+03  0.47000000000E+01 0.  1.
<mgrwt>
<rscale>  2 0.21153293E+03</rscale>
<asrwt>0</asrwt>
<pdfrwt beam="1">  1       21 0.34065102E-01 0.21159894E+03</pdfrwt>
<pdfrwt beam="2">  1       21 0.77752085E-01 0.21159894E+03</pdfrwt>
<totfact> 0.12026035E+04</totfact>
</mgrwt>
</event>
<event>
12    1  0.1410528E-001  0.1851373E+03  0.7546771E-02  0.1163066E+00
         21   -1    0    0  502  503  0.00000000000E+00  0.00000000000E+00  0.22404179991E+03  0.22404179991E+03  0.00000000000E+00 0. -1.
         21   -1    0    0  503  504 -0.00000000000E+00 -0.00000000000E+00 -0.17057779625E+03  0.17057779625E+03  0.00000000000E+00 0. -1.
         -6    2    1    2    0  504 -0.62583569511E+02  0.28226053022E+01 -0.37496945768E+02  0.18889638500E+03  0.17421582320E+03 0.  0.
        -24    2    3    3    0    0 -0.86981253476E+02 -0.37716822712E+02  0.58707165193E+01  0.12454161565E+03  0.80547200721E+02 0.  0.
          6    2    1    2  502    0  0.62583569511E+02 -0.28226053022E+01  0.90960949425E+02  0.20572321116E+03  0.17356115642E+03 0.  0.
         24    2    5    5    0    0  0.10197538781E+03 -0.25110691043E+01  0.27913636126E+02  0.13123249954E+03  0.77701432836E+02 0.  0.
          4    1    6    6  501    0  0.57012123818E+02  0.26715765817E+02 -0.12364284704E+02  0.64163774372E+02  0.00000000000E+00 0. -1.
         -3    1    6    6    0  501  0.44963263995E+02 -0.29226834921E+02  0.40277920830E+02  0.67068725163E+02  0.00000000000E+00 0.  1.
          5    1    5    5  502    0 -0.39391818303E+02 -0.31153619783E+00  0.63047313300E+02  0.74490711624E+02  0.47000000000E+01 0. -1.
         13    1    4    4    0    0 -0.12792294856E+01 -0.32080592830E+02  0.19523395532E+02  0.37576107269E+02  0.00000000000E+00 0. -1.
        -14    1    4    4    0    0 -0.85702023991E+02 -0.56362298818E+01 -0.13652679013E+02  0.86965508379E+02  0.00000000000E+00 0.  1.
         -5    1    3    3    0  504  0.24397683966E+02  0.40539428014E+02 -0.43367662287E+02  0.64354769356E+02  0.47000000000E+01 0.  1.
<mgrwt>
<rscale>  2 0.18498314E+03</rscale>
<asrwt>0</asrwt>
<pdfrwt beam="1">  1       21 0.34467969E-01 0.18513731E+03</pdfrwt>
<pdfrwt beam="2">  1       21 0.26242738E-01 0.18513731E+03</pdfrwt>
<totfact> 0.11227843E+05</totfact>
</mgrwt>
</event>
<event>
12    1  0.1410528E-001  0.2520948E+03  0.7546771E-02  0.1112081E+00
         21   -1    0    0  502  503  0.00000000000E+00  0.00000000000E+00  0.78793989984E+02  0.78793989984E+02  0.00000000000E+00 0. -1.
         21   -1    0    0  503  504 -0.00000000000E+00 -0.00000000000E+00 -0.15463095507E+04  0.15463095507E+04  0.00000000000E+00 0.  1.
         -6    2    1    2    0  504 -0.17883673670E+03 -0.36481744460E+02 -0.12960406125E+04  0.13202175885E+04  0.17303096746E+03 0.  0.
        -24    2    3    3    0    0 -0.89969522964E+02  0.21811199097E+02 -0.32600626195E+03  0.34436709781E+03  0.61142225668E+02 0.  0.
          6    2    1    2  502    0  0.17883673670E+03  0.36481744460E+02 -0.17147494822E+03  0.30488595218E+03  0.17389160387E+03 0.  0.
         24    2    5    5    0    0  0.11974268207E+03  0.68459154702E+02 -0.52660454605E+02  0.16830763782E+03  0.80804527715E+02 0.  0.
          4    1    6    6  501    0  0.10702084976E+03  0.21723594905E+02 -0.23279973928E+02  0.11165721672E+03  0.00000000000E+00 0. -1.
         -3    1    6    6    0  501  0.12721832308E+02  0.46735559797E+02 -0.29380480676E+02  0.56650421107E+02  0.00000000000E+00 0.  1.
          5    1    5    5  502    0  0.59094054628E+02 -0.31977410241E+02 -0.11881449362E+03  0.13657831435E+03  0.47000000000E+01 0. -1.
         13    1    4    4    0    0 -0.48437986612E+02 -0.94938606637E+01 -0.89487860613E+02  0.10219808772E+03  0.00000000000E+00 0. -1.
        -14    1    4    4    0    0 -0.41531536352E+02  0.31305059761E+02 -0.23651840133E+03  0.24216901009E+03  0.00000000000E+00 0.  1.
         -5    1    3    3    0  504 -0.88867213731E+02 -0.58292943558E+02 -0.97003435056E+03  0.97585049071E+03  0.47000000000E+01 0.  1.
<mgrwt>
<rscale>  2 0.25194644E+03</rscale>
<asrwt>0</asrwt>
<pdfrwt beam="1">  1       21 0.12122153E-01 0.25209480E+03</pdfrwt>
<pdfrwt beam="2">  1       21 0.23789377E+00 0.25209480E+03</pdfrwt>
<totfact> 0.42814097E+03</totfact>
</mgrwt>
</event>
<event>
12    1  0.1410528E-001  0.2072874E+03  0.7546771E-02  0.1143897E+00
         21   -1    0    0  502  503  0.00000000000E+00  0.00000000000E+00  0.46617351499E+02  0.46617351499E+02  0.00000000000E+00 0.  1.
         21   -1    0    0  503  504 -0.00000000000E+00 -0.00000000000E+00 -0.11783415161E+04  0.11783415161E+04  0.00000000000E+00 0. -1.
         -6    2    1    2    0  504  0.11192509289E+03  0.17135303441E+02 -0.85456662588E+03  0.87934759182E+03  0.17362956010E+03 0.  0.
        -24    2    3    3    0    0  0.12821979716E+03 -0.14721125243E+02 -0.79716887837E+03  0.81154684806E+03  0.80455192766E+02 0.  0.
          6    2    1    2  502    0 -0.11192509289E+03 -0.17135303441E+02 -0.27715753871E+03  0.34561127576E+03  0.17265574890E+03 0.  0.
         24    2    5    5    0    0 -0.41224471418E+01 -0.48916191372E+02 -0.12019010446E+03  0.15249913041E+03  0.80003345040E+02 0.  0.
          2    1    6    6  501    0 -0.36960455674E+02 -0.28679752794E+02 -0.33275158951E+02  0.57409404344E+02  0.00000000000E+00 0. -1.
         -1    1    6    6    0  501  0.32838008532E+02 -0.20236438578E+02 -0.86914945512E+02  0.95089726070E+02  0.00000000000E+00 0.  1.
          5    1    5    5  502    0 -0.10780264574E+03  0.31780887932E+02 -0.15696743425E+03  0.19311214535E+03  0.47000000000E+01 0. -1.
         11    1    4    4    0    0  0.45484979907E+02  0.78039759866E+01 -0.50364437943E+03  0.50575433401E+03  0.00000000000E+00 0. -1.
        -12    1    4    4    0    0  0.82734817254E+02 -0.22525101230E+02 -0.29352449893E+03  0.30579251405E+03  0.00000000000E+00 0.  1.
         -5    1    3    3    0  504 -0.16294704274E+02  0.31856428684E+02 -0.57397747510E+02  0.67800743765E+02  0.47000000000E+01 0.  1.
<mgrwt>
<rscale>  2 0.20708335E+03</rscale>
<asrwt>0</asrwt>
<pdfrwt beam="1">  1       21 0.71719009E-02 0.20728741E+03</pdfrwt>
<pdfrwt beam="2">  1       21 0.18128329E+00 0.20728741E+03</pdfrwt>
<totfact> 0.25610133E+04</totfact>
</mgrwt>
</event>
<event>
12    1  0.1410528E-001  0.1944030E+03  0.7546771E-02  0.1155005E+00
         21   -1    0    0  502  503  0.00000000000E+00  0.00000000000E+00  0.10411158840E+03  0.10411158840E+03  0.00000000000E+00 0.  1.
         21   -1    0    0  503  504 -0.00000000000E+00 -0.00000000000E+00 -0.46646394787E+03  0.46646394787E+03  0.00000000000E+00 0.  1.
         -6    2    1    2    0  504  0.65423962481E+02  0.58856691116E+02 -0.31876657267E+03  0.37336931805E+03  0.17334392073E+03 0.  0.
        -24    2    3    3    0    0  0.61878581254E+02 -0.14095574899E+02 -0.10179575288E+03  0.14438672158E+03  0.80358608838E+02 0.  0.
          6    2    1    2  502    0 -0.65423962481E+02 -0.58856691116E+02 -0.43585786792E+02  0.19720621822E+03  0.17101510675E+03 0.  0.
         24    2    5    5    0    0  0.14747258468E+02 -0.34528800701E+02  0.20441322563E+02  0.91656080118E+02  0.81075703169E+02 0.  0.
          4    1    6    6  501    0  0.20346599796E+02  0.21686484734E+02  0.18715485693E+02  0.35136265426E+02  0.00000000000E+00 0. -1.
         -3    1    6    6    0  501 -0.55993413281E+01 -0.56215285435E+02  0.17258368703E+01  0.56519814692E+02  0.00000000000E+00 0.  1.
          5    1    5    5  502    0 -0.80171220949E+02 -0.24327890415E+02 -0.64027109355E+02  0.10555013810E+03  0.47000000000E+01 0. -1.
         13    1    4    4    0    0  0.33352892555E+02  0.15974141961E+02 -0.28263236651E+01  0.37088768632E+02  0.00000000000E+00 0. -1.
        -14    1    4    4    0    0  0.28525688699E+02 -0.30069716861E+02 -0.98969429211E+02  0.10729795294E+03  0.00000000000E+00 0.  1.
         -5    1    3    3    0  504  0.35453812265E+01  0.72952266016E+02 -0.21697081980E+03  0.22898259647E+03  0.47000000000E+01 0.  1.
<mgrwt>
<rscale>  2 0.19388248E+03</rscale>
<asrwt>0</asrwt>
<pdfrwt beam="1">  1       21 0.16017168E-01 0.19440298E+03</pdfrwt>
<pdfrwt beam="2">  1       21 0.71763683E-01 0.19440298E+03</pdfrwt>
<totfact> 0.60983819E+04</totfact>
</mgrwt>
</event>
<event>
12    1  0.1410528E-001  0.1783496E+03  0.7546771E-02  0.1169632E+00
         21   -1    0    0  502  503  0.00000000000E+00  0.00000000000E+00  0.10627256453E+03  0.10627256453E+03  0.00000000000E+00 0. -1.
         21   -1    0    0  503  504 -0.00000000000E+00 -0.00000000000E+00 -0.54256747523E+03  0.54256747523E+03  0.00000000000E+00 0. -1.
         -6    2    1    2    0  504 -0.27446881296E+02  0.31325014999E+02 -0.43635221722E+03  0.47139351418E+03  0.17341856843E+03 0.  0.
        -24    2    3    3    0    0  0.18191090949E+02 -0.28162828992E+02 -0.12923715209E+03  0.15522365267E+03  0.79171207785E+02 0.  0.
          6    2    1    2  502    0  0.27446881296E+02 -0.31325014999E+02  0.57306520381E-01  0.17744652559E+03  0.17248964694E+03 0.  0.
         24    2    5    5    0    0 -0.14134594347E+02 -0.60900406563E+02 -0.41146872896E+02  0.11169245876E+03  0.82906537249E+02 0.  0.
          2    1    6    6  501    0 -0.40180406868E+02 -0.34322650431E+02  0.42243067774E+01  0.53012773898E+02  0.00000000000E+00 0. -1.
         -1    1    6    6    0  501  0.26045812521E+02 -0.26577756132E+02 -0.45371179673E+02  0.58679684865E+02  0.00000000000E+00 0.  1.
          5    1    5    5  502    0  0.41581475642E+02  0.29575391564E+02  0.41204179416E+02  0.65754066826E+02  0.47000000000E+01 0. -1.
         11    1    4    4    0    0  0.11312045378E+01  0.59131799216E+01 -0.11403749014E+03  0.11419629800E+03  0.00000000000E+00 0. -1.
        -12    1    4    4    0    0  0.17059886412E+02 -0.34076008914E+02 -0.15199661953E+02  0.41027354672E+02  0.00000000000E+00 0.  1.
         -5    1    3    3    0  504 -0.45637972245E+02  0.59487843991E+02 -0.30711506513E+03  0.31616986151E+03  0.47000000000E+01 0.  1.
<mgrwt>
<rscale>  2 0.17812342E+03</rscale>
<asrwt>0</asrwt>
<pdfrwt beam="1">  1       21 0.16349625E-01 0.17834962E+03</pdfrwt>
<pdfrwt beam="2">  1       21 0.83471921E-01 0.17834962E+03</pdfrwt>
<totfact> 0.42163722E+04</totfact>
</mgrwt>
</event>
<event>
12    1  0.1410528E-001  0.1996102E+03  0.7546771E-02  0.1150248E+00
         21   -1    0    0  502  503  0.00000000000E+00  0.00000000000E+00  0.68912012865E+03  0.68912012865E+03  0.00000000000E+00 0.  1.
         21   -1    0    0  503  504 -0.00000000000E+00 -0.00000000000E+00 -0.10376261196E+03  0.10376261196E+03  0.00000000000E+00 0.  1.
         -6    2    1    2    0  504  0.84636121333E+02 -0.50780173238E+02  0.28524311598E+02  0.20163795194E+03  0.17350022560E+03 0.  0.
        -24    2    3    3    0    0  0.52328219293E+02  0.18554718136E+02 -0.33387624711E+02  0.10311736753E+03  0.80224297456E+02 0.  0.
          6    2    1    2  502    0 -0.84636121333E+02  0.50780173238E+02  0.55683320509E+03  0.59124478867E+03  0.17252618005E+03 0.  0.
         24    2    5    5    0    0 -0.49781669354E+02  0.73295625181E+02  0.20574655022E+03  0.23768332635E+03  0.79443422806E+02 0.  0.
          4    1    6    6  501    0  0.50912386943E+01  0.58506635784E+02  0.76083705867E+02  0.96112837023E+02  0.00000000000E+00 0. -1.
         -3    1    6    6    0  501 -0.54872908048E+02  0.14788989397E+02  0.12966284435E+03  0.14157048933E+03  0.00000000000E+00 0.  1.
          5    1    5    5  502    0 -0.34854451979E+02 -0.22515451943E+02  0.35108665488E+03  0.35356146231E+03  0.47000000000E+01 0. -1.
         13    1    4    4    0    0  0.21908547073E+01  0.41309701890E+02 -0.66130417482E+01  0.41893002229E+02  0.00000000000E+00 0. -1.
        -14    1    4    4    0    0  0.50137364585E+02 -0.22754983755E+02 -0.26774582963E+02  0.61224365298E+02  0.00000000000E+00 0.  1.
         -5    1    3    3    0  504  0.32307902040E+02 -0.69334891374E+02  0.61911936309E+02  0.98520584416E+02  0.47000000000E+01 0.  1.
<mgrwt>
<rscale>  2 0.19939834E+03</rscale>
<asrwt>0</asrwt>
<pdfrwt beam="1">  1       21 0.10601848E+00 0.19961019E+03</pdfrwt>
<pdfrwt beam="2">  1       21 0.15963479E-01 0.19961019E+03</pdfrwt>
<totfact> 0.24890877E+04</totfact>
</mgrwt>
</event>
<event>
12    1  0.1410528E-001  0.1823751E+03  0.7546771E-02  0.1166683E+00
         21   -1    0    0  502  503  0.00000000000E+00  0.00000000000E+00  0.12793108121E+03  0.12793108121E+03  0.00000000000E+00 0. -1.
         21   -1    0    0  503  504 -0.00000000000E+00 -0.00000000000E+00 -0.36576492330E+03  0.36576492330E+03  0.00000000000E+00 0. -1.
         -6    2    1    2    0  504  0.39812764684E+02  0.18899994258E+02 -0.25695666270E+03  0.31509905145E+03  0.17697010963E+03 0.  0.
        -24    2    3    3    0    0 -0.19862086027E+02  0.30732977573E+02 -0.23309772077E+03  0.24958228709E+03  0.81349568104E+02 0.  0.
          6    2    1    2  502    0 -0.39812764684E+02 -0.18899994258E+02  0.19122820603E+02  0.17859695306E+03  0.17201431150E+03 0.  0.
         24    2    5    5    0    0 -0.76187922866E+02 -0.78952025291E+01  0.56501825191E+02  0.12508492116E+03  0.81159395261E+02 0.  0.
          4    1    6    6  501    0 -0.81751914356E+02  0.32214299438E+00  0.70481935605E+02  0.10794064352E+03  0.00000000000E+00 0. -1.
         -3    1    6    6    0  501  0.55639914900E+01 -0.82173455235E+01 -0.13980110414E+02  0.17144277644E+02  0.00000000000E+00 0.  1.
          5    1    5    5  502    0  0.36375158182E+02 -0.11004791729E+02 -0.37379004587E+02  0.53512031897E+02  0.47000000000E+01 0. -1.
         11    1    4    4    0    0  0.45586161394E+01  0.41659539161E+02 -0.53288003252E+02  0.67793137373E+02  0.00000000000E+00 0. -1.
        -12    1    4    4    0    0 -0.24420702166E+02 -0.10926561588E+02 -0.17980971752E+03  0.18178914972E+03  0.00000000000E+00 0.  1.
         -5    1    3    3    0  504  0.59674850711E+02 -0.11832983315E+02 -0.23858941926E+02  0.65516764353E+02  0.47000000000E+01 0.  1.
<mgrwt>
<rscale>  2 0.18116185E+03</rscale>
<asrwt>0</asrwt>
<pdfrwt beam="1">  1       21 0.19681705E-01 0.18237512E+03</pdfrwt>
<pdfrwt beam="2">  1       21 0.56271527E-01 0.18237512E+03</pdfrwt>
<totfact> 0.70990008E+04</totfact>
</mgrwt>
</event>
<event>
12    1  0.1410528E-001  0.1839149E+03  0.7546771E-02  0.1164299E+00
         21   -1    0    0  502  503  0.00000000000E+00  0.00000000000E+00  0.24103474762E+03  0.24103474762E+03  0.00000000000E+00 0.  1.
         21   -1    0    0  503  504 -0.00000000000E+00 -0.00000000000E+00 -0.13991452029E+03  0.13991452029E+03  0.00000000000E+00 0.  1.
         -6    2    1    2    0  504 -0.14972797794E+02 -0.49089644234E+02  0.59708503211E+02  0.19242967526E+03  0.17558501280E+03 0.  0.
        -24    2    3    3    0    0 -0.52707824633E+02 -0.32837743118E+02 -0.19274624117E+02  0.10327542161E+03  0.80236334811E+02 0.  0.
          6    2    1    2  502    0  0.14972797794E+02  0.49089644234E+02  0.41411724119E+02  0.18851959266E+03  0.17660896941E+03 0.  0.
         24    2    5    5    0    0 -0.19568894423E+02  0.98560112652E+01  0.85502426114E+02  0.11997408617E+03  0.81259054225E+02 0.  0.
          2    1    6    6  501    0  0.12769674299E+02 -0.30880555226E+01  0.84092585792E+02  0.85112652724E+02  0.00000000000E+00 0. -1.
         -1    1    6    6    0  501 -0.32338568723E+02  0.12944066788E+02  0.14098403222E+01  0.34861433444E+02  0.00000000000E+00 0.  1.
          5    1    5    5  502    0  0.34541692218E+02  0.39233632969E+02 -0.44090701995E+02  0.68545506488E+02  0.47000000000E+01 0. -1.
         11    1    4    4    0    0 -0.28575348974E+02 -0.55714004069E+02  0.39131974264E+01  0.62736862629E+02  0.00000000000E+00 0. -1.
        -12    1    4    4    0    0 -0.24132475658E+02  0.22876260952E+02 -0.23187821544E+02  0.40538558984E+02  0.00000000000E+00 0.  1.
         -5    1    3    3    0  504  0.37735026838E+02 -0.16251901116E+02  0.78983127328E+02  0.89154253645E+02  0.47000000000E+01 0.  1.
<mgrwt>
<rscale>  2 0.18366868E+03</rscale>
<asrwt>0</asrwt>
<pdfrwt beam="1">  1       21 0.37082269E-01 0.18391494E+03</pdfrwt>
<pdfrwt beam="2">  1       21 0.21525311E-01 0.18391494E+03</pdfrwt>
<totfact> 0.14146694E+05</totfact>
</mgrwt>
</event>
<event>
12    1  0.1410528E-001  0.2075589E+03  0.7546771E-02  0.1143655E+00
         21   -1    0    0  502  503  0.00000000000E+00  0.00000000000E+00  0.20522284932E+03  0.20522284932E+03  0.00000000000E+00 0.  1.
         21   -1    0    0  503  504 -0.00000000000E+00 -0.00000000000E+00 -0.35915996875E+03  0.35915996875E+03  0.00000000000E+00 0. -1.
         -6    2    1    2    0  504 -0.10390250968E+03 -0.46491212761E+02  0.10529005914E+03  0.23273742026E+03  0.17356136049E+03 0.  0.
        -24    2    3    3    0    0 -0.79268643008E+01 -0.36437229505E+02 -0.22222015737E+01  0.88191983504E+02  0.79889804750E+02 0.  0.
          6    2    1    2  502    0  0.10390250968E+03  0.46491212761E+02 -0.25922717857E+03  0.33164539780E+03  0.17272167031E+03 0.  0.
         24    2    5    5    0    0  0.59752341146E+02 -0.34694185856E+02 -0.89793135565E+02  0.13859024698E+03  0.79814914392E+02 0.  0.
          2    1    6    6  501    0  0.65259007833E+02 -0.42548051996E+02 -0.39415978401E+02  0.87308041928E+02  0.00000000000E+00 0. -1.
         -1    1    6    6    0  501 -0.55066666865E+01  0.78538661400E+01 -0.50377157164E+02  0.51282205055E+02  0.00000000000E+00 0.  1.
          5    1    5    5  502    0  0.44150168530E+02  0.81185398616E+02 -0.16943404300E+03  0.19305515082E+03  0.47000000000E+01 0. -1.
         11    1    4    4    0    0 -0.12988528681E+01 -0.61842407264E+02 -0.29500523746E+01  0.61926352743E+02  0.00000000000E+00 0. -1.
        -12    1    4    4    0    0 -0.66280114327E+01  0.25405177759E+02  0.72785080092E+00  0.26265630762E+02  0.00000000000E+00 0.  1.
         -5    1    3    3    0  504 -0.95975645376E+02 -0.10053983255E+02  0.10751226071E+03  0.14454543676E+03  0.47000000000E+01 0.  1.
<mgrwt>
<rscale>  2 0.20738330E+03</rscale>
<asrwt>0</asrwt>
<pdfrwt beam="1">  1       21 0.31572746E-01 0.20755893E+03</pdfrwt>
<pdfrwt beam="2">  1       21 0.55255380E-01 0.20755893E+03</pdfrwt>
<totfact> 0.29542350E+04</totfact>
</mgrwt>
</event>
<event>
12    1  0.1410528E-001  0.1802647E+03  0.7546771E-02  0.1168157E+00
         21   -1    0    0  502  503  0.00000000000E+00  0.00000000000E+00  0.14325238327E+02  0.14325238327E+02  0.00000000000E+00 0.  1.
         21   -1    0    0  503  504 -0.00000000000E+00 -0.00000000000E+00 -0.28243040085E+04  0.28243040085E+04  0.00000000000E+00 0.  1.
         -6    2    1    2    0  504 -0.14044701008E+02 -0.38512036634E+02 -0.20599919333E+04  0.20678641495E+04  0.17554186022E+03 0.  0.
        -24    2    3    3    0    0  0.36292289370E+02 -0.11595506232E+02 -0.17709684128E+04  0.17732203007E+04  0.80805504662E+02 0.  0.
          6    2    1    2  502    0  0.14044701008E+02  0.38512036634E+02 -0.74998683683E+03  0.77076509735E+03  0.17296863668E+03 0.  0.
         24    2    5    5    0    0  0.45279259121E+02  0.35876672898E+02 -0.24220550052E+03  0.26199548518E+03  0.81490998305E+02 0.  0.
          2    1    6    6  501    0  0.58409680378E+02  0.10035991680E+02 -0.21201734392E+03  0.22014487506E+03  0.00000000000E+00 0. -1.
         -1    1    6    6    0  501 -0.13130421257E+02  0.25840681218E+02 -0.30188156596E+02  0.41850610114E+02  0.00000000000E+00 0.  1.
          5    1    5    5  502    0 -0.31234558113E+02  0.26353637361E+01 -0.50778133631E+03  0.50876961217E+03  0.47000000000E+01 0. -1.
         11    1    4    4    0    0 -0.27009377069E+01  0.11836245674E+02 -0.43759404881E+02  0.45412303307E+02  0.00000000000E+00 0. -1.
        -12    1    4    4    0    0  0.38993227077E+02 -0.23431751906E+02 -0.17272090079E+04  0.17278079973E+04  0.00000000000E+00 0.  1.
         -5    1    3    3    0  504 -0.50336990378E+02 -0.26916530402E+02 -0.28902352054E+03  0.29464384880E+03  0.47000000000E+01 0.  1.
<mgrwt>
<rscale>  2 0.17963524E+03</rscale>
<asrwt>0</asrwt>
<pdfrwt beam="1">  1       21 0.22038823E-02 0.18026474E+03</pdfrwt>
<pdfrwt beam="2">  1       21 0.43450840E+00 0.18026474E+03</pdfrwt>
<totfact> 0.56247545E+03</totfact>
</mgrwt>
</event>
<event>
12    1  0.1410528E-001  0.2122962E+03  0.7546771E-02  0.1140229E+00
         21   -1    0    0  502  503  0.00000000000E+00  0.00000000000E+00  0.13122691943E+03  0.13122691943E+03  0.00000000000E+00 0. -1.
         21   -1    0    0  503  504 -0.00000000000E+00 -0.00000000000E+00 -0.37123475224E+03  0.37123475224E+03  0.00000000000E+00 0. -1.
         -6    2    1    2    0  504  0.71851689475E+02 -0.94856932586E+02 -0.19396367367E+03  0.28756143218E+03  0.17581003279E+03 0.  0.
        -24    2    3    3    0    0  0.10707696677E+03 -0.74406933786E+02 -0.93186372145E+02  0.17876264030E+03  0.79186570855E+02 0.  0.
          6    2    1    2  502    0 -0.71851689475E+02  0.94856932586E+02 -0.46044159133E+02  0.21490023949E+03  0.17292063325E+03 0.  0.
         24    2    5    5    0    0 -0.84604723914E+02  0.89314676453E+01 -0.51658287885E+02  0.12772550775E+03  0.80046837540E+02 0.  0.
          2    1    6    6  501    0 -0.26559184872E+02  0.98826763194E+01  0.20600669135E+02  0.35034913459E+02  0.00000000000E+00 0. -1.
         -1    1    6    6    0  501 -0.58045539042E+02 -0.95120867416E+00 -0.72258957020E+02  0.92690594292E+02  0.00000000000E+00 0.  1.
          5    1    5    5  502    0  0.12753034439E+02  0.85925464941E+02  0.56141287520E+01  0.87174731742E+02  0.47000000000E+01 0. -1.
         11    1    4    4    0    0  0.70451274452E+02 -0.81337275512E+02 -0.42159063723E+02  0.11557041626E+03  0.00000000000E+00 0. -1.
        -12    1    4    4    0    0  0.36625692319E+02  0.69303417262E+01 -0.51027308422E+02  0.63192224040E+02  0.00000000000E+00 0.  1.
         -5    1    3    3    0  504 -0.35225277296E+02 -0.20449998800E+02 -0.10077730153E+03  0.10879879188E+03  0.47000000000E+01 0.  1.
<mgrwt>
<rscale>  2 0.21169701E+03</rscale>
<asrwt>0</asrwt>
<pdfrwt beam="1">  1       21 0.20188757E-01 0.21229619E+03</pdfrwt>
<pdfrwt beam="2">  1       21 0.57113038E-01 0.21229619E+03</pdfrwt>
<totfact> 0.64729638E+04</totfact>
</mgrwt>
</event>
<event>
12    1  0.1410528E-001  0.1839097E+03  0.7546771E-02  0.1164645E+00
         21   -1    0    0  502  503  0.00000000000E+00  0.00000000000E+00  0.43275302108E+02  0.43275302108E+02  0.00000000000E+00 0.  1.
         21   -1    0    0  503  504 -0.00000000000E+00 -0.00000000000E+00 -0.79532122895E+03  0.79532122895E+03  0.00000000000E+00 0.  1.
         -6    2    1    2    0  504  0.30660265455E+02 -0.45523029671E+02 -0.45125394359E+03  0.48729138292E+03  0.17552883568E+03 0.  0.
        -24    2    3    3    0    0 -0.26570167929E+02 -0.65824170249E+02 -0.37195758036E+03  0.38730407355E+03  0.81321636640E+02 0.  0.
          6    2    1    2  502    0 -0.30660265455E+02  0.45523029671E+02 -0.30079198326E+03  0.35130514814E+03  0.17299448492E+03 0.  0.
         24    2    5    5    0    0 -0.46796458496E+02 -0.19840198914E+02 -0.24883615232E+03  0.26613339963E+03  0.79523667387E+02 0.  0.
          4    1    6    6  501    0 -0.42361666873E+02 -0.48760481800E+02 -0.18379073705E+03  0.19481049877E+03  0.00000000000E+00 0. -1.
         -3    1    6    6    0  501 -0.44347916231E+01  0.28920282886E+02 -0.65045415278E+02  0.71322900864E+02  0.00000000000E+00 0.  1.
          5    1    5    5  502    0  0.16136193041E+02  0.65363228585E+02 -0.51955830935E+02  0.85171748515E+02  0.47000000000E+01 0. -1.
         13    1    4    4    0    0 -0.41824690878E+02 -0.11760796350E+02 -0.91693829754E+02  0.10146614959E+03  0.00000000000E+00 0. -1.
        -14    1    4    4    0    0  0.15254522949E+02 -0.54063373899E+02 -0.28026375061E+03  0.28583792396E+03  0.00000000000E+00 0.  1.
         -5    1    3    3    0  504  0.57230433384E+02  0.20301140579E+02 -0.79296363227E+02  0.99987309370E+02  0.47000000000E+01 0.  1.
<mgrwt>
<rscale>  2 0.18330236E+03</rscale>
<asrwt>0</asrwt>
<pdfrwt beam="1">  1       21 0.66577395E-02 0.18390968E+03</pdfrwt>
<pdfrwt beam="2">  1       21 0.12235710E+00 0.18390968E+03</pdfrwt>
<totfact> 0.83317775E+04</totfact>
</mgrwt>
</event>
<event>
12    1  0.1410528E-001  0.1996377E+03  0.7546771E-02  0.1150661E+00
         21   -1    0    0  502  503  0.00000000000E+00  0.00000000000E+00  0.20912552071E+03  0.20912552071E+03  0.00000000000E+00 0.  1.
         21   -1    0    0  503  504 -0.00000000000E+00 -0.00000000000E+00 -0.28313474503E+03  0.28313474503E+03  0.00000000000E+00 0.  1.
         -6    2    1    2    0  504  0.10842602846E+02 -0.10052164878E+03 -0.17998046149E+03  0.26879021511E+03  0.17214252615E+03 0.  0.
        -24    2    3    3    0    0 -0.36178558265E+02 -0.10914699181E+03 -0.16823661946E+03  0.21933929034E+03  0.81143146732E+02 0.  0.
          6    2    1    2  502    0 -0.10842602846E+02  0.10052164878E+03  0.10597123717E+03  0.22347005064E+03  0.16878032028E+03 0.  0.
         24    2    5    5    0    0 -0.29727956795E+02  0.12495168592E+03  0.11525756012E+03  0.19088463822E+03  0.81584095977E+02 0.  0.
          4    1    6    6  501    0 -0.34858984633E+02  0.25563209237E+02  0.69262259429E+01  0.43778979910E+02  0.00000000000E+00 0. -1.
         -3    1    6    6    0  501  0.51310278380E+01  0.99388476679E+02  0.10833133418E+03  0.14710565831E+03  0.00000000000E+00 0.  1.
          5    1    5    5  502    0  0.18885353949E+02 -0.24430037138E+02 -0.92863229469E+01  0.32585412414E+02  0.47000000000E+01 0. -1.
         11    1    4    4    0    0 -0.21390513156E+02 -0.15264115668E+01 -0.30889142149E+01  0.21666226630E+02  0.00000000000E+00 0. -1.
        -12    1    4    4    0    0 -0.14788045109E+02 -0.10762058025E+03 -0.16514770524E+03  0.19767306371E+03  0.00000000000E+00 0.  1.
         -5    1    3    3    0  504  0.47021161111E+02  0.86253430346E+01 -0.11743842035E+02  0.49450924768E+02  0.47000000000E+01 0.  1.
<mgrwt>
<rscale>  2 0.19891080E+03</rscale>
<asrwt>0</asrwt>
<pdfrwt beam="1">  1       21 0.32173157E-01 0.19963770E+03</pdfrwt>
<pdfrwt beam="2">  1       21 0.43559192E-01 0.19963770E+03</pdfrwt>
<totfact> 0.46911117E+04</totfact>
</mgrwt>
</event>
<event>
12    1  0.1410528E-001  0.1794796E+03  0.7546771E-02  0.1168580E+00
         21   -1    0    0  502  503  0.00000000000E+00  0.00000000000E+00  0.86382497023E+03  0.86382497023E+03  0.00000000000E+00 0. -1.
         21   -1    0    0  503  504 -0.00000000000E+00 -0.00000000000E+00 -0.38177724172E+02  0.38177724172E+02  0.00000000000E+00 0. -1.
         -6    2    1    2    0  504 -0.44759276791E+02 -0.71002011306E+00  0.33688155149E+03  0.38170943434E+03  0.17380740934E+03 0.  0.
        -24    2    3    3    0    0  0.16293933034E+02 -0.40114922262E+02  0.10531862042E+03  0.13896734530E+03  0.79656839078E+02 0.  0.
          6    2    1    2  502    0  0.44759276791E+02  0.71002011306E+00  0.48876569456E+03  0.52029326006E+03  0.17265362809E+03 0.  0.
         24    2    5    5    0    0  0.23725429419E+02  0.33863005498E+02  0.13044181409E+03  0.15979411097E+03  0.82519645511E+02 0.  0.
          2    1    6    6  501    0  0.99777707301E+01 -0.24830080512E+02  0.67648084684E+02  0.72748554407E+02  0.00000000000E+00 0. -1.
         -1    1    6    6    0  501  0.13747658689E+02  0.58693086010E+02  0.62793729411E+02  0.87045556567E+02  0.00000000000E+00 0.  1.
          5    1    5    5  502    0  0.21033847372E+02 -0.33152985385E+02  0.35832388047E+03  0.36049914908E+03  0.47000000000E+01 0. -1.
         11    1    4    4    0    0  0.15471188426E+02  0.22157027155E+02  0.21434898979E+02  0.34492700937E+02  0.00000000000E+00 0. -1.
        -12    1    4    4    0    0  0.82274460740E+00 -0.62271949417E+02  0.83883721436E+02  0.10447464436E+03  0.00000000000E+00 0.  1.
         -5    1    3    3    0  504 -0.61053209825E+02  0.39404902149E+02  0.23156293108E+03  0.24274208904E+03  0.47000000000E+01 0.  1.
<mgrwt>
<rscale>  2 0.17919963E+03</rscale>
<asrwt>0</asrwt>
<pdfrwt beam="1">  1       21 0.13289614E+00 0.17947956E+03</pdfrwt>
<pdfrwt beam="2">  1       21 0.58734966E-02 0.17947956E+03</pdfrwt>
<totfact> 0.84125406E+04</totfact>
</mgrwt>
</event>
<event>
12    1  0.1410528E-001  0.1849503E+03  0.7546771E-02  0.1163176E+00
         21   -1    0    0  502  503  0.00000000000E+00  0.00000000000E+00  0.45652446660E+03  0.45652446660E+03  0.00000000000E+00 0.  1.
         21   -1    0    0  503  504 -0.00000000000E+00 -0.00000000000E+00 -0.76493094298E+02  0.76493094298E+02  0.00000000000E+00 0.  1.
         -6    2    1    2    0  504  0.25706590003E+02  0.60110823321E+02  0.22993994523E+03  0.29509149162E+03  0.17301002908E+03 0.  0.
        -24    2    3    3    0    0 -0.46411534663E+02  0.16016686945E+02  0.36395799258E+02  0.83841063903E+02  0.57394293988E+02 0.  0.
          6    2    1    2  502    0 -0.25706590003E+02 -0.60110823321E+02  0.15009142707E+03  0.23792606928E+03  0.17264772838E+03 0.  0.
         24    2    5    5    0    0  0.18818389572E+02  0.69278261036E+01  0.18369321080E+02  0.83493373491E+02  0.78940388264E+02 0.  0.
          2    1    6    6  501    0  0.11821460195E+02  0.42435059486E+02  0.29320605401E+01  0.44148365470E+02  0.00000000000E+00 0. -1.
         -1    1    6    6    0  501  0.69969293775E+01 -0.35507233382E+02  0.15437260540E+02  0.39345008021E+02  0.00000000000E+00 0.  1.
          5    1    5    5  502    0 -0.44524979575E+02 -0.67038649425E+02  0.13172210599E+03  0.15443269579E+03  0.47000000000E+01 0. -1.
         11    1    4    4    0    0 -0.29100374783E+02 -0.76774934057E+01 -0.75220359907E+01  0.31021875233E+02  0.00000000000E+00 0. -1.
        -12    1    4    4    0    0 -0.17311159879E+02  0.23694180350E+02  0.43917835249E+02  0.52819188670E+02  0.00000000000E+00 0.  1.
         -5    1    3    3    0  504  0.72118124665E+02  0.44094136376E+02  0.19354414597E+03  0.21125042771E+03  0.47000000000E+01 0.  1.
<mgrwt>
<rscale>  2 0.18486552E+03</rscale>
<asrwt>0</asrwt>
<pdfrwt beam="1">  1       21 0.70234532E-01 0.18495029E+03</pdfrwt>
<pdfrwt beam="2">  1       21 0.11768169E-01 0.18495029E+03</pdfrwt>
<totfact> 0.11208448E+05</totfact>
</mgrwt>
</event>
<event>
12    1  0.1410528E-001  0.2606134E+03  0.7546771E-02  0.1107076E+00
         21   -1    0    0  502  503  0.00000000000E+00  0.00000000000E+00  0.11918494807E+03  0.11918494807E+03  0.00000000000E+00 0.  1.
         21   -1    0    0  503  504 -0.00000000000E+00 -0.00000000000E+00 -0.11099763063E+04  0.11099763063E+04  0.00000000000E+00 0.  1.
         -6    2    1    2    0  504 -0.24813291560E+02 -0.19239438271E+03 -0.92680534751E+03  0.96274996485E+03  0.17403460778E+03 0.  0.
        -24    2    3    3    0    0  0.98753951518E+01 -0.55115222769E+02 -0.58008815835E+03  0.58820521185E+03  0.79673637908E+02 0.  0.
          6    2    1    2  502    0  0.24813291560E+02  0.19239438271E+03 -0.63986010707E+02  0.26641128951E+03  0.17102475750E+03 0.  0.
         24    2    5    5    0    0 -0.12839745560E+02  0.20281975211E+03 -0.56127934480E+02  0.22628300904E+03  0.82176299742E+02 0.  0.
          4    1    6    6  501    0  0.11566633333E+02  0.16035643911E+03 -0.70041351912E+02  0.17536751566E+03  0.00000000000E+00 0. -1.
         -3    1    6    6    0  501 -0.24406378893E+02  0.42463313005E+02  0.13913417433E+02  0.50915493386E+02  0.00000000000E+00 0.  1.
          5    1    5    5  502    0  0.37653037120E+02 -0.10425369402E+02 -0.78580762280E+01  0.40128280471E+02  0.47000000000E+01 0. -1.
         13    1    4    4    0    0  0.40717627654E+02 -0.17771678258E+02 -0.36716122397E+03  0.36983931935E+03  0.00000000000E+00 0. -1.
        -14    1    4    4    0    0 -0.30842232502E+02 -0.37343544511E+02 -0.21292693438E+03  0.21836589250E+03  0.00000000000E+00 0.  1.
         -5    1    3    3    0  504 -0.34688686712E+02 -0.13727915994E+03 -0.34671718916E+03  0.37454475300E+03  0.47000000000E+01 0.  1.
<mgrwt>
<rscale>  2 0.26011189E+03</rscale>
<asrwt>0</asrwt>
<pdfrwt beam="1">  1       21 0.18336147E-01 0.26061340E+03</pdfrwt>
<pdfrwt beam="2">  1       21 0.17076558E+00 0.26061340E+03</pdfrwt>
<totfact> 0.54311859E+03</totfact>
</mgrwt>
</event>
<event>
12    1  0.1410528E-001  0.1805195E+03  0.7546771E-02  0.1167957E+00
         21   -1    0    0  502  503  0.00000000000E+00  0.00000000000E+00  0.55966146769E+02  0.55966146769E+02  0.00000000000E+00 0. -1.
         21   -1    0    0  503  504 -0.00000000000E+00 -0.00000000000E+00 -0.91726506624E+03  0.91726506624E+03  0.00000000000E+00 0. -1.
         -6    2    1    2    0  504 -0.36077756136E+02 -0.37531723817E+02 -0.72647429855E+03  0.74792036909E+03  0.17002863658E+03 0.  0.
        -24    2    3    3    0    0 -0.17372324012E+02  0.44421564599E+02 -0.37591600181E+03  0.38739374859E+03  0.80535724899E+02 0.  0.
          6    2    1    2  502    0  0.36077756136E+02  0.37531723817E+02 -0.13482462092E+03  0.22531084392E+03  0.17284982847E+03 0.  0.
         24    2    5    5    0    0  0.77426460179E+02  0.24786204402E+02 -0.40850321135E+02  0.12174722767E+03  0.80897626939E+02 0.  0.
          2    1    6    6  501    0  0.59496163971E+02  0.31376704669E+02  0.94668472482E+01  0.67925785384E+02  0.00000000000E+00 0. -1.
         -1    1    6    6    0  501  0.17930296208E+02 -0.65905002665E+01 -0.50317168383E+02  0.53821442288E+02  0.00000000000E+00 0.  1.
          5    1    5    5  502    0 -0.41348704043E+02  0.12745519415E+02 -0.93974299780E+02  0.10356361625E+03  0.47000000000E+01 0. -1.
         11    1    4    4    0    0  0.43050316255E+01  0.38736535659E+02 -0.35368931540E+03  0.35583027460E+03  0.00000000000E+00 0. -1.
        -12    1    4    4    0    0 -0.21677355638E+02  0.56850289400E+01 -0.22226686407E+02  0.31563473987E+02  0.00000000000E+00 0.  1.
         -5    1    3    3    0  504 -0.18705432124E+02 -0.81953288417E+02 -0.35055829674E+03  0.36052662050E+03  0.47000000000E+01 0.  1.
<mgrwt>
<rscale>  2 0.17984084E+03</rscale>
<asrwt>0</asrwt>
<pdfrwt beam="1">  1       21 0.86101767E-02 0.18051952E+03</pdfrwt>
<pdfrwt beam="2">  1       21 0.14111770E+00 0.18051952E+03</pdfrwt>
<totfact> 0.37266365E+04</totfact>
</mgrwt>
</event>
<event>
12    1  0.1410528E-001  0.1842870E+03  0.7546771E-02  0.1164126E+00
         21   -1    0    0  502  503  0.00000000000E+00  0.00000000000E+00  0.74751963766E+03  0.74751963766E+03  0.00000000000E+00 0. -1.
         21   -1    0    0  503  504 -0.00000000000E+00 -0.00000000000E+00 -0.51593065604E+02  0.51593065604E+02  0.00000000000E+00 0. -1.
         -6    2    1    2    0  504  0.33683452753E+00  0.58630477524E+02  0.20377033413E+03  0.27358491514E+03  0.17288351676E+03 0.  0.
        -24    2    3    3    0    0 -0.46721747196E+02  0.36378353760E+01  0.16793804889E+03  0.19268532633E+03  0.82026161747E+02 0.  0.
          6    2    1    2  502    0 -0.33683452753E+00 -0.58630477524E+02  0.49215623793E+03  0.52552778813E+03  0.17471132536E+03 0.  0.
         24    2    5    5    0    0 -0.61371688431E+02 -0.25757931387E+02  0.38241065131E+03  0.39563536548E+03  0.76547246897E+02 0.  0.
          4    1    6    6  501    0 -0.21096290487E+02 -0.42854087652E+02  0.28327236494E+03  0.28727122905E+03  0.00000000000E+00 0. -1.
         -3    1    6    6    0  501 -0.40275397944E+02  0.17096156265E+02  0.99138286375E+02  0.10836413643E+03  0.00000000000E+00 0.  1.
          5    1    5    5  502    0  0.61034853904E+02 -0.32872546137E+02  0.10974558662E+03  0.12989242265E+03  0.47000000000E+01 0. -1.
         11    1    4    4    0    0 -0.17045229232E+02 -0.55707874336E+01 -0.36554065120E+01  0.18301243372E+02  0.00000000000E+00 0. -1.
        -12    1    4    4    0    0 -0.29676517964E+02  0.92086228095E+01  0.17159345540E+03  0.17438408296E+03  0.00000000000E+00 0.  1.
         -5    1    3    3    0  504  0.47058581724E+02  0.54992642148E+02  0.35832285243E+02  0.80899588812E+02  0.47000000000E+01 0.  1.
<mgrwt>
<rscale>  2 0.18385248E+03</rscale>
<asrwt>0</asrwt>
<pdfrwt beam="1">  1       21 0.11500301E+00 0.18428699E+03</pdfrwt>
<pdfrwt beam="2">  1       21 0.79373953E-02 0.18428699E+03</pdfrwt>
<totfact> 0.71595246E+04</totfact>
</mgrwt>
</event>
<event>
12    1  0.1410528E-001  0.1899268E+03  0.7546771E-02  0.1159047E+00
         21   -1    0    0  502  503  0.00000000000E+00  0.00000000000E+00  0.13156887442E+04  0.13156887442E+04  0.00000000000E+00 0. -1.
         21   -1    0    0  503  504 -0.00000000000E+00 -0.00000000000E+00 -0.43222501623E+02  0.43222501623E+02  0.00000000000E+00 0. -1.
         -6    2    1    2    0  504 -0.61865142860E+02  0.38879979689E+02  0.21868680682E+03  0.28815297086E+03  0.17282727336E+03 0.  0.
        -24    2    3    3    0    0 -0.81518195919E+02  0.19969840680E+02  0.64878177767E+02  0.13187430878E+03  0.78343120709E+02 0.  0.
          6    2    1    2  502    0  0.61865142860E+02 -0.38879979689E+02  0.10537794358E+04  0.10707582750E+04  0.17530897140E+03 0.  0.
         24    2    5    5    0    0  0.18746660370E+02 -0.16447370888E+02  0.97052210025E+03  0.97423729597E+03  0.81260128615E+02 0.  0.
          2    1    6    6  501    0  0.20497884065E+02 -0.36473778769E+02  0.89818126191E+03  0.89915520297E+03  0.00000000000E+00 0. -1.
         -1    1    6    6    0  501 -0.17512236943E+01  0.20026407881E+02  0.72340838341E+02  0.75082092998E+02  0.00000000000E+00 0.  1.
          5    1    5    5  502    0  0.43118482490E+02 -0.22432608802E+02  0.83257335518E+02  0.96520979001E+02  0.47000000000E+01 0. -1.
         13    1    4    4    0    0 -0.85915717123E+01 -0.10350338286E+02 -0.14583304010E+02  0.19839792413E+02  0.00000000000E+00 0. -1.
        -14    1    4    4    0    0 -0.72926624207E+02  0.30320178966E+02  0.79461481777E+02  0.11203451636E+03  0.00000000000E+00 0.  1.
         -5    1    3    3    0  504  0.19653053059E+02  0.18910139010E+02  0.15380862906E+03  0.15627866209E+03  0.47000000000E+01 0.  1.
<mgrwt>
<rscale>  2 0.18935212E+03</rscale>
<asrwt>0</asrwt>
<pdfrwt beam="1">  1       21 0.20241362E+00 0.18992679E+03</pdfrwt>
<pdfrwt beam="2">  1       21 0.66496166E-02 0.18992679E+03</pdfrwt>
<totfact> 0.21460274E+04</totfact>
</mgrwt>
</event>
<event>
12    1  0.1410528E-001  0.2561418E+03  0.7546771E-02  0.1109668E+00
         21   -1    0    0  502  503  0.00000000000E+00  0.00000000000E+00  0.43785230914E+03  0.43785230914E+03  0.00000000000E+00 0. -1.
         21   -1    0    0  503  504 -0.00000000000E+00 -0.00000000000E+00 -0.15533181854E+03  0.15533181854E+03  0.00000000000E+00 0.  1.
         -6    2    1    2    0  504  0.68198307957E+02  0.17607388892E+03  0.81734943781E+02  0.26772526026E+03  0.17129854167E+03 0.  0.
        -24    2    3    3    0    0  0.13905033154E+02  0.18091295602E+03  0.51474682564E+02  0.20520366665E+03  0.80845867297E+02 0.  0.
          6    2    1    2  502    0 -0.68198307957E+02 -0.17607388892E+03  0.20078554682E+03  0.32545886743E+03  0.17307690489E+03 0.  0.
         24    2    5    5    0    0 -0.69441572922E+02 -0.13494506217E+03  0.64389876306E+02  0.18291415503E+03  0.79241593153E+02 0.  0.
          2    1    6    6  501    0  0.37985648469E+01 -0.70230890327E+02  0.99312072710E+01  0.71031232066E+02  0.00000000000E+00 0. -1.
         -1    1    6    6    0  501 -0.73240137769E+02 -0.64714171844E+02  0.54458669035E+02  0.11188292296E+03  0.00000000000E+00 0.  1.
          5    1    5    5  502    0  0.12432649643E+01 -0.41128826750E+02  0.13639567051E+03  0.14254471240E+03  0.47000000000E+01 0. -1.
         13    1    4    4    0    0  0.34007844699E+01 -0.71231669921E+01  0.93214332493E+01  0.12214497977E+02  0.00000000000E+00 0. -1.
        -14    1    4    4    0    0  0.10504248684E+02  0.18803612301E+03  0.42153249315E+02  0.19298916867E+03  0.00000000000E+00 0.  1.
         -5    1    3    3    0  504  0.54293274803E+02 -0.48390670955E+01  0.30260261217E+02  0.62521593615E+02  0.47000000000E+01 0.  1.
<mgrwt>
<rscale>  2 0.25584174E+03</rscale>
<asrwt>0</asrwt>
<pdfrwt beam="1">  1       21 0.67361893E-01 0.25614183E+03</pdfrwt>
<pdfrwt beam="2">  1       21 0.23897203E-01 0.25614183E+03</pdfrwt>
<totfact> 0.32258014E+04</totfact>
</mgrwt>
</event>
<event>
12    1  0.1410528E-001  0.1830907E+03  0.7546771E-02  0.1164975E+00
         21   -1    0    0  502  503  0.00000000000E+00  0.00000000000E+00  0.16239999130E+03  0.16239999130E+03  0.00000000000E+00 0. -1.
         21   -1    0    0  503  504 -0.00000000000E+00 -0.00000000000E+00 -0.20580929313E+03  0.20580929313E+03  0.00000000000E+00 0. -1.
         -6    2    1    2    0  504  0.42126042003E+02  0.42681191346E+02 -0.20538524312E+02  0.18369562360E+03  0.17241219109E+03 0.  0.
        -24    2    3    3    0    0 -0.23839746596E+02 -0.19075883340E+01 -0.51055159819E+02  0.98296562820E+02  0.80520882429E+02 0.  0.
          6    2    1    2  502    0 -0.42126042003E+02 -0.42681191346E+02 -0.22870777518E+02  0.18451366083E+03  0.17299113000E+03 0.  0.
         24    2    5    5    0    0 -0.28235725903E+02 -0.29812513636E+02  0.54042200206E+02  0.10516481151E+03  0.80330791041E+02 0.  0.
          2    1    6    6  501    0 -0.51235391153E+02 -0.20598438921E+02  0.12224098393E+02  0.56557842728E+02  0.00000000000E+00 0. -1.
         -1    1    6    6    0  501  0.22999665249E+02 -0.92140747148E+01  0.41818101813E+02  0.48606968777E+02  0.00000000000E+00 0.  1.
          5    1    5    5  502    0 -0.13890316100E+02 -0.12868677710E+02 -0.76912977723E+02  0.79348849328E+02  0.47000000000E+01 0. -1.
         11    1    4    4    0    0  0.26497162057E+02 -0.32582348969E+01 -0.15484217190E+00  0.26697184643E+02  0.00000000000E+00 0. -1.
        -12    1    4    4    0    0 -0.50336908653E+02  0.13506465629E+01 -0.50900317647E+02  0.71599378178E+02  0.00000000000E+00 0.  1.
         -5    1    3    3    0  504  0.65965788599E+02  0.44588779680E+02  0.30516635507E+02  0.85399060776E+02  0.47000000000E+01 0.  1.
<mgrwt>
<rscale>  2 0.18295386E+03</rscale>
<asrwt>0</asrwt>
<pdfrwt beam="1">  1       21 0.24984614E-01 0.18309074E+03</pdfrwt>
<pdfrwt beam="2">  1       21 0.31662968E-01 0.18309074E+03</pdfrwt>
<totfact> 0.14587053E+05</totfact>
</mgrwt>
</event>
<event>
12    1  0.1410528E-001  0.2261134E+03  0.7546771E-02  0.1129802E+00
         21   -1    0    0  502  503  0.00000000000E+00  0.00000000000E+00  0.21870904082E+03  0.21870904082E+03  0.00000000000E+00 0.  1.
         21   -1    0    0  503  504 -0.00000000000E+00 -0.00000000000E+00 -0.30463509007E+03  0.30463509007E+03  0.00000000000E+00 0. -1.
         -6    2    1    2    0  504  0.22202742567E+02 -0.14038071517E+03 -0.17101082367E+03  0.28175214512E+03  0.17303139166E+03 0.  0.
        -24    2    3    3    0    0 -0.20399856410E+01 -0.37555303586E+02 -0.14728755952E+03  0.17337475634E+03  0.83370369901E+02 0.  0.
          6    2    1    2  502    0 -0.22202742567E+02  0.14038071517E+03  0.85084774428E+02  0.24159198577E+03  0.17586233758E+03 0.  0.
         24    2    5    5    0    0  0.37690477305E+02  0.13622767303E+03  0.93457928608E+02  0.18079194254E+03  0.63030080838E+02 0.  0.
          2    1    6    6  501    0  0.44863989840E+02  0.12344577378E+03  0.60273845454E+02  0.14451495803E+03  0.00000000000E+00 0. -1.
         -1    1    6    6    0  501 -0.71735125353E+01  0.12781899246E+02  0.33184083154E+02  0.36276984511E+02  0.00000000000E+00 0.  1.
          5    1    5    5  502    0 -0.59893219872E+02  0.41530421407E+01 -0.83731541798E+01  0.60800043228E+02  0.47000000000E+01 0. -1.
         13    1    4    4    0    0  0.12838804296E+01 -0.64378125510E+02 -0.10612462285E+03  0.12413149064E+03  0.00000000000E+00 0. -1.
        -14    1    4    4    0    0 -0.33238660706E+01  0.26822821923E+02 -0.41162936668E+02  0.49243265699E+02  0.00000000000E+00 0.  1.
         -5    1    3    3    0  504  0.24242728208E+02 -0.10282541158E+03 -0.23723264149E+02  0.10837738878E+03  0.47000000000E+01 0.  1.
<mgrwt>
<rscale>  2 0.22556271E+03</rscale>
<asrwt>0</asrwt>
<pdfrwt beam="1">  1       21 0.33647545E-01 0.22611340E+03</pdfrwt>
<pdfrwt beam="2">  1       21 0.46866937E-01 0.22611340E+03</pdfrwt>
<totfact> 0.36458195E+04</totfact>
</mgrwt>
</event>
<event>
12    1  0.1410528E-001  0.1925943E+03  0.7546771E-02  0.1156338E+00
         21   -1    0    0  502  503  0.00000000000E+00  0.00000000000E+00  0.75432104198E+02  0.75432104198E+02  0.00000000000E+00 0. -1.
         21   -1    0    0  503  504 -0.00000000000E+00 -0.00000000000E+00 -0.57738296414E+03  0.57738296414E+03  0.00000000000E+00 0. -1.
         -6    2    1    2    0  504  0.81959275263E+02  0.14624281038E+02 -0.12410630039E+03  0.22911778048E+03  0.17367035193E+03 0.  0.
        -24    2    3    3    0    0  0.56378612448E+02 -0.56946029200E+02 -0.73359519456E+02  0.13760818867E+03  0.84457067862E+02 0.  0.
          6    2    1    2  502    0 -0.81959275263E+02 -0.14624281038E+02 -0.37784455955E+03  0.42369728786E+03  0.17268957165E+03 0.  0.
         24    2    5    5    0    0  0.52036940027E+01 -0.58764166718E+01 -0.92886128684E+02  0.12554077583E+03  0.84089492741E+02 0.  0.
          2    1    6    6  501    0 -0.25596575229E+02  0.25323023339E+02 -0.22007845455E+02  0.42199353502E+02  0.00000000000E+00 0. -1.
         -1    1    6    6    0  501  0.30800269231E+02 -0.31199440011E+02 -0.70878283230E+02  0.83341422326E+02  0.00000000000E+00 0.  1.
          5    1    5    5  502    0 -0.87162969266E+02 -0.87478643663E+01 -0.28495843087E+03  0.29815651203E+03  0.47000000000E+01 0. -1.
         11    1    4    4    0    0  0.45465571498E+02 -0.39251521938E+02  0.13296979849E+01  0.60079682613E+02  0.00000000000E+00 0. -1.
        -12    1    4    4    0    0  0.10913040950E+02 -0.17694507263E+02 -0.74689217441E+02  0.77528506061E+02  0.00000000000E+00 0.  1.
         -5    1    3    3    0  504  0.25580662815E+02  0.71570310239E+02 -0.50746780933E+02  0.91509591807E+02  0.47000000000E+01 0.  1.
<mgrwt>
<rscale>  2 0.19237298E+03</rscale>
<asrwt>0</asrwt>
<pdfrwt beam="1">  1       21 0.11604939E-01 0.19259435E+03</pdfrwt>
<pdfrwt beam="2">  1       21 0.88828148E-01 0.19259435E+03</pdfrwt>
<totfact> 0.67469305E+04</totfact>
</mgrwt>
</event>
<event>
12    1  0.1410528E-001  0.2088058E+03  0.7546771E-02  0.1142586E+00
         21   -1    0    0  502  503  0.00000000000E+00  0.00000000000E+00  0.28309699433E+03  0.28309699433E+03  0.00000000000E+00 0.  1.
         21   -1    0    0  503  504 -0.00000000000E+00 -0.00000000000E+00 -0.16751555143E+03  0.16751555143E+03  0.00000000000E+00 0. -1.
         -6    2    1    2    0  504 -0.88008784298E+02  0.77395390010E+02 -0.68420391605E+01  0.20856427472E+03  0.17238518115E+03 0.  0.
        -24    2    3    3    0    0 -0.49089450771E+02  0.64064810793E+02  0.61393009532E+02  0.12874867014E+03  0.79328710334E+02 0.  0.
          6    2    1    2  502    0  0.88008784298E+02 -0.77395390010E+02  0.12242348206E+03  0.24204827105E+03  0.17281280059E+03 0.  0.
         24    2    5    5    0    0  0.11658298709E+03 -0.95081266453E+02  0.84095108460E+02  0.19085814003E+03  0.81992696258E+02 0.  0.
          4    1    6    6  501    0  0.10297489062E+03 -0.84890594147E+02  0.33659560164E+02  0.13763432371E+03  0.00000000000E+00 0. -1.
         -3    1    6    6    0  501  0.13608096469E+02 -0.10190672306E+02  0.50435548296E+02  0.53223816318E+02  0.00000000000E+00 0.  1.
          5    1    5    5  502    0 -0.28574202793E+02  0.17685876442E+02  0.38328373602E+02  0.51190131019E+02  0.47000000000E+01 0. -1.
         11    1    4    4    0    0 -0.49135400981E+02  0.37821405159E+02  0.26387003152E-01  0.62006024014E+02  0.00000000000E+00 0. -1.
        -12    1    4    4    0    0  0.45950209463E-01  0.26243405634E+02  0.61366622529E+02  0.66742646122E+02  0.00000000000E+00 0.  1.
         -5    1    3    3    0  504 -0.38919333527E+02  0.13330579217E+02 -0.68235048692E+02  0.79815604580E+02  0.47000000000E+01 0.  1.
<mgrwt>
<rscale>  2 0.20871729E+03</rscale>
<asrwt>0</asrwt>
<pdfrwt beam="1">  1       21 0.43553384E-01 0.20880579E+03</pdfrwt>
<pdfrwt beam="2">  1       21 0.25771623E-01 0.20880579E+03</pdfrwt>
<totfact> 0.71897968E+04</totfact>
</mgrwt>
</event>
<event>
12    1  0.1410528E-001  0.1931997E+03  0.7546771E-02  0.1159594E+00
         21   -1    0    0  502  503  0.00000000000E+00  0.00000000000E+00  0.20109365318E+03  0.20109365318E+03  0.00000000000E+00 0. -1.
         21   -1    0    0  503  504 -0.00000000000E+00 -0.00000000000E+00 -0.38835699885E+03  0.38835699885E+03  0.00000000000E+00 0. -1.
         -6    2    1    2    0  504  0.26580427709E+02 -0.91869382834E-01 -0.31669731478E+03  0.37097616101E+03  0.19136247091E+03 0.  0.
        -24    2    3    3    0    0 -0.24725501446E+02 -0.11338289072E+02 -0.30534917714E+03  0.31703498425E+03  0.80827928568E+02 0.  0.
          6    2    1    2  502    0 -0.26580427709E+02  0.91869382834E-01  0.12943396912E+03  0.21847449102E+03  0.17398684804E+03 0.  0.
         24    2    5    5    0    0 -0.48285250691E+02 -0.15025220454E+01  0.15744777786E+03  0.18269034782E+03  0.79071090974E+02 0.  0.
          4    1    6    6  501    0 -0.37796521420E+02  0.95993210453E+01  0.16209984071E+03  0.16672457034E+03  0.00000000000E+00 0. -1.
         -3    1    6    6    0  501 -0.10488729272E+02 -0.11101843091E+02 -0.46520628559E+01  0.15965777480E+02  0.00000000000E+00 0.  1.
          5    1    5    5  502    0  0.21704822982E+02  0.15943914282E+01 -0.28013808739E+02  0.35784143203E+02  0.47000000000E+01 0. -1.
         11    1    4    4    0    0  0.25085723843E+01 -0.43213104960E+02 -0.16159650595E+03  0.16729344312E+03  0.00000000000E+00 0. -1.
        -12    1    4    4    0    0 -0.27234073830E+02  0.31874815888E+02 -0.14375267120E+03  0.14974154114E+03  0.00000000000E+00 0.  1.
         -5    1    3    3    0  504  0.51305929155E+02  0.11246419689E+02 -0.11348137639E+02  0.53941176759E+02  0.47000000000E+01 0.  1.
<mgrwt>
<rscale>  2 0.18874976E+03</rscale>
<asrwt>0</asrwt>
<pdfrwt beam="1">  1       21 0.30937485E-01 0.19319970E+03</pdfrwt>
<pdfrwt beam="2">  1       21 0.59747231E-01 0.19319970E+03</pdfrwt>
<totfact> 0.26232810E+04</totfact>
</mgrwt>
</event>
<event>
12    1  0.1410528E-001  0.1954480E+03  0.7546771E-02  0.1154289E+00
         21   -1    0    0  502  503  0.00000000000E+00  0.00000000000E+00  0.21828058552E+03  0.21828058552E+03  0.00000000000E+00 0.  1.
         21   -1    0    0  503  504 -0.00000000000E+00 -0.00000000000E+00 -0.25563221955E+03  0.25563221955E+03  0.00000000000E+00 0. -1.
         -6    2    1    2    0  504 -0.82295870738E+02  0.38451702489E+02 -0.15401889779E+03  0.24884078645E+03  0.17305713611E+03 0.  0.
        -24    2    3    3    0    0 -0.93607974964E+02  0.44559234870E+00 -0.43651941671E+02  0.13147220840E+03  0.81343703142E+02 0.  0.
          6    2    1    2  502    0  0.82295870738E+02 -0.38451702489E+02  0.11666726376E+03  0.22507201862E+03  0.16969095253E+03 0.  0.
         24    2    5    5    0    0  0.95285366944E+02  0.20828664157E+02  0.10391215460E+03  0.16288141089E+03  0.78863703528E+02 0.  0.
          4    1    6    6  501    0  0.35773999353E+02  0.70019481280E+01  0.94213710835E+02  0.10101994663E+03  0.00000000000E+00 0. -1.
         -3    1    6    6    0  501  0.59511367591E+02  0.13826716029E+02  0.96984437654E+01  0.61861464258E+02  0.00000000000E+00 0.  1.
          5    1    5    5  502    0 -0.12989496206E+02 -0.59280366645E+02  0.12755109155E+02  0.62190607738E+02  0.47000000000E+01 0. -1.
         11    1    4    4    0    0 -0.14429129054E+02  0.15297467503E+00 -0.49998237763E+02  0.52038898393E+02  0.00000000000E+00 0. -1.
        -12    1    4    4    0    0 -0.79178845910E+02  0.29261767367E+00  0.63462960926E+01  0.79433310008E+02  0.00000000000E+00 0.  1.
         -5    1    3    3    0  504  0.11312104226E+02  0.38006110140E+02 -0.11036695612E+03  0.11736857805E+03  0.47000000000E+01 0.  1.
<mgrwt>
<rscale>  2 0.19470016E+03</rscale>
<asrwt>0</asrwt>
<pdfrwt beam="1">  1       21 0.33581629E-01 0.19544799E+03</pdfrwt>
<pdfrwt beam="2">  1       21 0.39328034E-01 0.19544799E+03</pdfrwt>
<totfact> 0.53167493E+04</totfact>
</mgrwt>
</event>
<event>
12    1  0.1410528E-001  0.2309602E+03  0.7546771E-02  0.1127142E+00
         21   -1    0    0  502  503  0.00000000000E+00  0.00000000000E+00  0.72173472450E+02  0.72173472450E+02  0.00000000000E+00 0. -1.
         21   -1    0    0  503  504 -0.00000000000E+00 -0.00000000000E+00 -0.72092251696E+03  0.72092251696E+03  0.00000000000E+00 0.  1.
         -6    2    1    2    0  504 -0.88683183132E+02 -0.12318219039E+03 -0.35399476100E+03  0.42267589398E+03  0.17408061790E+03 0.  0.
        -24    2    3    3    0    0  0.38377192829E+01 -0.11318109458E+03 -0.21577140990E+03  0.25597879114E+03  0.78378261828E+02 0.  0.
          6    2    1    2  502    0  0.88683183132E+02  0.12318219039E+03 -0.29475428350E+03  0.37042009543E+03  0.16520411755E+03 0.  0.
         24    2    5    5    0    0  0.70229059107E+01  0.10327744527E+03 -0.12927555483E+03  0.18475938500E+03  0.81904269492E+02 0.  0.
          2    1    6    6  501    0 -0.19454621287E+02  0.10336150947E+03 -0.97712790820E+02  0.14356139251E+03  0.00000000000E+00 0. -1.
         -1    1    6    6    0  501  0.26477527198E+02 -0.84064203950E-01 -0.31562764014E+02  0.41197992494E+02  0.00000000000E+00 0.  1.
          5    1    5    5  502    0  0.81660277221E+02  0.19904745127E+02 -0.16547872867E+03  0.18566071043E+03  0.47000000000E+01 0. -1.
         13    1    4    4    0    0  0.26618509797E+02 -0.11181862581E+02 -0.23861513747E+02  0.37455986877E+02  0.00000000000E+00 0. -1.
        -14    1    4    4    0    0 -0.22780790514E+02 -0.10199923200E+03 -0.19190989615E+03  0.21852280427E+03  0.00000000000E+00 0.  1.
         -5    1    3    3    0  504 -0.92520902415E+02 -0.10001095813E+02 -0.13822335111E+03  0.16669710283E+03  0.47000000000E+01 0.  1.
<mgrwt>
<rscale>  2 0.22928850E+03</rscale>
<asrwt>0</asrwt>
<pdfrwt beam="1">  1       21 0.11103611E-01 0.23096021E+03</pdfrwt>
<pdfrwt beam="2">  1       21 0.11091115E+00 0.23096021E+03</pdfrwt>
<totfact> 0.42305515E+04</totfact>
</mgrwt>
</event>
<event>
12    1  0.1410528E-001  0.2679110E+03  0.7546771E-02  0.1102992E+00
         21   -1    0    0  502  503  0.00000000000E+00  0.00000000000E+00  0.20081097221E+03  0.20081097221E+03  0.00000000000E+00 0. -1.
         21   -1    0    0  503  504 -0.00000000000E+00 -0.00000000000E+00 -0.37186593596E+03  0.37186593596E+03  0.00000000000E+00 0.  1.
         -6    2    1    2    0  504 -0.15551853694E+03  0.12612446403E+03 -0.21170164686E+02  0.26874611669E+03  0.17799692021E+03 0.  0.
        -24    2    3    3    0    0 -0.53192297243E+02 -0.78551866553E+01  0.11247788979E+02  0.97007303813E+02  0.79954860971E+02 0.  0.
          6    2    1    2  502    0  0.15551853694E+03 -0.12612446403E+03 -0.14988479906E+03  0.30393079147E+03  0.17267042960E+03 0.  0.
         24    2    5    5    0    0  0.16189361399E+03 -0.94219454505E+02 -0.66243923447E+02  0.21406167935E+03  0.79669927283E+02 0.  0.
          2    1    6    6  501    0  0.16303143400E+03 -0.68874238455E+02 -0.49902418722E+02  0.18388355171E+03  0.00000000000E+00 0. -1.
         -1    1    6    6    0  501 -0.11378200103E+01 -0.25345216050E+02 -0.16341504725E+02  0.30178127637E+02  0.00000000000E+00 0.  1.
          5    1    5    5  502    0 -0.63750770573E+01 -0.31905009529E+02 -0.83640875614E+02  0.89869112124E+02  0.47000000000E+01 0. -1.
         11    1    4    4    0    0 -0.21986825080E+02  0.32557392021E+02  0.21713406604E+02  0.44887373265E+02  0.00000000000E+00 0. -1.
        -12    1    4    4    0    0 -0.31205472162E+02 -0.40412578676E+02 -0.10465617624E+02  0.52119930548E+02  0.00000000000E+00 0.  1.
         -5    1    3    3    0  504 -0.10232623969E+03  0.13397965069E+03 -0.32417953665E+02  0.17173881288E+03  0.47000000000E+01 0.  1.
<mgrwt>
<rscale>  2 0.26702943E+03</rscale>
<asrwt>0</asrwt>
<pdfrwt beam="1">  1       21 0.30893996E-01 0.26791099E+03</pdfrwt>
<pdfrwt beam="2">  1       21 0.57210143E-01 0.26791099E+03</pdfrwt>
<totfact> 0.27821634E+04</totfact>
</mgrwt>
</event>
<event>
12    1  0.1410528E-001  0.1764898E+03  0.7546771E-02  0.1171811E+00
         21   -1    0    0  502  503  0.00000000000E+00  0.00000000000E+00  0.21204886287E+02  0.21204886287E+02  0.00000000000E+00 0.  1.
         21   -1    0    0  503  504 -0.00000000000E+00 -0.00000000000E+00 -0.15193890958E+04  0.15193890958E+04  0.00000000000E+00 0.  1.
         -6    2    1    2    0  504  0.19765283007E+02  0.44025453878E+01 -0.90892408288E+03  0.92547110177E+03  0.17304254666E+03 0.  0.
        -24    2    3    3    0    0 -0.57744292659E+01 -0.52275804966E+02 -0.34492572868E+03  0.35803745293E+03  0.80317840943E+02 0.  0.
          6    2    1    2  502    0 -0.19765283007E+02 -0.44025453878E+01 -0.58926012663E+03  0.61512288032E+03  0.17532430588E+03 0.  0.
         24    2    5    5    0    0  0.47300540441E+02  0.18074375036E+02 -0.43827512183E+03  0.44832480389E+03  0.79661930698E+02 0.  0.
          4    1    6    6  501    0  0.64105867819E+02 -0.25650912790E+01 -0.35936030598E+03  0.36504242424E+03  0.00000000000E+00 0. -1.
         -3    1    6    6    0  501 -0.16805327379E+02  0.20639466314E+02 -0.78914815851E+02  0.83282379642E+02  0.00000000000E+00 0.  1.
          5    1    5    5  502    0 -0.67065823448E+02 -0.22476920423E+02 -0.15098500480E+03  0.16679807643E+03  0.47000000000E+01 0. -1.
         11    1    4    4    0    0  0.11271991762E+02  0.82164501625E+01 -0.97455535920E+01  0.17015982674E+02  0.00000000000E+00 0. -1.
        -12    1    4    4    0    0 -0.17046421028E+02 -0.60492255128E+02 -0.33518017509E+03  0.34102147025E+03  0.00000000000E+00 0.  1.
         -5    1    3    3    0  504  0.25539712273E+02  0.56678350354E+02 -0.56399835420E+03  0.56743364884E+03  0.47000000000E+01 0.  1.
<mgrwt>
<rscale>  2 0.17592046E+03</rscale>
<asrwt>0</asrwt>
<pdfrwt beam="1">  1       21 0.32622896E-02 0.17648983E+03</pdfrwt>
<pdfrwt beam="2">  1       21 0.23375221E+00 0.17648983E+03</pdfrwt>
<totfact> 0.46278564E+04</totfact>
</mgrwt>
</event>
<event>
12    1  0.1410528E-001  0.2559392E+03  0.7546771E-02  0.1109683E+00
         21   -1    0    0  502  503  0.00000000000E+00  0.00000000000E+00  0.40377305677E+03  0.40377305677E+03  0.00000000000E+00 0.  1.
         21   -1    0    0  503  504 -0.00000000000E+00 -0.00000000000E+00 -0.16264399365E+03  0.16264399365E+03  0.00000000000E+00 0.  1.
         -6    2    1    2    0  504  0.16105796073E+03 -0.98898399825E+02  0.10178814045E+03  0.27543726318E+03  0.17258128580E+03 0.  0.
        -24    2    3    3    0    0  0.16434374606E+03 -0.43932844271E+02  0.41862847217E+02  0.19391953841E+03  0.83146423395E+02 0.  0.
          6    2    1    2  502    0 -0.16105796073E+03  0.98898399825E+02  0.13934092267E+03  0.29097978725E+03  0.17185105078E+03 0.  0.
         24    2    5    5    0    0 -0.55453558213E+02  0.23449561408E+02 -0.77467587572E+00  0.99931918886E+02  0.79754681624E+02 0.  0.
          4    1    6    6  501    0 -0.71196760412E+02  0.15302376477E+02 -0.18213216341E+02  0.75065722327E+02  0.00000000000E+00 0. -1.
         -3    1    6    6    0  501  0.15743202199E+02  0.81471849312E+01  0.17438540465E+02  0.24866196559E+02  0.00000000000E+00 0.  1.
          5    1    5    5  502    0 -0.10560440252E+03  0.75448838417E+02  0.14011559855E+03  0.19104786836E+03  0.47000000000E+01 0. -1.
         13    1    4    4    0    0 -0.24286355647E+01 -0.75600271120E+00  0.20122063503E+02  0.20282190474E+02  0.00000000000E+00 0. -1.
        -14    1    4    4    0    0  0.16677238163E+03 -0.43176841560E+02  0.21740783714E+02  0.17363734793E+03  0.00000000000E+00 0.  1.
         -5    1    3    3    0  504 -0.32857853342E+01 -0.54965555554E+02  0.59925293230E+02  0.81517724768E+02  0.47000000000E+01 0.  1.
<mgrwt>
<rscale>  2 0.25581613E+03</rscale>
<asrwt>0</asrwt>
<pdfrwt beam="1">  1       21 0.62118932E-01 0.25593917E+03</pdfrwt>
<pdfrwt beam="2">  1       21 0.25022153E-01 0.25593917E+03</pdfrwt>
<totfact> 0.35273952E+04</totfact>
</mgrwt>
</event>
<event>
12    1  0.1410528E-001  0.1760609E+03  0.7546771E-02  0.1172079E+00
         21   -1    0    0  502  503  0.00000000000E+00  0.00000000000E+00  0.36475840410E+03  0.36475840410E+03  0.00000000000E+00 0. -1.
         21   -1    0    0  503  504 -0.00000000000E+00 -0.00000000000E+00 -0.11665237234E+03  0.11665237234E+03  0.00000000000E+00 0. -1.
         -6    2    1    2    0  504 -0.16650003036E+02  0.25576212141E+02 -0.33303004209E+01  0.17446179529E+03  0.17173951755E+03 0.  0.
        -24    2    3    3    0    0 -0.27918334593E+01  0.66490779616E+02 -0.46322966586E+02  0.11333479602E+03  0.79184219693E+02 0.  0.
          6    2    1    2  502    0  0.16650003036E+02 -0.25576212141E+02  0.25143633218E+03  0.30694898114E+03  0.17339574001E+03 0.  0.
         24    2    5    5    0    0 -0.57030951397E+02 -0.78998412706E+01  0.14295895820E+03  0.17454517531E+03  0.81937888574E+02 0.  0.
          4    1    6    6  501    0 -0.61412115088E+01 -0.44775532155E+01 -0.10426101299E+02  0.12902191670E+02  0.00000000000E+00 0. -1.
         -3    1    6    6    0  501 -0.50889739888E+02 -0.34222880552E+01  0.15338505950E+03  0.16164298364E+03  0.00000000000E+00 0.  1.
          5    1    5    5  502    0  0.73680954433E+02 -0.17676370871E+02  0.10847737398E+03  0.13240380583E+03  0.47000000000E+01 0. -1.
         11    1    4    4    0    0 -0.13543272403E+02  0.65952835471E+02 -0.16142558180E+01  0.67348367136E+02  0.00000000000E+00 0. -1.
        -12    1    4    4    0    0  0.10751438944E+02  0.53794414475E+00 -0.44708710768E+02  0.45986428887E+02  0.00000000000E+00 0.  1.
         -5    1    3    3    0  504 -0.13858169577E+02 -0.40914567475E+02  0.42992666165E+02  0.61126999269E+02  0.47000000000E+01 0.  1.
<mgrwt>
<rscale>  2 0.17565177E+03</rscale>
<asrwt>0</asrwt>
<pdfrwt beam="1">  1       21 0.56116677E-01 0.17606092E+03</pdfrwt>
<pdfrwt beam="2">  1       21 0.17946519E-01 0.17606092E+03</pdfrwt>
<totfact> 0.84954473E+04</totfact>
</mgrwt>
</event>
<event>
12    1  0.1410528E-001  0.2023392E+03  0.7546771E-02  0.1149192E+00
         21   -1    0    0  502  503  0.00000000000E+00  0.00000000000E+00  0.56537253365E+03  0.56537253365E+03  0.00000000000E+00 0. -1.
         21   -1    0    0  503  504 -0.00000000000E+00 -0.00000000000E+00 -0.79889647053E+02  0.79889647053E+02  0.00000000000E+00 0.  1.
         -6    2    1    2    0  504  0.52969885821E+02 -0.75304745775E+02  0.12593423237E+03  0.23268927966E+03  0.17265067752E+03 0.  0.
        -24    2    3    3    0    0  0.39412571350E+02 -0.20082690493E+01  0.13040188576E+03  0.15786799791E+03  0.79751294851E+02 0.  0.
          6    2    1    2  502    0 -0.52969885821E+02  0.75304745775E+02  0.35954865423E+03  0.41257290104E+03  0.18017921738E+03 0.  0.
         24    2    5    5    0    0 -0.74090900283E+02  0.89687026766E+02  0.35906824848E+03  0.38658698085E+03  0.83583864604E+02 0.  0.
          2    1    6    6  501    0 -0.51351536556E+02  0.97695198894E+02  0.22786577686E+03  0.25318796270E+03  0.00000000000E+00 0. -1.
         -1    1    6    6    0  501 -0.22739363727E+02 -0.80081721288E+01  0.13120247162E+03  0.13339901815E+03  0.00000000000E+00 0.  1.
          5    1    5    5  502    0  0.21121014462E+02 -0.14382280991E+02  0.48040574728E+00  0.25985920190E+02  0.47000000000E+01 0. -1.
         11    1    4    4    0    0  0.15862201052E+02 -0.92466866255E+01  0.13191241666E+03  0.13318406926E+03  0.00000000000E+00 0. -1.
        -12    1    4    4    0    0  0.23550370298E+02  0.72384175761E+01 -0.15105308995E+01  0.24683928654E+02  0.00000000000E+00 0.  1.
         -5    1    3    3    0  504  0.13557314471E+02 -0.73296476725E+02 -0.44676533879E+01  0.74821281751E+02  0.47000000000E+01 0.  1.
<mgrwt>
<rscale>  2 0.20064968E+03</rscale>
<asrwt>0</asrwt>
<pdfrwt beam="1">  1       21 0.86980387E-01 0.20233923E+03</pdfrwt>
<pdfrwt beam="2">  1       21 0.12290715E-01 0.20233923E+03</pdfrwt>
<totfact> 0.63606480E+04</totfact>
</mgrwt>
</event>
<event>
12    1  0.1410528E-001  0.2489674E+03  0.7546771E-02  0.1114614E+00
         21   -1    0    0  502  503  0.00000000000E+00  0.00000000000E+00  0.27820189993E+03  0.27820189993E+03  0.00000000000E+00 0. -1.
         21   -1    0    0  503  504 -0.00000000000E+00 -0.00000000000E+00 -0.29210028263E+03  0.29210028263E+03  0.00000000000E+00 0.  1.
         -6    2    1    2    0  504  0.16979531273E+03  0.47581699574E+02 -0.14947655654E+03  0.29039282705E+03  0.17575632758E+03 0.  0.
        -24    2    3    3    0    0  0.88729614611E+02  0.42960161154E+02 -0.16262018015E+03  0.20800441238E+03  0.84273320953E+02 0.  0.
          6    2    1    2  502    0 -0.16979531273E+03 -0.47581699574E+02  0.13557817385E+03  0.27990935552E+03  0.16992156933E+03 0.  0.
         24    2    5    5    0    0 -0.80516717468E+02  0.37014114318E+02  0.52223745918E+02  0.13125818682E+03  0.81537755173E+02 0.  0.
          4    1    6    6  501    0 -0.80554494712E+02  0.14141177540E+02  0.89025222100E+01  0.82269401494E+02  0.00000000000E+00 0. -1.
         -3    1    6    6    0  501  0.37777244338E-01  0.22872936778E+02  0.43321223708E+02  0.48988785324E+02  0.00000000000E+00 0.  1.
          5    1    5    5  502    0 -0.89278595262E+02 -0.84595813891E+02  0.83354427928E+02  0.14865116870E+03  0.47000000000E+01 0. -1.
         13    1    4    4    0    0  0.52542026576E+02  0.64323451374E+02 -0.80032735275E+02  0.11534040779E+03  0.00000000000E+00 0. -1.
        -14    1    4    4    0    0  0.36187588035E+02 -0.21363290220E+02 -0.82587444874E+02  0.92664004596E+02  0.00000000000E+00 0.  1.
         -5    1    3    3    0  504  0.81065698118E+02  0.46215384193E+01  0.13143623609E+02  0.82388414660E+02  0.47000000000E+01 0.  1.
<mgrwt>
<rscale>  2 0.24794000E+03</rscale>
<asrwt>0</asrwt>
<pdfrwt beam="1">  1       21 0.42800292E-01 0.24896737E+03</pdfrwt>
<pdfrwt beam="2">  1       21 0.44938505E-01 0.24896737E+03</pdfrwt>
<totfact> 0.24223750E+04</totfact>
</mgrwt>
</event>
<event>
12    1  0.1410528E-001  0.1797574E+03  0.7546771E-02  0.1168596E+00
         21   -1    0    0  502  503  0.00000000000E+00  0.00000000000E+00  0.39782357945E+03  0.39782357945E+03  0.00000000000E+00 0. -1.
         21   -1    0    0  503  504 -0.00000000000E+00 -0.00000000000E+00 -0.22365110360E+03  0.22365110360E+03  0.00000000000E+00 0. -1.
         -6    2    1    2    0  504  0.25001392878E+02 -0.41247721591E+02 -0.16197980016E+03  0.24027777572E+03  0.17079083601E+03 0.  0.
        -24    2    3    3    0    0  0.37860800450E+02 -0.21239121391E+02 -0.17888747760E+02  0.94161281695E+02  0.81619845540E+02 0.  0.
          6    2    1    2  502    0 -0.25001392878E+02  0.41247721591E+02  0.33615227601E+03  0.38119690733E+03  0.17316548533E+03 0.  0.
         24    2    5    5    0    0 -0.19884539020E+02  0.83565042038E+02  0.15556233828E+03  0.19558507200E+03  0.81702926246E+02 0.  0.
          4    1    6    6  501    0 -0.26926671084E+02  0.71675218249E+02  0.16285798336E+03  0.17995862100E+03  0.00000000000E+00 0. -1.
         -3    1    6    6    0  501  0.70421320635E+01  0.11889823789E+02 -0.72956450867E+01  0.15626451003E+02  0.00000000000E+00 0.  1.
          5    1    5    5  502    0 -0.51168538578E+01 -0.42317320447E+02  0.18058993774E+03  0.18561183533E+03  0.47000000000E+01 0. -1.
         11    1    4    4    0    0 -0.18764129757E+02  0.11850444127E+02 -0.18003107209E+02  0.28576869330E+02  0.00000000000E+00 0. -1.
        -12    1    4    4    0    0  0.56624930207E+02 -0.33089565518E+02  0.11435944899E+00  0.65584412365E+02  0.00000000000E+00 0.  1.
         -5    1    3    3    0  504 -0.12859407572E+02 -0.20008600200E+02 -0.14409105240E+03  0.14611649402E+03  0.47000000000E+01 0.  1.
<mgrwt>
<rscale>  2 0.17918307E+03</rscale>
<asrwt>0</asrwt>
<pdfrwt beam="1">  1       21 0.61203628E-01 0.17975742E+03</pdfrwt>
<pdfrwt beam="2">  1       21 0.34407862E-01 0.17975742E+03</pdfrwt>
<totfact> 0.20366692E+04</totfact>
</mgrwt>
</event>
<event>
12    1  0.1410528E-001  0.4728201E+03  0.7546771E-02  0.1021132E+00
         21   -1    0    0  502  503  0.00000000000E+00  0.00000000000E+00  0.19494759218E+04  0.19494759218E+04  0.00000000000E+00 0. -1.
         21   -1    0    0  503  504 -0.00000000000E+00 -0.00000000000E+00 -0.26465221180E+03  0.26465221180E+03  0.00000000000E+00 0.  1.
         -6    2    1    2    0  504 -0.37595485812E+03 -0.22877982195E+03  0.90057195585E+01  0.47290587584E+03  0.17284849479E+03 0.  0.
        -24    2    3    3    0    0 -0.14394276364E+03 -0.67119482625E+02 -0.47592030811E+02  0.18448071633E+03  0.80892454214E+02 0.  0.
          6    2    1    2  502    0  0.37595485812E+03  0.22877982195E+03  0.16758179904E+04  0.17412222578E+04  0.17264631933E+03 0.  0.
         24    2    5    5    0    0  0.15372661934E+03  0.13152604228E+03  0.54900259301E+03  0.58858236706E+03  0.63987361127E+02 0.  0.
          2    1    6    6  501    0  0.24462657301E+01  0.13058230341E+02  0.90136191023E+02  0.91110013323E+02  0.00000000000E+00 0. -1.
         -1    1    6    6    0  501  0.15128035361E+03  0.11846781194E+03  0.45886640199E+03  0.49747235373E+03  0.00000000000E+00 0.  1.
          5    1    5    5  502    0  0.22222823878E+03  0.97253779670E+02  0.11268153974E+04  0.11526398907E+04  0.47000000000E+01 0. -1.
         13    1    4    4    0    0 -0.34997790957E+02 -0.48669322220E+02  0.85280354720E+01  0.60549778581E+02  0.00000000000E+00 0. -1.
        -14    1    4    4    0    0 -0.10894497268E+03 -0.18450160405E+02 -0.56120066283E+02  0.12393093775E+03  0.00000000000E+00 0.  1.
         -5    1    3    3    0  504 -0.23201209448E+03 -0.16166033932E+03  0.56597750370E+02  0.28842515952E+03  0.47000000000E+01 0.  1.
<mgrwt>
<rscale>  2 0.47280165E+03</rscale>
<asrwt>0</asrwt>
<pdfrwt beam="1">  1       21 0.29991936E+00 0.47282012E+03</pdfrwt>
<pdfrwt beam="2">  1       21 0.40715726E-01 0.47282012E+03</pdfrwt>
<totfact> 0.15265946E+02</totfact>
</mgrwt>
</event>
<event>
12    1  0.1410528E-001  0.1901862E+03  0.7546771E-02  0.1158744E+00
         21   -1    0    0  502  503  0.00000000000E+00  0.00000000000E+00  0.31270093892E+02  0.31270093892E+02  0.00000000000E+00 0. -1.
         21   -1    0    0  503  504 -0.00000000000E+00 -0.00000000000E+00 -0.17967360583E+04  0.17967360583E+04  0.00000000000E+00 0. -1.
         -6    2    1    2    0  504 -0.45471343376E+02 -0.62053984197E+02 -0.14363049453E+04  0.14488418378E+04  0.17393227129E+03 0.  0.
        -24    2    3    3    0    0 -0.83514967257E+02 -0.76603844252E+02 -0.86610980813E+03  0.87717445180E+03  0.80286489770E+02 0.  0.
          6    2    1    2  502    0  0.45471343376E+02  0.62053984197E+02 -0.32916101912E+03  0.37916431442E+03  0.17175639959E+03 0.  0.
         24    2    5    5    0    0 -0.10522037200E+01 -0.22004014276E+02 -0.18887102852E+03  0.20906564010E+03  0.86895872638E+02 0.  0.
          2    1    6    6  501    0 -0.28292250431E+02  0.22955967269E+02 -0.89850536872E+02  0.96956417239E+02  0.00000000000E+00 0. -1.
         -1    1    6    6    0  501  0.27240046711E+02 -0.44959981545E+02 -0.99020491647E+02  0.11210922286E+03  0.00000000000E+00 0.  1.
          5    1    5    5  502    0  0.46523547096E+02  0.84057998473E+02 -0.14028999060E+03  0.17009867432E+03  0.47000000000E+01 0. -1.
         13    1    4    4    0    0 -0.45726101608E+01 -0.57398166697E+02 -0.34668425910E+03  0.35143339883E+03  0.00000000000E+00 0. -1.
        -14    1    4    4    0    0 -0.78942357096E+02 -0.19205677556E+02 -0.51942554903E+03  0.52574105297E+03  0.00000000000E+00 0.  1.
         -5    1    3    3    0  504  0.38043623880E+02  0.14549860055E+02 -0.57019513721E+03  0.57166738602E+03  0.47000000000E+01 0.  1.
<mgrwt>
<rscale>  2 0.18968723E+03</rscale>
<asrwt>0</asrwt>
<pdfrwt beam="1">  1       21 0.48107837E-02 0.19018616E+03</pdfrwt>
<pdfrwt beam="2">  1       21 0.27642093E+00 0.19018616E+03</pdfrwt>
<totfact> 0.13433710E+04</totfact>
</mgrwt>
</event>
<event>
12    1  0.1410528E-001  0.1766395E+03  0.7546771E-02  0.1171235E+00
         21   -1    0    0  502  503  0.00000000000E+00  0.00000000000E+00  0.10966285101E+03  0.10966285101E+03  0.00000000000E+00 0. -1.
         21   -1    0    0  503  504 -0.00000000000E+00 -0.00000000000E+00 -0.68088852869E+03  0.68088852869E+03  0.00000000000E+00 0. -1.
         -6    2    1    2    0  504  0.26078913460E+02 -0.17449421745E+02 -0.58772958996E+03  0.61369992124E+03  0.17383017681E+03 0.  0.
        -24    2    3    3    0    0 -0.19360261741E+02 -0.37539877328E+02 -0.17934200122E+03  0.20227452377E+03  0.83470757990E+02 0.  0.
          6    2    1    2  502    0 -0.26078913460E+02  0.17449421745E+02  0.16503912277E+02  0.17685145847E+03  0.17326126860E+03 0.  0.
         24    2    5    5    0    0 -0.39305110220E+02  0.17333687077E+02 -0.53166826417E+02  0.10578073661E+03  0.80731062238E+02 0.  0.
          4    1    6    6  501    0 -0.28450511339E+02  0.13792642288E+02  0.16168364850E+02  0.35511752965E+02  0.00000000000E+00 0. -1.
         -3    1    6    6    0  501 -0.10854598882E+02  0.35410447890E+01 -0.69335191266E+02  0.70268983649E+02  0.00000000000E+00 0.  1.
          5    1    5    5  502    0  0.13226196760E+02  0.11573466804E+00  0.69670738694E+02  0.71070721858E+02  0.47000000000E+01 0. -1.
         13    1    4    4    0    0  0.25691088202E+02 -0.85481219629E+01 -0.11692344050E+03  0.12001747098E+03  0.00000000000E+00 0. -1.
        -14    1    4    4    0    0 -0.45051349943E+02 -0.28991755365E+02 -0.62418560718E+02  0.82257052785E+02  0.00000000000E+00 0.  1.
         -5    1    3    3    0  504  0.45439175201E+02  0.20090455583E+02 -0.40838758874E+03  0.41142539747E+03  0.47000000000E+01 0.  1.
<mgrwt>
<rscale>  2 0.17649940E+03</rscale>
<asrwt>0</asrwt>
<pdfrwt beam="1">  1       21 0.16871208E-01 0.17663953E+03</pdfrwt>
<pdfrwt beam="2">  1       21 0.10475208E+00 0.17663953E+03</pdfrwt>
<totfact> 0.23472428E+04</totfact>
</mgrwt>
</event>
<event>
12    1  0.1410528E-001  0.1897117E+03  0.7546771E-02  0.1159136E+00
         21   -1    0    0  502  503  0.00000000000E+00  0.00000000000E+00  0.14620301621E+03  0.14620301621E+03  0.00000000000E+00 0. -1.
         21   -1    0    0  503  504 -0.00000000000E+00 -0.00000000000E+00 -0.30787789389E+03  0.30787789389E+03  0.00000000000E+00 0. -1.
         -6    2    1    2    0  504 -0.44400618739E+02  0.58478517397E+02 -0.18409866637E+03  0.26304860850E+03  0.17294825681E+03 0.  0.
        -24    2    3    3    0    0  0.30640393667E+02  0.82869775729E+01 -0.13027700854E+03  0.15783831877E+03  0.83266609143E+02 0.  0.
          6    2    1    2  502    0  0.44400618739E+02 -0.58478517397E+02  0.22423788692E+02  0.19103230160E+03  0.17492673328E+03 0.  0.
         24    2    5    5    0    0  0.92835702640E+02 -0.66039664613E+02  0.97536346608E+01  0.14018202035E+03  0.81093529056E+02 0.  0.
          2    1    6    6  501    0  0.55506648103E+02 -0.53545241847E+02  0.43312965334E+02  0.88453908190E+02  0.00000000000E+00 0. -1.
         -1    1    6    6    0  501  0.37329054537E+02 -0.12494422766E+02 -0.33559330673E+02  0.51728112165E+02  0.00000000000E+00 0.  1.
          5    1    5    5  502    0 -0.48435083901E+02  0.75611472156E+01  0.12670154031E+02  0.50850281247E+02  0.47000000000E+01 0. -1.
         13    1    4    4    0    0 -0.16859970742E+02  0.31696975395E+02 -0.58547382173E+02  0.68678619831E+02  0.00000000000E+00 0. -1.
        -14    1    4    4    0    0  0.47500364409E+02 -0.23409997822E+02 -0.71729626362E+02  0.89159698940E+02  0.00000000000E+00 0.  1.
         -5    1    3    3    0  504 -0.75041012406E+02  0.50191539824E+02 -0.53821657837E+02  0.10521028973E+03  0.47000000000E+01 0.  1.
<mgrwt>
<rscale>  2 0.18925433E+03</rscale>
<asrwt>0</asrwt>
<pdfrwt beam="1">  1       21 0.22492772E-01 0.18971166E+03</pdfrwt>
<pdfrwt beam="2">  1       21 0.47365829E-01 0.18971166E+03</pdfrwt>
<totfact> 0.79030632E+04</totfact>
</mgrwt>
</event>
<event>
12    1  0.1410528E-001  0.1810863E+03  0.7546771E-02  0.1166777E+00
         21   -1    0    0  502  503  0.00000000000E+00  0.00000000000E+00  0.47982357492E+03  0.47982357492E+03  0.00000000000E+00 0.  1.
         21   -1    0    0  503  504 -0.00000000000E+00 -0.00000000000E+00 -0.80941056047E+02  0.80941056047E+02  0.00000000000E+00 0.  1.
         -6    2    1    2    0  504  0.36904186304E+02 -0.24625268384E+02  0.31024670704E+03  0.35922868861E+03  0.17556739071E+03 0.  0.
        -24    2    3    3    0    0 -0.51375035615E+01 -0.77158522769E+02  0.16792816919E+03  0.20173614047E+03  0.80732699612E+02 0.  0.
          6    2    1    2  502    0 -0.36904186304E+02  0.24625268384E+02  0.88635811828E+02  0.20153594235E+03  0.17547679650E+03 0.  0.
         24    2    5    5    0    0 -0.26079041104E+02  0.83361919767E+01 -0.22870615653E+02  0.88229759165E+02  0.80695829262E+02 0.  0.
          2    1    6    6  501    0  0.27919023572E+02  0.12496691564E+02 -0.38542852145E+01  0.30830093931E+02  0.00000000000E+00 0. -1.
         -1    1    6    6    0  501 -0.53998064676E+02 -0.41604995870E+01 -0.19016330439E+02  0.57399665234E+02  0.00000000000E+00 0.  1.
          5    1    5    5  502    0 -0.10825145200E+02  0.16289076407E+02  0.11150642748E+03  0.11330618319E+03  0.47000000000E+01 0. -1.
         13    1    4    4    0    0  0.26459147552E+02 -0.72996459237E+02  0.13613043401E+03  0.15671651034E+03  0.00000000000E+00 0. -1.
        -14    1    4    4    0    0 -0.31596651114E+02 -0.41620635316E+01  0.31797735180E+02  0.45019630130E+02  0.00000000000E+00 0.  1.
         -5    1    3    3    0  504  0.42041689866E+02  0.52533254385E+02  0.14231853785E+03  0.15749254814E+03  0.47000000000E+01 0.  1.
<mgrwt>
<rscale>  2 0.18106429E+03</rscale>
<asrwt>0</asrwt>
<pdfrwt beam="1">  1       21 0.73819010E-01 0.18108625E+03</pdfrwt>
<pdfrwt beam="2">  1       21 0.12452470E-01 0.18108625E+03</pdfrwt>
<totfact> 0.90880505E+04</totfact>
</mgrwt>
</event>
<event>
12    1  0.1410528E-001  0.1803700E+03  0.7546771E-02  0.1167518E+00
         21   -1    0    0  502  503  0.00000000000E+00  0.00000000000E+00  0.37971736801E+02  0.37971736801E+02  0.00000000000E+00 0. -1.
         21   -1    0    0  503  504 -0.00000000000E+00 -0.00000000000E+00 -0.85534934222E+03  0.85534934222E+03  0.00000000000E+00 0. -1.
         -6    2    1    2    0  504  0.40239643152E+02  0.30945775080E+02 -0.40916874020E+03  0.44703886656E+03  0.17276521751E+03 0.  0.
        -24    2    3    3    0    0 -0.31135580950E+02  0.45409555100E+02 -0.27480624088E+03  0.29413695430E+03  0.89255956462E+02 0.  0.
          6    2    1    2  502    0 -0.40239643152E+02 -0.30945775080E+02 -0.40820886521E+03  0.44628221246E+03  0.17307936226E+03 0.  0.
         24    2    5    5    0    0  0.87669119919E+01 -0.31734933553E+01 -0.36972655518E+03  0.37790151149E+03  0.77620209839E+02 0.  0.
          2    1    6    6  501    0 -0.79656161940E+01  0.55925268835E+01 -0.35155705527E+03  0.35169175496E+03  0.00000000000E+00 0. -1.
         -1    1    6    6    0  501  0.16732528186E+02 -0.87660202388E+01 -0.18169499912E+02  0.26209756530E+02  0.00000000000E+00 0.  1.
          5    1    5    5  502    0 -0.49006555144E+02 -0.27772281725E+02 -0.38482310032E+02  0.68380700967E+02  0.47000000000E+01 0. -1.
         13    1    4    4    0    0  0.22898704426E+02 -0.10692454725E+02 -0.46718573105E+02  0.53115951704E+02  0.00000000000E+00 0. -1.
        -14    1    4    4    0    0 -0.54034285375E+02  0.56102009825E+02 -0.22808766777E+03  0.24102100259E+03  0.00000000000E+00 0.  1.
         -5    1    3    3    0  504  0.71375224102E+02 -0.14463780020E+02 -0.13436249933E+03  0.15290191226E+03  0.47000000000E+01 0.  1.
<mgrwt>
<rscale>  2 0.18029459E+03</rscale>
<asrwt>0</asrwt>
<pdfrwt beam="1">  1       21 0.58418064E-02 0.18037000E+03</pdfrwt>
<pdfrwt beam="2">  1       21 0.13159219E+00 0.18037000E+03</pdfrwt>
<totfact> 0.87010142E+04</totfact>
</mgrwt>
</event>
<event>
12    1  0.1410528E-001  0.2155815E+03  0.7546771E-02  0.1137361E+00
         21   -1    0    0  502  503  0.00000000000E+00  0.00000000000E+00  0.10128917642E+04  0.10128917642E+04  0.00000000000E+00 0.  1.
         21   -1    0    0  503  504 -0.00000000000E+00 -0.00000000000E+00 -0.82729112053E+02  0.82729112053E+02  0.00000000000E+00 0. -1.
         -6    2    1    2    0  504 -0.90162893565E+02  0.89984786794E+02  0.98289406465E+02  0.23626736295E+03  0.17301690710E+03 0.  0.
        -24    2    3    3    0    0  0.21582897545E+01  0.39844558270E+01  0.12433997367E+02  0.83583051091E+02  0.82528710375E+02 0.  0.
          6    2    1    2  502    0  0.90162893565E+02 -0.89984786794E+02  0.83187324572E+03  0.85935351334E+03  0.17392169135E+03 0.  0.
         24    2    5    5    0    0  0.54768574357E+02 -0.31211129035E+02  0.72576965136E+03  0.73291315817E+03  0.80289347244E+02 0.  0.
          2    1    6    6  501    0 -0.10935868760E+02 -0.19894750954E+02  0.38581534763E+03  0.38648269924E+03  0.00000000000E+00 0. -1.
         -1    1    6    6    0  501  0.65704443117E+02 -0.11316378081E+02  0.33995430372E+03  0.34643045894E+03  0.00000000000E+00 0.  1.
          5    1    5    5  502    0  0.35394319208E+02 -0.58773657759E+02  0.10610359436E+03  0.12644035517E+03  0.47000000000E+01 0. -1.
         13    1    4    4    0    0  0.32338858789E+02  0.17431926750E+02 -0.15924766292E+02  0.40040879604E+02  0.00000000000E+00 0. -1.
        -14    1    4    4    0    0 -0.30180569035E+02 -0.13447470923E+02  0.28358763658E+02  0.43542171486E+02  0.00000000000E+00 0.  1.
         -5    1    3    3    0  504 -0.92321183319E+02  0.86000330967E+02  0.85855409099E+02  0.15268431186E+03  0.47000000000E+01 0.  1.
<mgrwt>
<rscale>  2 0.21539890E+03</rscale>
<asrwt>0</asrwt>
<pdfrwt beam="1">  1       21 0.15582949E+00 0.21558146E+03</pdfrwt>
<pdfrwt beam="2">  1       21 0.12727556E-01 0.21558146E+03</pdfrwt>
<totfact> 0.14038373E+04</totfact>
</mgrwt>
</event>
<event>
12    1  0.1410528E-001  0.1795543E+03  0.7546771E-02  0.1168379E+00
         21   -1    0    0  502  503  0.00000000000E+00  0.00000000000E+00  0.63985617552E+02  0.63985617552E+02  0.00000000000E+00 0. -1.
         21   -1    0    0  503  504 -0.00000000000E+00 -0.00000000000E+00 -0.75152757098E+03  0.75152757098E+03  0.00000000000E+00 0. -1.
         -6    2    1    2    0  504 -0.45446023749E+02  0.62477895470E+01 -0.57901004257E+03  0.60621149610E+03  0.17359542811E+03 0.  0.
        -24    2    3    3    0    0  0.89045535883E+01  0.22212549327E+02 -0.13791832639E+03  0.16147241429E+03  0.80493399723E+02 0.  0.
          6    2    1    2  502    0  0.45446023749E+02 -0.62477895470E+01 -0.10853191086E+03  0.20930169243E+03  0.17298452772E+03 0.  0.
         24    2    5    5    0    0  0.79491953785E+01  0.60832523235E+02 -0.69642928117E+02  0.12304496238E+03  0.80784526612E+02 0.  0.
          2    1    6    6  501    0 -0.34525231989E+02  0.27687062234E+02 -0.16116011326E+02  0.47098735440E+02  0.00000000000E+00 0. -1.
         -1    1    6    6    0  501  0.42474427367E+02  0.33145461001E+02 -0.53526916791E+02  0.75946226939E+02  0.00000000000E+00 0.  1.
          5    1    5    5  502    0  0.37496828371E+02 -0.67080312782E+02 -0.38888982744E+02  0.86256730054E+02  0.47000000000E+01 0. -1.
         13    1    4    4    0    0  0.34253721472E+02 -0.12403722416E+02 -0.37549536285E+02  0.52317658966E+02  0.00000000000E+00 0. -1.
        -14    1    4    4    0    0 -0.25349167884E+02  0.34616271743E+02 -0.10036879011E+03  0.10915475532E+03  0.00000000000E+00 0.  1.
         -5    1    3    3    0  504 -0.54350577338E+02 -0.15964759780E+02 -0.44109171617E+03  0.44473908181E+03  0.47000000000E+01 0.  1.
<mgrwt>
<rscale>  2 0.17940648E+03</rscale>
<asrwt>0</asrwt>
<pdfrwt beam="1">  1       21 0.98439404E-02 0.17955431E+03</pdfrwt>
<pdfrwt beam="2">  1       21 0.11561964E+00 0.17955431E+03</pdfrwt>
<totfact> 0.48604252E+04</totfact>
</mgrwt>
</event>
<event>
12    1  0.1410528E-001  0.1870634E+03  0.7546771E-02  0.1161141E+00
         21   -1    0    0  502  503  0.00000000000E+00  0.00000000000E+00  0.39670816448E+03  0.39670816448E+03  0.00000000000E+00 0. -1.
         21   -1    0    0  503  504 -0.00000000000E+00 -0.00000000000E+00 -0.88550588413E+02  0.88550588413E+02  0.00000000000E+00 0. -1.
         -6    2    1    2    0  504  0.46591339370E+02 -0.54780735814E+02  0.16936535174E+03  0.25232954589E+03  0.17266700738E+03 0.  0.
        -24    2    3    3    0    0  0.60931785487E+02  0.26849209242E+02  0.90337625585E+02  0.13771467850E+03  0.79817814801E+02 0.  0.
          6    2    1    2  502    0 -0.46591339370E+02  0.54780735814E+02  0.13879222432E+03  0.23292920700E+03  0.17268772979E+03 0.  0.
         24    2    5    5    0    0 -0.12222647772E+02  0.83250891535E+02  0.14825927849E+03  0.18706558477E+03  0.77023472320E+02 0.  0.
          2    1    6    6  501    0 -0.31652379085E+02  0.78549608946E+02  0.82093737724E+02  0.11794615696E+03  0.00000000000E+00 0. -1.
         -1    1    6    6    0  501  0.19429731314E+02  0.47012825895E+01  0.66165540765E+02  0.69119427816E+02  0.00000000000E+00 0.  1.
          5    1    5    5  502    0 -0.34368691598E+02 -0.28470155721E+02 -0.94670541688E+01  0.45863622225E+02  0.47000000000E+01 0. -1.
         13    1    4    4    0    0  0.36348213173E+02 -0.24548209312E+02  0.23059433904E+02  0.49553452687E+02  0.00000000000E+00 0. -1.
        -14    1    4    4    0    0  0.24583572314E+02  0.51397418553E+02  0.67278191680E+02  0.88161225816E+02  0.00000000000E+00 0.  1.
         -5    1    3    3    0  504 -0.14340446117E+02 -0.81629945056E+02  0.79027726158E+02  0.11461486739E+03  0.47000000000E+01 0.  1.
<mgrwt>
<rscale>  2 0.18705867E+03</rscale>
<asrwt>0</asrwt>
<pdfrwt beam="1">  1       21 0.61032024E-01 0.18706345E+03</pdfrwt>
<pdfrwt beam="2">  1       21 0.13623168E-01 0.18706345E+03</pdfrwt>
<totfact> 0.11692342E+05</totfact>
</mgrwt>
</event>
<event>
12    1  0.1410528E-001  0.2677710E+03  0.7546771E-02  0.1102568E+00
         21   -1    0    0  502  503  0.00000000000E+00  0.00000000000E+00  0.18461649521E+03  0.18461649521E+03  0.00000000000E+00 0.  1.
         21   -1    0    0  503  504 -0.00000000000E+00 -0.00000000000E+00 -0.78849645148E+03  0.78849645148E+03  0.00000000000E+00 0. -1.
         -6    2    1    2    0  504 -0.13253163853E+03 -0.15591249444E+03 -0.64857680280E+03  0.70167881085E+03  0.17270768173E+03 0.  0.
        -24    2    3    3    0    0 -0.68500611901E+02 -0.17012488198E+03 -0.51789781909E+03  0.55538782987E+03  0.81256884362E+02 0.  0.
          6    2    1    2  502    0  0.13253163853E+03  0.15591249444E+03  0.44696846524E+02  0.27143413584E+03  0.17264223376E+03 0.  0.
         24    2    5    5    0    0  0.18459806167E+02  0.93358848035E+02  0.82964994299E+02  0.13574374285E+03  0.49865163120E+02 0.  0.
          2    1    6    6  501    0  0.28371761612E+02  0.90450122171E+02  0.64734330404E+02  0.11478987321E+03  0.00000000000E+00 0. -1.
         -1    1    6    6    0  501 -0.99119554455E+01  0.29087258644E+01  0.18230663895E+02  0.20953869642E+02  0.00000000000E+00 0.  1.
          5    1    5    5  502    0  0.11407183236E+03  0.62553646407E+02 -0.38268147776E+02  0.13569039300E+03  0.47000000000E+01 0. -1.
         11    1    4    4    0    0 -0.10402876109E+02 -0.45734878224E+02 -0.24998642043E+03  0.25434840145E+03  0.00000000000E+00 0. -1.
        -12    1    4    4    0    0 -0.58097735792E+02 -0.12439000375E+03 -0.26791139865E+03  0.30103942842E+03  0.00000000000E+00 0.  1.
         -5    1    3    3    0  504 -0.64031026628E+02  0.14212387536E+02 -0.13067898371E+03  0.14629098098E+03  0.47000000000E+01 0.  1.
<mgrwt>
<rscale>  2 0.26776040E+03</rscale>
<asrwt>0</asrwt>
<pdfrwt beam="1">  1       21 0.28402538E-01 0.26777096E+03</pdfrwt>
<pdfrwt beam="2">  1       21 0.12130715E+00 0.26777096E+03</pdfrwt>
<totfact> 0.57867624E+03</totfact>
</mgrwt>
</event>
<event>
12    1  0.1410528E-001  0.1954937E+03  0.7546771E-02  0.1153621E+00
         21   -1    0    0  502  503  0.00000000000E+00  0.00000000000E+00  0.14886589515E+02  0.14886589515E+02  0.00000000000E+00 0. -1.
         21   -1    0    0  503  504 -0.00000000000E+00 -0.00000000000E+00 -0.26561940475E+04  0.26561940475E+04  0.00000000000E+00 0. -1.
         -6    2    1    2    0  504  0.82362342883E+02  0.36198385097E+02 -0.10746760146E+04  0.10923123724E+04  0.17356239194E+03 0.  0.
        -24    2    3    3    0    0  0.10000919380E+03  0.49106236216E+02 -0.51330450288E+03  0.53049559786E+03  0.74369384767E+02 0.  0.
          6    2    1    2  502    0 -0.82362342883E+02 -0.36198385097E+02 -0.15666314434E+04  0.15787682647E+04  0.17343954392E+03 0.  0.
         24    2    5    5    0    0 -0.78483151602E+02 -0.45326046675E+01 -0.15068516916E+04  0.15108456727E+04  0.76632085793E+02 0.  0.
          2    1    6    6  501    0 -0.42929686809E+02 -0.80850633875E+00 -0.13144558523E+04  0.13151569485E+04  0.00000000000E+00 0. -1.
         -1    1    6    6    0  501 -0.35553464793E+02 -0.37240983288E+01 -0.19239583932E+03  0.19568872414E+03  0.00000000000E+00 0.  1.
          5    1    5    5  502    0 -0.38791912811E+01 -0.31665780430E+02 -0.59779751827E+02  0.67922591997E+02  0.47000000000E+01 0. -1.
         13    1    4    4    0    0  0.28020557393E+02  0.31585283442E+02 -0.75840198100E+02  0.86801597995E+02  0.00000000000E+00 0. -1.
        -14    1    4    4    0    0  0.71988636403E+02  0.17520952774E+02 -0.43746430478E+03  0.44369399986E+03  0.00000000000E+00 0.  1.
         -5    1    3    3    0  504 -0.17646850913E+02 -0.12907851119E+02 -0.56137151172E+03  0.56181677453E+03  0.47000000000E+01 0.  1.
<mgrwt>
<rscale>  2 0.19546642E+03</rscale>
<asrwt>0</asrwt>
<pdfrwt beam="1">  1       21 0.22902464E-02 0.19549369E+03</pdfrwt>
<pdfrwt beam="2">  1       21 0.40864491E+00 0.19549369E+03</pdfrwt>
<totfact> 0.75607737E+03</totfact>
</mgrwt>
</event>
<event>
12    1  0.1410528E-001  0.1894146E+03  0.7546771E-02  0.1159333E+00
         21   -1    0    0  502  503  0.00000000000E+00  0.00000000000E+00  0.50824654607E+02  0.50824654607E+02  0.00000000000E+00 0.  1.
         21   -1    0    0  503  504 -0.00000000000E+00 -0.00000000000E+00 -0.83139726814E+03  0.83139726814E+03  0.00000000000E+00 0.  1.
         -6    2    1    2    0  504 -0.30843342106E+02  0.71182687888E+02 -0.56412885098E+03  0.59460100428E+03  0.17114528034E+03 0.  0.
        -24    2    3    3    0    0  0.26893634307E+02  0.26018867887E+02 -0.15524224045E+03  0.17916908525E+03  0.81247515886E+02 0.  0.
          6    2    1    2  502    0  0.30843342106E+02 -0.71182687888E+02 -0.21644376255E+03  0.28762091846E+03  0.17279931592E+03 0.  0.
         24    2    5    5    0    0  0.25545273149E+02 -0.11671938989E+03 -0.16559215540E+03  0.21899412549E+03  0.79130829092E+02 0.  0.
          2    1    6    6  501    0  0.27012094954E+02 -0.16504340752E+02 -0.87133195342E+01  0.32832430230E+02  0.00000000000E+00 0. -1.
         -1    1    6    6    0  501 -0.14668218050E+01 -0.10021504914E+03 -0.15687883586E+03  0.18616169526E+03  0.00000000000E+00 0.  1.
          5    1    5    5  502    0  0.52980689566E+01  0.45536701999E+02 -0.50851607157E+02  0.68626792975E+02  0.47000000000E+01 0. -1.
         13    1    4    4    0    0  0.84194557447E+01 -0.25213942836E+02 -0.19676232810E+02  0.33072409739E+02  0.00000000000E+00 0. -1.
        -14    1    4    4    0    0  0.18474178562E+02  0.51232810723E+02 -0.13556600764E+03  0.14609667551E+03  0.00000000000E+00 0.  1.
         -5    1    3    3    0  504 -0.57736976413E+02  0.45163820001E+02 -0.40888661053E+03  0.41543191903E+03  0.47000000000E+01 0.  1.
<mgrwt>
<rscale>  2 0.18903654E+03</rscale>
<asrwt>0</asrwt>
<pdfrwt beam="1">  1       21 0.78191781E-02 0.18941460E+03</pdfrwt>
<pdfrwt beam="2">  1       21 0.12790726E+00 0.18941460E+03</pdfrwt>
<totfact> 0.56321802E+04</totfact>
</mgrwt>
</event>
<event>
12    1  0.1410528E-001  0.2521473E+03  0.7546771E-02  0.1112148E+00
         21   -1    0    0  502  503  0.00000000000E+00  0.00000000000E+00  0.50913657573E+03  0.50913657573E+03  0.00000000000E+00 0.  1.
         21   -1    0    0  503  504 -0.00000000000E+00 -0.00000000000E+00 -0.16047642095E+03  0.16047642095E+03  0.00000000000E+00 0. -1.
         -6    2    1    2    0  504  0.16506699493E+03  0.73342168178E+02  0.15622778083E+02  0.25263082824E+03  0.17593202590E+03 0.  0.
        -24    2    3    3    0    0  0.16251982016E+03  0.19578694511E+02  0.48397241459E+02  0.18943862422E+03  0.82150362996E+02 0.  0.
          6    2    1    2  502    0 -0.16506699493E+03 -0.73342168178E+02  0.33303737669E+03  0.41698216843E+03  0.17416672491E+03 0.  0.
         24    2    5    5    0    0 -0.22526853398E+02 -0.54730063722E+02  0.19007899558E+03  0.21419338395E+03  0.79031273364E+02 0.  0.
          4    1    6    6  501    0 -0.51184457240E+01 -0.34131735700E+02  0.16007193244E+02  0.38044764477E+02  0.00000000000E+00 0. -1.
         -3    1    6    6    0  501 -0.17408407674E+02 -0.20598328021E+02  0.17407180233E+03  0.17614861947E+03  0.00000000000E+00 0.  1.
          5    1    5    5  502    0 -0.14254014153E+03 -0.18612104456E+02  0.14295838112E+03  0.20278878448E+03  0.47000000000E+01 0. -1.
         11    1    4    4    0    0  0.21368363567E+01  0.22592863725E+02  0.45911959626E+01  0.23153458516E+02  0.00000000000E+00 0. -1.
        -12    1    4    4    0    0  0.16038298381E+03 -0.30141692132E+01  0.43806045496E+02  0.16628516570E+03  0.00000000000E+00 0.  1.
         -5    1    3    3    0  504  0.25471747674E+01  0.53763473667E+02 -0.32774463376E+02  0.63192204025E+02  0.47000000000E+01 0.  1.
<mgrwt>
<rscale>  2 0.25183961E+03</rscale>
<asrwt>0</asrwt>
<pdfrwt beam="1">  1       21 0.78328703E-01 0.25214731E+03</pdfrwt>
<pdfrwt beam="2">  1       21 0.24688680E-01 0.25214731E+03</pdfrwt>
<totfact> 0.21668392E+04</totfact>
</mgrwt>
</event>
<event>
12    1  0.1410528E-001  0.1826234E+03  0.7546771E-02  0.1165539E+00
         21   -1    0    0  502  503  0.00000000000E+00  0.00000000000E+00  0.20659993535E+03  0.20659993535E+03  0.00000000000E+00 0.  1.
         21   -1    0    0  503  504 -0.00000000000E+00 -0.00000000000E+00 -0.30699158141E+03  0.30699158141E+03  0.00000000000E+00 0.  1.
         -6    2    1    2    0  504 -0.23064806918E+02  0.52411066874E+02 -0.22751003199E+03  0.29108222956E+03  0.17230538140E+03 0.  0.
        -24    2    3    3    0    0  0.83404637771E+01 -0.32550521077E+02 -0.13712533443E+03  0.16303440253E+03  0.81533792422E+02 0.  0.
          6    2    1    2  502    0  0.23064806918E+02 -0.52411066874E+02  0.12711838593E+03  0.22250928720E+03  0.17341393716E+03 0.  0.
         24    2    5    5    0    0  0.35869077358E+02 -0.92038001413E+02  0.12446062397E+03  0.18051646661E+03  0.85663080648E+02 0.  0.
          2    1    6    6  501    0 -0.68980118096E+01 -0.85752722721E+02  0.95227386900E+02  0.12833303252E+03  0.00000000000E+00 0. -1.
         -1    1    6    6    0  501  0.42767089167E+02 -0.62852786920E+01  0.29233237067E+02  0.52183434091E+02  0.00000000000E+00 0.  1.
          5    1    5    5  502    0 -0.12804270440E+02  0.39626934539E+02  0.26577619648E+01  0.41992820590E+02  0.47000000000E+01 0. -1.
         13    1    4    4    0    0  0.36928408532E+02  0.28123773712E+01 -0.33779215122E+02  0.50126362300E+02  0.00000000000E+00 0. -1.
        -14    1    4    4    0    0 -0.28587944755E+02 -0.35362898448E+02 -0.10334611931E+03  0.11290804023E+03  0.00000000000E+00 0.  1.
         -5    1    3    3    0  504 -0.31405270695E+02  0.84961587951E+02 -0.90384697554E+02  0.12804782703E+03  0.47000000000E+01 0.  1.
<mgrwt>
<rscale>  2 0.18235973E+03</rscale>
<asrwt>0</asrwt>
<pdfrwt beam="1">  1       21 0.31784606E-01 0.18262338E+03</pdfrwt>
<pdfrwt beam="2">  1       21 0.47229474E-01 0.18262338E+03</pdfrwt>
<totfact> 0.41026547E+04</totfact>
</mgrwt>
</event>
<event>
12    1  0.1410528E-001  0.2332650E+03  0.7546771E-02  0.1125518E+00
         21   -1    0    0  502  503  0.00000000000E+00  0.00000000000E+00  0.50125088298E+03  0.50125088298E+03  0.00000000000E+00 0. -1.
         21   -1    0    0  503  504 -0.00000000000E+00 -0.00000000000E+00 -0.11157154091E+03  0.11157154091E+03  0.00000000000E+00 0. -1.
         -6    2    1    2    0  504  0.10836784367E+03  0.11059949691E+03  0.12607370537E+03  0.26515492677E+03  0.17446122132E+03 0.  0.
        -24    2    3    3    0    0  0.55211309828E+02  0.11253590809E+03  0.22354263325E+02  0.14849653900E+03  0.76412627635E+02 0.  0.
          6    2    1    2  502    0 -0.10836784367E+03 -0.11059949691E+03  0.26360563670E+03  0.34766749713E+03  0.16555639101E+03 0.  0.
         24    2    5    5    0    0 -0.10297080988E+03 -0.30039348116E+02  0.21885856757E+03  0.25523668115E+03  0.75771635084E+02 0.  0.
          2    1    6    6  501    0 -0.47768189227E+02 -0.53152816174E+02  0.12115814965E+03  0.14066385106E+03  0.00000000000E+00 0. -1.
         -1    1    6    6    0  501 -0.55202620648E+02  0.23113468057E+02  0.97700417923E+02  0.11457283009E+03  0.00000000000E+00 0.  1.
          5    1    5    5  502    0 -0.53970337902E+01 -0.80560148793E+02  0.44747069123E+02  0.92430815978E+02  0.47000000000E+01 0. -1.
         11    1    4    4    0    0 -0.17014852257E+02  0.44229458126E+02  0.77761003965E+01  0.48023097576E+02  0.00000000000E+00 0. -1.
        -12    1    4    4    0    0  0.72226162085E+02  0.68306449969E+02  0.14578162929E+02  0.10047344142E+03  0.00000000000E+00 0.  1.
         -5    1    3    3    0  504  0.53156533838E+02 -0.19364111853E+01  0.10371944205E+03  0.11665838777E+03  0.47000000000E+01 0.  1.
<mgrwt>
<rscale>  2 0.23160155E+03</rscale>
<asrwt>0</asrwt>
<pdfrwt beam="1">  1       21 0.77115519E-01 0.23326499E+03</pdfrwt>
<pdfrwt beam="2">  1       21 0.17164853E-01 0.23326499E+03</pdfrwt>
<totfact> 0.44897075E+04</totfact>
</mgrwt>
</event>
<event>
12    1  0.1410528E-001  0.1955933E+03  0.7546771E-02  0.1154338E+00
         21   -1    0    0  502  503  0.00000000000E+00  0.00000000000E+00  0.17376433621E+04  0.17376433621E+04  0.00000000000E+00 0.  1.
         21   -1    0    0  503  504 -0.00000000000E+00 -0.00000000000E+00 -0.55987789020E+03  0.55987789020E+03  0.00000000000E+00 0.  1.
         -6    2    1    2    0  504  0.74619638579E+02  0.44679230512E+02 -0.53772518449E+03  0.57091622228E+03  0.17097553839E+03 0.  0.
        -24    2    3    3    0    0  0.75247827413E+02 -0.15134153583E+02 -0.21396574789E+03  0.24164384518E+03  0.81970290383E+02 0.  0.
          6    2    1    2  502    0 -0.74619638579E+02 -0.44679230512E+02  0.17154906564E+04  0.17266050300E+04  0.17519250387E+03 0.  0.
         24    2    5    5    0    0 -0.64153676081E+02  0.40451283706E+02  0.84818018427E+03  0.85505108110E+03  0.77140947572E+02 0.  0.
          2    1    6    6  501    0 -0.42285290136E+02 -0.64378871366E+01  0.18608405573E+03  0.19093655477E+03  0.00000000000E+00 0. -1.
         -1    1    6    6    0  501 -0.21868385945E+02  0.46889170842E+02  0.66209612854E+03  0.66411452633E+03  0.00000000000E+00 0.  1.
          5    1    5    5  502    0 -0.10465962498E+02 -0.85130514217E+02  0.86731047209E+03  0.87155394888E+03  0.47000000000E+01 0. -1.
         13    1    4    4    0    0  0.67775398705E+02  0.23786698090E+02 -0.12332989496E+03  0.14272201886E+03  0.00000000000E+00 0. -1.
        -14    1    4    4    0    0  0.74724287080E+01 -0.38920851673E+02 -0.90635852931E+02  0.98921826319E+02  0.00000000000E+00 0.  1.
         -5    1    3    3    0  504 -0.62818883383E+00  0.59813384095E+02 -0.32375943660E+03  0.32927237711E+03  0.47000000000E+01 0.  1.
<mgrwt>
<rscale>  2 0.19464442E+03</rscale>
<asrwt>0</asrwt>
<pdfrwt beam="1">  1       21 0.26732975E+00 0.19559330E+03</pdfrwt>
<pdfrwt beam="2">  1       21 0.86135061E-01 0.19559330E+03</pdfrwt>
<totfact> 0.60940459E+01</totfact>
</mgrwt>
</event>
<event>
12    1  0.1410528E-001  0.1872912E+03  0.7546771E-02  0.1161237E+00
         21   -1    0    0  502  503  0.00000000000E+00  0.00000000000E+00  0.17659892946E+03  0.17659892946E+03  0.00000000000E+00 0. -1.
         21   -1    0    0  503  504 -0.00000000000E+00 -0.00000000000E+00 -0.20731647633E+03  0.20731647633E+03  0.00000000000E+00 0. -1.
         -6    2    1    2    0  504 -0.29095235916E+01  0.66673732395E+02 -0.57685848270E+02  0.19469258732E+03  0.17356178884E+03 0.  0.
        -24    2    3    3    0    0  0.44736237333E+02  0.52245884063E+02 -0.86478722479E+02  0.13699162591E+03  0.80976371843E+02 0.  0.
          6    2    1    2  502    0  0.29095235916E+01 -0.66673732395E+02  0.26968301402E+02  0.18922281848E+03  0.17499752522E+03 0.  0.
         24    2    5    5    0    0  0.51453997235E+02 -0.34515877064E+02 -0.31342875144E+02  0.10668205951E+03  0.80992755225E+02 0.  0.
          2    1    6    6  501    0  0.28050583477E+02 -0.56504069990E+02 -0.18956344168E+01  0.63112111268E+02  0.00000000000E+00 0. -1.
         -1    1    6    6    0  501  0.23403413758E+02  0.21988192926E+02 -0.29447240727E+02  0.43569948246E+02  0.00000000000E+00 0.  1.
          5    1    5    5  502    0 -0.48544473643E+02 -0.32157855331E+02  0.58311176546E+02  0.82540758968E+02  0.47000000000E+01 0. -1.
         11    1    4    4    0    0  0.58437301376E+02  0.81684938850E+01 -0.38733709983E+02  0.70582878756E+02  0.00000000000E+00 0. -1.
        -12    1    4    4    0    0 -0.13701064044E+02  0.44077390178E+02 -0.47745012496E+02  0.66408747158E+02  0.00000000000E+00 0.  1.
         -5    1    3    3    0  504 -0.47645760924E+02  0.14427848332E+02  0.28792874209E+02  0.57700961402E+02  0.47000000000E+01 0.  1.
<mgrwt>
<rscale>  2 0.18695508E+03</rscale>
<asrwt>0</asrwt>
<pdfrwt beam="1">  1       21 0.27169066E-01 0.18729118E+03</pdfrwt>
<pdfrwt beam="2">  1       21 0.31894842E-01 0.18729118E+03</pdfrwt>
<totfact> 0.12229821E+05</totfact>
</mgrwt>
</event>
<event>
12    1  0.1410528E-001  0.1820977E+03  0.7546771E-02  0.1166298E+00
         21   -1    0    0  502  503  0.00000000000E+00  0.00000000000E+00  0.25555785592E+02  0.25555785592E+02  0.00000000000E+00 0.  1.
         21   -1    0    0  503  504 -0.00000000000E+00 -0.00000000000E+00 -0.14897302940E+04  0.14897302940E+04  0.00000000000E+00 0.  1.
         -6    2    1    2    0  504  0.32513469913E+02  0.33919451030E+02 -0.10184016928E+04  0.10345538142E+04  0.17593161055E+03 0.  0.
        -24    2    3    3    0    0  0.37497127892E+02  0.69497051374E+02 -0.43692841582E+03  0.45195286639E+03  0.84374629684E+02 0.  0.
          6    2    1    2  502    0 -0.32513469913E+02 -0.33919451030E+02 -0.44577281556E+03  0.48073226540E+03  0.17373097886E+03 0.  0.
         24    2    5    5    0    0  0.29525101691E+02  0.39598580632E+02 -0.10495932516E+03  0.12657183482E+03  0.50637833816E+02 0.  0.
          4    1    6    6  501    0  0.43265932693E+02  0.26831680687E+02 -0.66197195768E+02  0.83510171523E+02  0.00000000000E+00 0. -1.
         -3    1    6    6    0  501 -0.13740831002E+02  0.12766899945E+02 -0.38762129390E+02  0.43061663295E+02  0.00000000000E+00 0.  1.
          5    1    5    5  502    0 -0.62038571604E+02 -0.73518031662E+02 -0.34081349041E+03  0.35416043058E+03  0.47000000000E+01 0. -1.
         13    1    4    4    0    0 -0.15335170947E+02  0.28803202043E+02 -0.27353381734E+03  0.27547330387E+03  0.00000000000E+00 0. -1.
        -14    1    4    4    0    0  0.52832298839E+02  0.40693849330E+02 -0.16339459848E+03  0.17647956251E+03  0.00000000000E+00 0.  1.
         -5    1    3    3    0  504 -0.49836579788E+01 -0.35577600343E+02 -0.58147327702E+03  0.58260094780E+03  0.47000000000E+01 0.  1.
<mgrwt>
<rscale>  2 0.18156409E+03</rscale>
<asrwt>0</asrwt>
<pdfrwt beam="1">  1       21 0.39316597E-02 0.18209774E+03</pdfrwt>
<pdfrwt beam="2">  1       21 0.22918925E+00 0.18209774E+03</pdfrwt>
<totfact> 0.35963249E+04</totfact>
</mgrwt>
</event>
<event>
12    1  0.1410528E-001  0.1867469E+03  0.7546771E-02  0.1161888E+00
         21   -1    0    0  502  503  0.00000000000E+00  0.00000000000E+00  0.15715683721E+02  0.15715683721E+02  0.00000000000E+00 0. -1.
         21   -1    0    0  503  504 -0.00000000000E+00 -0.00000000000E+00 -0.21978182163E+04  0.21978182163E+04  0.00000000000E+00 0.  1.
         -6    2    1    2    0  504  0.58990740451E+02 -0.35573899748E+02 -0.10499952353E+04  0.10661275550E+04  0.17144258351E+03 0.  0.
        -24    2    3    3    0    0  0.92072000361E+02 -0.53797508262E+02 -0.61815033313E+03  0.63260872121E+03  0.81930059551E+02 0.  0.
          6    2    1    2  502    0 -0.58990740451E+02  0.35573899748E+02 -0.11321072972E+04  0.11474063450E+04  0.17357700995E+03 0.  0.
         24    2    5    5    0    0 -0.11070341854E+02  0.65179409074E+02 -0.97409517858E+03  0.97958867486E+03  0.79759934397E+02 0.  0.
          4    1    6    6  501    0  0.32225131154E+02  0.23836331132E+02 -0.52383497485E+03  0.52536626332E+03  0.00000000000E+00 0. -1.
         -3    1    6    6    0  501 -0.43295473008E+02  0.41343077942E+02 -0.45026020374E+03  0.45422241154E+03  0.00000000000E+00 0.  1.
          5    1    5    5  502    0 -0.47920398597E+02 -0.29605509327E+02 -0.15801211863E+03  0.16781767017E+03  0.47000000000E+01 0. -1.
         13    1    4    4    0    0  0.50396449262E+02  0.13706589737E+02 -0.18395062903E+03  0.19122109356E+03  0.00000000000E+00 0. -1.
        -14    1    4    4    0    0  0.41675551099E+02 -0.67504097999E+02 -0.43419970410E+03  0.44138762766E+03  0.00000000000E+00 0.  1.
         -5    1    3    3    0  504 -0.33081259909E+02  0.18223608514E+02 -0.43184490221E+03  0.43351883377E+03  0.47000000000E+01 0.  1.
<mgrwt>
<rscale>  2 0.18624932E+03</rscale>
<asrwt>0</asrwt>
<pdfrwt beam="1">  1       21 0.24177954E-02 0.18674686E+03</pdfrwt>
<pdfrwt beam="2">  1       21 0.33812617E+00 0.18674686E+03</pdfrwt>
<totfact> 0.18660231E+04</totfact>
</mgrwt>
</event>
<event>
12    1  0.1410528E-001  0.1787318E+03  0.7546771E-02  0.1170026E+00
         21   -1    0    0  502  503  0.00000000000E+00  0.00000000000E+00  0.46881902190E+03  0.46881902190E+03  0.00000000000E+00 0.  1.
         21   -1    0    0  503  504 -0.00000000000E+00 -0.00000000000E+00 -0.95727086444E+02  0.95727086444E+02  0.00000000000E+00 0.  1.
         -6    2    1    2    0  504  0.37085267392E+01  0.36268256067E+02  0.32377426853E+02  0.18164072490E+03  0.17497404266E+03 0.  0.
        -24    2    3    3    0    0  0.62810192803E+02  0.54303171036E+02  0.38140450323E+02  0.11940273386E+03  0.76865884483E+02 0.  0.
          6    2    1    2  502    0 -0.37085267392E+01 -0.36268256067E+02  0.34071450860E+03  0.38290538344E+03  0.17088304986E+03 0.  0.
         24    2    5    5    0    0 -0.59100882624E+02 -0.16929311885E+01  0.14605750735E+03  0.17753448892E+03  0.81791924782E+02 0.  0.
          2    1    6    6  501    0 -0.27533954591E+02  0.36610652806E+02  0.41578089365E+02  0.61864336007E+02  0.00000000000E+00 0. -1.
         -1    1    6    6    0  501 -0.31566928033E+02 -0.38303583995E+02  0.10447941798E+03  0.11567015291E+03  0.00000000000E+00 0.  1.
          5    1    5    5  502    0  0.55392355885E+02 -0.34575324879E+02  0.19465700125E+03  0.20537089452E+03  0.47000000000E+01 0. -1.
         13    1    4    4    0    0  0.76236842943E+02  0.24270760211E+02  0.30550036101E+02  0.85641291028E+02  0.00000000000E+00 0. -1.
        -14    1    4    4    0    0 -0.13426650140E+02  0.30032410824E+02  0.75904142218E+01  0.33761442830E+02  0.00000000000E+00 0.  1.
         -5    1    3    3    0  504 -0.59101666064E+02 -0.18034914968E+02 -0.57630234708E+01  0.62237991043E+02  0.47000000000E+01 0.  1.
<mgrwt>
<rscale>  2 0.17772253E+03</rscale>
<asrwt>0</asrwt>
<pdfrwt beam="1">  1       21 0.72126002E-01 0.17873180E+03</pdfrwt>
<pdfrwt beam="2">  1       21 0.14727244E-01 0.17873180E+03</pdfrwt>
<totfact> 0.70771639E+04</totfact>
</mgrwt>
</event>
<event>
12    1  0.1410528E-001  0.2456088E+03  0.7546771E-02  0.1116181E+00
         21   -1    0    0  502  503  0.00000000000E+00  0.00000000000E+00  0.32768354497E+03  0.32768354497E+03  0.00000000000E+00 0.  1.
         21   -1    0    0  503  504 -0.00000000000E+00 -0.00000000000E+00 -0.24271578578E+03  0.24271578578E+03  0.00000000000E+00 0. -1.
         -6    2    1    2    0  504  0.13013652860E+03 -0.11675821391E+03 -0.98090472947E+02  0.26407598490E+03  0.17189062897E+03 0.  0.
        -24    2    3    3    0    0  0.70628813530E+02 -0.18471479588E+02 -0.10086362980E+03  0.14904889811E+03  0.81929709829E+02 0.  0.
          6    2    1    2  502    0 -0.13013652860E+03  0.11675821391E+03  0.18305823214E+03  0.30632334585E+03  0.17249834569E+03 0.  0.
         24    2    5    5    0    0 -0.12767844754E+03  0.93314847921E+02  0.20675759030E+03  0.27256859583E+03  0.80842386650E+02 0.  0.
          2    1    6    6  501    0 -0.67835761105E+01 -0.86616470152E+01 -0.14545711885E+01  0.11097603850E+02  0.00000000000E+00 0. -1.
         -1    1    6    6    0  501 -0.12089487143E+03  0.10197649494E+03  0.20821216149E+03  0.26147099198E+03  0.00000000000E+00 0.  1.
          5    1    5    5  502    0 -0.24580810594E+01  0.23443365991E+02 -0.23699358158E+02  0.33754750015E+02  0.47000000000E+01 0. -1.
         11    1    4    4    0    0 -0.30936089652E+01 -0.18966232081E+02 -0.63605296485E+02  0.66444880290E+02  0.00000000000E+00 0. -1.
        -12    1    4    4    0    0  0.73722422495E+02  0.49475249344E+00 -0.37258333312E+02  0.82604017819E+02  0.00000000000E+00 0.  1.
         -5    1    3    3    0  504  0.59507715069E+02 -0.98286734323E+02  0.27731568502E+01  0.11502708679E+03  0.47000000000E+01 0.  1.
<mgrwt>
<rscale>  2 0.24550211E+03</rscale>
<asrwt>0</asrwt>
<pdfrwt beam="1">  1       21 0.50412853E-01 0.24560879E+03</pdfrwt>
<pdfrwt beam="2">  1       21 0.37340890E-01 0.24560879E+03</pdfrwt>
<totfact> 0.25198110E+04</totfact>
</mgrwt>
</event>
<event>
12    1  0.1410528E-001  0.1914332E+03  0.7546771E-02  0.1161249E+00
         21   -1    0    0  502  503  0.00000000000E+00  0.00000000000E+00  0.10663701284E+03  0.10663701284E+03  0.00000000000E+00 0.  1.
         21   -1    0    0  503  504 -0.00000000000E+00 -0.00000000000E+00 -0.49111501316E+03  0.49111501316E+03  0.00000000000E+00 0.  1.
         -6    2    1    2    0  504 -0.45619364429E+02 -0.66927430963E+02 -0.37780074118E+03  0.42353284527E+03  0.17345392345E+03 0.  0.
        -24    2    3    3    0    0 -0.83401026540E+02 -0.12069113941E+02 -0.30447124826E+03  0.32435525975E+03  0.73499651484E+02 0.  0.
          6    2    1    2  502    0  0.45619364429E+02  0.66927430963E+02 -0.66772591327E+01  0.17421918072E+03  0.15410168629E+03 0.  0.
         24    2    5    5    0    0  0.77367566932E+02  0.66151965463E+02  0.23515594895E+02  0.13014823629E+03  0.77612867870E+02 0.  0.
          2    1    6    6  501    0  0.42972977543E+02  0.15981014201E+02 -0.25108955163E+02  0.52273599868E+02  0.00000000000E+00 0. -1.
         -1    1    6    6    0  501  0.34394589389E+02  0.50170951261E+02  0.48624550058E+02  0.77874636424E+02  0.00000000000E+00 0.  1.
          5    1    5    5  502    0 -0.31748202502E+02  0.77546549980E+00 -0.30192854028E+02  0.44070944433E+02  0.47000000000E+01 0. -1.
         13    1    4    4    0    0  0.81499297939E+01  0.12722997722E+02 -0.24823278788E+02  0.29060130703E+02  0.00000000000E+00 0. -1.
        -14    1    4    4    0    0 -0.91550956334E+02 -0.24792111664E+02 -0.27964796947E+03  0.29529512904E+03  0.00000000000E+00 0.  1.
         -5    1    3    3    0  504  0.37781662111E+02 -0.54858317021E+02 -0.73329492919E+02  0.99177585522E+02  0.47000000000E+01 0.  1.
<mgrwt>
<rscale>  2 0.18694211E+03</rscale>
<asrwt>0</asrwt>
<pdfrwt beam="1">  1       21 0.16405694E-01 0.19143320E+03</pdfrwt>
<pdfrwt beam="2">  1       21 0.75556158E-01 0.19143320E+03</pdfrwt>
<totfact> 0.52116928E+04</totfact>
</mgrwt>
</event>
<event>
12    1  0.1410528E-001  0.1783530E+03  0.7546771E-02  0.1170108E+00
         21   -1    0    0  502  503  0.00000000000E+00  0.00000000000E+00  0.43483301270E+03  0.43483301270E+03  0.00000000000E+00 0. -1.
         21   -1    0    0  503  504 -0.00000000000E+00 -0.00000000000E+00 -0.29267927279E+03  0.29267927279E+03  0.00000000000E+00 0. -1.
         -6    2    1    2    0  504 -0.22246318321E+02 -0.32029072411E+02 -0.24464536804E+03  0.30275590115E+03  0.17403740810E+03 0.  0.
        -24    2    3    3    0    0 -0.58772511315E+02 -0.50344148030E+02 -0.23526312254E+03  0.26056915797E+03  0.80986467563E+02 0.  0.
          6    2    1    2  502    0  0.22246318321E+02  0.32029072411E+02  0.38679910795E+03  0.42475638434E+03  0.17112473806E+03 0.  0.
         24    2    5    5    0    0  0.31173960917E+02  0.65818868865E+02  0.36995390409E+03  0.38567564689E+03  0.81091763562E+02 0.  0.
          4    1    6    6  501    0  0.39432089145E+02  0.70637323579E+02  0.36678888768E+03  0.37560432541E+03  0.00000000000E+00 0. -1.
         -3    1    6    6    0  501 -0.82581282280E+01 -0.48184547140E+01  0.31650164093E+01  0.10071321489E+02  0.00000000000E+00 0.  1.
          5    1    5    5  502    0 -0.89276425963E+01 -0.33789796454E+02  0.16845203856E+02  0.39080737451E+02  0.47000000000E+01 0. -1.
         13    1    4    4    0    0 -0.39727114505E+00 -0.30672726318E+02 -0.16186874107E+03  0.16474969894E+03  0.00000000000E+00 0. -1.
        -14    1    4    4    0    0 -0.58375240170E+02 -0.19671421712E+02 -0.73394381469E+02  0.95819459027E+02  0.00000000000E+00 0.  1.
         -5    1    3    3    0  504  0.36526192994E+02  0.18315075619E+02 -0.93822454948E+01  0.42186743179E+02  0.47000000000E+01 0.  1.
<mgrwt>
<rscale>  2 0.17763842E+03</rscale>
<asrwt>0</asrwt>
<pdfrwt beam="1">  1       21 0.66897387E-01 0.17835296E+03</pdfrwt>
<pdfrwt beam="2">  1       21 0.45027580E-01 0.17835296E+03</pdfrwt>
<totfact> 0.97847565E+03</totfact>
</mgrwt>
</event>
<event>
12    1  0.1410528E-001  0.2771578E+03  0.7546771E-02  0.1097347E+00
         21   -1    0    0  502  503  0.00000000000E+00  0.00000000000E+00  0.89302323068E+03  0.89302323068E+03  0.00000000000E+00 0. -1.
         21   -1    0    0  503  504 -0.00000000000E+00 -0.00000000000E+00 -0.10801418017E+03  0.10801418017E+03  0.00000000000E+00 0. -1.
         -6    2    1    2    0  504 -0.61623683484E+02  0.20609899894E+03  0.16515377893E+03  0.32204036916E+03  0.17366621130E+03 0.  0.
        -24    2    3    3    0    0 -0.12387354079E+02  0.71193372319E+02  0.81858611603E+01  0.10923820415E+03  0.81510944781E+02 0.  0.
          6    2    1    2  502    0  0.61623683484E+02 -0.20609899894E+03  0.61985527158E+03  0.67899704169E+03  0.17476312309E+03 0.  0.
         24    2    5    5    0    0 -0.13168200948E+02 -0.10186447942E+03  0.17287401586E+03  0.21394543810E+03  0.73057863656E+02 0.  0.
          4    1    6    6  501    0  0.13115227240E+02 -0.85499621406E+02  0.87099409329E+02  0.12275382500E+03  0.00000000000E+00 0. -1.
         -3    1    6    6    0  501 -0.26283428188E+02 -0.16364858012E+02  0.85774606532E+02  0.91191613106E+02  0.00000000000E+00 0.  1.
          5    1    5    5  502    0  0.74791884432E+02 -0.10423451952E+03  0.44698125572E+03  0.46505160359E+03  0.47000000000E+01 0. -1.
         11    1    4    4    0    0 -0.27868809672E+02  0.69520975936E+01  0.28140571745E+02  0.40210620384E+02  0.00000000000E+00 0. -1.
        -12    1    4    4    0    0  0.15481455594E+02  0.64241274725E+02 -0.19954710585E+02  0.69027583763E+02  0.00000000000E+00 0.  1.
         -5    1    3    3    0  504 -0.49236329405E+02  0.13490562662E+03  0.15696791777E+03  0.21280216502E+03  0.47000000000E+01 0.  1.
<mgrwt>
<rscale>  2 0.27698501E+03</rscale>
<asrwt>0</asrwt>
<pdfrwt beam="1">  1       21 0.13738818E+00 0.27715776E+03</pdfrwt>
<pdfrwt beam="2">  1       21 0.16617567E-01 0.27715776E+03</pdfrwt>
<totfact> 0.11597384E+04</totfact>
</mgrwt>
</event>
<event>
12    1  0.1410528E-001  0.1951500E+03  0.7546771E-02  0.1154110E+00
         21   -1    0    0  502  503  0.00000000000E+00  0.00000000000E+00  0.55701330530E+03  0.55701330530E+03  0.00000000000E+00 0.  1.
         21   -1    0    0  503  504 -0.00000000000E+00 -0.00000000000E+00 -0.71761676898E+02  0.71761676898E+02  0.00000000000E+00 0.  1.
         -6    2    1    2    0  504  0.84733192321E+02  0.19828561257E+02  0.31374914923E+03  0.36897385922E+03  0.17358080086E+03 0.  0.
        -24    2    3    3    0    0  0.38230675672E+02 -0.55328654466E+02  0.17510645575E+03  0.20448988559E+03  0.81430939409E+02 0.  0.
          6    2    1    2  502    0 -0.84733192321E+02 -0.19828561257E+02  0.17150247918E+03  0.25980112298E+03  0.17467294414E+03 0.  0.
         24    2    5    5    0    0  0.12784792308E+02 -0.45086247517E+02  0.67099584063E+02  0.11464685143E+03  0.80282786019E+02 0.  0.
          2    1    6    6  501    0  0.72018198598E+01 -0.49112827050E+02  0.25205606564E+01  0.49702004146E+02  0.00000000000E+00 0. -1.
         -1    1    6    6    0  501  0.55829724478E+01  0.40265795324E+01  0.64579023407E+02  0.64944847280E+02  0.00000000000E+00 0.  1.
          5    1    5    5  502    0 -0.97517984628E+02  0.25257686260E+02  0.10440289512E+03  0.14515427155E+03  0.47000000000E+01 0. -1.
         13    1    4    4    0    0 -0.19638146772E+02 -0.36918724653E+02  0.48261295651E+02  0.63857667484E+02  0.00000000000E+00 0. -1.
        -14    1    4    4    0    0  0.57868822443E+02 -0.18409929813E+02  0.12684516010E+03  0.14063221810E+03  0.00000000000E+00 0.  1.
         -5    1    3    3    0  504  0.46502516649E+02  0.75157215723E+02  0.13864269347E+03  0.16448397364E+03  0.47000000000E+01 0.  1.
<mgrwt>
<rscale>  2 0.19490531E+03</rscale>
<asrwt>0</asrwt>
<pdfrwt beam="1">  1       21 0.85694352E-01 0.19515000E+03</pdfrwt>
<pdfrwt beam="2">  1       21 0.11040258E-01 0.19515000E+03</pdfrwt>
<totfact> 0.79996543E+04</totfact>
</mgrwt>
</event>
<event>
12    1  0.1410528E-001  0.2542307E+03  0.7546771E-02  0.1111397E+00
         21   -1    0    0  502  503  0.00000000000E+00  0.00000000000E+00  0.78617246607E+03  0.78617246607E+03  0.00000000000E+00 0. -1.
         21   -1    0    0  503  504 -0.00000000000E+00 -0.00000000000E+00 -0.84387753309E+02  0.84387753309E+02  0.00000000000E+00 0.  1.
         -6    2    1    2    0  504 -0.59366892170E+01  0.17996816709E+03  0.43881367925E+03  0.50479111458E+03  0.17272185391E+03 0.  0.
        -24    2    3    3    0    0 -0.12012294260E+02  0.12637551533E+03  0.41950966545E+03  0.44731224674E+03  0.89357823315E+02 0.  0.
          6    2    1    2  502    0  0.59366892170E+01 -0.17996816709E+03  0.26297103352E+03  0.36576910480E+03  0.17947002011E+03 0.  0.
         24    2    5    5    0    0 -0.18941205590E+02 -0.19863649530E+03  0.24569367293E+03  0.32988020238E+03  0.92953431739E+02 0.  0.
          2    1    6    6  501    0 -0.17442390248E+02 -0.72975863181E+02  0.16301084080E+03  0.17944984760E+03  0.00000000000E+00 0. -1.
         -1    1    6    6    0  501 -0.14988153414E+01 -0.12566063212E+03  0.82682832132E+02  0.15043035479E+03  0.00000000000E+00 0.  1.
          5    1    5    5  502    0  0.24877894807E+02  0.18668328211E+02  0.17277360584E+02  0.35888902421E+02  0.47000000000E+01 0. -1.
         11    1    4    4    0    0 -0.49246179693E+02  0.70092187134E+02  0.19762550488E+03  0.21539252793E+03  0.00000000000E+00 0. -1.
        -12    1    4    4    0    0  0.37233885433E+02  0.56283328193E+02  0.22188416058E+03  0.23191971881E+03  0.00000000000E+00 0.  1.
         -5    1    3    3    0  504  0.60756050425E+01  0.53592651760E+02  0.19304013793E+02  0.57478867837E+02  0.47000000000E+01 0.  1.
<mgrwt>
<rscale>  2 0.25304296E+03</rscale>
<asrwt>0</asrwt>
<pdfrwt beam="1">  1       21 0.12094961E+00 0.25423075E+03</pdfrwt>
<pdfrwt beam="2">  1       21 0.12982732E-01 0.25423075E+03</pdfrwt>
<totfact> 0.25508772E+04</totfact>
</mgrwt>
</event>
<event>
12    1  0.1410528E-001  0.2219214E+03  0.7546771E-02  0.1132626E+00
         21   -1    0    0  502  503  0.00000000000E+00  0.00000000000E+00  0.22110020840E+03  0.22110020840E+03  0.00000000000E+00 0.  1.
         21   -1    0    0  503  504 -0.00000000000E+00 -0.00000000000E+00 -0.36691840603E+03  0.36691840603E+03  0.00000000000E+00 0.  1.
         -6    2    1    2    0  504 -0.76416365752E+01 -0.13755949686E+03 -0.25769676461E+03  0.33949107134E+03  0.17281653638E+03 0.  0.
        -24    2    3    3    0    0  0.28820776767E+02 -0.15602856444E+03 -0.16018879085E+03  0.23365861417E+03  0.61321685966E+02 0.  0.
          6    2    1    2  502    0  0.76416365752E+01  0.13755949686E+03  0.11187856697E+03  0.24852754308E+03  0.17397734375E+03 0.  0.
         24    2    5    5    0    0  0.47188394005E+02  0.10825495092E+03  0.13311205977E+03  0.19471626497E+03  0.79055198832E+02 0.  0.
          2    1    6    6  501    0  0.67299175854E+02  0.85505258658E+02  0.86128505114E+02  0.13877480939E+03  0.00000000000E+00 0. -1.
         -1    1    6    6    0  501 -0.20110781849E+02  0.22749692257E+02  0.46983554652E+02  0.55941455577E+02  0.00000000000E+00 0.  1.
          5    1    5    5  502    0 -0.39546757430E+02  0.29304545942E+02 -0.21233492793E+02  0.53811278114E+02  0.47000000000E+01 0. -1.
         13    1    4    4    0    0  0.82620312397E+01 -0.19173019867E+01  0.22802965262E+01  0.87827649041E+01  0.00000000000E+00 0. -1.
        -14    1    4    4    0    0  0.20558745527E+02 -0.15411126245E+03 -0.16246908738E+03  0.22487584927E+03  0.00000000000E+00 0.  1.
         -5    1    3    3    0  504 -0.36462413342E+02  0.18469067579E+02 -0.97507973754E+02  0.10583245717E+03  0.47000000000E+01 0.  1.
<mgrwt>
<rscale>  2 0.22169388E+03</rscale>
<asrwt>0</asrwt>
<pdfrwt beam="1">  1       21 0.34015417E-01 0.22192144E+03</pdfrwt>
<pdfrwt beam="2">  1       21 0.56448985E-01 0.22192144E+03</pdfrwt>
<totfact> 0.24182225E+04</totfact>
</mgrwt>
</event>
<event>
12    1  0.1410528E-001  0.2663288E+03  0.7546771E-02  0.1103529E+00
         21   -1    0    0  502  503  0.00000000000E+00  0.00000000000E+00  0.87840213592E+03  0.87840213592E+03  0.00000000000E+00 0. -1.
         21   -1    0    0  503  504 -0.00000000000E+00 -0.00000000000E+00 -0.11398899599E+03  0.11398899599E+03  0.00000000000E+00 0. -1.
         -6    2    1    2    0  504 -0.11546399416E+03 -0.16450474052E+03  0.11272280211E+03  0.28838023717E+03  0.17338681459E+03 0.  0.
        -24    2    3    3    0    0 -0.12862001869E+03 -0.13891177299E+03  0.13859732033E+03  0.24939739913E+03  0.84559184038E+02 0.  0.
          6    2    1    2  502    0  0.11546399416E+03  0.16450474052E+03  0.65169033782E+03  0.70401089474E+03  0.17474924864E+03 0.  0.
         24    2    5    5    0    0  0.35332078006E+02  0.20611369410E+02  0.33738953059E+03  0.34913977213E+03  0.79960620599E+02 0.  0.
          4    1    6    6  501    0  0.52346385285E+02 -0.43170487457E+00  0.13242106729E+03  0.14239265952E+03  0.00000000000E+00 0. -1.
         -3    1    6    6    0  501 -0.17014307279E+02  0.21043074285E+02  0.20496846330E+03  0.20674711261E+03  0.00000000000E+00 0.  1.
          5    1    5    5  502    0  0.80131916152E+02  0.14389337111E+03  0.31430080723E+03  0.35487112261E+03  0.47000000000E+01 0. -1.
         13    1    4    4    0    0 -0.10602639885E+03 -0.63442341678E+02  0.57317719493E+02  0.13620517222E+03  0.00000000000E+00 0. -1.
        -14    1    4    4    0    0 -0.22593619838E+02 -0.75469431313E+02  0.81279600839E+02  0.11319222691E+03  0.00000000000E+00 0.  1.
         -5    1    3    3    0  504  0.13156024535E+02 -0.25592967526E+02 -0.25874518221E+02  0.38982838038E+02  0.47000000000E+01 0.  1.
<mgrwt>
<rscale>  2 0.26610556E+03</rscale>
<asrwt>0</asrwt>
<pdfrwt beam="1">  1       21 0.13513879E+00 0.26632883E+03</pdfrwt>
<pdfrwt beam="2">  1       21 0.17536769E-01 0.26632883E+03</pdfrwt>
<totfact> 0.11016125E+04</totfact>
</mgrwt>
</event>
<event>
12    1  0.1410528E-001  0.1857682E+03  0.7546771E-02  0.1163367E+00
         21   -1    0    0  502  503  0.00000000000E+00  0.00000000000E+00  0.10170399318E+04  0.10170399318E+04  0.00000000000E+00 0.  1.
         21   -1    0    0  503  504 -0.00000000000E+00 -0.00000000000E+00 -0.46523721375E+02  0.46523721375E+02  0.00000000000E+00 0.  1.
         -6    2    1    2    0  504  0.37619771965E+02 -0.45614005396E+02  0.20412162349E+03  0.27599903853E+03  0.17610777201E+03 0.  0.
        -24    2    3    3    0    0  0.54466981461E+02  0.35104018995E+02  0.99204388445E+02  0.14247396920E+03  0.79109904524E+02 0.  0.
          6    2    1    2  502    0 -0.37619771965E+02  0.45614005396E+02  0.76639458693E+03  0.78756461464E+03  0.17146858206E+03 0.  0.
         24    2    5    5    0    0  0.26630370811E+02 -0.18020298584E+02  0.47019768975E+03  0.47783554370E+03  0.78784716571E+02 0.  0.
          4    1    6    6  501    0  0.13483077171E+02 -0.44752848682E+02  0.17485331756E+03  0.18099252332E+03  0.00000000000E+00 0. -1.
         -3    1    6    6    0  501  0.13147293640E+02  0.26732550097E+02  0.29534437219E+03  0.29684302038E+03  0.00000000000E+00 0.  1.
          5    1    5    5  502    0 -0.64250142776E+02  0.63634303981E+02  0.29619689718E+03  0.30972907094E+03  0.47000000000E+01 0. -1.
         13    1    4    4    0    0  0.59465376252E+02  0.52507959496E+01  0.29725807570E+02  0.66688270833E+02  0.00000000000E+00 0. -1.
        -14    1    4    4    0    0 -0.49983947914E+01  0.29853223045E+02  0.69478580875E+02  0.75785698368E+02  0.00000000000E+00 0.  1.
         -5    1    3    3    0  504 -0.16847209496E+02 -0.80718024391E+02  0.10491723505E+03  0.13352506933E+03  0.47000000000E+01 0.  1.
<mgrwt>
<rscale>  2 0.18466037E+03</rscale>
<asrwt>0</asrwt>
<pdfrwt beam="1">  1       21 0.15646766E+00 0.18576822E+03</pdfrwt>
<pdfrwt beam="2">  1       21 0.71574964E-02 0.18576822E+03</pdfrwt>
<totfact> 0.39062689E+04</totfact>
</mgrwt>
</event>
<event>
12    1  0.1410528E-001  0.1908991E+03  0.7546771E-02  0.1158242E+00
         21   -1    0    0  502  503  0.00000000000E+00  0.00000000000E+00  0.49574882819E+03  0.49574882819E+03  0.00000000000E+00 0. -1.
         21   -1    0    0  503  504 -0.00000000000E+00 -0.00000000000E+00 -0.26015795601E+03  0.26015795601E+03  0.00000000000E+00 0.  1.
         -6    2    1    2    0  504  0.61641264202E+02 -0.46189866843E+02 -0.20296826699E+03  0.27863703468E+03  0.17466920290E+03 0.  0.
        -24    2    3    3    0    0  0.57546629247E+02  0.36438141821E+02 -0.12994199073E+03  0.16818758527E+03  0.82236185271E+02 0.  0.
          6    2    1    2  502    0 -0.61641264202E+02  0.46189866843E+02  0.43855913916E+03  0.47726974951E+03  0.17181136751E+03 0.  0.
         24    2    5    5    0    0 -0.77335802699E+02  0.47924539572E+02  0.44366330457E+03  0.46002242703E+03  0.80659269005E+02 0.  0.
          4    1    6    6  501    0 -0.70013750233E+02  0.60423828555E+02  0.26313673944E+03  0.27891559283E+03  0.00000000000E+00 0. -1.
         -3    1    6    6    0  501 -0.73220524661E+01 -0.12499288982E+02  0.18052656514E+03  0.18110683421E+03  0.00000000000E+00 0.  1.
          5    1    5    5  502    0  0.15694538497E+02 -0.17346727297E+01 -0.51041654130E+01  0.17247322478E+02  0.47000000000E+01 0. -1.
         11    1    4    4    0    0 -0.94185816712E+01  0.34620144384E+02 -0.68311212507E+02  0.77160131104E+02  0.00000000000E+00 0. -1.
        -12    1    4    4    0    0  0.66965210918E+02  0.18179974375E+01 -0.61630778220E+02  0.91027454166E+02  0.00000000000E+00 0.  1.
         -5    1    3    3    0  504  0.40946349556E+01 -0.82628008664E+02 -0.73026276260E+02  0.11044944941E+03  0.47000000000E+01 0.  1.
<mgrwt>
<rscale>  2 0.19024293E+03</rscale>
<asrwt>0</asrwt>
<pdfrwt beam="1">  1       21 0.76269051E-01 0.19089913E+03</pdfrwt>
<pdfrwt beam="2">  1       21 0.40024301E-01 0.19089913E+03</pdfrwt>
<totfact> 0.92245890E+03</totfact>
</mgrwt>
</event>
<event>
12    1  0.1410528E-001  0.2145628E+03  0.7546771E-02  0.1140368E+00
         21   -1    0    0  502  503  0.00000000000E+00  0.00000000000E+00  0.14448304727E+03  0.14448304727E+03  0.00000000000E+00 0.  1.
         21   -1    0    0  503  504 -0.00000000000E+00 -0.00000000000E+00 -0.43800157287E+03  0.43800157287E+03  0.00000000000E+00 0. -1.
         -6    2    1    2    0  504  0.46721147913E+02  0.11748412982E+03 -0.30660627406E+03  0.36752306203E+03  0.15836794943E+03 0.  0.
        -24    2    3    3    0    0 -0.21197352862E+02  0.93211963195E+02 -0.15096184917E+03  0.19591496834E+03  0.80345485645E+02 0.  0.
          6    2    1    2  502    0 -0.46721147913E+02 -0.11748412982E+03  0.13087748459E+02  0.21496155811E+03  0.17335453811E+03 0.  0.
         24    2    5    5    0    0 -0.81545565916E+02 -0.79535584463E+02  0.50959337516E+02  0.15085867641E+03  0.84769674127E+02 0.  0.
          4    1    6    6  501    0 -0.55471871803E+02 -0.94821609458E+02  0.49789117249E+02  0.12061186665E+03  0.00000000000E+00 0. -1.
         -3    1    6    6    0  501 -0.26073694113E+02  0.15286024996E+02  0.11702202679E+01  0.30246809755E+02  0.00000000000E+00 0.  1.
          5    1    5    5  502    0  0.34824418003E+02 -0.37948545361E+02 -0.37871589058E+02  0.64102881698E+02  0.47000000000E+01 0. -1.
         11    1    4    4    0    0  0.43916080308E+00  0.94218400733E+02 -0.14588901477E+03  0.17366895097E+03  0.00000000000E+00 0. -1.
        -12    1    4    4    0    0 -0.21636513665E+02 -0.10064375380E+01 -0.50728343979E+01  0.22246017372E+02  0.00000000000E+00 0.  1.
         -5    1    3    3    0  504  0.67918500774E+02  0.24272166629E+02 -0.15564442489E+03  0.17160809369E+03  0.47000000000E+01 0.  1.
<mgrwt>
<rscale>  2 0.21151969E+03</rscale>
<asrwt>0</asrwt>
<pdfrwt beam="1">  1       21 0.22228161E-01 0.21456277E+03</pdfrwt>
<pdfrwt beam="2">  1       21 0.67384857E-01 0.21456277E+03</pdfrwt>
<totfact> 0.37708696E+04</totfact>
</mgrwt>
</event>
<event>
12    1  0.1410528E-001  0.2320923E+03  0.7546771E-02  0.1125531E+00
         21   -1    0    0  502  503  0.00000000000E+00  0.00000000000E+00  0.10552961477E+03  0.10552961477E+03  0.00000000000E+00 0. -1.
         21   -1    0    0  503  504 -0.00000000000E+00 -0.00000000000E+00 -0.51368366696E+03  0.51368366696E+03  0.00000000000E+00 0.  1.
         -6    2    1    2    0  504 -0.11107601919E+03  0.10702786655E+03 -0.24288754816E+03  0.33594817696E+03  0.17341848315E+03 0.  0.
        -24    2    3    3    0    0  0.25534177351E+01  0.63835879593E+02 -0.68691108399E+02  0.12347774067E+03  0.80291622247E+02 0.  0.
          6    2    1    2  502    0  0.11107601919E+03 -0.10702786655E+03 -0.16526650403E+03  0.28326510477E+03  0.17068466823E+03 0.  0.
         24    2    5    5    0    0  0.62705508070E+01 -0.93908347274E+02 -0.94128827581E+02  0.15583289927E+03  0.81028135957E+02 0.  0.
          2    1    6    6  501    0  0.30464443706E+02 -0.95048649279E+02 -0.78808918468E+02  0.12717379325E+03  0.00000000000E+00 0. -1.
         -1    1    6    6    0  501 -0.24193892899E+02  0.11403020040E+01 -0.15319909113E+02  0.28659106014E+02  0.00000000000E+00 0.  1.
          5    1    5    5  502    0  0.10480546838E+03 -0.13119519275E+02 -0.71137676451E+02  0.12743220550E+03  0.47000000000E+01 0. -1.
         13    1    4    4    0    0 -0.49344160344E+00  0.67296877218E+02 -0.83916740123E+02  0.10756919838E+03  0.00000000000E+00 0. -1.
        -14    1    4    4    0    0  0.30468593385E+01 -0.34609976250E+01  0.15225631724E+02  0.15908542290E+02  0.00000000000E+00 0.  1.
         -5    1    3    3    0  504 -0.11362943692E+03  0.43191986956E+02 -0.17419643976E+03  0.21247043629E+03  0.47000000000E+01 0.  1.
<mgrwt>
<rscale>  2 0.23158170E+03</rscale>
<asrwt>0</asrwt>
<pdfrwt beam="1">  1       21 0.16235325E-01 0.23209226E+03</pdfrwt>
<pdfrwt beam="2">  1       21 0.79028259E-01 0.23209226E+03</pdfrwt>
<totfact> 0.47097391E+04</totfact>
</mgrwt>
</event>
<event>
12    1  0.1410528E-001  0.2396876E+03  0.7546771E-02  0.1120082E+00
         21   -1    0    0  502  503  0.00000000000E+00  0.00000000000E+00  0.22076396487E+04  0.22076396487E+04  0.00000000000E+00 0. -1.
         21   -1    0    0  503  504 -0.00000000000E+00 -0.00000000000E+00 -0.13678620614E+03  0.13678620614E+03  0.00000000000E+00 0.  1.
         -6    2    1    2    0  504 -0.12550144186E+03  0.10768955407E+03 -0.19454756916E+02  0.24047587154E+03  0.17350073562E+03 0.  0.
        -24    2    3    3    0    0 -0.15335452952E+03  0.73695434775E+02  0.32031814033E+01  0.19080830861E+03  0.86307134310E+02 0.  0.
          6    2    1    2  502    0  0.12550144186E+03 -0.10768955407E+03  0.20903081994E+04  0.21039499833E+04  0.17282798242E+03 0.  0.
         24    2    5    5    0    0  0.31164880346E+02  0.23268545458E+01  0.44920445026E+03  0.45645291117E+03  0.74752645218E+02 0.  0.
          4    1    6    6  501    0 -0.79654711537E+01  0.11658836368E+02  0.33629435962E+03  0.33659066165E+03  0.00000000000E+00 0. -1.
         -3    1    6    6    0  501  0.39130351500E+02 -0.93319818220E+01  0.11291009064E+03  0.11986224952E+03  0.00000000000E+00 0.  1.
          5    1    5    5  502    0  0.94336561513E+02 -0.11001640862E+03  0.16411037492E+04  0.16474970721E+04  0.47000000000E+01 0. -1.
         13    1    4    4    0    0 -0.11391162638E+03  0.51572342590E+02 -0.36890923308E+02  0.13037064611E+03  0.00000000000E+00 0. -1.
        -14    1    4    4    0    0 -0.39442903138E+02  0.22123092185E+02  0.40094104711E+02  0.60437662499E+02  0.00000000000E+00 0.  1.
         -5    1    3    3    0  504  0.27853087657E+02  0.33994119295E+02 -0.22657938319E+02  0.49667562932E+02  0.47000000000E+01 0.  1.
<mgrwt>
<rscale>  2 0.23956590E+03</rscale>
<asrwt>0</asrwt>
<pdfrwt beam="1">  1       21 0.33963684E+00 0.23968762E+03</pdfrwt>
<pdfrwt beam="2">  1       21 0.21044033E-01 0.23968762E+03</pdfrwt>
<totfact> 0.39537279E+02</totfact>
</mgrwt>
</event>
<event>
12    1  0.1410528E-001  0.2448294E+03  0.7546771E-02  0.1116624E+00
         21   -1    0    0  502  503  0.00000000000E+00  0.00000000000E+00  0.17901433991E+04  0.17901433991E+04  0.00000000000E+00 0.  1.
         21   -1    0    0  503  504 -0.00000000000E+00 -0.00000000000E+00 -0.38379709840E+02  0.38379709840E+02  0.00000000000E+00 0. -1.
         -6    2    1    2    0  504  0.58578794545E+02  0.16357495450E+03  0.12026773902E+04  0.12273444173E+04  0.17249108042E+03 0.  0.
        -24    2    3    3    0    0 -0.52361898186E+01  0.30793725391E+02  0.23005068025E+03  0.24361273947E+03  0.73811788617E+02 0.  0.
          6    2    1    2  502    0 -0.58578794545E+02 -0.16357495450E+03  0.54908629903E+03  0.60117869162E+03  0.17242915814E+03 0.  0.
         24    2    5    5    0    0 -0.46978733803E+02 -0.18254888847E+03  0.39282771171E+03  0.44327553242E+03  0.81538263638E+02 0.  0.
          4    1    6    6  501    0 -0.59355783872E+02 -0.98074500515E+02  0.17386105309E+03  0.20825316927E+03  0.00000000000E+00 0. -1.
         -3    1    6    6    0  501  0.12377050069E+02 -0.84474387955E+02  0.21896665863E+03  0.23502236315E+03  0.00000000000E+00 0.  1.
          5    1    5    5  502    0 -0.11600060742E+02  0.18973933968E+02  0.15625858731E+03  0.15790315921E+03  0.47000000000E+01 0. -1.
         11    1    4    4    0    0  0.30725737722E+02  0.84039240830E+01  0.14665377618E+03  0.15007340526E+03  0.00000000000E+00 0. -1.
        -12    1    4    4    0    0 -0.35961927540E+02  0.22389801308E+02  0.83396904072E+02  0.93539334207E+02  0.00000000000E+00 0.  1.
         -5    1    3    3    0  504  0.63814984364E+02  0.13278122911E+03  0.97262670999E+03  0.98373167786E+03  0.47000000000E+01 0.  1.
<mgrwt>
<rscale>  2 0.24481845E+03</rscale>
<asrwt>0</asrwt>
<pdfrwt beam="1">  1       21 0.27540661E+00 0.24482936E+03</pdfrwt>
<pdfrwt beam="2">  1       21 0.59045721E-02 0.24482936E+03</pdfrwt>
<totfact> 0.91354299E+03</totfact>
</mgrwt>
</event>
<event>
12    1  0.1410528E-001  0.2114968E+03  0.7546771E-02  0.1140800E+00
         21   -1    0    0  502  503  0.00000000000E+00  0.00000000000E+00  0.16034301988E+03  0.16034301988E+03  0.00000000000E+00 0. -1.
         21   -1    0    0  503  504 -0.00000000000E+00 -0.00000000000E+00 -0.32145235269E+03  0.32145235269E+03  0.00000000000E+00 0. -1.
         -6    2    1    2    0  504 -0.11561919070E+03 -0.33741765168E+02 -0.17127420298E+03  0.27215021910E+03  0.17385219347E+03 0.  0.
        -24    2    3    3    0    0  0.24331820929E+01 -0.32541631400E+02 -0.42918908045E+02  0.97693993123E+02  0.81469046117E+02 0.  0.
          6    2    1    2  502    0  0.11561919070E+03  0.33741765168E+02  0.10164870164E+02  0.20964515347E+03  0.17129349613E+03 0.  0.
         24    2    5    5    0    0  0.18017026647E+02  0.39030811611E+01 -0.37662275197E+02  0.96835334202E+02  0.87285667123E+02 0.  0.
          2    1    6    6  501    0 -0.20462482659E+02  0.29639218118E+02 -0.35378916190E+02  0.50486276927E+02  0.00000000000E+00 0. -1.
         -1    1    6    6    0  501  0.38479509306E+02 -0.25736136956E+02 -0.22833590070E+01  0.46349057274E+02  0.00000000000E+00 0.  1.
          5    1    5    5  502    0  0.97602164050E+02  0.29838684007E+02  0.47827145361E+02  0.11280981927E+03  0.47000000000E+01 0. -1.
         11    1    4    4    0    0  0.48297895217E+01 -0.36489421034E+02 -0.65236276975E+02  0.74903781932E+02  0.00000000000E+00 0. -1.
        -12    1    4    4    0    0 -0.23966074287E+01  0.39477896338E+01  0.22317368930E+02  0.22790211191E+02  0.00000000000E+00 0.  1.
         -5    1    3    3    0  504 -0.11805237279E+03 -0.12001337681E+01 -0.12835529494E+03  0.17445622597E+03  0.47000000000E+01 0.  1.
<mgrwt>
<rscale>  2 0.21097027E+03</rscale>
<asrwt>0</asrwt>
<pdfrwt beam="1">  1       21 0.24668157E-01 0.21149678E+03</pdfrwt>
<pdfrwt beam="2">  1       21 0.49454208E-01 0.21149678E+03</pdfrwt>
<totfact> 0.60051558E+04</totfact>
</mgrwt>
</event>
<event>
12    1  0.1410528E-001  0.1876736E+03  0.7546771E-02  0.1162985E+00
         21   -1    0    0  502  503  0.00000000000E+00  0.00000000000E+00  0.35394521000E+02  0.35394521000E+02  0.00000000000E+00 0. -1.
         21   -1    0    0  503  504 -0.00000000000E+00 -0.00000000000E+00 -0.11366856754E+04  0.11366856754E+04  0.00000000000E+00 0. -1.
         -6    2    1    2    0  504  0.14953085962E+02 -0.67493459433E+02 -0.80599639128E+03  0.82755758739E+03  0.17447755112E+03 0.  0.
        -24    2    3    3    0    0 -0.29553943059E+02  0.22198415075E+02 -0.36270365065E+03  0.37307320715E+03  0.79142115954E+02 0.  0.
          6    2    1    2  502    0 -0.14953085962E+02  0.67493459433E+02 -0.29529476313E+03  0.34452260902E+03  0.16345601594E+03 0.  0.
         24    2    5    5    0    0 -0.55516777452E+01  0.96117633065E+02 -0.14801101073E+03  0.19411541666E+03  0.80648094680E+02 0.  0.
          4    1    6    6  501    0  0.21839645344E+01  0.84798758425E+02 -0.57281847459E+02  0.10235628549E+03  0.00000000000E+00 0. -1.
         -3    1    6    6    0  501 -0.77356422796E+01  0.11318874640E+02 -0.90729163268E+02  0.91759131163E+02  0.00000000000E+00 0.  1.
          5    1    5    5  502    0 -0.94014082164E+01 -0.28624173633E+02 -0.14728375240E+03  0.15040719236E+03  0.47000000000E+01 0. -1.
         11    1    4    4    0    0  0.11957990061E+02 -0.22358357645E+02 -0.81588246200E+02  0.85437296311E+02  0.00000000000E+00 0. -1.
        -12    1    4    4    0    0 -0.41511933120E+02  0.44556772720E+02 -0.28111540445E+03  0.28763591084E+03  0.00000000000E+00 0.  1.
         -5    1    3    3    0  504  0.44507029021E+02 -0.89691874508E+02 -0.44329274063E+03  0.45448438024E+03  0.47000000000E+01 0.  1.
<mgrwt>
<rscale>  2 0.18506988E+03</rscale>
<asrwt>0</asrwt>
<pdfrwt beam="1">  1       21 0.54453112E-02 0.18767359E+03</pdfrwt>
<pdfrwt beam="2">  1       21 0.17487471E+00 0.18767359E+03</pdfrwt>
<totfact> 0.46054009E+04</totfact>
</mgrwt>
</event>
<event>
12    1  0.1410528E-001  0.2432822E+03  0.7546771E-02  0.1117650E+00
         21   -1    0    0  502  503  0.00000000000E+00  0.00000000000E+00  0.73601736702E+02  0.73601736702E+02  0.00000000000E+00 0.  1.
         21   -1    0    0  503  504 -0.00000000000E+00 -0.00000000000E+00 -0.15159092771E+04  0.15159092771E+04  0.00000000000E+00 0. -1.
         -6    2    1    2    0  504 -0.64430561714E+02  0.15802341814E+03 -0.12658110602E+04  0.12889495160E+04  0.17317770250E+03 0.  0.
        -24    2    3    3    0    0 -0.94661964500E+02  0.16348065601E+03 -0.96514207988E+03  0.98667870216E+03  0.79679448558E+02 0.  0.
          6    2    1    2  502    0  0.64430561714E+02 -0.15802341814E+03 -0.17649648013E+03  0.30056149776E+03  0.17338831700E+03 0.  0.
         24    2    5    5    0    0  0.89825190421E+02 -0.12964715696E+03 -0.76097561510E+02  0.19308065190E+03  0.81316352163E+02 0.  0.
          2    1    6    6  501    0  0.15852052183E+02 -0.14433060569E+02  0.17126507249E+02  0.27439352149E+02  0.00000000000E+00 0. -1.
         -1    1    6    6    0  501  0.73973138238E+02 -0.11521409639E+03 -0.93224068758E+02  0.16564129976E+03  0.00000000000E+00 0.  1.
          5    1    5    5  502    0 -0.25394628706E+02 -0.28376261181E+02 -0.10039891862E+03  0.10748084586E+03  0.47000000000E+01 0. -1.
         11    1    4    4    0    0 -0.82312657677E+02  0.10457499277E+03 -0.49041943386E+03  0.50815600345E+03  0.00000000000E+00 0. -1.
        -12    1    4    4    0    0 -0.12349306822E+02  0.58905663234E+02 -0.47472264602E+03  0.47852269871E+03  0.00000000000E+00 0.  1.
         -5    1    3    3    0  504  0.30231402786E+02 -0.54572378627E+01 -0.30066898036E+03  0.30227081386E+03  0.47000000000E+01 0.  1.
<mgrwt>
<rscale>  2 0.24324463E+03</rscale>
<asrwt>0</asrwt>
<pdfrwt beam="1">  1       21 0.11323344E-01 0.24328215E+03</pdfrwt>
<pdfrwt beam="2">  1       21 0.23321681E+00 0.24328215E+03</pdfrwt>
<totfact> 0.52018296E+03</totfact>
</mgrwt>
</event>
<event>
12    1  0.1410528E-001  0.1869320E+03  0.7546771E-02  0.1162329E+00
         21   -1    0    0  502  503  0.00000000000E+00  0.00000000000E+00  0.16824327285E+03  0.16824327285E+03  0.00000000000E+00 0. -1.
         21   -1    0    0  503  504 -0.00000000000E+00 -0.00000000000E+00 -0.46716548133E+03  0.46716548133E+03  0.00000000000E+00 0.  1.
         -6    2    1    2    0  504  0.40718761189E+02 -0.50027421916E+02 -0.38771983091E+03  0.42845801987E+03  0.17055452811E+03 0.  0.
        -24    2    3    3    0    0  0.16487684114E+02  0.27472391041E+02 -0.11556997087E+03  0.14441400493E+03  0.80451293694E+02 0.  0.
          6    2    1    2  502    0 -0.40718761189E+02  0.50027421916E+02  0.88797622432E+02  0.20695073430E+03  0.17545035829E+03 0.  0.
         24    2    5    5    0    0 -0.88795257995E+02  0.41235354826E+02  0.29349175938E+02  0.12984783047E+03  0.80088280166E+02 0.  0.
          4    1    6    6  501    0 -0.56218800605E+02  0.64940522026E+02  0.24154018979E+02  0.89225789855E+02  0.00000000000E+00 0. -1.
         -3    1    6    6    0  501 -0.32576457390E+02 -0.23705167200E+02  0.51951569591E+01  0.40622040617E+02  0.00000000000E+00 0.  1.
          5    1    5    5  502    0  0.48076496806E+02  0.87920670902E+01  0.59448446494E+02  0.77102903832E+02  0.47000000000E+01 0. -1.
         11    1    4    4    0    0 -0.27337638548E+02  0.12898824966E+01 -0.72937334286E+02  0.77902920427E+02  0.00000000000E+00 0. -1.
        -12    1    4    4    0    0  0.43825322662E+02  0.26182508544E+02 -0.42632636581E+02  0.66511084504E+02  0.00000000000E+00 0.  1.
         -5    1    3    3    0  504  0.24231077076E+02 -0.77499812957E+02 -0.27214986004E+03  0.28404401494E+03  0.47000000000E+01 0.  1.
<mgrwt>
<rscale>  2 0.18577451E+03</rscale>
<asrwt>0</asrwt>
<pdfrwt beam="1">  1       21 0.25883580E-01 0.18693204E+03</pdfrwt>
<pdfrwt beam="2">  1       21 0.71871613E-01 0.18693204E+03</pdfrwt>
<totfact> 0.24854773E+04</totfact>
</mgrwt>
</event>
<event>
12    1  0.1410528E-001  0.2486733E+03  0.7546771E-02  0.1114259E+00
         21   -1    0    0  502  503  0.00000000000E+00  0.00000000000E+00  0.66144069001E+02  0.66144069001E+02  0.00000000000E+00 0. -1.
         21   -1    0    0  503  504 -0.00000000000E+00 -0.00000000000E+00 -0.12185036385E+04  0.12185036385E+04  0.00000000000E+00 0. -1.
         -6    2    1    2    0  504 -0.17609022598E+03  0.26960384093E+02 -0.88813058641E+03  0.92228755858E+03  0.17350438670E+03 0.  0.
        -24    2    3    3    0    0 -0.15358171799E+03  0.55487914691E+02 -0.85104083935E+03  0.87015127304E+03  0.78908015723E+02 0.  0.
          6    2    1    2  502    0  0.17609022598E+03 -0.26960384093E+02 -0.26422898310E+03  0.36236014892E+03  0.17249142595E+03 0.  0.
         24    2    5    5    0    0  0.57753433603E+02 -0.70700012286E+02 -0.17081251612E+03  0.20530768061E+03  0.68120314306E+02 0.  0.
          2    1    6    6  501    0  0.61706459778E+02 -0.72680010852E+02 -0.11527342130E+03  0.14959289025E+03  0.00000000000E+00 0. -1.
         -1    1    6    6    0  501 -0.39530261750E+01  0.19799985661E+01 -0.55539094827E+02  0.55714790357E+02  0.00000000000E+00 0.  1.
          5    1    5    5  502    0  0.11833679237E+03  0.43739628193E+02 -0.93416466972E+02  0.15705246832E+03  0.47000000000E+01 0. -1.
         13    1    4    4    0    0 -0.60059014065E+02 -0.16852091438E+02 -0.25741015978E+03  0.26486046989E+03  0.00000000000E+00 0. -1.
        -14    1    4    4    0    0 -0.93522703926E+02  0.72340006129E+02 -0.59363067958E+03  0.60529080314E+03  0.00000000000E+00 0.  1.
         -5    1    3    3    0  504 -0.22508507983E+02 -0.28527530598E+02 -0.37089747059E+02  0.52136285546E+02  0.47000000000E+01 0.  1.
<mgrwt>
<rscale>  2 0.24849667E+03</rscale>
<asrwt>0</asrwt>
<pdfrwt beam="1">  1       21 0.10176012E-01 0.24867328E+03</pdfrwt>
<pdfrwt beam="2">  1       21 0.18746207E+00 0.24867328E+03</pdfrwt>
<totfact> 0.12253017E+04</totfact>
</mgrwt>
</event>
<event>
12    1  0.1410528E-001  0.2147010E+03  0.7546771E-02  0.1137936E+00
         21   -1    0    0  502  503  0.00000000000E+00  0.00000000000E+00  0.11217702099E+04  0.11217702099E+04  0.00000000000E+00 0.  1.
         21   -1    0    0  503  504 -0.00000000000E+00 -0.00000000000E+00 -0.45642263592E+02  0.45642263592E+02  0.00000000000E+00 0.  1.
         -6    2    1    2    0  504 -0.12508689880E+03 -0.20206027452E+02  0.35321518399E+03  0.41334909863E+03  0.17332482611E+03 0.  0.
        -24    2    3    3    0    0 -0.13595968853E+01  0.15525339299E+02  0.10086881953E+03  0.13000133799E+03  0.80516734043E+02 0.  0.
          6    2    1    2  502    0  0.12508689880E+03  0.20206027452E+02  0.72291276236E+03  0.75406337489E+03  0.17307135980E+03 0.  0.
         24    2    5    5    0    0  0.11949097722E+03 -0.62371539372E+01  0.70876282126E+03  0.72319483082E+03  0.79680805677E+02 0.  0.
          2    1    6    6  501    0  0.54074733442E+02  0.18519926794E+02  0.49478403424E+03  0.49807459785E+03  0.00000000000E+00 0. -1.
         -1    1    6    6    0  501  0.65416243775E+02 -0.24757080731E+02  0.21397878703E+03  0.22512023297E+03  0.00000000000E+00 0.  1.
          5    1    5    5  502    0  0.55959215820E+01  0.26443181389E+02  0.14149941092E+02  0.30868544074E+02  0.47000000000E+01 0. -1.
         11    1    4    4    0    0  0.36200393695E+02  0.44783514700E+01  0.74047543045E+02  0.82544307899E+02  0.00000000000E+00 0. -1.
        -12    1    4    4    0    0 -0.37559990580E+02  0.11046987829E+02  0.26821276489E+02  0.47457030090E+02  0.00000000000E+00 0.  1.
         -5    1    3    3    0  504 -0.12372730191E+03 -0.35731366751E+02  0.25234636445E+03  0.28334776064E+03  0.47000000000E+01 0.  1.
<mgrwt>
<rscale>  2 0.21464982E+03</rscale>
<asrwt>0</asrwt>
<pdfrwt beam="1">  1       21 0.17258001E+00 0.21470098E+03</pdfrwt>
<pdfrwt beam="2">  1       21 0.70218876E-02 0.21470098E+03</pdfrwt>
<totfact> 0.30360860E+04</totfact>
</mgrwt>
</event>
<event>
12    1  0.1410528E-001  0.2005072E+03  0.7546771E-02  0.1149452E+00
         21   -1    0    0  502  503  0.00000000000E+00  0.00000000000E+00  0.11944385273E+03  0.11944385273E+03  0.00000000000E+00 0. -1.
         21   -1    0    0  503  504 -0.00000000000E+00 -0.00000000000E+00 -0.34116016059E+03  0.34116016059E+03  0.00000000000E+00 0. -1.
         -6    2    1    2    0  504  0.68647749799E+02  0.73730033314E+02 -0.14077827741E+03  0.24499316085E+03  0.17336232033E+03 0.  0.
        -24    2    3    3    0    0  0.53864804468E+02  0.73477369128E+02 -0.17183784184E+02  0.12042876759E+03  0.76860033117E+02 0.  0.
          6    2    1    2  502    0 -0.68647749799E+02 -0.73730033314E+02 -0.80938030439E+02  0.21561085247E+03  0.17259328946E+03 0.  0.
         24    2    5    5    0    0  0.10380832701E+02 -0.55871011585E+02 -0.95411276657E+02  0.13317283718E+03  0.73500756631E+02 0.  0.
          2    1    6    6  501    0 -0.23516995738E+02 -0.50998501187E+02 -0.73567963365E+02  0.92553451829E+02  0.00000000000E+00 0. -1.
         -1    1    6    6    0  501  0.33897828438E+02 -0.48725103976E+01 -0.21843313292E+02  0.40619385347E+02  0.00000000000E+00 0.  1.
          5    1    5    5  502    0 -0.79028582500E+02 -0.17859021729E+02  0.14473246218E+02  0.82438015291E+02  0.47000000000E+01 0. -1.
         11    1    4    4    0    0  0.41572183877E+02  0.12395281751E+02 -0.34872813284E+02  0.55659703451E+02  0.00000000000E+00 0. -1.
        -12    1    4    4    0    0  0.12292620591E+02  0.61082087377E+02  0.17689029100E+02  0.64769064142E+02  0.00000000000E+00 0.  1.
         -5    1    3    3    0  504  0.14782945332E+02  0.25266418545E+00 -0.12359449323E+03  0.12456439326E+03  0.47000000000E+01 0.  1.
<mgrwt>
<rscale>  2 0.20034083E+03</rscale>
<asrwt>0</asrwt>
<pdfrwt beam="1">  1       21 0.18375977E-01 0.20050717E+03</pdfrwt>
<pdfrwt beam="2">  1       21 0.52486178E-01 0.20050717E+03</pdfrwt>
<totfact> 0.92719173E+04</totfact>
</mgrwt>
</event>
<event>
12    1  0.1410528E-001  0.1769182E+03  0.7546771E-02  0.1170870E+00
         21   -1    0    0  502  503  0.00000000000E+00  0.00000000000E+00  0.95306523748E+03  0.95306523748E+03  0.00000000000E+00 0.  1.
         21   -1    0    0  503  504 -0.00000000000E+00 -0.00000000000E+00 -0.42479278193E+02  0.42479278193E+02  0.00000000000E+00 0.  1.
         -6    2    1    2    0  504 -0.34236185517E+02  0.62453350490E+01  0.21752995201E+03  0.28026368103E+03  0.17325510173E+03 0.  0.
        -24    2    3    3    0    0 -0.51490382541E+02  0.57906953382E+02  0.96683012768E+02  0.14762619445E+03  0.80258417530E+02 0.  0.
          6    2    1    2  502    0  0.34236185517E+02 -0.62453350490E+01  0.69305600728E+03  0.71528083464E+03  0.17346158818E+03 0.  0.
         24    2    5    5    0    0 -0.10128256762E+02  0.56474634587E+02  0.44249960711E+03  0.45316903026E+03  0.79147342090E+02 0.  0.
          4    1    6    6  501    0  0.26976576641E+02  0.10401707695E+02  0.25309945149E+03  0.25474548780E+03  0.00000000000E+00 0. -1.
         -3    1    6    6    0  501 -0.37104833403E+02  0.46072926892E+02  0.18940015562E+03  0.19842354246E+03  0.00000000000E+00 0.  1.
          5    1    5    5  502    0  0.44364442280E+02 -0.62719969636E+02  0.25055640017E+03  0.26211180438E+03  0.47000000000E+01 0. -1.
         11    1    4    4    0    0  0.13082613499E+02  0.38881226167E+01  0.49014357203E+02  0.50879067262E+02  0.00000000000E+00 0. -1.
        -12    1    4    4    0    0 -0.64572996041E+02  0.54018830766E+02  0.47668655565E+02  0.96747127184E+02  0.00000000000E+00 0.  1.
         -5    1    3    3    0  504  0.17254197024E+02 -0.51661618333E+02  0.12084693924E+03  0.13263748659E+03  0.47000000000E+01 0.  1.
<mgrwt>
<rscale>  2 0.17686755E+03</rscale>
<asrwt>0</asrwt>
<pdfrwt beam="1">  1       21 0.14662540E+00 0.17691818E+03</pdfrwt>
<pdfrwt beam="2">  1       21 0.65352743E-02 0.17691818E+03</pdfrwt>
<totfact> 0.54498172E+04</totfact>
</mgrwt>
</event>
<event>
12    1  0.1410528E-001  0.1947536E+03  0.7546771E-02  0.1154907E+00
         21   -1    0    0  502  503  0.00000000000E+00  0.00000000000E+00  0.60790048894E+02  0.60790048894E+02  0.00000000000E+00 0.  1.
         21   -1    0    0  503  504 -0.00000000000E+00 -0.00000000000E+00 -0.67834448776E+03  0.67834448776E+03  0.00000000000E+00 0.  1.
         -6    2    1    2    0  504  0.86606162934E+01 -0.75975774479E+02 -0.42014079414E+03  0.46182402970E+03  0.17582895929E+03 0.  0.
        -24    2    3    3    0    0 -0.26204992001E+02 -0.18702374534E+02 -0.36422586146E+03  0.37439164051E+03  0.80449623416E+02 0.  0.
          6    2    1    2  502    0 -0.86606162934E+01  0.75975774479E+02 -0.19741364472E+03  0.27731050695E+03  0.17911349910E+03 0.  0.
         24    2    5    5    0    0 -0.69039731475E+02  0.44758546466E+02 -0.16654115435E+03  0.20250841115E+03  0.80646689260E+02 0.  0.
          4    1    6    6  501    0 -0.32999427153E+02  0.24943451082E+02 -0.15407643611E+03  0.15953271172E+03  0.00000000000E+00 0. -1.
         -3    1    6    6    0  501 -0.36040304323E+02  0.19815095384E+02 -0.12464718248E+02  0.42975699433E+02  0.00000000000E+00 0.  1.
          5    1    5    5  502    0  0.60379115182E+02  0.31217228013E+02 -0.30872490367E+02  0.74802095803E+02  0.47000000000E+01 0. -1.
         11    1    4    4    0    0  0.19069389764E+00  0.30335488816E+02 -0.10774033798E+03  0.11192970417E+03  0.00000000000E+00 0. -1.
        -12    1    4    4    0    0 -0.26395685898E+02 -0.49037863350E+02 -0.25648552347E+03  0.26246193634E+03  0.00000000000E+00 0.  1.
         -5    1    3    3    0  504  0.34865608294E+02 -0.57273399944E+02 -0.55914932685E+02  0.87432389193E+02  0.47000000000E+01 0.  1.
<mgrwt>
<rscale>  2 0.19399509E+03</rscale>
<asrwt>0</asrwt>
<pdfrwt beam="1">  1       21 0.93523150E-02 0.19475361E+03</pdfrwt>
<pdfrwt beam="2">  1       21 0.10436069E+00 0.19475361E+03</pdfrwt>
<totfact> 0.67632047E+04</totfact>
</mgrwt>
</event>
<event>
12    1  0.1410528E-001  0.2171675E+03  0.7546771E-02  0.1136122E+00
         21   -1    0    0  502  503  0.00000000000E+00  0.00000000000E+00  0.53988366349E+03  0.53988366349E+03  0.00000000000E+00 0.  1.
         21   -1    0    0  503  504 -0.00000000000E+00 -0.00000000000E+00 -0.93886693294E+02  0.93886693294E+02  0.00000000000E+00 0.  1.
         -6    2    1    2    0  504  0.55508730584E+02  0.11863531315E+03  0.13822183663E+03  0.25742377552E+03  0.17322288355E+03 0.  0.
        -24    2    3    3    0    0  0.40369558055E+02 -0.32863229015E+01  0.84604693994E+02  0.12329336187E+03  0.80017483710E+02 0.  0.
          6    2    1    2  502    0 -0.55508730584E+02 -0.11863531315E+03  0.30777513356E+03  0.37634658126E+03  0.17249828895E+03 0.  0.
         24    2    5    5    0    0 -0.31284276027E+02  0.22620920903E+01  0.18197683469E+03  0.20013560320E+03  0.77167793251E+02 0.  0.
          4    1    6    6  501    0  0.17647773431E+02  0.23941947865E+02  0.62215633168E+02  0.68959740321E+02  0.00000000000E+00 0. -1.
         -3    1    6    6    0  501 -0.48932049459E+02 -0.21679855775E+02  0.11976120152E+03  0.13117586287E+03  0.00000000000E+00 0.  1.
          5    1    5    5  502    0 -0.24224454556E+02 -0.12089740524E+03  0.12579829887E+03  0.17621097807E+03  0.47000000000E+01 0. -1.
         11    1    4    4    0    0 -0.15218708569E+02  0.13578098720E+02 -0.32461324968E+00  0.20398020226E+02  0.00000000000E+00 0. -1.
        -12    1    4    4    0    0  0.55588266624E+02 -0.16864421622E+02  0.84929307244E+02  0.10289534164E+03  0.00000000000E+00 0.  1.
         -5    1    3    3    0  504  0.15139172528E+02  0.12192163605E+03  0.53617142637E+02  0.13413041365E+03  0.47000000000E+01 0.  1.
<mgrwt>
<rscale>  2 0.21702298E+03</rscale>
<asrwt>0</asrwt>
<pdfrwt beam="1">  1       21 0.83059023E-01 0.21716750E+03</pdfrwt>
<pdfrwt beam="2">  1       21 0.14444107E-01 0.21716750E+03</pdfrwt>
<totfact> 0.52445536E+04</totfact>
</mgrwt>
</event>
<event>
12    1  0.1410528E-001  0.2713356E+03  0.7546771E-02  0.1100530E+00
         21   -1    0    0  502  503  0.00000000000E+00  0.00000000000E+00  0.37821005044E+03  0.37821005044E+03  0.00000000000E+00 0.  1.
         21   -1    0    0  503  504 -0.00000000000E+00 -0.00000000000E+00 -0.28662260685E+03  0.28662260685E+03  0.00000000000E+00 0. -1.
         -6    2    1    2    0  504  0.10976007611E+03  0.17851106619E+03 -0.14255614718E+03  0.30650494456E+03  0.17236458708E+03 0.  0.
        -24    2    3    3    0    0  0.13754936257E+03  0.18274586972E+03 -0.12601927830E+03  0.27355443569E+03  0.81457293945E+02 0.  0.
          6    2    1    2  502    0 -0.10976007611E+03 -0.17851106619E+03  0.23414359077E+03  0.35832771273E+03  0.17222675039E+03 0.  0.
         24    2    5    5    0    0 -0.60091190578E+02 -0.10023112974E+03  0.22245928998E+03  0.26476832236E+03  0.83408022820E+02 0.  0.
          2    1    6    6  501    0 -0.21684463893E+02  0.27313127482E+01  0.90210995250E+02  0.92820793509E+02  0.00000000000E+00 0. -1.
         -1    1    6    6    0  501 -0.38406726685E+02 -0.10296244249E+03  0.13224829473E+03  0.17194752885E+03  0.00000000000E+00 0.  1.
          5    1    5    5  502    0 -0.49668885534E+02 -0.78279936454E+02  0.11684300785E+02  0.93559390369E+02  0.47000000000E+01 0. -1.
         13    1    4    4    0    0  0.13187622189E+03  0.14260704254E+03 -0.74583638838E+02  0.20806447478E+03  0.00000000000E+00 0. -1.
        -14    1    4    4    0    0  0.56731406748E+01  0.40138827187E+02 -0.51435639463E+02  0.65489960910E+02  0.00000000000E+00 0.  1.
         -5    1    3    3    0  504 -0.27789286457E+02 -0.42348035299E+01 -0.16536868879E+02  0.32950508874E+02  0.47000000000E+01 0.  1.
<mgrwt>
<rscale>  2 0.27131375E+03</rscale>
<asrwt>0</asrwt>
<pdfrwt beam="1">  1       21 0.58186162E-01 0.27133563E+03</pdfrwt>
<pdfrwt beam="2">  1       21 0.44095786E-01 0.27133563E+03</pdfrwt>
<totfact> 0.13074415E+04</totfact>
</mgrwt>
</event>
<event>
12    1  0.1410528E-001  0.1975958E+03  0.7546771E-02  0.1152245E+00
         21   -1    0    0  502  503  0.00000000000E+00  0.00000000000E+00  0.46335221643E+03  0.46335221643E+03  0.00000000000E+00 0.  1.
         21   -1    0    0  503  504 -0.00000000000E+00 -0.00000000000E+00 -0.10611611972E+03  0.10611611972E+03  0.00000000000E+00 0.  1.
         -6    2    1    2    0  504 -0.12158246878E+02 -0.94587199823E+02  0.47508730999E+02  0.20322690908E+03  0.17305934160E+03 0.  0.
        -24    2    3    3    0    0  0.36696011904E+02 -0.61918041760E+02  0.82428995312E+02  0.13470299099E+03  0.78548808580E+02 0.  0.
          6    2    1    2  502    0  0.12158246878E+02  0.94587199823E+02  0.30972736571E+03  0.36624142708E+03  0.17060826622E+03 0.  0.
         24    2    5    5    0    0  0.57367373199E+02  0.83255150224E+02  0.28532705221E+03  0.31342338329E+03  0.81241952984E+02 0.  0.
          4    1    6    6  501    0  0.52333040787E+02  0.72948025411E+02  0.28797986470E+03  0.30164973735E+03  0.00000000000E+00 0. -1.
         -3    1    6    6    0  501  0.50343324116E+01  0.10307124813E+02 -0.26528124889E+01  0.11773645945E+02  0.00000000000E+00 0.  1.
          5    1    5    5  502    0 -0.45209126321E+02  0.11332049599E+02  0.24400313496E+02  0.52818043788E+02  0.47000000000E+01 0. -1.
         11    1    4    4    0    0  0.37848201063E+02 -0.17652129594E+02  0.72204280273E+00  0.41768473143E+02  0.00000000000E+00 0. -1.
        -12    1    4    4    0    0 -0.11521891585E+01 -0.44265912165E+02  0.81706952509E+02  0.92934517850E+02  0.00000000000E+00 0.  1.
         -5    1    3    3    0  504 -0.48854258782E+02 -0.32669158063E+02 -0.34920264313E+02  0.68523918082E+02  0.47000000000E+01 0.  1.
<mgrwt>
<rscale>  2 0.19705782E+03</rscale>
<asrwt>0</asrwt>
<pdfrwt beam="1">  1       21 0.71284955E-01 0.19759579E+03</pdfrwt>
<pdfrwt beam="2">  1       21 0.16325557E-01 0.19759579E+03</pdfrwt>
<totfact> 0.59675686E+04</totfact>
</mgrwt>
</event>
<event>
12    1  0.1410528E-001  0.2144930E+03  0.7546771E-02  0.1139756E+00
         21   -1    0    0  502  503  0.00000000000E+00  0.00000000000E+00  0.27161707208E+03  0.27161707208E+03  0.00000000000E+00 0.  1.
         21   -1    0    0  503  504 -0.00000000000E+00 -0.00000000000E+00 -0.17851545412E+03  0.17851545412E+03  0.00000000000E+00 0.  1.
         -6    2    1    2    0  504 -0.11646417684E+03  0.24292752372E+02 -0.19694604864E+02  0.21539523576E+03  0.17847461395E+03 0.  0.
        -24    2    3    3    0    0 -0.65539152103E+02  0.70431436173E+02 -0.56392927987E+02  0.13735042039E+03  0.80181094988E+02 0.  0.
          6    2    1    2  502    0  0.11646417684E+03 -0.24292752372E+02  0.11279622283E+03  0.23473729044E+03  0.16800168253E+03 0.  0.
         24    2    5    5    0    0  0.79603774883E+02 -0.80754920124E+02  0.71975911780E+02  0.15577493603E+03  0.78912487721E+02 0.  0.
          4    1    6    6  501    0 -0.72589327166E+01 -0.23908179198E+02 -0.62910795798E+01  0.25765690734E+02  0.00000000000E+00 0. -1.
         -3    1    6    6    0  501  0.86862707600E+02 -0.56846740927E+02  0.78266991360E+02  0.13000924529E+03  0.00000000000E+00 0.  1.
          5    1    5    5  502    0  0.36860401955E+02  0.56462167753E+02  0.40820311049E+02  0.78962354409E+02  0.47000000000E+01 0. -1.
         11    1    4    4    0    0 -0.38702598982E+02  0.65485182213E+02 -0.15378720886E+01  0.76082621590E+02  0.00000000000E+00 0. -1.
        -12    1    4    4    0    0 -0.26836553121E+02  0.49462539596E+01 -0.54855055898E+02  0.61267798795E+02  0.00000000000E+00 0.  1.
         -5    1    3    3    0  504 -0.50925024735E+02 -0.46138683801E+02  0.36698323122E+02  0.78044815377E+02  0.47000000000E+01 0.  1.
<mgrwt>
<rscale>  2 0.21230153E+03</rscale>
<asrwt>0</asrwt>
<pdfrwt beam="1">  1       21 0.41787242E-01 0.21449296E+03</pdfrwt>
<pdfrwt beam="2">  1       21 0.27463916E-01 0.21449296E+03</pdfrwt>
<totfact> 0.69054671E+04</totfact>
</mgrwt>
</event>
<event>
12    1  0.1410528E-001  0.2442733E+03  0.7546771E-02  0.1117030E+00
         21   -1    0    0  502  503  0.00000000000E+00  0.00000000000E+00  0.22820655814E+03  0.22820655814E+03  0.00000000000E+00 0.  1.
         21   -1    0    0  503  504 -0.00000000000E+00 -0.00000000000E+00 -0.71529787228E+03  0.71529787228E+03  0.00000000000E+00 0.  1.
         -6    2    1    2    0  504 -0.82015226456E+02 -0.15169835055E+03 -0.61939226601E+03  0.66570419963E+03  0.17255844018E+03 0.  0.
        -24    2    3    3    0    0  0.18479120485E+02 -0.78512009864E+02 -0.36815768723E+03  0.38535395831E+03  0.80324198927E+02 0.  0.
          6    2    1    2  502    0  0.82015226456E+02  0.15169835055E+03  0.13230095188E+03  0.27780023079E+03  0.17300444915E+03 0.  0.
         24    2    5    5    0    0  0.10151173285E+03  0.15123818223E+03  0.15114155483E+03  0.25027962331E+03  0.81354167535E+02 0.  0.
          4    1    6    6  501    0  0.45049034972E+02  0.97334345500E+01  0.46365491567E+02  0.65375179604E+02  0.00000000000E+00 0. -1.
         -3    1    6    6    0  501  0.56462697876E+02  0.14150474768E+03  0.10477606327E+03  0.18490444370E+03  0.00000000000E+00 0.  1.
          5    1    5    5  502    0 -0.19496506393E+02  0.46016832051E+00 -0.18840602954E+02  0.27520607480E+02  0.47000000000E+01 0. -1.
         13    1    4    4    0    0  0.22512047319E+02 -0.86249878265E+02 -0.22622671195E+03  0.24315501018E+03  0.00000000000E+00 0. -1.
        -14    1    4    4    0    0 -0.40329268340E+01  0.77378684012E+01 -0.14193097528E+03  0.14219894813E+03  0.00000000000E+00 0.  1.
         -5    1    3    3    0  504 -0.10049434694E+03 -0.73186340688E+02 -0.25123457879E+03  0.28035024132E+03  0.47000000000E+01 0.  1.
<mgrwt>
<rscale>  2 0.24419430E+03</rscale>
<asrwt>0</asrwt>
<pdfrwt beam="1">  1       21 0.35108702E-01 0.24427326E+03</pdfrwt>
<pdfrwt beam="2">  1       21 0.11004583E+00 0.24427326E+03</pdfrwt>
<totfact> 0.49137879E+03</totfact>
</mgrwt>
</event>
<event>
12    1  0.1410528E-001  0.1932746E+03  0.7546771E-02  0.1157133E+00
         21   -1    0    0  502  503  0.00000000000E+00  0.00000000000E+00  0.60155673606E+02  0.60155673606E+02  0.00000000000E+00 0.  1.
         21   -1    0    0  503  504 -0.00000000000E+00 -0.00000000000E+00 -0.16178998718E+04  0.16178998718E+04  0.00000000000E+00 0.  1.
         -6    2    1    2    0  504 -0.43275497742E+02 -0.55087151294E+02 -0.14502226544E+04  0.14630450444E+04  0.18013242768E+03 0.  0.
        -24    2    3    3    0    0 -0.48033767298E+02 -0.10243171298E+03 -0.12252927286E+04  0.12330891569E+04  0.79794106797E+02 0.  0.
          6    2    1    2  502    0  0.43275497742E+02  0.55087151294E+02 -0.10752154375E+03  0.21501050102E+03  0.17251455079E+03 0.  0.
         24    2    5    5    0    0  0.16474513650E+02  0.51451387325E+02  0.44632798806E+01  0.99710014238E+02  0.83686983542E+02 0.  0.
          2    1    6    6  501    0  0.20649617342E+02 -0.19449751215E+02  0.42630958663E+01  0.28685771822E+02  0.00000000000E+00 0. -1.
         -1    1    6    6    0  501 -0.41751036917E+01  0.70901138539E+02  0.20018401431E+00  0.71024242415E+02  0.00000000000E+00 0.  1.
          5    1    5    5  502    0  0.26800984092E+02  0.36357639690E+01 -0.11198482363E+03  0.11530048678E+03  0.47000000000E+01 0. -1.
         13    1    4    4    0    0 -0.48786906286E+02 -0.74941868792E+02 -0.54879692060E+03  0.55603462660E+03  0.00000000000E+00 0. -1.
        -14    1    4    4    0    0  0.75313898819E+00 -0.27489844184E+02 -0.67649580803E+03  0.67705453033E+03  0.00000000000E+00 0.  1.
         -5    1    3    3    0  504  0.47582695555E+01  0.47344561683E+02 -0.22492992580E+03  0.22995588744E+03  0.47000000000E+01 0.  1.
<mgrwt>
<rscale>  2 0.19147986E+03</rscale>
<asrwt>0</asrwt>
<pdfrwt beam="1">  1       21 0.92547202E-02 0.19327456E+03</pdfrwt>
<pdfrwt beam="2">  1       21 0.24890764E+00 0.19327456E+03</pdfrwt>
<totfact> 0.62729559E+03</totfact>
</mgrwt>
</event>
<event>
12    1  0.1410528E-001  0.1939803E+03  0.7546771E-02  0.1155545E+00
         21   -1    0    0  502  503  0.00000000000E+00  0.00000000000E+00  0.43581484460E+02  0.43581484460E+02  0.00000000000E+00 0. -1.
         21   -1    0    0  503  504 -0.00000000000E+00 -0.00000000000E+00 -0.90719550800E+03  0.90719550800E+03  0.00000000000E+00 0.  1.
         -6    2    1    2    0  504  0.48429065170E+02 -0.73194349245E+02 -0.54729281176E+03  0.57971436285E+03  0.16981323146E+03 0.  0.
        -24    2    3    3    0    0  0.50717204641E+02 -0.26331371811E+02 -0.15335296443E+03  0.18296246613E+03  0.81808045608E+02 0.  0.
          6    2    1    2  502    0 -0.48429065170E+02  0.73194349245E+02 -0.31632121178E+03  0.37106262961E+03  0.17299011230E+03 0.  0.
         24    2    5    5    0    0  0.16871105820E+02  0.58783006876E+02 -0.84646256394E+02  0.12988391149E+03  0.77231895179E+02 0.  0.
          4    1    6    6  501    0 -0.25164221668E+02  0.46568095391E+02 -0.33858429402E+02  0.62834853402E+02  0.00000000000E+00 0. -1.
         -3    1    6    6    0  501  0.42035327488E+02  0.12214911485E+02 -0.50787826992E+02  0.67049058086E+02  0.00000000000E+00 0.  1.
          5    1    5    5  502    0 -0.65300170990E+02  0.14411342369E+02 -0.23167495539E+03  0.24117871812E+03  0.47000000000E+01 0. -1.
         13    1    4    4    0    0  0.68258671786E+02 -0.37992932296E+02 -0.11198782822E+03  0.13654297070E+03  0.00000000000E+00 0. -1.
        -14    1    4    4    0    0 -0.17541467145E+02  0.11661560485E+02 -0.41365136206E+02  0.46419495429E+02  0.00000000000E+00 0.  1.
         -5    1    3    3    0  504 -0.22881394712E+01 -0.46862977434E+02 -0.39393984733E+03  0.39675189672E+03  0.47000000000E+01 0.  1.
<mgrwt>
<rscale>  2 0.19326950E+03</rscale>
<asrwt>0</asrwt>
<pdfrwt beam="1">  1       21 0.67048444E-02 0.19398032E+03</pdfrwt>
<pdfrwt beam="2">  1       21 0.13956853E+00 0.19398032E+03</pdfrwt>
<totfact> 0.58730676E+04</totfact>
</mgrwt>
</event>
<event>
12    1  0.1410528E-001  0.1862266E+03  0.7546771E-02  0.1163921E+00
         21   -1    0    0  502  503  0.00000000000E+00  0.00000000000E+00  0.24071034123E+03  0.24071034123E+03  0.00000000000E+00 0.  1.
         21   -1    0    0  503  504 -0.00000000000E+00 -0.00000000000E+00 -0.26238842380E+03  0.26238842380E+03  0.00000000000E+00 0.  1.
         -6    2    1    2    0  504 -0.60715913289E+02  0.38075892610E+01 -0.18442722369E+03  0.26209492566E+03  0.17600974222E+03 0.  0.
        -24    2    3    3    0    0  0.32663323233E+02 -0.42918818674E+01 -0.56477808331E+02  0.10341781283E+03  0.80126077167E+02 0.  0.
          6    2    1    2  502    0  0.60715913289E+02 -0.38075892610E+01  0.16274914113E+03  0.24100383937E+03  0.16701690869E+03 0.  0.
         24    2    5    5    0    0  0.43050622923E+02 -0.63271582950E+02  0.13673880289E+03  0.17357493811E+03  0.74659959699E+02 0.  0.
          4    1    6    6  501    0  0.17479194672E+02 -0.43570858506E+02  0.13304407174E+03  0.14108390051E+03  0.00000000000E+00 0. -1.
         -3    1    6    6    0  501  0.25571428251E+02 -0.19700724443E+02  0.36947311491E+01  0.32491037605E+02  0.00000000000E+00 0.  1.
          5    1    5    5  502    0  0.17665290366E+02  0.59463993689E+02  0.26010338239E+02  0.67428901255E+02  0.47000000000E+01 0. -1.
         13    1    4    4    0    0  0.28283222737E+02  0.26531577815E+02  0.16817340149E+00  0.38780066942E+02  0.00000000000E+00 0. -1.
        -14    1    4    4    0    0  0.43801004962E+01 -0.30823459682E+02 -0.56645981733E+02  0.64637745889E+02  0.00000000000E+00 0.  1.
         -5    1    3    3    0  504 -0.93379236522E+02  0.80994711283E+01 -0.12794941536E+03  0.15867711283E+03  0.47000000000E+01 0.  1.
<mgrwt>
<rscale>  2 0.18407066E+03</rscale>
<asrwt>0</asrwt>
<pdfrwt beam="1">  1       21 0.37032360E-01 0.18622661E+03</pdfrwt>
<pdfrwt beam="2">  1       21 0.40367450E-01 0.18622661E+03</pdfrwt>
<totfact> 0.41716333E+04</totfact>
</mgrwt>
</event>
<event>
12    1  0.1410528E-001  0.1835577E+03  0.7546771E-02  0.1164785E+00
         21   -1    0    0  502  503  0.00000000000E+00  0.00000000000E+00  0.11220358278E+03  0.11220358278E+03  0.00000000000E+00 0.  1.
         21   -1    0    0  503  504 -0.00000000000E+00 -0.00000000000E+00 -0.83724964233E+03  0.83724964233E+03  0.00000000000E+00 0.  1.
         -6    2    1    2    0  504  0.57517120489E+02  0.22455464395E+02 -0.74419668716E+03  0.76649993708E+03  0.17286115045E+03 0.  0.
        -24    2    3    3    0    0  0.93179831599E+02  0.10060819799E+02 -0.37097245701E+03  0.39134147437E+03  0.82121157958E+02 0.  0.
          6    2    1    2  502    0 -0.57517120489E+02 -0.22455464395E+02  0.19150627603E+02  0.18295328804E+03  0.17115107956E+03 0.  0.
         24    2    5    5    0    0 -0.73449824369E+02 -0.75475622576E+01 -0.43772278664E+02  0.11618893578E+03  0.78307177336E+02 0.  0.
          2    1    6    6  501    0 -0.76688405798E+02  0.11700830475E+02 -0.53642675618E+02  0.94316264054E+02  0.00000000000E+00 0. -1.
         -1    1    6    6    0  501  0.32385814285E+01 -0.19248392733E+02  0.98703969531E+01  0.21872671727E+02  0.00000000000E+00 0.  1.
          5    1    5    5  502    0  0.15932703881E+02 -0.14907902138E+02  0.62922906267E+02  0.66764352256E+02  0.47000000000E+01 0. -1.
         11    1    4    4    0    0 -0.14638224002E+01 -0.40184322940E+01  0.30633108958E+01  0.52606508880E+01  0.00000000000E+00 0. -1.
        -12    1    4    4    0    0  0.94643653999E+02  0.14079252093E+02 -0.37403576791E+03  0.38608082348E+03  0.00000000000E+00 0.  1.
         -5    1    3    3    0  504 -0.35662711110E+02  0.12394644596E+02 -0.37322423014E+03  0.37515846271E+03  0.47000000000E+01 0.  1.
<mgrwt>
<rscale>  2 0.18315403E+03</rscale>
<asrwt>0</asrwt>
<pdfrwt beam="1">  1       21 0.17262089E-01 0.18355774E+03</pdfrwt>
<pdfrwt beam="2">  1       21 0.12880764E+00 0.18355774E+03</pdfrwt>
<totfact> 0.13503667E+04</totfact>
</mgrwt>
</event>
<event>
12    1  0.1410528E-001  0.3525106E+03  0.7546771E-02  0.1061599E+00
         21   -1    0    0  502  503  0.00000000000E+00  0.00000000000E+00  0.80446376950E+02  0.80446376950E+02  0.00000000000E+00 0. -1.
         21   -1    0    0  503  504 -0.00000000000E+00 -0.00000000000E+00 -0.20328779882E+04  0.20328779882E+04  0.00000000000E+00 0.  1.
         -6    2    1    2    0  504  0.21559829403E+03 -0.21829103100E+03 -0.14941582598E+04  0.15351564239E+04  0.17338610599E+03 0.  0.
        -24    2    3    3    0    0  0.65243942485E+02 -0.64761665292E+02 -0.33187228839E+03  0.35316299472E+03  0.78320110551E+02 0.  0.
          6    2    1    2  502    0 -0.21559829403E+03  0.21829103100E+03 -0.45827335145E+03  0.57816794130E+03  0.17358025551E+03 0.  0.
         24    2    5    5    0    0 -0.99408852725E+02  0.81968616036E+02 -0.11109263331E+03  0.18747582705E+03  0.78769527978E+02 0.  0.
          2    1    6    6  501    0 -0.52479712713E+02  0.89024509948E+02 -0.80739879695E+02  0.13114271536E+03  0.00000000000E+00 0. -1.
         -1    1    6    6    0  501 -0.46929140013E+02 -0.70558939121E+01 -0.30352753615E+02  0.56333111695E+02  0.00000000000E+00 0.  1.
          5    1    5    5  502    0 -0.11618944130E+03  0.13632241496E+03 -0.34718071814E+03  0.39069211425E+03  0.47000000000E+01 0. -1.
         13    1    4    4    0    0 -0.17610619899E+02 -0.15421190753E+02 -0.48981777658E+02  0.54287766578E+02  0.00000000000E+00 0. -1.
        -14    1    4    4    0    0  0.82854562384E+02 -0.49340474539E+02 -0.28289051074E+03  0.29887522815E+03  0.00000000000E+00 0.  1.
         -5    1    3    3    0  504  0.15035435154E+03 -0.15352936570E+03 -0.11622859714E+04  0.11819934292E+04  0.47000000000E+01 0.  1.
<mgrwt>
<rscale>  2 0.35248668E+03</rscale>
<asrwt>0</asrwt>
<pdfrwt beam="1">  1       21 0.12376367E-01 0.35251057E+03</pdfrwt>
<pdfrwt beam="2">  1       21 0.31275043E+00 0.35251057E+03</pdfrwt>
<totfact> 0.13723980E+03</totfact>
</mgrwt>
</event>
<event>
12    1  0.1410528E-001  0.2074386E+03  0.7546771E-02  0.1144544E+00
         21   -1    0    0  502  503  0.00000000000E+00  0.00000000000E+00  0.12150209203E+03  0.12150209203E+03  0.00000000000E+00 0. -1.
         21   -1    0    0  503  504 -0.00000000000E+00 -0.00000000000E+00 -0.39360731276E+03  0.39360731276E+03  0.00000000000E+00 0. -1.
         -6    2    1    2    0  504  0.47936386415E+02 -0.94735454943E+02 -0.22393464207E+03  0.30215122934E+03  0.17284657330E+03 0.  0.
        -24    2    3    3    0    0  0.98271242031E+02 -0.53685928945E+02 -0.15495759720E+03  0.20729036284E+03  0.80112555918E+02 0.  0.
          6    2    1    2  502    0 -0.47936386415E+02  0.94735454943E+02 -0.48170578657E+02  0.21295817545E+03  0.17820795795E+03 0.  0.
         24    2    5    5    0    0 -0.84069667489E+02  0.13708060995E+02 -0.36568685743E+02  0.12336048301E+03  0.81393611932E+02 0.  0.
          2    1    6    6  501    0 -0.92306931869E+02  0.12652587572E+02 -0.78899197323E+01  0.93503521200E+02  0.00000000000E+00 0. -1.
         -1    1    6    6    0  501  0.82372643799E+01  0.10554734223E+01 -0.28678766010E+02  0.29856961809E+02  0.00000000000E+00 0.  1.
          5    1    5    5  502    0  0.36133281074E+02  0.81027393948E+02 -0.11601892914E+02  0.89597692439E+02  0.47000000000E+01 0. -1.
         13    1    4    4    0    0  0.27868699240E+02 -0.33130694752E+02 -0.94038022373E+01  0.44302808360E+02  0.00000000000E+00 0. -1.
        -14    1    4    4    0    0  0.70402542792E+02 -0.20555234193E+02 -0.14555379497E+03  0.16298755447E+03  0.00000000000E+00 0.  1.
         -5    1    3    3    0  504 -0.50334855616E+02 -0.41049525997E+02 -0.68977044868E+02  0.94860866500E+02  0.47000000000E+01 0.  1.
<mgrwt>
<rscale>  2 0.20628215E+03</rscale>
<asrwt>0</asrwt>
<pdfrwt beam="1">  1       21 0.18692630E-01 0.20743862E+03</pdfrwt>
<pdfrwt beam="2">  1       21 0.60554971E-01 0.20743862E+03</pdfrwt>
<totfact> 0.66060847E+04</totfact>
</mgrwt>
</event>
<event>
12    1  0.1410528E-001  0.2431961E+03  0.7546771E-02  0.1118003E+00
         21   -1    0    0  502  503  0.00000000000E+00  0.00000000000E+00  0.16687570618E+03  0.16687570618E+03  0.00000000000E+00 0.  1.
         21   -1    0    0  503  504 -0.00000000000E+00 -0.00000000000E+00 -0.71366817616E+03  0.71366817616E+03  0.00000000000E+00 0.  1.
         -6    2    1    2    0  504 -0.16623574919E+02  0.16892567734E+03 -0.58754183782E+03  0.63588500361E+03  0.17416112919E+03 0.  0.
        -24    2    3    3    0    0 -0.92390738313E+00  0.47013687192E+02 -0.40837602797E+03  0.41855693290E+03  0.78789500977E+02 0.  0.
          6    2    1    2  502    0  0.16623574919E+02 -0.16892567734E+03  0.40749367835E+02  0.24465887874E+03  0.17142120131E+03 0.  0.
         24    2    5    5    0    0  0.58998937879E+02 -0.17183528138E+03  0.27365673314E+02  0.19987773917E+03  0.78701918302E+02 0.  0.
          2    1    6    6  501    0  0.16261038483E+02 -0.29778145114E+02  0.38253370968E+02  0.51131983038E+02  0.00000000000E+00 0. -1.
         -1    1    6    6    0  501  0.42737899396E+02 -0.14205713626E+03 -0.10887697655E+02  0.14874575613E+03  0.00000000000E+00 0.  1.
          5    1    5    5  502    0 -0.42375362960E+02  0.29096040396E+01  0.13383694521E+02  0.44781139564E+02  0.47000000000E+01 0. -1.
         11    1    4    4    0    0 -0.19173823155E+02 -0.14323979997E+02 -0.64951229138E+02  0.69220474311E+02  0.00000000000E+00 0. -1.
        -12    1    4    4    0    0  0.18249915772E+02  0.61337667188E+02 -0.34342479884E+03  0.34933645859E+03  0.00000000000E+00 0.  1.
         -5    1    3    3    0  504 -0.15699667536E+02  0.12191199014E+03 -0.17916580984E+03  0.21732807071E+03  0.47000000000E+01 0.  1.
<mgrwt>
<rscale>  2 0.24270594E+03</rscale>
<asrwt>0</asrwt>
<pdfrwt beam="1">  1       21 0.25673185E-01 0.24319607E+03</pdfrwt>
<pdfrwt beam="2">  1       21 0.10979510E+00 0.24319607E+03</pdfrwt>
<totfact> 0.91329372E+03</totfact>
</mgrwt>
</event>
<event>
12    1  0.1410528E-001  0.2061966E+03  0.7546771E-02  0.1144937E+00
         21   -1    0    0  502  503  0.00000000000E+00  0.00000000000E+00  0.43066589225E+03  0.43066589225E+03  0.00000000000E+00 0.  1.
         21   -1    0    0  503  504 -0.00000000000E+00 -0.00000000000E+00 -0.16362120194E+03  0.16362120194E+03  0.00000000000E+00 0.  1.
         -6    2    1    2    0  504  0.83034644251E+01  0.11138588761E+03  0.32144003566E+03  0.38103634254E+03  0.17143288579E+03 0.  0.
        -24    2    3    3    0    0  0.62762209317E+02  0.43903309998E+02  0.22549730715E+03  0.25162710666E+03  0.81243890402E+02 0.  0.
          6    2    1    2  502    0 -0.83034644251E+01 -0.11138588761E+03 -0.54395345350E+02  0.21325075165E+03  0.17332416451E+03 0.  0.
         24    2    5    5    0    0  0.57237867123E+02 -0.34828997989E+02 -0.16909678614E+02  0.10562227632E+03  0.79880507579E+02 0.  0.
          2    1    6    6  501    0  0.76767325768E+02 -0.21700657170E+02 -0.18970892231E+02  0.82000216946E+02  0.00000000000E+00 0. -1.
         -1    1    6    6    0  501 -0.19529458645E+02 -0.13128340819E+02  0.20612136171E+01  0.23622059377E+02  0.00000000000E+00 0.  1.
          5    1    5    5  502    0 -0.65541331548E+02 -0.76556889626E+02 -0.37485666736E+02  0.10762847533E+03  0.47000000000E+01 0. -1.
         13    1    4    4    0    0  0.20807994143E+02  0.13480768017E+02  0.18281747766E+03  0.18449101297E+03  0.00000000000E+00 0. -1.
        -14    1    4    4    0    0  0.41954215174E+02  0.30422541981E+02  0.42679829487E+02  0.67136093694E+02  0.00000000000E+00 0.  1.
         -5    1    3    3    0  504 -0.54458744892E+02  0.67482577616E+02  0.95942728511E+02  0.12940923588E+03  0.47000000000E+01 0.  1.
<mgrwt>
<rscale>  2 0.20579863E+03</rscale>
<asrwt>0</asrwt>
<pdfrwt beam="1">  1       21 0.66256291E-01 0.20619658E+03</pdfrwt>
<pdfrwt beam="2">  1       21 0.25172493E-01 0.20619658E+03</pdfrwt>
<totfact> 0.31018509E+04</totfact>
</mgrwt>
</event>
<event>
12    1  0.1410528E-001  0.2616718E+03  0.7546771E-02  0.1106259E+00
         21   -1    0    0  502  503  0.00000000000E+00  0.00000000000E+00  0.11800663034E+03  0.11800663034E+03  0.00000000000E+00 0.  1.
         21   -1    0    0  503  504 -0.00000000000E+00 -0.00000000000E+00 -0.66597520177E+03  0.66597520177E+03  0.00000000000E+00 0. -1.
         -6    2    1    2    0  504 -0.14863707934E+03  0.12624585497E+03 -0.41639483755E+03  0.49178937080E+03  0.17447385835E+03 0.  0.
        -24    2    3    3    0    0 -0.15977080017E+03  0.48603373294E+02 -0.30019831745E+03  0.35151807658E+03  0.74544831346E+02 0.  0.
          6    2    1    2  502    0  0.14863707934E+03 -0.12624585497E+03 -0.13157373389E+03  0.29219246130E+03  0.17330259589E+03 0.  0.
         24    2    5    5    0    0  0.14430661941E+03 -0.11010977607E+03 -0.45952345219E+02  0.20482977978E+03  0.83036482720E+02 0.  0.
          2    1    6    6  501    0  0.81140730668E+02 -0.13367776210E+02 -0.32844477838E+02  0.88550975933E+02  0.00000000000E+00 0. -1.
         -1    1    6    6    0  501  0.63165888742E+02 -0.96741999857E+02 -0.13107867381E+02  0.11627880385E+03  0.00000000000E+00 0.  1.
          5    1    5    5  502    0  0.43304599304E+01 -0.16136078901E+02 -0.85621388670E+02  0.87362681525E+02  0.47000000000E+01 0. -1.
         11    1    4    4    0    0 -0.13395129741E+03  0.61299153282E+02 -0.27992708938E+03  0.31632216432E+03  0.00000000000E+00 0. -1.
        -12    1    4    4    0    0 -0.25819502764E+02 -0.12695779987E+02 -0.20271228066E+02  0.35195912259E+02  0.00000000000E+00 0.  1.
         -5    1    3    3    0  504  0.11133720830E+02  0.77642481673E+02 -0.11619652010E+03  0.14027129422E+03  0.47000000000E+01 0.  1.
<mgrwt>
<rscale>  2 0.26147670E+03</rscale>
<asrwt>0</asrwt>
<pdfrwt beam="1">  1       21 0.18154866E-01 0.26167179E+03</pdfrwt>
<pdfrwt beam="2">  1       21 0.10245773E+00 0.26167179E+03</pdfrwt>
<totfact> 0.20615432E+04</totfact>
</mgrwt>
</event>
<event>
12    1  0.1410528E-001  0.1744322E+03  0.7546771E-02  0.1173332E+00
         21   -1    0    0  502  503  0.00000000000E+00  0.00000000000E+00  0.11244044357E+04  0.11244044357E+04  0.00000000000E+00 0.  1.
         21   -1    0    0  503  504 -0.00000000000E+00 -0.00000000000E+00 -0.40290506808E+02  0.40290506808E+02  0.00000000000E+00 0.  1.
         -6    2    1    2    0  504 -0.13195615833E+02  0.64033743828E+01  0.20800056149E+03  0.27138579271E+03  0.17369768974E+03 0.  0.
        -24    2    3    3    0    0  0.26350749659E+02  0.63956109963E+01  0.25449268206E+02  0.84540991430E+02  0.75922645713E+02 0.  0.
          6    2    1    2  502    0  0.13195615833E+02 -0.64033743828E+01  0.87611336739E+03  0.89330914979E+03  0.17381449048E+03 0.  0.
         24    2    5    5    0    0  0.15296422848E+02 -0.64418717210E+02  0.39293279581E+03  0.40663086987E+03  0.81047705889E+02 0.  0.
          2    1    6    6  501    0  0.11344009602E+02 -0.18624571415E+02  0.16356559918E+02  0.27259828807E+02  0.00000000000E+00 0. -1.
         -1    1    6    6    0  501  0.39524132462E+01 -0.45794145795E+02  0.37657623589E+03  0.37937104106E+03  0.00000000000E+00 0.  1.
          5    1    5    5  502    0 -0.21008070144E+01  0.58015342827E+02  0.48318057158E+03  0.48667827992E+03  0.47000000000E+01 0. -1.
         11    1    4    4    0    0  0.38231569538E+02 -0.25903347524E+02  0.13554148105E+02  0.48128486919E+02  0.00000000000E+00 0. -1.
        -12    1    4    4    0    0 -0.11880819879E+02  0.32298958520E+02  0.11895120101E+02  0.36412504510E+02  0.00000000000E+00 0.  1.
         -5    1    3    3    0  504 -0.39546365492E+02  0.77633865500E-02  0.18255129329E+03  0.18684480128E+03  0.47000000000E+01 0.  1.
<mgrwt>
<rscale>  2 0.17440313E+03</rscale>
<asrwt>0</asrwt>
<pdfrwt beam="1">  1       21 0.17298527E+00 0.17443223E+03</pdfrwt>
<pdfrwt beam="2">  1       21 0.61985404E-02 0.17443223E+03</pdfrwt>
<totfact> 0.38371980E+04</totfact>
</mgrwt>
</event>
<event>
12    1  0.1410528E-001  0.1836982E+03  0.7546771E-02  0.1164641E+00
         21   -1    0    0  502  503  0.00000000000E+00  0.00000000000E+00  0.93123871729E+03  0.93123871729E+03  0.00000000000E+00 0.  1.
         21   -1    0    0  503  504 -0.00000000000E+00 -0.00000000000E+00 -0.42314890341E+02  0.42314890341E+02  0.00000000000E+00 0.  1.
         -6    2    1    2    0  504 -0.23702144439E+02 -0.56388116258E+02  0.25374871918E+03  0.31234831832E+03  0.17155654510E+03 0.  0.
        -24    2    3    3    0    0  0.51010834665E+02 -0.49874458443E+02  0.13462879232E+03  0.17150761412E+03  0.78742511531E+02 0.  0.
          6    2    1    2  502    0  0.23702144439E+02  0.56388116258E+02  0.63517510777E+03  0.66120528931E+03  0.17321548942E+03 0.  0.
         24    2    5    5    0    0 -0.61172968841E+01  0.65629234199E+01  0.56255604227E+03  0.56810659116E+03  0.78710259461E+02 0.  0.
          4    1    6    6  501    0  0.90817017572E+01  0.40706639506E+02  0.31341425921E+03  0.31617717451E+03  0.00000000000E+00 0. -1.
         -3    1    6    6    0  501 -0.15198998641E+02 -0.34143716086E+02  0.24914178306E+03  0.25192941665E+03  0.00000000000E+00 0.  1.
          5    1    5    5  502    0  0.29819441323E+02  0.49825192839E+02  0.72619065500E+02  0.93098698145E+02  0.47000000000E+01 0. -1.
         11    1    4    4    0    0 -0.17674765077E+02  0.20742431300E+01  0.38690109922E+02  0.42586669403E+02  0.00000000000E+00 0. -1.
        -12    1    4    4    0    0  0.68685599742E+02 -0.51948701573E+02  0.95938682400E+02  0.12892094472E+03  0.00000000000E+00 0.  1.
         -5    1    3    3    0  504 -0.74712979105E+02 -0.65136578157E+01  0.11911992686E+03  0.14084070420E+03  0.47000000000E+01 0.  1.
<mgrwt>
<rscale>  2 0.18330605E+03</rscale>
<asrwt>0</asrwt>
<pdfrwt beam="1">  1       21 0.14326748E+00 0.18369817E+03</pdfrwt>
<pdfrwt beam="2">  1       21 0.65099838E-02 0.18369817E+03</pdfrwt>
<totfact> 0.58053418E+04</totfact>
</mgrwt>
</event>
<event>
12    1  0.1410528E-001  0.1750915E+03  0.7546771E-02  0.1173648E+00
         21   -1    0    0  502  503  0.00000000000E+00  0.00000000000E+00  0.13871335113E+04  0.13871335113E+04  0.00000000000E+00 0.  1.
         21   -1    0    0  503  504 -0.00000000000E+00 -0.00000000000E+00 -0.13651268853E+03  0.13651268853E+03  0.00000000000E+00 0.  1.
         -6    2    1    2    0  504 -0.26344200082E+02 -0.85581968393E+01 -0.72498059925E+02  0.18950723657E+03  0.17288656515E+03 0.  0.
        -24    2    3    3    0    0 -0.35420644930E+02 -0.62692554932E+02 -0.15087431765E+01  0.99649105781E+02  0.68867187004E+02 0.  0.
          6    2    1    2  502    0  0.26344200082E+02  0.85581968393E+01  0.13231188827E+04  0.13341389632E+04  0.16886662164E+03 0.  0.
         24    2    5    5    0    0 -0.11952944456E+02 -0.52012870870E+02  0.65633849034E+03  0.66350217097E+03  0.81281642259E+02 0.  0.
          2    1    6    6  501    0  0.20722684103E+01 -0.64787600886E+02  0.31308310672E+03  0.31972294137E+03  0.00000000000E+00 0. -1.
         -1    1    6    6    0  501 -0.14025212867E+02  0.12774730016E+02  0.34325538362E+03  0.34377922961E+03  0.00000000000E+00 0.  1.
          5    1    5    5  502    0  0.38297144538E+02  0.60571067710E+02  0.66678039234E+03  0.67063679226E+03  0.47000000000E+01 0. -1.
         11    1    4    4    0    0 -0.47090584274E+02 -0.13825569813E+02  0.32339712809E+01  0.49184632541E+02  0.00000000000E+00 0. -1.
        -12    1    4    4    0    0  0.11669939345E+02 -0.48866985119E+02 -0.47427144574E+01  0.50464473240E+02  0.00000000000E+00 0.  1.
         -5    1    3    3    0  504  0.90764448475E+01  0.54134358093E+02 -0.70989316748E+02  0.89858130793E+02  0.47000000000E+01 0.  1.
<mgrwt>
<rscale>  2 0.17409089E+03</rscale>
<asrwt>0</asrwt>
<pdfrwt beam="1">  1       21 0.21340515E+00 0.17509147E+03</pdfrwt>
<pdfrwt beam="2">  1       21 0.21001953E-01 0.17509147E+03</pdfrwt>
<totfact> 0.23724568E+03</totfact>
</mgrwt>
</event>
<event>
12    1  0.1410528E-001  0.1934848E+03  0.7546771E-02  0.1155748E+00
         21   -1    0    0  502  503  0.00000000000E+00  0.00000000000E+00  0.83835027770E+03  0.83835027770E+03  0.00000000000E+00 0.  1.
         21   -1    0    0  503  504 -0.00000000000E+00 -0.00000000000E+00 -0.50192347139E+02  0.50192347139E+02  0.00000000000E+00 0.  1.
         -6    2    1    2    0  504  0.79391391024E+01 -0.86612411621E+02  0.54860001301E+03  0.58172015459E+03  0.17283409444E+03 0.  0.
        -24    2    3    3    0    0  0.70674298073E+02 -0.69450646134E+02  0.37802618107E+03  0.39910649544E+03  0.81018223056E+02 0.  0.
          6    2    1    2  502    0 -0.79391391024E+01  0.86612411621E+02  0.23955791754E+03  0.30682247025E+03  0.17084288868E+03 0.  0.
         24    2    5    5    0    0  0.49650904877E+02  0.14463056043E+02  0.96171176819E+02  0.13622355439E+03  0.81446725991E+02 0.  0.
          4    1    6    6  501    0  0.32371531140E+02  0.59933780938E+01 -0.49463769354E+01  0.33291188836E+02  0.00000000000E+00 0. -1.
         -3    1    6    6    0  501  0.17279373737E+02  0.84696779487E+01  0.10111755375E+03  0.10293236555E+03  0.00000000000E+00 0.  1.
          5    1    5    5  502    0 -0.57590043979E+02  0.72149355579E+02  0.14338674073E+03  0.17059891586E+03  0.47000000000E+01 0. -1.
         13    1    4    4    0    0  0.16977415722E+02  0.11944783969E+02  0.14532827577E+03  0.14680333186E+03  0.00000000000E+00 0. -1.
        -14    1    4    4    0    0  0.53696882351E+02 -0.81395430103E+02  0.23269790530E+03  0.25230316357E+03  0.00000000000E+00 0.  1.
         -5    1    3    3    0  504 -0.62735158971E+02 -0.17161765487E+02  0.17057383194E+03  0.18261365915E+03  0.47000000000E+01 0.  1.
<mgrwt>
<rscale>  2 0.19303910E+03</rscale>
<asrwt>0</asrwt>
<pdfrwt beam="1">  1       21 0.12897696E+00 0.19348479E+03</pdfrwt>
<pdfrwt beam="2">  1       21 0.77219002E-02 0.19348479E+03</pdfrwt>
<totfact> 0.56250967E+04</totfact>
</mgrwt>
</event>
<event>
12    1  0.1410528E-001  0.2215361E+03  0.7546771E-02  0.1133042E+00
         21   -1    0    0  502  503  0.00000000000E+00  0.00000000000E+00  0.47715581981E+03  0.47715581981E+03  0.00000000000E+00 0. -1.
         21   -1    0    0  503  504 -0.00000000000E+00 -0.00000000000E+00 -0.10229052616E+03  0.10229052616E+03  0.00000000000E+00 0. -1.
         -6    2    1    2    0  504  0.96781421573E+02 -0.99763293338E+02  0.17449468075E+03  0.28073810498E+03  0.17042925722E+03 0.  0.
        -24    2    3    3    0    0  0.58816806335E+02 -0.11654882291E+03  0.18194974134E+03  0.23830304940E+03  0.81483680288E+02 0.  0.
          6    2    1    2  502    0 -0.96781421573E+02  0.99763293338E+02  0.20037061290E+03  0.29870824100E+03  0.17250760118E+03 0.  0.
         24    2    5    5    0    0 -0.25200928324E+01  0.55125605197E+02  0.35123779405E+02  0.10324385222E+03  0.79877593391E+02 0.  0.
          4    1    6    6  501    0  0.30809744859E+02  0.33124982770E+02  0.43140546903E+02  0.62510892242E+02  0.00000000000E+00 0. -1.
         -3    1    6    6    0  501 -0.33329837692E+02  0.22000622427E+02 -0.80167674981E+01  0.40732959981E+02  0.00000000000E+00 0.  1.
          5    1    5    5  502    0 -0.94261328741E+02  0.44637688142E+02  0.16524683350E+03  0.19546438878E+03  0.47000000000E+01 0. -1.
         13    1    4    4    0    0  0.34018480666E+02 -0.75974051082E+02  0.47835786148E+02  0.96008207468E+02  0.00000000000E+00 0. -1.
        -14    1    4    4    0    0  0.24798325668E+02 -0.40574771823E+02  0.13411395519E+03  0.14229484194E+03  0.00000000000E+00 0.  1.
         -5    1    3    3    0  504  0.37964615238E+02  0.16785529567E+02 -0.74550605931E+01  0.42435055573E+02  0.47000000000E+01 0.  1.
<mgrwt>
<rscale>  2 0.22113133E+03</rscale>
<asrwt>0</asrwt>
<pdfrwt beam="1">  1       21 0.73408586E-01 0.22153607E+03</pdfrwt>
<pdfrwt beam="2">  1       21 0.15737004E-01 0.22153607E+03</pdfrwt>
<totfact> 0.59147565E+04</totfact>
</mgrwt>
</event>
<event>
12    1  0.1410528E-001  0.1920991E+03  0.7546771E-02  0.1156832E+00
         21   -1    0    0  502  503  0.00000000000E+00  0.00000000000E+00  0.28652641585E+03  0.28652641585E+03  0.00000000000E+00 0.  1.
         21   -1    0    0  503  504 -0.00000000000E+00 -0.00000000000E+00 -0.12906279576E+03  0.12906279576E+03  0.00000000000E+00 0.  1.
         -6    2    1    2    0  504 -0.52972217477E+02 -0.60761500046E+02  0.60453170505E+02  0.20138685454E+03  0.17436761065E+03 0.  0.
        -24    2    3    3    0    0 -0.71184711115E+02  0.15774505100E+02  0.51084789248E+02  0.12201865199E+03  0.83443379804E+02 0.  0.
          6    2    1    2  502    0  0.52972217477E+02  0.60761500046E+02  0.97010449579E+02  0.21420235707E+03  0.17312887320E+03 0.  0.
         24    2    5    5    0    0  0.22472738826E+02  0.91881944554E+02  0.20624555777E+02  0.12613650083E+03  0.80856223102E+02 0.  0.
          4    1    6    6  501    0 -0.20830982571E+02  0.64566138635E+02  0.29837852374E+02  0.74114867114E+02  0.00000000000E+00 0. -1.
         -3    1    6    6    0  501  0.43303721397E+02  0.27315805919E+02 -0.92132965966E+01  0.52021633711E+02  0.00000000000E+00 0.  1.
          5    1    5    5  502    0  0.30499478651E+02 -0.31120444507E+02  0.76385893802E+02  0.88065856246E+02  0.47000000000E+01 0. -1.
         11    1    4    4    0    0  0.14494196312E+02 -0.13544838562E+02  0.13366725557E+02  0.23920989330E+02  0.00000000000E+00 0. -1.
        -12    1    4    4    0    0 -0.85678907427E+02  0.29319343662E+02  0.37718063691E+02  0.98097662660E+02  0.00000000000E+00 0.  1.
         -5    1    3    3    0  504  0.18212493638E+02 -0.76536005146E+02  0.93683812576E+01  0.79368202548E+02  0.47000000000E+01 0.  1.
<mgrwt>
<rscale>  2 0.19181760E+03</rscale>
<asrwt>0</asrwt>
<pdfrwt beam="1">  1       21 0.44080987E-01 0.19209914E+03</pdfrwt>
<pdfrwt beam="2">  1       21 0.19855815E-01 0.19209914E+03</pdfrwt>
<totfact> 0.11569166E+05</totfact>
</mgrwt>
</event>
<event>
12    1  0.1410528E-001  0.2029818E+03  0.7546771E-02  0.1148222E+00
         21   -1    0    0  502  503  0.00000000000E+00  0.00000000000E+00  0.26275300706E+03  0.26275300706E+03  0.00000000000E+00 0. -1.
         21   -1    0    0  503  504 -0.00000000000E+00 -0.00000000000E+00 -0.19280804444E+03  0.19280804444E+03  0.00000000000E+00 0. -1.
         -6    2    1    2    0  504  0.62487654500E+02 -0.71768843587E+02 -0.68537640370E+02  0.20983959629E+03  0.17401084492E+03 0.  0.
        -24    2    3    3    0    0  0.86694721435E+02 -0.59265541848E+02 -0.10153123889E+03  0.16679331670E+03  0.80517320181E+02 0.  0.
          6    2    1    2  502    0 -0.62487654500E+02  0.71768843587E+02  0.13848260300E+03  0.24572145520E+03  0.17929341410E+03 0.  0.
         24    2    5    5    0    0 -0.17665415877E+02 -0.31814294219E+02  0.54590162146E+02  0.10501420186E+03  0.81998052134E+02 0.  0.
          2    1    6    6  501    0 -0.21040292630E+02 -0.17330276329E+02 -0.16847564600E+02  0.32044856444E+02  0.00000000000E+00 0. -1.
         -1    1    6    6    0  501  0.33748767528E+01 -0.14484017890E+02  0.71437726746E+02  0.72969345413E+02  0.00000000000E+00 0.  1.
          5    1    5    5  502    0 -0.44822238623E+02  0.10358313781E+03  0.83892440849E+02  0.14070725335E+03  0.47000000000E+01 0. -1.
         11    1    4    4    0    0  0.49721142198E+02  0.67140116076E+01 -0.16098069549E+02  0.52691723985E+02  0.00000000000E+00 0. -1.
        -12    1    4    4    0    0  0.36973579237E+02 -0.65979553456E+02 -0.85433169340E+02  0.11410159271E+03  0.00000000000E+00 0.  1.
         -5    1    3    3    0  504 -0.24207066935E+02 -0.12503301739E+02  0.32993598519E+02  0.43046279598E+02  0.47000000000E+01 0.  1.
<mgrwt>
<rscale>  2 0.20180900E+03</rscale>
<asrwt>0</asrwt>
<pdfrwt beam="1">  1       21 0.40423540E-01 0.20298178E+03</pdfrwt>
<pdfrwt beam="2">  1       21 0.29662776E-01 0.20298178E+03</pdfrwt>
<totfact> 0.63931301E+04</totfact>
</mgrwt>
</event>
<event>
12    1  0.1410528E-001  0.1803939E+03  0.7546771E-02  0.1169027E+00
         21   -1    0    0  502  503  0.00000000000E+00  0.00000000000E+00  0.45898985920E+03  0.45898985920E+03  0.00000000000E+00 0. -1.
         21   -1    0    0  503  504 -0.00000000000E+00 -0.00000000000E+00 -0.68601963103E+02  0.68601963103E+02  0.00000000000E+00 0. -1.
         -6    2    1    2    0  504  0.55065509157E+01 -0.40751108394E+02  0.18311143099E+03  0.25704428570E+03  0.17564450950E+03 0.  0.
        -24    2    3    3    0    0  0.52382713380E+02 -0.20799703942E+02  0.18098724878E+03  0.20583847259E+03  0.80227901812E+02 0.  0.
          6    2    1    2  502    0 -0.55065509157E+01  0.40751108394E+02  0.20727646511E+03  0.27054753660E+03  0.16894218429E+03 0.  0.
         24    2    5    5    0    0 -0.33767302216E+02 -0.45083650003E+02  0.11484261451E+03  0.14119382560E+03  0.59783811203E+02 0.  0.
          4    1    6    6  501    0  0.10832301957E+02 -0.86650274480E+01  0.60325130301E+02  0.61899457285E+02  0.00000000000E+00 0. -1.
         -3    1    6    6    0  501 -0.44599604173E+02 -0.36418622555E+02  0.54517484214E+02  0.79294368313E+02  0.00000000000E+00 0.  1.
          5    1    5    5  502    0  0.28260751300E+02  0.85834758397E+02  0.92433850597E+02  0.12935371100E+03  0.47000000000E+01 0. -1.
         13    1    4    4    0    0  0.15554981420E+02 -0.32754521074E+02  0.15505205366E+03  0.15923553448E+03  0.00000000000E+00 0. -1.
        -14    1    4    4    0    0  0.36827731960E+02  0.11954817132E+02  0.25935195129E+02  0.46602938109E+02  0.00000000000E+00 0.  1.
         -5    1    3    3    0  504 -0.46876162465E+02 -0.19951404452E+02  0.21241822009E+01  0.51205813118E+02  0.47000000000E+01 0.  1.
<mgrwt>
<rscale>  2 0.17874157E+03</rscale>
<asrwt>0</asrwt>
<pdfrwt beam="1">  1       21 0.70613823E-01 0.18039393E+03</pdfrwt>
<pdfrwt beam="2">  1       21 0.10554148E-01 0.18039393E+03</pdfrwt>
<totfact> 0.13463489E+05</totfact>
</mgrwt>
</event>
<event>
12    1  0.1410528E-001  0.2349772E+03  0.7546771E-02  0.1123507E+00
         21   -1    0    0  502  503  0.00000000000E+00  0.00000000000E+00  0.53003963577E+03  0.53003963577E+03  0.00000000000E+00 0.  1.
         21   -1    0    0  503  504 -0.00000000000E+00 -0.00000000000E+00 -0.16311920097E+03  0.16311920097E+03  0.00000000000E+00 0. -1.
         -6    2    1    2    0  504 -0.13371030201E+03  0.80709206339E+02  0.39373509023E+03  0.45852111112E+03  0.17556157669E+03 0.  0.
        -24    2    3    3    0    0 -0.70717708107E+02  0.79861810770E+02  0.36301529942E+03  0.38827454171E+03  0.87167132970E+02 0.  0.
          6    2    1    2  502    0  0.13371030201E+03 -0.80709206339E+02 -0.26814655432E+02  0.23463772563E+03  0.17304165883E+03 0.  0.
         24    2    5    5    0    0  0.12006423629E+03 -0.52796809409E+02 -0.79237472055E+02  0.17351850840E+03  0.81407443508E+02 0.  0.
          4    1    6    6  501    0  0.63064276241E+02 -0.48716334333E+02 -0.50168951551E+01  0.79847062599E+02  0.00000000000E+00 0. -1.
         -3    1    6    6    0  501  0.56999960052E+02 -0.40804750760E+01 -0.74220576900E+02  0.93671445799E+02  0.00000000000E+00 0.  1.
          5    1    5    5  502    0  0.13646065717E+02 -0.27912396930E+02  0.52422816623E+02  0.61119217228E+02  0.47000000000E+01 0. -1.
         11    1    4    4    0    0 -0.65257221779E+02  0.54513740252E+02  0.14030731713E+03  0.16406217148E+03  0.00000000000E+00 0. -1.
        -12    1    4    4    0    0 -0.54604863280E+01  0.25348070519E+02  0.22270798229E+03  0.22421237023E+03  0.00000000000E+00 0.  1.
         -5    1    3    3    0  504 -0.62992593902E+02  0.84739556911E+00  0.30719790817E+02  0.70246569408E+02  0.47000000000E+01 0.  1.
<mgrwt>
<rscale>  2 0.23450662E+03</rscale>
<asrwt>0</asrwt>
<pdfrwt beam="1">  1       21 0.81544559E-01 0.23497721E+03</pdfrwt>
<pdfrwt beam="2">  1       21 0.25095262E-01 0.23497721E+03</pdfrwt>
<totfact> 0.19327680E+04</totfact>
</mgrwt>
</event>
<event>
12    1  0.1410528E-001  0.3179625E+03  0.7546771E-02  0.1076701E+00
         21   -1    0    0  502  503  0.00000000000E+00  0.00000000000E+00  0.14891472726E+03  0.14891472726E+03  0.00000000000E+00 0. -1.
         21   -1    0    0  503  504 -0.00000000000E+00 -0.00000000000E+00 -0.77812257364E+03  0.77812257364E+03  0.00000000000E+00 0.  1.
         -6    2    1    2    0  504 -0.19167058303E+03  0.18442583972E+03 -0.14782618108E+03  0.35064616023E+03  0.17421150110E+03 0.  0.
        -24    2    3    3    0    0 -0.13207752687E+03  0.19650574647E+03 -0.14591266303E+03  0.28962970310E+03  0.80844778322E+02 0.  0.
          6    2    1    2  502    0  0.19167058303E+03 -0.18442583972E+03 -0.48138166530E+03  0.57639114067E+03  0.17247590151E+03 0.  0.
         24    2    5    5    0    0  0.47676404455E+02 -0.17575209326E+02 -0.13113224452E+03  0.16254309720E+03  0.81502548246E+02 0.  0.
          2    1    6    6  501    0 -0.19010788180E+02 -0.36559924288E+01 -0.63467411737E+01  0.20372959318E+02  0.00000000000E+00 0. -1.
         -1    1    6    6    0  501  0.66687192635E+02 -0.13919216897E+02 -0.12478550335E+03  0.14217013788E+03  0.00000000000E+00 0.  1.
          5    1    5    5  502    0  0.14399417858E+03 -0.16685063039E+03 -0.35024942078E+03  0.41384804347E+03  0.47000000000E+01 0. -1.
         13    1    4    4    0    0 -0.88293057965E+02  0.16168148953E+03 -0.14370738232E+03  0.23364156282E+03  0.00000000000E+00 0. -1.
        -14    1    4    4    0    0 -0.43784468906E+02  0.34824256939E+02 -0.22052807089E+01  0.55988140278E+02  0.00000000000E+00 0.  1.
         -5    1    3    3    0  504 -0.59593056160E+02 -0.12079906753E+02 -0.19135180505E+01  0.61016457132E+02  0.47000000000E+01 0.  1.
<mgrwt>
<rscale>  2 0.31772533E+03</rscale>
<asrwt>0</asrwt>
<pdfrwt beam="1">  1       21 0.22909959E-01 0.31796250E+03</pdfrwt>
<pdfrwt beam="2">  1       21 0.11971116E+00 0.31796250E+03</pdfrwt>
<totfact> 0.88323690E+03</totfact>
</mgrwt>
</event>
<event>
12    1  0.1410528E-001  0.3510238E+03  0.7546771E-02  0.1062406E+00
         21   -1    0    0  502  503  0.00000000000E+00  0.00000000000E+00  0.77366251900E+03  0.77366251900E+03  0.00000000000E+00 0.  1.
         21   -1    0    0  503  504 -0.00000000000E+00 -0.00000000000E+00 -0.51990271224E+03  0.51990271224E+03  0.00000000000E+00 0. -1.
         -6    2    1    2    0  504  0.15947101952E+03  0.26006053973E+03 -0.41238265173E+03  0.54155071091E+03  0.17365261486E+03 0.  0.
        -24    2    3    3    0    0  0.16493028166E+02  0.49012036030E+02 -0.12170471405E+03  0.15489850236E+03  0.80667892973E+02 0.  0.
          6    2    1    2  502    0 -0.15947101952E+03 -0.26006053973E+03  0.66614245850E+03  0.75201452033E+03  0.16946260171E+03 0.  0.
         24    2    5    5    0    0 -0.77957085189E+02 -0.57501940628E+02  0.30534161656E+03  0.33026359252E+03  0.80353950970E+02 0.  0.
          2    1    6    6  501    0 -0.26665771717E+02  0.15886533366E+02  0.42771278521E+02  0.52847209860E+02  0.00000000000E+00 0. -1.
         -1    1    6    6    0  501 -0.51291313472E+02 -0.73388473993E+02  0.26257033804E+03  0.27741638266E+03  0.00000000000E+00 0.  1.
          5    1    5    5  502    0 -0.81513934334E+02 -0.20255859910E+03  0.36080084194E+03  0.42175092781E+03  0.47000000000E+01 0. -1.
         13    1    4    4    0    0  0.81805429354E+01 -0.13491037479E+02 -0.74448726185E+02  0.76102182660E+02  0.00000000000E+00 0. -1.
        -14    1    4    4    0    0  0.83124852310E+01  0.62503073509E+02 -0.47255987863E+02  0.78796319697E+02  0.00000000000E+00 0.  1.
         -5    1    3    3    0  504  0.14297799136E+03  0.21104850370E+03 -0.29067793768E+03  0.38665220856E+03  0.47000000000E+01 0.  1.
<mgrwt>
<rscale>  2 0.35050923E+03</rscale>
<asrwt>0</asrwt>
<pdfrwt beam="1">  1       21 0.11902500E+00 0.35102382E+03</pdfrwt>
<pdfrwt beam="2">  1       21 0.79985033E-01 0.35102382E+03</pdfrwt>
<totfact> 0.65493896E+02</totfact>
</mgrwt>
</event>
<event>
12    1  0.1410528E-001  0.2958466E+03  0.7546771E-02  0.1087414E+00
         21   -1    0    0  502  503  0.00000000000E+00  0.00000000000E+00  0.27885736253E+03  0.27885736253E+03  0.00000000000E+00 0.  1.
         21   -1    0    0  503  504 -0.00000000000E+00 -0.00000000000E+00 -0.31345843396E+03  0.31345843396E+03  0.00000000000E+00 0.  1.
         -6    2    1    2    0  504  0.24877082236E+02 -0.23857456898E+03 -0.90446407474E+01  0.29536737049E+03  0.17211444982E+03 0.  0.
        -24    2    3    3    0    0  0.63329305378E+02 -0.22169330813E+03  0.18609524708E+02  0.24486595170E+03  0.80339878648E+02 0.  0.
          6    2    1    2  502    0 -0.24877082236E+02  0.23857456898E+03 -0.25556430689E+02  0.29694842601E+03  0.17317200228E+03 0.  0.
         24    2    5    5    0    0  0.82211507560E+01  0.24260305111E+03 -0.23118093512E+01  0.25603236416E+03  0.81384269410E+02 0.  0.
          4    1    6    6  501    0 -0.10450260576E+02  0.93032083911E+02 -0.38160785297E+02  0.10109610337E+03  0.00000000000E+00 0. -1.
         -3    1    6    6    0  501  0.18671411332E+02  0.14957096720E+03  0.35848975946E+02  0.15493626079E+03  0.00000000000E+00 0.  1.
          5    1    5    5  502    0 -0.33098232993E+02 -0.40284821321E+01 -0.23244621338E+02  0.40916061842E+02  0.47000000000E+01 0. -1.
         11    1    4    4    0    0  0.20988753346E+02 -0.14554081909E+02 -0.16698911873E+02  0.30515614445E+02  0.00000000000E+00 0. -1.
        -12    1    4    4    0    0  0.42340552031E+02 -0.20713922623E+03  0.35308436581E+02  0.21435033725E+03  0.00000000000E+00 0.  1.
         -5    1    3    3    0  504 -0.38452223141E+02 -0.16881260848E+02 -0.27654165455E+02  0.50501418786E+02  0.47000000000E+01 0.  1.
<mgrwt>
<rscale>  2 0.29569208E+03</rscale>
<asrwt>0</asrwt>
<pdfrwt beam="1">  1       21 0.42901133E-01 0.29584664E+03</pdfrwt>
<pdfrwt beam="2">  1       21 0.48224374E-01 0.29584664E+03</pdfrwt>
<totfact> 0.20397716E+04</totfact>
</mgrwt>
</event>
<event>
12    1  0.1410528E-001  0.2190306E+03  0.7546771E-02  0.1134692E+00
         21   -1    0    0  502  503  0.00000000000E+00  0.00000000000E+00  0.10192736944E+03  0.10192736944E+03  0.00000000000E+00 0. -1.
         21   -1    0    0  503  504 -0.00000000000E+00 -0.00000000000E+00 -0.11048247970E+04  0.11048247970E+04  0.00000000000E+00 0. -1.
         -6    2    1    2    0  504 -0.25074016579E+02  0.13250344630E+03 -0.95914443587E+03  0.98383557484E+03  0.17259351050E+03 0.  0.
        -24    2    3    3    0    0 -0.56066403430E+02  0.51225891297E+02 -0.70234533558E+03  0.71266323684E+03  0.93980770317E+02 0.  0.
          6    2    1    2  502    0  0.25074016579E+02 -0.13250344630E+03 -0.43752991652E+02  0.22291659156E+03  0.17202212917E+03 0.  0.
         24    2    5    5    0    0  0.55463561089E+02 -0.20812536526E+02 -0.34613073136E+02  0.10670982819E+03  0.81728540399E+02 0.  0.
          2    1    6    6  501    0  0.71378773802E+02 -0.34770643865E+02 -0.23504691558E+02  0.82803366776E+02  0.00000000000E+00 0. -1.
         -1    1    6    6    0  501 -0.15915212713E+02  0.13958107339E+02 -0.11108381578E+02  0.23906461417E+02  0.00000000000E+00 0.  1.
          5    1    5    5  502    0 -0.30389544509E+02 -0.11169090977E+03 -0.91399185157E+01  0.11620676336E+03  0.47000000000E+01 0. -1.
         11    1    4    4    0    0 -0.39229413353E+02  0.78869382274E+02 -0.53752374909E+03  0.54469359017E+03  0.00000000000E+00 0. -1.
        -12    1    4    4    0    0 -0.16836990077E+02 -0.27643490977E+02 -0.16482158649E+03  0.16796964667E+03  0.00000000000E+00 0.  1.
         -5    1    3    3    0  504  0.30992386850E+02  0.81277554998E+02 -0.25679910029E+03  0.27117233801E+03  0.47000000000E+01 0.  1.
<mgrwt>
<rscale>  2 0.21891799E+03</rscale>
<asrwt>0</asrwt>
<pdfrwt beam="1">  1       21 0.15681133E-01 0.21903057E+03</pdfrwt>
<pdfrwt beam="2">  1       21 0.16997305E+00 0.21903057E+03</pdfrwt>
<totfact> 0.75628409E+03</totfact>
</mgrwt>
</event>
<event>
12    1  0.1410528E-001  0.2131629E+03  0.7546771E-02  0.1139485E+00
         21   -1    0    0  502  503  0.00000000000E+00  0.00000000000E+00  0.16488813463E+03  0.16488813463E+03  0.00000000000E+00 0. -1.
         21   -1    0    0  503  504 -0.00000000000E+00 -0.00000000000E+00 -0.35921723682E+03  0.35921723682E+03  0.00000000000E+00 0.  1.
         -6    2    1    2    0  504 -0.44678976001E+02 -0.11337164559E+03 -0.22523933181E+03  0.30871301292E+03  0.17239961379E+03 0.  0.
        -24    2    3    3    0    0 -0.56407771229E+02 -0.14623196786E+03 -0.17924382522E+03  0.25079028817E+03  0.78751474145E+02 0.  0.
          6    2    1    2  502    0  0.44678976001E+02  0.11337164559E+03  0.30910229618E+02  0.21539235853E+03  0.17489735532E+03 0.  0.
         24    2    5    5    0    0 -0.24613097873E+02  0.27656635720E+01  0.34383110441E+02  0.84743111843E+02  0.73387623203E+02 0.  0.
          2    1    6    6  501    0  0.13051352232E+02  0.25008587199E+01  0.43922285452E+02  0.45888552481E+02  0.00000000000E+00 0. -1.
         -1    1    6    6    0  501 -0.37664450105E+02  0.26480485210E+00 -0.95391750116E+01  0.38854559362E+02  0.00000000000E+00 0.  1.
          5    1    5    5  502    0  0.69292073874E+02  0.11060598202E+03 -0.34728808232E+01  0.13064924669E+03  0.47000000000E+01 0. -1.
         11    1    4    4    0    0  0.17688279236E+02 -0.45173980637E+02 -0.35631842792E+02  0.60192956147E+02  0.00000000000E+00 0. -1.
        -12    1    4    4    0    0 -0.74096050465E+02 -0.10105798722E+03 -0.14361198243E+03  0.19059733202E+03  0.00000000000E+00 0.  1.
         -5    1    3    3    0  504  0.11728795228E+02  0.32860322270E+02 -0.45995506587E+02  0.57922724758E+02  0.47000000000E+01 0.  1.
<mgrwt>
<rscale>  2 0.21264993E+03</rscale>
<asrwt>0</asrwt>
<pdfrwt beam="1">  1       21 0.25367405E-01 0.21316291E+03</pdfrwt>
<pdfrwt beam="2">  1       21 0.55264190E-01 0.21316291E+03</pdfrwt>
<totfact> 0.45024076E+04</totfact>
</mgrwt>
</event>
<event>
12    1  0.1410528E-001  0.2243472E+03  0.7546771E-02  0.1131555E+00
         21   -1    0    0  502  503  0.00000000000E+00  0.00000000000E+00  0.31203163101E+03  0.31203163101E+03  0.00000000000E+00 0. -1.
         21   -1    0    0  503  504 -0.00000000000E+00 -0.00000000000E+00 -0.37853285059E+03  0.37853285059E+03  0.00000000000E+00 0. -1.
         -6    2    1    2    0  504  0.46931237109E+02  0.12825186396E+03 -0.29669785583E+03  0.36912683427E+03  0.17197069661E+03 0.  0.
        -24    2    3    3    0    0  0.43711641970E+02  0.11607931688E+03 -0.31397497119E+03  0.34723790075E+03  0.81294290898E+02 0.  0.
          6    2    1    2  502    0 -0.46931237109E+02 -0.12825186396E+03  0.23019663625E+03  0.32143764733E+03  0.17799041590E+03 0.  0.
         24    2    5    5    0    0 -0.25364741573E+02 -0.10542673904E+03  0.25000190414E+03  0.28401521163E+03  0.80034498472E+02 0.  0.
          2    1    6    6  501    0 -0.26704605829E+02 -0.27037756464E+01  0.89611879679E+02  0.93545365224E+02  0.00000000000E+00 0. -1.
         -1    1    6    6    0  501  0.13398642562E+01 -0.10272296339E+03  0.16039002446E+03  0.19046984641E+03  0.00000000000E+00 0.  1.
          5    1    5    5  502    0 -0.21566495536E+02 -0.22825124922E+02 -0.19805267886E+02  0.37422435696E+02  0.47000000000E+01 0. -1.
         11    1    4    4    0    0  0.56031189955E+02  0.73569618804E+02 -0.14047698784E+03  0.16818373040E+03  0.00000000000E+00 0. -1.
        -12    1    4    4    0    0 -0.12319547986E+02  0.42509698077E+02 -0.17349798335E+03  0.17905417035E+03  0.00000000000E+00 0.  1.
         -5    1    3    3    0  504  0.32195951399E+01  0.12172547079E+02  0.17277115359E+02  0.21888933514E+02  0.47000000000E+01 0.  1.
<mgrwt>
<rscale>  2 0.22315136E+03</rscale>
<asrwt>0</asrwt>
<pdfrwt beam="1">  1       21 0.48004866E-01 0.22434721E+03</pdfrwt>
<pdfrwt beam="2">  1       21 0.58235823E-01 0.22434721E+03</pdfrwt>
<totfact> 0.11222884E+04</totfact>
</mgrwt>
</event>
<event>
12    1  0.1410528E-001  0.1976298E+03  0.7546771E-02  0.1152163E+00
         21   -1    0    0  502  503  0.00000000000E+00  0.00000000000E+00  0.48644840609E+03  0.48644840609E+03  0.00000000000E+00 0. -1.
         21   -1    0    0  503  504 -0.00000000000E+00 -0.00000000000E+00 -0.10462229006E+03  0.10462229006E+03  0.00000000000E+00 0. -1.
         -6    2    1    2    0  504 -0.55557636694E+02 -0.74054232347E+02  0.46858911499E+02  0.20310906215E+03  0.17460484878E+03 0.  0.
        -24    2    3    3    0    0 -0.90149588291E+02 -0.48843206161E+02  0.76460073402E+02  0.15085470595E+03  0.79989952026E+02 0.  0.
          6    2    1    2  502    0  0.55557636694E+02  0.74054232347E+02  0.33496720453E+03  0.38796163399E+03  0.17245440272E+03 0.  0.
         24    2    5    5    0    0 -0.43080786678E+01 -0.20786975262E+02  0.16187318739E+03  0.18165509676E+03  0.79655429823E+02 0.  0.
          2    1    6    6  501    0  0.26098127886E+01  0.24306553354E+02  0.10951222167E+03  0.11220760381E+03  0.00000000000E+00 0. -1.
         -1    1    6    6    0  501 -0.69178914564E+01 -0.45093528615E+02  0.52360965722E+02  0.69447492947E+02  0.00000000000E+00 0.  1.
          5    1    5    5  502    0  0.59865715362E+02  0.94841207609E+02  0.17309401714E+03  0.20630653723E+03  0.47000000000E+01 0. -1.
         13    1    4    4    0    0 -0.83996985806E+02 -0.66385706410E+02  0.49121332300E+02  0.11779414640E+03  0.00000000000E+00 0. -1.
        -14    1    4    4    0    0 -0.61526024844E+01  0.17542500250E+02  0.27338741101E+02  0.33060559544E+02  0.00000000000E+00 0.  1.
         -5    1    3    3    0  504  0.34591951596E+02 -0.25211026186E+02 -0.29601161902E+02  0.52254356207E+02  0.47000000000E+01 0.  1.
<mgrwt>
<rscale>  2 0.19715374E+03</rscale>
<asrwt>0</asrwt>
<pdfrwt beam="1">  1       21 0.74838215E-01 0.19762979E+03</pdfrwt>
<pdfrwt beam="2">  1       21 0.16095737E-01 0.19762979E+03</pdfrwt>
<totfact> 0.54967936E+04</totfact>
</mgrwt>
</event>
<event>
12    1  0.1410528E-001  0.1929183E+03  0.7546771E-02  0.1156110E+00
         21   -1    0    0  502  503  0.00000000000E+00  0.00000000000E+00  0.14165332241E+03  0.14165332241E+03  0.00000000000E+00 0.  1.
         21   -1    0    0  503  504 -0.00000000000E+00 -0.00000000000E+00 -0.26136297849E+03  0.26136297849E+03  0.00000000000E+00 0.  1.
         -6    2    1    2    0  504  0.22753354239E+02  0.84835371459E+02 -0.65063621532E+02  0.20250781091E+03  0.17047399583E+03 0.  0.
        -24    2    3    3    0    0 -0.42043859151E+01 -0.19227164560E+01  0.13043955989E+02  0.82605478829E+02  0.81437992640E+02 0.  0.
          6    2    1    2  502    0 -0.22753354239E+02 -0.84835371459E+02 -0.54646034549E+02  0.20050848999E+03  0.17176352956E+03 0.  0.
         24    2    5    5    0    0 -0.56880226877E+02 -0.10330015408E+03 -0.70573770459E+02  0.15830215866E+03  0.78566114303E+02 0.  0.
          4    1    6    6  501    0 -0.50684016878E+02 -0.11576925436E+03 -0.69763343256E+02  0.14435481940E+03  0.00000000000E+00 0. -1.
         -3    1    6    6    0  501 -0.61962099992E+01  0.12469100280E+02 -0.81042720256E+00  0.13947339258E+02  0.00000000000E+00 0.  1.
          5    1    5    5  502    0  0.34126872638E+02  0.18464782620E+02  0.15927735910E+02  0.42206331331E+02  0.47000000000E+01 0. -1.
         11    1    4    4    0    0 -0.14269795159E+02  0.34054090729E+02 -0.10574441208E+02  0.38407381532E+02  0.00000000000E+00 0. -1.
        -12    1    4    4    0    0  0.10065409244E+02 -0.35976807185E+02  0.23618397198E+02  0.44198097297E+02  0.00000000000E+00 0.  1.
         -5    1    3    3    0  504  0.26957740154E+02  0.86758087915E+02 -0.78107577521E+02  0.11990233208E+03  0.47000000000E+01 0.  1.
<mgrwt>
<rscale>  2 0.19263084E+03</rscale>
<asrwt>0</asrwt>
<pdfrwt beam="1">  1       21 0.21792819E-01 0.19291829E+03</pdfrwt>
<pdfrwt beam="2">  1       21 0.40209689E-01 0.19291829E+03</pdfrwt>
<totfact> 0.11711680E+05</totfact>
</mgrwt>
</event>
<event>
12    1  0.1410528E-001  0.2121688E+03  0.7546771E-02  0.1140408E+00
         21   -1    0    0  502  503  0.00000000000E+00  0.00000000000E+00  0.22450268755E+03  0.22450268755E+03  0.00000000000E+00 0. -1.
         21   -1    0    0  503  504 -0.00000000000E+00 -0.00000000000E+00 -0.32311326904E+03  0.32311326904E+03  0.00000000000E+00 0. -1.
         -6    2    1    2    0  504 -0.10324079776E+03 -0.59877703326E+02 -0.21995735895E+03  0.30560893805E+03  0.17541830458E+03 0.  0.
        -24    2    3    3    0    0  0.51013078026E+01  0.10037564261E+02 -0.10421276709E+03  0.13227383767E+03  0.80680178916E+02 0.  0.
          6    2    1    2  502    0  0.10324079776E+03  0.59877703326E+02  0.12134677746E+03  0.24200701853E+03  0.17204172442E+03 0.  0.
         24    2    5    5    0    0 -0.89349617403E+01  0.14470214569E+02  0.76750258324E+02  0.11294819251E+03  0.81101611501E+02 0.  0.
          4    1    6    6  501    0 -0.23121146714E+02  0.35159954198E+01  0.88486109028E+02  0.91524538458E+02  0.00000000000E+00 0. -1.
         -3    1    6    6    0  501  0.14186184974E+02  0.10954219149E+02 -0.11735850703E+02  0.21423654054E+02  0.00000000000E+00 0.  1.
          5    1    5    5  502    0  0.11217575950E+03  0.45407488757E+02  0.44596519134E+02  0.12905882602E+03  0.47000000000E+01 0. -1.
         13    1    4    4    0    0 -0.14859150230E+02 -0.20327667301E+02 -0.89662259160E+02  0.93130709871E+02  0.00000000000E+00 0. -1.
        -14    1    4    4    0    0  0.19960458033E+02  0.30365231563E+02 -0.14550507926E+02  0.39143127796E+02  0.00000000000E+00 0.  1.
         -5    1    3    3    0  504 -0.10834210556E+03 -0.69915267587E+02 -0.11574459187E+03  0.17333510039E+03  0.47000000000E+01 0.  1.
<mgrwt>
<rscale>  2 0.21146954E+03</rscale>
<asrwt>0</asrwt>
<pdfrwt beam="1">  1       21 0.34538875E-01 0.21216876E+03</pdfrwt>
<pdfrwt beam="2">  1       21 0.49709734E-01 0.21216876E+03</pdfrwt>
<totfact> 0.30834309E+04</totfact>
</mgrwt>
</event>
<event>
12    1  0.1410528E-001  0.2074884E+03  0.7546771E-02  0.1143751E+00
         21   -1    0    0  502  503  0.00000000000E+00  0.00000000000E+00  0.20328031943E+04  0.20328031943E+04  0.00000000000E+00 0.  1.
         21   -1    0    0  503  504 -0.00000000000E+00 -0.00000000000E+00 -0.32781495321E+02  0.32781495321E+02  0.00000000000E+00 0.  1.
         -6    2    1    2    0  504  0.21629932685E+02  0.11059426981E+03  0.38176581978E+03  0.43408123684E+03  0.17315436038E+03 0.  0.
        -24    2    3    3    0    0  0.77474645445E+02  0.83648913116E+02  0.21546196267E+03  0.25653195613E+03  0.79908233653E+02 0.  0.
          6    2    1    2  502    0 -0.21629932685E+02 -0.11059426981E+03  0.16182558792E+04  0.16315034528E+04  0.17421962971E+03 0.  0.
         24    2    5    5    0    0 -0.79917816679E+02 -0.74750807597E+02  0.93579709801E+03  0.94560673371E+03  0.80506804348E+02 0.  0.
          4    1    6    6  501    0 -0.57081294130E+02 -0.66282991489E+02  0.40912720447E+03  0.41837396972E+03  0.00000000000E+00 0. -1.
         -3    1    6    6    0  501 -0.22836522549E+02 -0.84678161085E+01  0.52666989353E+03  0.52723276399E+03  0.00000000000E+00 0.  1.
          5    1    5    5  502    0  0.58287883994E+02 -0.35843462217E+02  0.68245878124E+03  0.68589671912E+03  0.47000000000E+01 0. -1.
         11    1    4    4    0    0  0.12579115172E+02  0.27999205789E+02  0.13732734734E+03  0.14071599053E+03  0.00000000000E+00 0. -1.
        -12    1    4    4    0    0  0.64895530273E+02  0.55649707327E+02  0.78134615330E+02  0.11581596560E+03  0.00000000000E+00 0.  1.
         -5    1    3    3    0  504 -0.55844712760E+02  0.26945356698E+02  0.16630385711E+03  0.17754928071E+03  0.47000000000E+01 0.  1.
<mgrwt>
<rscale>  2 0.20726460E+03</rscale>
<asrwt>0</asrwt>
<pdfrwt beam="1">  1       21 0.31273885E+00 0.20748838E+03</pdfrwt>
<pdfrwt beam="2">  1       21 0.50433086E-02 0.20748838E+03</pdfrwt>
<totfact> 0.75173751E+03</totfact>
</mgrwt>
</event>
<event>
12    1  0.1410528E-001  0.2212450E+03  0.7546771E-02  0.1134361E+00
         21   -1    0    0  502  503  0.00000000000E+00  0.00000000000E+00  0.17776780411E+03  0.17776780411E+03  0.00000000000E+00 0. -1.
         21   -1    0    0  503  504 -0.00000000000E+00 -0.00000000000E+00 -0.33172985836E+03  0.33172985836E+03  0.00000000000E+00 0.  1.
         -6    2    1    2    0  504  0.41121063386E+02 -0.13145626111E+03 -0.19127227734E+03  0.29246268220E+03  0.17314053819E+03 0.  0.
        -24    2    3    3    0    0  0.48300590342E+02 -0.10297789134E+03 -0.49943051355E+02  0.14803760381E+03  0.80519753045E+02 0.  0.
          6    2    1    2  502    0 -0.41121063386E+02  0.13145626111E+03  0.37310223091E+02  0.21703498026E+03  0.16352504234E+03 0.  0.
         24    2    5    5    0    0  0.34449471376E+01  0.73074650368E+01  0.28397665044E+02  0.84745235572E+02  0.79435891549E+02 0.  0.
          4    1    6    6  501    0 -0.25161285154E+02 -0.24217955998E+02  0.23043666111E+02  0.41840294109E+02  0.00000000000E+00 0. -1.
         -3    1    6    6    0  501  0.28606232291E+02  0.31525421035E+02  0.53539989329E+01  0.42904941463E+02  0.00000000000E+00 0.  1.
          5    1    5    5  502    0 -0.44566010524E+02  0.12414879607E+03  0.89125580474E+01  0.13228974469E+03  0.47000000000E+01 0. -1.
         13    1    4    4    0    0  0.18658595597E+02  0.53683554885E+01 -0.27219231024E+02  0.33434248426E+02  0.00000000000E+00 0. -1.
        -14    1    4    4    0    0  0.29641994744E+02 -0.10834624683E+03 -0.22723820331E+02  0.11460335538E+03  0.00000000000E+00 0.  1.
         -5    1    3    3    0  504 -0.71795269551E+01 -0.28478369766E+02 -0.14132922598E+03  0.14442507839E+03  0.47000000000E+01 0.  1.
<mgrwt>
<rscale>  2 0.21936078E+03</rscale>
<asrwt>0</asrwt>
<pdfrwt beam="1">  1       21 0.27348893E-01 0.22124497E+03</pdfrwt>
<pdfrwt beam="2">  1       21 0.51035363E-01 0.22124497E+03</pdfrwt>
<totfact> 0.45908299E+04</totfact>
</mgrwt>
</event>
<event>
12    1  0.1410528E-001  0.1874403E+03  0.7546771E-02  0.1160924E+00
         21   -1    0    0  502  503  0.00000000000E+00  0.00000000000E+00  0.53048767404E+02  0.53048767404E+02  0.00000000000E+00 0.  1.
         21   -1    0    0  503  504 -0.00000000000E+00 -0.00000000000E+00 -0.98822668239E+03  0.98822668239E+03  0.00000000000E+00 0.  1.
         -6    2    1    2    0  504 -0.24947021149E+02  0.65788863741E+02 -0.76801726789E+03  0.79055954148E+03  0.17373352121E+03 0.  0.
        -24    2    3    3    0    0  0.27197306308E+02  0.18999290993E+02 -0.20032790554E+03  0.21854415958E+03  0.80806023419E+02 0.  0.
          6    2    1    2  502    0  0.24947021149E+02 -0.65788863741E+02 -0.16716064710E+03  0.25071590832E+03  0.17310475524E+03 0.  0.
         24    2    5    5    0    0 -0.10137750641E+01  0.22594529666E+02 -0.36172451321E+02  0.90511087529E+02  0.79826500739E+02 0.  0.
          4    1    6    6  501    0  0.27433613816E+02  0.40815537542E+02 -0.22053562400E+02  0.53896854142E+02  0.00000000000E+00 0. -1.
         -3    1    6    6    0  501 -0.28447388881E+02 -0.18221007876E+02 -0.14118888921E+02  0.36614233386E+02  0.00000000000E+00 0.  1.
          5    1    5    5  502    0  0.25960796213E+02 -0.88383393407E+02 -0.13098819578E+03  0.16020482079E+03  0.47000000000E+01 0. -1.
         13    1    4    4    0    0  0.80666985111E+01 -0.19977564216E+01  0.60127807332E+01  0.10257494223E+02  0.00000000000E+00 0. -1.
        -14    1    4    4    0    0  0.19130607797E+02  0.20997047414E+02 -0.20634068627E+03  0.20828666536E+03  0.00000000000E+00 0.  1.
         -5    1    3    3    0  504 -0.52144327457E+02  0.46789572749E+02 -0.56768936235E+03  0.57201538189E+03  0.47000000000E+01 0.  1.
<mgrwt>
<rscale>  2 0.18729447E+03</rscale>
<asrwt>0</asrwt>
<pdfrwt beam="1">  1       21 0.81613502E-02 0.18744030E+03</pdfrwt>
<pdfrwt beam="2">  1       21 0.15203485E+00 0.18744030E+03</pdfrwt>
<totfact> 0.33539859E+04</totfact>
</mgrwt>
</event>
<event>
12    1  0.1410528E-001  0.2216095E+03  0.7546771E-02  0.1133001E+00
         21   -1    0    0  502  503  0.00000000000E+00  0.00000000000E+00  0.30324227045E+02  0.30324227045E+02  0.00000000000E+00 0. -1.
         21   -1    0    0  503  504 -0.00000000000E+00 -0.00000000000E+00 -0.16256807474E+04  0.16256807474E+04  0.00000000000E+00 0. -1.
         -6    2    1    2    0  504 -0.43100669699E+01 -0.13548002157E+03 -0.70648747954E+03  0.73992694137E+03  0.17318749057E+03 0.  0.
        -24    2    3    3    0    0 -0.16622215332E+01 -0.62083568934E+02 -0.18574300574E+03  0.21400779612E+03  0.86265520954E+02 0.  0.
          6    2    1    2  502    0  0.43100669699E+01  0.13548002157E+03 -0.88886904081E+03  0.91607803307E+03  0.17532078613E+03 0.  0.
         24    2    5    5    0    0 -0.51174561700E+02  0.32647849242E+02 -0.49468980623E+03  0.50491826041E+03  0.80868581540E+02 0.  0.
          2    1    6    6  501    0 -0.59509864974E+02  0.41129481382E+02 -0.25855382238E+03  0.26848302988E+03  0.00000000000E+00 0. -1.
         -1    1    6    6    0  501  0.83353032748E+01 -0.84816321399E+01 -0.23613598385E+03  0.23643523053E+03  0.00000000000E+00 0.  1.
          5    1    5    5  502    0  0.55484628670E+02  0.10283217233E+03 -0.39417923458E+03  0.41115977266E+03  0.47000000000E+01 0. -1.
         11    1    4    4    0    0 -0.14415327481E+01 -0.65482075481E+02 -0.19416958267E+03  0.20491902562E+03  0.00000000000E+00 0. -1.
        -12    1    4    4    0    0 -0.22068878511E+00  0.33985065474E+01  0.84265769339E+01  0.90887704953E+01  0.00000000000E+00 0.  1.
         -5    1    3    3    0  504 -0.26478454368E+01 -0.73396452638E+02 -0.52074447380E+03  0.52591914525E+03  0.47000000000E+01 0.  1.
<mgrwt>
<rscale>  2 0.22118738E+03</rscale>
<asrwt>0</asrwt>
<pdfrwt beam="1">  1       21 0.46652658E-02 0.22160955E+03</pdfrwt>
<pdfrwt beam="2">  1       21 0.25010473E+00 0.22160955E+03</pdfrwt>
<totfact> 0.19602535E+04</totfact>
</mgrwt>
</event>
<event>
12    1  0.1410528E-001  0.1882090E+03  0.7546771E-02  0.1160213E+00
         21   -1    0    0  502  503  0.00000000000E+00  0.00000000000E+00  0.15669557228E+04  0.15669557228E+04  0.00000000000E+00 0.  1.
         21   -1    0    0  503  504 -0.00000000000E+00 -0.00000000000E+00 -0.39691239493E+02  0.39691239493E+02  0.00000000000E+00 0. -1.
         -6    2    1    2    0  504  0.72554608623E+02 -0.18116040482E+02  0.23492034742E+03  0.30066993045E+03  0.17211181044E+03 0.  0.
        -24    2    3    3    0    0  0.45774950051E+02 -0.42478759285E+02  0.52437192316E+02  0.11457080612E+03  0.80479931876E+02 0.  0.
          6    2    1    2  502    0 -0.72554608623E+02  0.18116040482E+02  0.12923441359E+04  0.13059770319E+04  0.17271444633E+03 0.  0.
         24    2    5    5    0    0  0.44634732599E+01  0.21100781655E+02  0.33048454405E+03  0.34102280597E+03  0.81310237696E+02 0.  0.
          2    1    6    6  501    0  0.25997890246E+02 -0.98725645553E+01  0.43906064557E+02  0.51972111108E+02  0.00000000000E+00 0. -1.
         -1    1    6    6    0  501 -0.21534416986E+02  0.30973346210E+02  0.28657847949E+03  0.28905069486E+03  0.00000000000E+00 0.  1.
          5    1    5    5  502    0 -0.77018081883E+02 -0.29847411728E+01  0.96185959185E+03  0.96495422589E+03  0.47000000000E+01 0. -1.
         11    1    4    4    0    0 -0.12538250904E+02 -0.41698053159E+02  0.23023879873E+02  0.49254790807E+02  0.00000000000E+00 0. -1.
        -12    1    4    4    0    0  0.58313200956E+02 -0.78070612547E+00  0.29413312443E+02  0.65316015315E+02  0.00000000000E+00 0.  1.
         -5    1    3    3    0  504  0.26779658572E+02  0.24362718803E+02  0.18248315510E+03  0.18609912433E+03  0.47000000000E+01 0.  1.
<mgrwt>
<rscale>  2 0.18807067E+03</rscale>
<asrwt>0</asrwt>
<pdfrwt beam="1">  1       21 0.24107006E+00 0.18820904E+03</pdfrwt>
<pdfrwt beam="2">  1       21 0.61063458E-02 0.18820904E+03</pdfrwt>
<totfact> 0.14422949E+04</totfact>
</mgrwt>
</event>
<event>
12    1  0.1410528E-001  0.1854074E+03  0.7546771E-02  0.1166145E+00
         21   -1    0    0  502  503  0.00000000000E+00  0.00000000000E+00  0.19065137552E+03  0.19065137552E+03  0.00000000000E+00 0. -1.
         21   -1    0    0  503  504 -0.00000000000E+00 -0.00000000000E+00 -0.19291756969E+03  0.19291756969E+03  0.00000000000E+00 0. -1.
         -6    2    1    2    0  504 -0.64011250431E+02  0.20976439182E+02 -0.71866668572E+02  0.19884847659E+03  0.17273808905E+03 0.  0.
        -24    2    3    3    0    0 -0.35401016698E+02 -0.32529926244E+02  0.12261411639E+02  0.95016398235E+02  0.81032991019E+02 0.  0.
          6    2    1    2  502    0  0.64011250431E+02 -0.20976439182E+02  0.69600474410E+02  0.18472046862E+03  0.15728946025E+03 0.  0.
         24    2    5    5    0    0 -0.95183172811E+01  0.17633246579E+02  0.15067163937E+02  0.85255514421E+02  0.81485910201E+02 0.  0.
          2    1    6    6  501    0 -0.11087787845E+02  0.50087571451E+02  0.69880503104E+01  0.51773899798E+02  0.00000000000E+00 0. -1.
         -1    1    6    6    0  501  0.15694705636E+01 -0.32454324872E+02  0.80791136265E+01  0.33481614623E+02  0.00000000000E+00 0.  1.
          5    1    5    5  502    0  0.73529567712E+02 -0.38609685762E+02  0.54533310473E+02  0.99464954199E+02  0.47000000000E+01 0. -1.
         11    1    4    4    0    0 -0.54247654816E+02 -0.15424913400E+02 -0.14348187164E+02  0.58194557145E+02  0.00000000000E+00 0. -1.
        -12    1    4    4    0    0  0.18846638118E+02 -0.17105012844E+02  0.26609598803E+02  0.36821841089E+02  0.00000000000E+00 0.  1.
         -5    1    3    3    0  504 -0.28610233733E+02  0.53506365427E+02 -0.84128080211E+02  0.10383207835E+03  0.47000000000E+01 0.  1.
<mgrwt>
<rscale>  2 0.18172383E+03</rscale>
<asrwt>0</asrwt>
<pdfrwt beam="1">  1       21 0.29330981E-01 0.18540739E+03</pdfrwt>
<pdfrwt beam="2">  1       21 0.29679626E-01 0.18540739E+03</pdfrwt>
<totfact> 0.12146356E+05</totfact>
</mgrwt>
</event>
<event>
12    1  0.1410528E-001  0.1794864E+03  0.7546771E-02  0.1171020E+00
         21   -1    0    0  502  503  0.00000000000E+00  0.00000000000E+00  0.12038588009E+03  0.12038588009E+03  0.00000000000E+00 0. -1.
         21   -1    0    0  503  504 -0.00000000000E+00 -0.00000000000E+00 -0.99654255349E+03  0.99654255349E+03  0.00000000000E+00 0. -1.
         -6    2    1    2    0  504 -0.33326109619E+02  0.30264081704E+02 -0.92427622162E+03  0.94154229708E+03  0.17374929958E+03 0.  0.
        -24    2    3    3    0    0 -0.24363774136E+02  0.85008393199E+02 -0.72142986243E+03  0.73119496875E+03  0.79781047312E+02 0.  0.
          6    2    1    2  502    0  0.33326109619E+02 -0.30264081704E+02  0.48119548222E+02  0.17538613650E+03  0.16253695498E+03 0.  0.
         24    2    5    5    0    0  0.59409437862E+02 -0.68494970665E+02  0.40706577844E+02  0.12828005396E+03  0.81103048343E+02 0.  0.
          2    1    6    6  501    0  0.30968700151E+02 -0.82927805683E+02  0.37800418499E+02  0.96254625776E+02  0.00000000000E+00 0. -1.
         -1    1    6    6    0  501  0.28440737710E+02  0.14432835018E+02  0.29061593446E+01  0.32025428183E+02  0.00000000000E+00 0.  1.
          5    1    5    5  502    0 -0.26083328243E+02  0.38230888962E+02  0.74129703780E+01  0.47106082546E+02  0.47000000000E+01 0. -1.
         13    1    4    4    0    0 -0.45657882904E+00 -0.13316862982E+02 -0.17268045155E+03  0.17319378063E+03  0.00000000000E+00 0. -1.
        -14    1    4    4    0    0 -0.23907195307E+02  0.98325256180E+02 -0.54874941089E+03  0.55800118812E+03  0.00000000000E+00 0.  1.
         -5    1    3    3    0  504 -0.89623354832E+01 -0.54744311495E+02 -0.20284635919E+03  0.21034732833E+03  0.47000000000E+01 0.  1.
<mgrwt>
<rscale>  2 0.17671524E+03</rscale>
<asrwt>0</asrwt>
<pdfrwt beam="1">  1       21 0.18520906E-01 0.17948639E+03</pdfrwt>
<pdfrwt beam="2">  1       21 0.15331423E+00 0.17948639E+03</pdfrwt>
<totfact> 0.75944687E+03</totfact>
</mgrwt>
</event>
<event>
12    1  0.1410528E-001  0.1784351E+03  0.7546771E-02  0.1169442E+00
         21   -1    0    0  502  503  0.00000000000E+00  0.00000000000E+00  0.32166531544E+03  0.32166531544E+03  0.00000000000E+00 0.  1.
         21   -1    0    0  503  504 -0.00000000000E+00 -0.00000000000E+00 -0.15348531030E+03  0.15348531030E+03  0.00000000000E+00 0.  1.
         -6    2    1    2    0  504  0.25072208751E+02 -0.33259775611E+02 -0.57894371171E+02  0.18714242598E+03  0.17301936615E+03 0.  0.
        -24    2    3    3    0    0 -0.43805572366E+02 -0.20853787600E+02  0.87201141434E+01  0.90407546415E+02  0.75787039991E+02 0.  0.
          6    2    1    2  502    0 -0.25072208751E+02  0.33259775611E+02  0.22607437631E+03  0.28800819977E+03  0.17350582465E+03 0.  0.
         24    2    5    5    0    0 -0.51489163571E+02 -0.36261905270E+01  0.47609757196E+02  0.10380684181E+03  0.76451868540E+02 0.  0.
          4    1    6    6  501    0  0.32239271175E+01 -0.18611025895E+02 -0.11311120505E+02  0.22016026844E+02  0.00000000000E+00 0. -1.
         -3    1    6    6    0  501 -0.54713090688E+02  0.14984835368E+02  0.58920877702E+02  0.81790814966E+02  0.00000000000E+00 0.  1.
          5    1    5    5  502    0  0.26416954820E+02  0.36885966138E+02  0.17846461911E+03  0.18420135796E+03  0.47000000000E+01 0. -1.
         11    1    4    4    0    0 -0.55745153076E+02 -0.24014929795E+02 -0.16002052750E+02  0.62771845892E+02  0.00000000000E+00 0. -1.
        -12    1    4    4    0    0  0.11939580710E+02  0.31611421952E+01  0.24722166893E+02  0.27635700523E+02  0.00000000000E+00 0.  1.
         -5    1    3    3    0  504  0.68877781116E+02 -0.12405988011E+02 -0.66614485314E+02  0.96734879561E+02  0.47000000000E+01 0.  1.
<mgrwt>
<rscale>  2 0.17831678E+03</rscale>
<asrwt>0</asrwt>
<pdfrwt beam="1">  1       21 0.49486972E-01 0.17843514E+03</pdfrwt>
<pdfrwt beam="2">  1       21 0.23613125E-01 0.17843514E+03</pdfrwt>
<totfact> 0.66144551E+04</totfact>
</mgrwt>
</event>
<event>
12    1  0.1410528E-001  0.1821973E+03  0.7546771E-02  0.1166148E+00
         21   -1    0    0  502  503  0.00000000000E+00  0.00000000000E+00  0.45221119108E+03  0.45221119108E+03  0.00000000000E+00 0.  1.
         21   -1    0    0  503  504 -0.00000000000E+00 -0.00000000000E+00 -0.93471143613E+02  0.93471143613E+02  0.00000000000E+00 0.  1.
         -6    2    1    2    0  504 -0.10198032266E+02  0.56718455610E+02  0.51312299039E+02  0.18928500502E+03  0.17284350732E+03 0.  0.
        -24    2    3    3    0    0  0.13008333700E+02 -0.22645523810E+02  0.23270900108E+02  0.10184595936E+03  0.95650552285E+02 0.  0.
          6    2    1    2  502    0  0.10198032266E+02 -0.56718455610E+02  0.30742774843E+03  0.35639732968E+03  0.17083984613E+03 0.  0.
         24    2    5    5    0    0  0.57041418150E+01 -0.45521920196E+02  0.32310106176E+03  0.33606754346E+03  0.80264034338E+02 0.  0.
          2    1    6    6  501    0 -0.15714651542E+02  0.18398622457E+02  0.10670357966E+03  0.10941258380E+03  0.00000000000E+00 0. -1.
         -1    1    6    6    0  501  0.21418793357E+02 -0.63920542653E+02  0.21639748210E+03  0.22665495966E+03  0.00000000000E+00 0.  1.
          5    1    5    5  502    0  0.44938904515E+01 -0.11196535415E+02 -0.15673313330E+02  0.20329786212E+02  0.47000000000E+01 0. -1.
         11    1    4    4    0    0 -0.31950954954E+02  0.19245329594E+02  0.43716672987E+01  0.37554729511E+02  0.00000000000E+00 0. -1.
        -12    1    4    4    0    0  0.44959288653E+02 -0.41890853404E+02  0.18899232809E+02  0.64291229852E+02  0.00000000000E+00 0.  1.
         -5    1    3    3    0  504 -0.23206365966E+02  0.79363979420E+02  0.28041398931E+02  0.87439045654E+02  0.47000000000E+01 0.  1.
<mgrwt>
<rscale>  2 0.18172052E+03</rscale>
<asrwt>0</asrwt>
<pdfrwt beam="1">  1       21 0.69570951E-01 0.18219731E+03</pdfrwt>
<pdfrwt beam="2">  1       21 0.14380176E-01 0.18219731E+03</pdfrwt>
<totfact> 0.79898723E+04</totfact>
</mgrwt>
</event>
<event>
12    1  0.1410528E-001  0.2473379E+03  0.7546771E-02  0.1115175E+00
         21   -1    0    0  502  503  0.00000000000E+00  0.00000000000E+00  0.92517442415E+03  0.92517442415E+03  0.00000000000E+00 0.  1.
         21   -1    0    0  503  504 -0.00000000000E+00 -0.00000000000E+00 -0.66116016064E+02  0.66116016064E+02  0.00000000000E+00 0.  1.
         -6    2    1    2    0  504  0.15802563920E+03  0.78967827863E+02  0.46109706801E+03  0.52272958911E+03  0.17154502828E+03 0.  0.
        -24    2    3    3    0    0  0.13441727766E+03  0.76473188122E+02  0.46613799065E+03  0.49800957975E+03  0.82539458205E+02 0.  0.
          6    2    1    2  502    0 -0.15802563920E+03 -0.78967827863E+02  0.39796134008E+03  0.46856085110E+03  0.17311274508E+03 0.  0.
         24    2    5    5    0    0 -0.21126931798E+02 -0.17535987038E+02  0.22288830163E+03  0.23793607805E+03  0.78616309661E+02 0.  0.
          4    1    6    6  501    0  0.50410826951E+01  0.16069216581E+01  0.19527993180E+03  0.19535159707E+03  0.00000000000E+00 0. -1.
         -3    1    6    6    0  501 -0.26168014493E+02 -0.19142908696E+02  0.27608369828E+02  0.42584480981E+02  0.00000000000E+00 0.  1.
          5    1    5    5  502    0 -0.13689870740E+03 -0.61431840824E+02  0.17507303845E+03  0.23062477305E+03  0.47000000000E+01 0. -1.
         13    1    4    4    0    0  0.13086992934E+02  0.11182038837E+02  0.17576299801E+03  0.17660390382E+03  0.00000000000E+00 0. -1.
        -14    1    4    4    0    0  0.12133028473E+03  0.65291149285E+02  0.29037499264E+03  0.32140567592E+03  0.00000000000E+00 0.  1.
         -5    1    3    3    0  504  0.23608361538E+02  0.24946397410E+01 -0.50409226384E+01  0.24720009365E+02  0.47000000000E+01 0.  1.
<mgrwt>
<rscale>  2 0.24706378E+03</rscale>
<asrwt>0</asrwt>
<pdfrwt beam="1">  1       21 0.14233452E+00 0.24733791E+03</pdfrwt>
<pdfrwt beam="2">  1       21 0.10171695E-01 0.24733791E+03</pdfrwt>
<totfact> 0.26154545E+04</totfact>
</mgrwt>
</event>
<event>
12    1  0.1410528E-001  0.1742152E+03  0.7546771E-02  0.1173863E+00
         21   -1    0    0  502  503  0.00000000000E+00  0.00000000000E+00  0.15810633538E+03  0.15810633538E+03  0.00000000000E+00 0. -1.
         21   -1    0    0  503  504 -0.00000000000E+00 -0.00000000000E+00 -0.29572445671E+03  0.29572445671E+03  0.00000000000E+00 0. -1.
         -6    2    1    2    0  504 -0.81886870616E+01 -0.32891766633E+01 -0.20400166499E+03  0.26739662204E+03  0.17264530368E+03 0.  0.
        -24    2    3    3    0    0 -0.73890082531E+01 -0.69265336226E+01 -0.22828848432E+03  0.24238043837E+03  0.80808851760E+02 0.  0.
          6    2    1    2  502    0  0.81886870616E+01  0.32891766633E+01  0.66383543656E+02  0.18643417005E+03  0.17399152742E+03 0.  0.
         24    2    5    5    0    0 -0.12979346445E+01 -0.60047217674E+02  0.27432807207E+02  0.11132927867E+03  0.89634236721E+02 0.  0.
          4    1    6    6  501    0 -0.34423607424E+01 -0.48976798319E+02  0.59614073464E+02  0.77229621105E+02  0.00000000000E+00 0. -1.
         -3    1    6    6    0  501  0.21444260979E+01 -0.11070419355E+02 -0.32181266257E+02  0.34099657562E+02  0.00000000000E+00 0.  1.
          5    1    5    5  502    0  0.94866217062E+01  0.63336394338E+02  0.38950736448E+02  0.75104891378E+02  0.47000000000E+01 0. -1.
         13    1    4    4    0    0 -0.30170915832E+02  0.26978876029E+02 -0.10708075304E+03  0.11447458925E+03  0.00000000000E+00 0. -1.
        -14    1    4    4    0    0  0.22781907579E+02 -0.33905409651E+02 -0.12120773128E+03  0.12790584912E+03  0.00000000000E+00 0.  1.
         -5    1    3    3    0  504 -0.79967880851E+00  0.36373569594E+01  0.24286819333E+02  0.25016183665E+02  0.47000000000E+01 0.  1.
<mgrwt>
<rscale>  2 0.17387807E+03</rscale>
<asrwt>0</asrwt>
<pdfrwt beam="1">  1       21 0.24324052E-01 0.17421517E+03</pdfrwt>
<pdfrwt beam="2">  1       21 0.45496070E-01 0.17421517E+03</pdfrwt>
<totfact> 0.74517988E+04</totfact>
</mgrwt>
</event>
<event>
12    1  0.1410528E-001  0.1966260E+03  0.7546771E-02  0.1152730E+00
         21   -1    0    0  502  503  0.00000000000E+00  0.00000000000E+00  0.14491030483E+03  0.14491030483E+03  0.00000000000E+00 0. -1.
         21   -1    0    0  503  504 -0.00000000000E+00 -0.00000000000E+00 -0.32538588803E+03  0.32538588803E+03  0.00000000000E+00 0.  1.
         -6    2    1    2    0  504 -0.12229456545E+01  0.92147969266E+02  0.10244364808E+02  0.19636943845E+03  0.17309900493E+03 0.  0.
        -24    2    3    3    0    0  0.10462368966E+02  0.15330414052E+02  0.61980405646E+02  0.10290184359E+03  0.80017097987E+02 0.  0.
          6    2    1    2  502    0  0.12229456545E+01 -0.92147969266E+02 -0.19071994802E+03  0.27392675441E+03  0.17369232676E+03 0.  0.
         24    2    5    5    0    0 -0.16283591704E+02 -0.11058943783E+03 -0.20308265247E+03  0.24526505393E+03  0.80107451745E+02 0.  0.
          2    1    6    6  501    0 -0.48253490682E+02 -0.75369144596E+02 -0.12281177740E+03  0.15195933663E+03  0.00000000000E+00 0. -1.
         -1    1    6    6    0  501  0.31969898978E+02 -0.35220293232E+02 -0.80270875074E+02  0.93305717301E+02  0.00000000000E+00 0.  1.
          5    1    5    5  502    0  0.17506537358E+02  0.18441468563E+02  0.12362704459E+02  0.28661700483E+02  0.47000000000E+01 0. -1.
         13    1    4    4    0    0  0.29184019786E+02  0.91377459727E+01 -0.68190724138E+01  0.31332174533E+02  0.00000000000E+00 0. -1.
        -14    1    4    4    0    0 -0.18721650820E+02  0.61926680790E+01  0.68799478060E+02  0.71569669055E+02  0.00000000000E+00 0.  1.
         -5    1    3    3    0  504 -0.11685314621E+02  0.76817555214E+02 -0.51736040838E+02  0.93467594857E+02  0.47000000000E+01 0.  1.
<mgrwt>
<rscale>  2 0.19649485E+03</rscale>
<asrwt>0</asrwt>
<pdfrwt beam="1">  1       21 0.22293893E-01 0.19662596E+03</pdfrwt>
<pdfrwt beam="2">  1       21 0.50059367E-01 0.19662596E+03</pdfrwt>
<totfact> 0.71432897E+04</totfact>
</mgrwt>
</event>
<event>
12    1  0.1410528E-001  0.1936410E+03  0.7546771E-02  0.1155543E+00
         21   -1    0    0  502  503  0.00000000000E+00  0.00000000000E+00  0.15480151304E+03  0.15480151304E+03  0.00000000000E+00 0. -1.
         21   -1    0    0  503  504 -0.00000000000E+00 -0.00000000000E+00 -0.24526324529E+03  0.24526324529E+03  0.00000000000E+00 0. -1.
         -6    2    1    2    0  504 -0.86567852935E+02  0.11484931293E+02 -0.16862421240E+02  0.19290854175E+03  0.17118255583E+03 0.  0.
        -24    2    3    3    0    0 -0.11392676296E+03 -0.64387596890E+01 -0.48104247953E+02  0.14743425899E+03  0.80012980864E+02 0.  0.
          6    2    1    2  502    0  0.86567852935E+02 -0.11484931293E+02 -0.73599311018E+02  0.20715621658E+03  0.17283212282E+03 0.  0.
         24    2    5    5    0    0 -0.50715227760E+01 -0.58348875646E+02 -0.16746022663E+02  0.89477030410E+02  0.65539286413E+02 0.  0.
          2    1    6    6  501    0  0.28332078895E+02 -0.25506570531E+02  0.38274276912E+01  0.38313718659E+02  0.00000000000E+00 0. -1.
         -1    1    6    6    0  501 -0.33403601671E+02 -0.32842305114E+02 -0.20573450354E+02  0.51163311751E+02  0.00000000000E+00 0.  1.
          5    1    5    5  502    0  0.91639375711E+02  0.46863944353E+02 -0.56853288355E+02  0.11767918617E+03  0.47000000000E+01 0. -1.
         13    1    4    4    0    0 -0.89727738608E+02  0.26113823053E+02 -0.51550868000E+02  0.10672624242E+03  0.00000000000E+00 0. -1.
        -14    1    4    4    0    0 -0.24199024355E+02 -0.32552582742E+02  0.34466200469E+01  0.40708016565E+02  0.00000000000E+00 0.  1.
         -5    1    3    3    0  504  0.27358910028E+02  0.17923690982E+02  0.31241826714E+02  0.45474282762E+02  0.47000000000E+01 0.  1.
<mgrwt>
<rscale>  2 0.19327224E+03</rscale>
<asrwt>0</asrwt>
<pdfrwt beam="1">  1       21 0.23815617E-01 0.19364101E+03</pdfrwt>
<pdfrwt beam="2">  1       21 0.37732807E-01 0.19364101E+03</pdfrwt>
<totfact> 0.11250042E+05</totfact>
</mgrwt>
</event>
<event>
12    1  0.1410528E-001  0.1760195E+03  0.7546771E-02  0.1171893E+00
         21   -1    0    0  502  503  0.00000000000E+00  0.00000000000E+00  0.73670032380E+02  0.73670032380E+02  0.00000000000E+00 0. -1.
         21   -1    0    0  503  504 -0.00000000000E+00 -0.00000000000E+00 -0.42193394339E+03  0.42193394339E+03  0.00000000000E+00 0. -1.
         -6    2    1    2    0  504  0.53630375780E+00 -0.32636642186E+02 -0.19501782700E+03  0.26222183385E+03  0.17222920561E+03 0.  0.
        -24    2    3    3    0    0 -0.22941248467E+02  0.18165456978E+02 -0.19137016182E+03  0.20594178233E+03  0.70236700979E+02 0.  0.
          6    2    1    2  502    0 -0.53630375780E+00  0.32636642186E+02 -0.15324608401E+03  0.23338214192E+03  0.17296653973E+03 0.  0.
         24    2    5    5    0    0  0.58085735525E+02 -0.12852287052E+02 -0.13595485462E+03  0.15704825176E+03  0.51393549511E+02 0.  0.
          4    1    6    6  501    0  0.39015228228E+02 -0.26919315121E+02 -0.54563779758E+02  0.72277545765E+02  0.00000000000E+00 0. -1.
         -3    1    6    6    0  501  0.19070507297E+02  0.14067028069E+02 -0.81391074865E+02  0.84770705995E+02  0.00000000000E+00 0.  1.
          5    1    5    5  502    0 -0.58622039283E+02  0.45488929238E+02 -0.17291229384E+02  0.76333890157E+02  0.47000000000E+01 0. -1.
         13    1    4    4    0    0 -0.23551282397E+02 -0.23830660936E+02 -0.97730245609E+02  0.10331391102E+03  0.00000000000E+00 0. -1.
        -14    1    4    4    0    0  0.61003392932E+00  0.41996117914E+02 -0.93639916211E+02  0.10262787131E+03  0.00000000000E+00 0.  1.
         -5    1    3    3    0  504  0.23477552225E+02 -0.50802099164E+02 -0.36476651783E+01  0.56280051521E+02  0.47000000000E+01 0.  1.
<mgrwt>
<rscale>  2 0.17583809E+03</rscale>
<asrwt>0</asrwt>
<pdfrwt beam="1">  1       21 0.11333851E-01 0.17601949E+03</pdfrwt>
<pdfrwt beam="2">  1       21 0.64912913E-01 0.17601949E+03</pdfrwt>
<totfact> 0.14284958E+05</totfact>
</mgrwt>
</event>
<event>
12    1  0.1410528E-001  0.2561333E+03  0.7546771E-02  0.1109612E+00
         21   -1    0    0  502  503  0.00000000000E+00  0.00000000000E+00  0.15640461318E+03  0.15640461318E+03  0.00000000000E+00 0. -1.
         21   -1    0    0  503  504 -0.00000000000E+00 -0.00000000000E+00 -0.44394746323E+03  0.44394746323E+03  0.00000000000E+00 0.  1.
         -6    2    1    2    0  504  0.98507065335E+02 -0.16144970157E+03 -0.71179995924E+02  0.26506542117E+03  0.17153261387E+03 0.  0.
        -24    2    3    3    0    0  0.78831848791E+01 -0.14013918756E+03 -0.35340035803E+02  0.16519841732E+03  0.79627020916E+02 0.  0.
          6    2    1    2  502    0 -0.98507065335E+02  0.16144970157E+03 -0.21636285412E+03  0.33528665525E+03  0.17272697672E+03 0.  0.
         24    2    5    5    0    0 -0.16528893403E+02  0.14733443734E+02 -0.38630903481E+02  0.90630126081E+02  0.78937914644E+02 0.  0.
          4    1    6    6  501    0 -0.21317625145E+02  0.11677228908E+02  0.20151756311E+02  0.31573598136E+02  0.00000000000E+00 0. -1.
         -3    1    6    6    0  501  0.47887317422E+01  0.30562148255E+01 -0.58782659792E+02  0.59056527945E+02  0.00000000000E+00 0.  1.
          5    1    5    5  502    0 -0.81978171932E+02  0.14671625783E+03 -0.17773195064E+03  0.24465652917E+03  0.47000000000E+01 0. -1.
         13    1    4    4    0    0  0.34098226822E+02 -0.12574120502E+03 -0.36396694153E+02  0.13527105773E+03  0.00000000000E+00 0. -1.
        -14    1    4    4    0    0 -0.26215041943E+02 -0.14397982536E+02  0.10566583508E+01  0.29927359590E+02  0.00000000000E+00 0.  1.
         -5    1    3    3    0  504  0.90623880456E+02 -0.21310514007E+02 -0.35839960121E+02  0.99867003848E+02  0.47000000000E+01 0.  1.
<mgrwt>
<rscale>  2 0.25593206E+03</rscale>
<asrwt>0</asrwt>
<pdfrwt beam="1">  1       21 0.24062248E-01 0.25613328E+03</pdfrwt>
<pdfrwt beam="2">  1       21 0.68299610E-01 0.25613328E+03</pdfrwt>
<totfact> 0.30878557E+04</totfact>
</mgrwt>
</event>
<event>
12    1  0.1410528E-001  0.2620788E+03  0.7546771E-02  0.1106050E+00
         21   -1    0    0  502  503  0.00000000000E+00  0.00000000000E+00  0.35765811069E+03  0.35765811069E+03  0.00000000000E+00 0.  1.
         21   -1    0    0  503  504 -0.00000000000E+00 -0.00000000000E+00 -0.20769323179E+03  0.20769323179E+03  0.00000000000E+00 0. -1.
         -6    2    1    2    0  504  0.19267631629E+03 -0.39070064099E+02 -0.42798051929E+01  0.26211375982E+03  0.17330514588E+03 0.  0.
        -24    2    3    3    0    0  0.13855707804E+03 -0.39285635056E+02  0.63897480207E+02  0.17494053765E+03  0.76025513740E+02 0.  0.
          6    2    1    2  502    0 -0.19267631629E+03  0.39070064099E+02  0.15424468410E+03  0.30323758266E+03  0.17178759034E+03 0.  0.
         24    2    5    5    0    0 -0.15873856664E+03  0.88223568196E+02  0.13776344900E+03  0.24109613975E+03  0.78531841936E+02 0.  0.
          2    1    6    6  501    0 -0.90999512908E+02  0.46674528639E+02  0.28829017724E+02  0.10625693030E+03  0.00000000000E+00 0. -1.
         -1    1    6    6    0  501 -0.67739053736E+02  0.41549039557E+02  0.10893443128E+03  0.13483920946E+03  0.00000000000E+00 0.  1.
          5    1    5    5  502    0 -0.33937749646E+02 -0.49153504097E+02  0.16481235098E+02  0.62141442905E+02  0.47000000000E+01 0. -1.
         13    1    4    4    0    0  0.12766873400E+02 -0.34613304628E+02  0.12148914083E+02  0.38841601758E+02  0.00000000000E+00 0. -1.
        -14    1    4    4    0    0  0.12579020464E+03 -0.46723304280E+01  0.51748566124E+02  0.13609893589E+03  0.00000000000E+00 0.  1.
         -5    1    3    3    0  504  0.54119238254E+02  0.21557095699E+00 -0.68177285400E+02  0.87173222176E+02  0.47000000000E+01 0.  1.
<mgrwt>
<rscale>  2 0.26182820E+03</rscale>
<asrwt>0</asrwt>
<pdfrwt beam="1">  1       21 0.55024324E-01 0.26207882E+03</pdfrwt>
<pdfrwt beam="2">  1       21 0.31952805E-01 0.26207882E+03</pdfrwt>
<totfact> 0.28363037E+04</totfact>
</mgrwt>
</event>
<event>
12    1  0.1410528E-001  0.2056657E+03  0.7546771E-02  0.1145080E+00
         21   -1    0    0  502  503  0.00000000000E+00  0.00000000000E+00  0.28201210969E+03  0.28201210969E+03  0.00000000000E+00 0. -1.
         21   -1    0    0  503  504 -0.00000000000E+00 -0.00000000000E+00 -0.12357430135E+04  0.12357430135E+04  0.00000000000E+00 0. -1.
         -6    2    1    2    0  504  0.70316472260E+02  0.85394192714E+02 -0.11882162286E+04  0.12058548935E+04  0.17318095726E+03 0.  0.
        -24    2    3    3    0    0  0.79093068229E+02  0.98503118158E+02 -0.11742350428E+04  0.11842577614E+04  0.87635219890E+02 0.  0.
          6    2    1    2  502    0 -0.70316472260E+02 -0.85394192714E+02  0.23448532472E+03  0.31190022972E+03  0.17338342300E+03 0.  0.
         24    2    5    5    0    0 -0.13235777696E+02 -0.21342135513E+01  0.17674092165E+03  0.19550892460E+03  0.82502397142E+02 0.  0.
          2    1    6    6  501    0  0.27297318840E+02 -0.10248527141E+02  0.25548273625E+02  0.38767127952E+02  0.00000000000E+00 0. -1.
         -1    1    6    6    0  501 -0.40533096537E+02  0.81143135897E+01  0.15119264802E+03  0.15674179665E+03  0.00000000000E+00 0.  1.
          5    1    5    5  502    0 -0.57080694563E+02 -0.83259979163E+02  0.57744403074E+02  0.11639130512E+03  0.47000000000E+01 0. -1.
         13    1    4    4    0    0  0.24612084515E+02  0.90619227301E+02 -0.58885510917E+03  0.59629517746E+03  0.00000000000E+00 0. -1.
        -14    1    4    4    0    0  0.54480983714E+02  0.78838908574E+01 -0.58537993368E+03  0.58796258391E+03  0.00000000000E+00 0.  1.
         -5    1    3    3    0  504 -0.87765959696E+01 -0.13108925445E+02 -0.13981185727E+02  0.21597132158E+02  0.47000000000E+01 0.  1.
<mgrwt>
<rscale>  2 0.20562304E+03</rscale>
<asrwt>0</asrwt>
<pdfrwt beam="1">  1       21 0.43386479E-01 0.20566571E+03</pdfrwt>
<pdfrwt beam="2">  1       21 0.19011431E+00 0.20566571E+03</pdfrwt>
<totfact> 0.78361924E+02</totfact>
</mgrwt>
</event>
<event>
12    1  0.1410528E-001  0.1801114E+03  0.7546771E-02  0.1168781E+00
         21   -1    0    0  502  503  0.00000000000E+00  0.00000000000E+00  0.16791622314E+02  0.16791622314E+02  0.00000000000E+00 0. -1.
         21   -1    0    0  503  504 -0.00000000000E+00 -0.00000000000E+00 -0.19460999946E+04  0.19460999946E+04  0.00000000000E+00 0. -1.
         -6    2    1    2    0  504 -0.40085158009E+01  0.49579537150E+02 -0.11505995541E+04  0.11646112915E+04  0.17310669455E+03 0.  0.
        -24    2    3    3    0    0  0.58262237113E+02  0.58904830294E+02 -0.66620540239E+03  0.67611933459E+03  0.80271097687E+02 0.  0.
          6    2    1    2  502    0  0.40085158009E+01 -0.49579537150E+02 -0.77870881816E+03  0.79828032539E+03  0.16849289514E+03 0.  0.
         24    2    5    5    0    0 -0.15608633924E+02 -0.16456602591E+01 -0.69560131217E+03  0.70024239054E+03  0.78942272346E+02 0.  0.
          2    1    6    6  501    0 -0.39802440078E+02 -0.67578561028E+01 -0.60444060238E+03  0.60578737579E+03  0.00000000000E+00 0. -1.
         -1    1    6    6    0  501  0.24193806154E+02  0.51121958436E+01 -0.91160709792E+02  0.94455014755E+02  0.00000000000E+00 0.  1.
          5    1    5    5  502    0  0.19617149725E+02 -0.47933876890E+02 -0.83107505989E+02  0.98037934846E+02  0.47000000000E+01 0. -1.
         11    1    4    4    0    0  0.12006065776E+02 -0.52299068247E+01 -0.34763643816E+03  0.34788301292E+03  0.00000000000E+00 0. -1.
        -12    1    4    4    0    0  0.46256171337E+02  0.64134737118E+02 -0.31856896423E+03  0.32823632167E+03  0.00000000000E+00 0.  1.
         -5    1    3    3    0  504 -0.62270752914E+02 -0.93252931439E+01 -0.48439415170E+03  0.48849195691E+03  0.47000000000E+01 0.  1.
<mgrwt>
<rscale>  2 0.17899363E+03</rscale>
<asrwt>0</asrwt>
<pdfrwt beam="1">  1       21 0.25833299E-02 0.18011143E+03</pdfrwt>
<pdfrwt beam="2">  1       21 0.29939961E+00 0.18011143E+03</pdfrwt>
<totfact> 0.28209580E+04</totfact>
</mgrwt>
</event>
<event>
12    1  0.1410528E-001  0.1926142E+03  0.7546771E-02  0.1156331E+00
         21   -1    0    0  502  503  0.00000000000E+00  0.00000000000E+00  0.97173731385E+02  0.97173731385E+02  0.00000000000E+00 0. -1.
         21   -1    0    0  503  504 -0.00000000000E+00 -0.00000000000E+00 -0.58844207978E+03  0.58844207978E+03  0.00000000000E+00 0. -1.
         -6    2    1    2    0  504  0.82750161827E+02 -0.12710562287E+02 -0.45006767982E+03  0.48955200200E+03  0.17346786035E+03 0.  0.
        -24    2    3    3    0    0  0.56485311649E+02 -0.26025294950E+02 -0.44781805227E+03  0.45964756613E+03  0.82867187112E+02 0.  0.
          6    2    1    2  502    0 -0.82750161827E+02  0.12710562287E+02 -0.41200668578E+02  0.19606380916E+03  0.17243658108E+03 0.  0.
         24    2    5    5    0    0  0.73368608797E+01 -0.35654965670E+02 -0.32482367846E+02  0.93336039194E+02  0.79570131878E+02 0.  0.
          4    1    6    6  501    0  0.24907445779E+02 -0.10472743921E+01  0.17202305137E+02  0.30288561222E+02  0.00000000000E+00 0. -1.
         -3    1    6    6    0  501 -0.17570584899E+02 -0.34607691278E+02 -0.49684672983E+02  0.63047477972E+02  0.00000000000E+00 0.  1.
          5    1    5    5  502    0 -0.90087022706E+02  0.48365527956E+02 -0.87183007319E+01  0.10272776997E+03  0.47000000000E+01 0. -1.
         11    1    4    4    0    0  0.63132971720E+01 -0.41685727140E+02 -0.11070056575E+03  0.11845747265E+03  0.00000000000E+00 0. -1.
        -12    1    4    4    0    0  0.50172014476E+02  0.15660432190E+02 -0.33711748652E+03  0.34119009349E+03  0.00000000000E+00 0.  1.
         -5    1    3    3    0  504  0.26264850178E+02  0.13314732663E+02 -0.22496275437E+01  0.29904435873E+02  0.47000000000E+01 0.  1.
<mgrwt>
<rscale>  2 0.19238176E+03</rscale>
<asrwt>0</asrwt>
<pdfrwt beam="1">  1       21 0.14949805E-01 0.19261424E+03</pdfrwt>
<pdfrwt beam="2">  1       21 0.90529549E-01 0.19261424E+03</pdfrwt>
<totfact> 0.40908554E+04</totfact>
</mgrwt>
</event>
<event>
12    1  0.1410528E-001  0.2618174E+03  0.7546771E-02  0.1106196E+00
         21   -1    0    0  502  503  0.00000000000E+00  0.00000000000E+00  0.10402486360E+03  0.10402486360E+03  0.00000000000E+00 0. -1.
         21   -1    0    0  503  504 -0.00000000000E+00 -0.00000000000E+00 -0.66715488557E+03  0.66715488557E+03  0.00000000000E+00 0. -1.
         -6    2    1    2    0  504 -0.18431921636E+03 -0.62903152230E+02 -0.33055521619E+03  0.42168129745E+03  0.17497995767E+03 0.  0.
        -24    2    3    3    0    0 -0.10356815351E+03 -0.89150556760E+02 -0.13407127686E+03  0.20758391584E+03  0.80260766538E+02 0.  0.
          6    2    1    2  502    0  0.18431921636E+03  0.62903152230E+02 -0.23257480577E+03  0.34949845172E+03  0.17357346398E+03 0.  0.
         24    2    5    5    0    0  0.62429396028E+02 -0.32543294614E+01 -0.52622278945E+02  0.12225641645E+03  0.90936829579E+02 0.  0.
          4    1    6    6  501    0 -0.19025919715E+02  0.16045970230E+02 -0.33287672081E+01  0.25110545051E+02  0.00000000000E+00 0. -1.
         -3    1    6    6    0  501  0.81455315744E+02 -0.19300299691E+02 -0.49293511736E+02  0.97145871402E+02  0.00000000000E+00 0.  1.
          5    1    5    5  502    0  0.12188982033E+03  0.66157481691E+02 -0.17995252682E+03  0.22724203527E+03  0.47000000000E+01 0. -1.
         13    1    4    4    0    0 -0.20540554730E+02 -0.55963656669E+02 -0.89859998764E+02  0.10783628626E+03  0.00000000000E+00 0. -1.
        -14    1    4    4    0    0 -0.83027598776E+02 -0.33186900090E+02 -0.44211278100E+02  0.99747629583E+02  0.00000000000E+00 0.  1.
         -5    1    3    3    0  504 -0.80751062850E+02  0.26247404530E+02 -0.19648393933E+03  0.21409738161E+03  0.47000000000E+01 0.  1.
<mgrwt>
<rscale>  2 0.26158264E+03</rscale>
<asrwt>0</asrwt>
<pdfrwt beam="1">  1       21 0.16003825E-01 0.26181743E+03</pdfrwt>
<pdfrwt beam="2">  1       21 0.10263922E+00 0.26181743E+03</pdfrwt>
<totfact> 0.25930811E+04</totfact>
</mgrwt>
</event>
<event>
12    1  0.1410528E-001  0.1833173E+03  0.7546771E-02  0.1164670E+00
         21   -1    0    0  502  503  0.00000000000E+00  0.00000000000E+00  0.16740356727E+02  0.16740356727E+02  0.00000000000E+00 0.  1.
         21   -1    0    0  503  504 -0.00000000000E+00 -0.00000000000E+00 -0.26237424935E+04  0.26237424935E+04  0.00000000000E+00 0. -1.
         -6    2    1    2    0  504 -0.53563468727E+02  0.26658755048E+02 -0.19447616101E+04  0.19533824410E+04  0.17327869512E+03 0.  0.
        -24    2    3    3    0    0 -0.12364334674E+02 -0.40436995855E+02 -0.13974342879E+04  0.14004009801E+04  0.80698752645E+02 0.  0.
          6    2    1    2  502    0  0.53563468727E+02 -0.26658755048E+02 -0.66224052663E+03  0.68710040921E+03  0.17310321437E+03 0.  0.
         24    2    5    5    0    0  0.51581981377E+02  0.69230557905E+00 -0.18957280847E+03  0.21361453973E+03  0.83857866550E+02 0.  0.
          4    1    6    6  501    0  0.22151032773E+02  0.39146470001E+02 -0.57888121572E+02  0.73308587394E+02  0.00000000000E+00 0. -1.
         -3    1    6    6    0  501  0.29430948604E+02 -0.38454164422E+02 -0.13168468690E+03  0.14030595233E+03  0.00000000000E+00 0.  1.
          5    1    5    5  502    0  0.19814873496E+01 -0.27351060627E+02 -0.47266771816E+03  0.47348586948E+03  0.47000000000E+01 0. -1.
         13    1    4    4    0    0  0.21837356039E+02 -0.36727511113E+02 -0.38168737498E+03  0.38407165010E+03  0.00000000000E+00 0. -1.
        -14    1    4    4    0    0 -0.34201690714E+02 -0.37094847416E+01 -0.10157469129E+04  0.10163293300E+04  0.00000000000E+00 0.  1.
         -5    1    3    3    0  504 -0.41199134052E+02  0.67095750902E+02 -0.54732732217E+03  0.55298146084E+03  0.47000000000E+01 0.  1.
<mgrwt>
<rscale>  2 0.18327584E+03</rscale>
<asrwt>0</asrwt>
<pdfrwt beam="1">  1       21 0.25754417E-02 0.18331732E+03</pdfrwt>
<pdfrwt beam="2">  1       21 0.40365235E+00 0.18331732E+03</pdfrwt>
<totfact> 0.68155581E+03</totfact>
</mgrwt>
</event>
<event>
12    1  0.1410528E-001  0.2704553E+03  0.7546771E-02  0.1101247E+00
         21   -1    0    0  502  503  0.00000000000E+00  0.00000000000E+00  0.49927759900E+03  0.49927759900E+03  0.00000000000E+00 0. -1.
         21   -1    0    0  503  504 -0.00000000000E+00 -0.00000000000E+00 -0.15155194725E+03  0.15155194725E+03  0.00000000000E+00 0.  1.
         -6    2    1    2    0  504  0.20350839043E+03  0.38634462831E+02  0.11010356874E+03  0.29200831182E+03  0.17389011366E+03 0.  0.
        -24    2    3    3    0    0  0.14761922377E+03  0.37813012948E+02  0.14542785285E+03  0.22571978507E+03  0.81110429744E+02 0.  0.
          6    2    1    2  502    0 -0.20350839043E+03 -0.38634462831E+02  0.23762208300E+03  0.35882123443E+03  0.17140635127E+03 0.  0.
         24    2    5    5    0    0 -0.50142282659E+02  0.19292882276E+02  0.13380600375E+03  0.16471660122E+03  0.79630699227E+02 0.  0.
          2    1    6    6  501    0 -0.90740573258E+01  0.43281987735E+02  0.88964597463E+02  0.99349728638E+02  0.00000000000E+00 0. -1.
         -1    1    6    6    0  501 -0.41068225333E+02 -0.23989105459E+02  0.44841406289E+02  0.65366872578E+02  0.00000000000E+00 0.  1.
          5    1    5    5  502    0 -0.15336610777E+03 -0.57927345107E+02  0.10381607925E+03  0.19410463321E+03  0.47000000000E+01 0. -1.
         11    1    4    4    0    0  0.19787092496E+02 -0.16565362644E+02  0.52753154334E+02  0.58726787424E+02  0.00000000000E+00 0. -1.
        -12    1    4    4    0    0  0.12783213127E+03  0.54378375592E+02  0.92674698520E+02  0.16699299765E+03  0.00000000000E+00 0.  1.
         -5    1    3    3    0  504  0.55889166662E+02  0.82144988282E+00 -0.35324284112E+02  0.66288526746E+02  0.47000000000E+01 0.  1.
<mgrwt>
<rscale>  2 0.27005685E+03</rscale>
<asrwt>0</asrwt>
<pdfrwt beam="1">  1       21 0.76811937E-01 0.27045528E+03</pdfrwt>
<pdfrwt beam="2">  1       21 0.23315684E-01 0.27045528E+03</pdfrwt>
<totfact> 0.25063925E+04</totfact>
</mgrwt>
</event>
<event>
12    1  0.1410528E-001  0.1907141E+03  0.7546771E-02  0.1158047E+00
         21   -1    0    0  502  503  0.00000000000E+00  0.00000000000E+00  0.89614175011E+02  0.89614175011E+02  0.00000000000E+00 0. -1.
         21   -1    0    0  503  504 -0.00000000000E+00 -0.00000000000E+00 -0.56971619527E+03  0.56971619527E+03  0.00000000000E+00 0. -1.
         -6    2    1    2    0  504 -0.65143553336E+02  0.40210676459E+02 -0.41754678427E+03  0.45861906812E+03  0.17356713844E+03 0.  0.
        -24    2    3    3    0    0 -0.63094423360E+02  0.77521231723E+02 -0.20213386722E+03  0.23993872767E+03  0.81988079204E+02 0.  0.
          6    2    1    2  502    0  0.65143553336E+02 -0.40210676459E+02 -0.62555235986E+02  0.20071130216E+03  0.17467480706E+03 0.  0.
         24    2    5    5    0    0 -0.18189442708E+02  0.17502488023E+02 -0.36218968210E+01  0.83363843517E+02  0.79367621587E+02 0.  0.
          2    1    6    6  501    0 -0.63734336197E+01 -0.63681682452E+01  0.35171376284E+02  0.36307023186E+02  0.00000000000E+00 0. -1.
         -1    1    6    6    0  501 -0.11816009088E+02  0.23870656268E+02 -0.38793273105E+02  0.47056820331E+02  0.00000000000E+00 0.  1.
          5    1    5    5  502    0  0.83332996043E+02 -0.57713164482E+02 -0.58933339165E+02  0.11734745864E+03  0.47000000000E+01 0. -1.
         11    1    4    4    0    0 -0.21900002098E+02  0.32887530689E+02 -0.13479736493E+02  0.41748090526E+02  0.00000000000E+00 0. -1.
        -12    1    4    4    0    0 -0.41194421262E+02  0.44633701034E+02 -0.18865413073E+03  0.19819063714E+03  0.00000000000E+00 0.  1.
         -5    1    3    3    0  504 -0.20491299760E+01 -0.37310555264E+02 -0.21541291705E+03  0.21868034045E+03  0.47000000000E+01 0.  1.
<mgrwt>
<rscale>  2 0.19046010E+03</rscale>
<asrwt>0</asrwt>
<pdfrwt beam="1">  1       21 0.13786796E-01 0.19071410E+03</pdfrwt>
<pdfrwt beam="2">  1       21 0.87648647E-01 0.19071410E+03</pdfrwt>
<totfact> 0.51104710E+04</totfact>
</mgrwt>
</event>
<event>
12    1  0.1410528E-001  0.1749950E+03  0.7546771E-02  0.1172837E+00
         21   -1    0    0  502  503  0.00000000000E+00  0.00000000000E+00  0.29933055343E+03  0.29933055343E+03  0.00000000000E+00 0. -1.
         21   -1    0    0  503  504 -0.00000000000E+00 -0.00000000000E+00 -0.16334280875E+04  0.16334280875E+04  0.00000000000E+00 0. -1.
         -6    2    1    2    0  504 -0.13348266700E+02  0.23643135140E+02 -0.16026990731E+04  0.16121809594E+04  0.17247015136E+03 0.  0.
        -24    2    3    3    0    0 -0.24361669156E+02 -0.26179077060E+02 -0.47760266706E+03  0.48591830771E+03  0.82057657714E+02 0.  0.
          6    2    1    2  502    0  0.13348266700E+02 -0.23643135140E+02  0.26860153896E+03  0.32057768152E+03  0.17287593556E+03 0.  0.
         24    2    5    5    0    0  0.70850088687E+02 -0.36125461235E+02  0.13548253683E+03  0.17495822292E+03  0.77006999444E+02 0.  0.
          2    1    6    6  501    0  0.80048918222E+02 -0.74798725664E+01  0.93582915064E+02  0.12337560453E+03  0.00000000000E+00 0. -1.
         -1    1    6    6    0  501 -0.91988295346E+01 -0.28645588668E+02  0.41899621769E+02  0.51582618384E+02  0.00000000000E+00 0.  1.
          5    1    5    5  502    0 -0.57501821987E+02  0.12482326095E+02  0.13311900213E+03  0.14561945861E+03  0.47000000000E+01 0. -1.
         13    1    4    4    0    0  0.25013800274E+02  0.96686217652E+00 -0.25765123393E+03  0.25886441117E+03  0.00000000000E+00 0. -1.
        -14    1    4    4    0    0 -0.49375469430E+02 -0.27145939237E+02 -0.21995143313E+03  0.22705389654E+03  0.00000000000E+00 0.  1.
         -5    1    3    3    0  504  0.11013402456E+02  0.49822212200E+02 -0.11250964060E+04  0.11262626517E+04  0.47000000000E+01 0.  1.
<mgrwt>
<rscale>  2 0.17489474E+03</rscale>
<asrwt>0</asrwt>
<pdfrwt beam="1">  1       21 0.46050855E-01 0.17499504E+03</pdfrwt>
<pdfrwt beam="2">  1       21 0.25129663E+00 0.17499504E+03</pdfrwt>
<totfact> 0.30297495E+02</totfact>
</mgrwt>
</event>
<event>
12    1  0.1410528E-001  0.2114068E+03  0.7546771E-02  0.1141268E+00
         21   -1    0    0  502  503  0.00000000000E+00  0.00000000000E+00  0.15580223015E+04  0.15580223015E+04  0.00000000000E+00 0. -1.
         21   -1    0    0  503  504 -0.00000000000E+00 -0.00000000000E+00 -0.31684370930E+02  0.31684370930E+02  0.00000000000E+00 0. -1.
         -6    2    1    2    0  504  0.49220870362E+02  0.11161548629E+03  0.10358853561E+04  0.10572375821E+04  0.17266187520E+03 0.  0.
        -24    2    3    3    0    0  0.35101156586E+02  0.27365410625E+02  0.21103621003E+03  0.22796341432E+03  0.73824653274E+02 0.  0.
          6    2    1    2  502    0 -0.49220870362E+02 -0.11161548629E+03  0.49045257440E+03  0.53246909027E+03  0.16762724568E+03 0.  0.
         24    2    5    5    0    0 -0.16937866170E+02 -0.12924862217E+03  0.28356976040E+03  0.32228890907E+03  0.80412898538E+02 0.  0.
          2    1    6    6  501    0 -0.13398735686E+01 -0.12191565857E+03  0.27897075839E+03  0.30445017179E+03  0.00000000000E+00 0. -1.
         -1    1    6    6    0  501 -0.15597992602E+02 -0.73329636007E+01  0.45990020178E+01  0.17838737285E+02  0.00000000000E+00 0.  1.
          5    1    5    5  502    0 -0.32283004191E+02  0.17633135878E+02  0.20688281400E+03  0.21018018120E+03  0.47000000000E+01 0. -1.
         11    1    4    4    0    0  0.52811109891E+02  0.35725339000E+02  0.18279947152E+03  0.19359999990E+03  0.00000000000E+00 0. -1.
        -12    1    4    4    0    0 -0.17709953305E+02 -0.83599283751E+01  0.28236738510E+02  0.34363414414E+02  0.00000000000E+00 0.  1.
         -5    1    3    3    0  504  0.14119713775E+02  0.84250075668E+02  0.82484914612E+03  0.82927416782E+03  0.47000000000E+01 0.  1.
<mgrwt>
<rscale>  2 0.21037640E+03</rscale>
<asrwt>0</asrwt>
<pdfrwt beam="1">  1       21 0.23969568E+00 0.21140680E+03</pdfrwt>
<pdfrwt beam="2">  1       21 0.48745198E-02 0.21140680E+03</pdfrwt>
<totfact> 0.21156665E+04</totfact>
</mgrwt>
</event>
<event>
12    1  0.1410528E-001  0.2168989E+03  0.7546771E-02  0.1138750E+00
         21   -1    0    0  502  503  0.00000000000E+00  0.00000000000E+00  0.10412903658E+03  0.10412903658E+03  0.00000000000E+00 0. -1.
         21   -1    0    0  503  504 -0.00000000000E+00 -0.00000000000E+00 -0.54206163599E+03  0.54206163599E+03  0.00000000000E+00 0.  1.
         -6    2    1    2    0  504 -0.41423894647E+02 -0.10030105657E+03 -0.36359547751E+03  0.41690674390E+03  0.17272324929E+03 0.  0.
        -24    2    3    3    0    0 -0.45455033643E+02  0.80494632291E+01 -0.12276181438E+03  0.15274953972E+03  0.78300733543E+02 0.  0.
          6    2    1    2  502    0  0.41423894647E+02  0.10030105657E+03 -0.74337121892E+02  0.22928392867E+03  0.18780008322E+03 0.  0.
         24    2    5    5    0    0  0.90096781835E+01  0.13052425731E+03 -0.94423071900E+02  0.18039979342E+03  0.80688369117E+02 0.  0.
          4    1    6    6  501    0 -0.16685528783E+02  0.37601466745E+02 -0.69595393413E+02  0.80844269781E+02  0.00000000000E+00 0. -1.
         -3    1    6    6    0  501  0.25695206967E+02  0.92922790565E+02 -0.24827678487E+02  0.99555523636E+02  0.00000000000E+00 0.  1.
          5    1    5    5  502    0  0.32414216463E+02 -0.30223200739E+02  0.20085950008E+02  0.48884135254E+02  0.47000000000E+01 0. -1.
         11    1    4    4    0    0  0.13068936446E+02 -0.21594893242E+02 -0.36410859200E+02  0.44304482636E+02  0.00000000000E+00 0. -1.
        -12    1    4    4    0    0 -0.58523970089E+02  0.29644356471E+02 -0.86350955176E+02  0.10844505708E+03  0.00000000000E+00 0.  1.
         -5    1    3    3    0  504  0.40311389962E+01 -0.10835051980E+03 -0.24083366314E+03  0.26415720418E+03  0.47000000000E+01 0.  1.
<mgrwt>
<rscale>  2 0.21359549E+03</rscale>
<asrwt>0</asrwt>
<pdfrwt beam="1">  1       21 0.16019852E-01 0.21689885E+03</pdfrwt>
<pdfrwt beam="2">  1       21 0.83394098E-01 0.21689885E+03</pdfrwt>
<totfact> 0.43009410E+04</totfact>
</mgrwt>
</event>
<event>
12    1  0.1410528E-001  0.1817818E+03  0.7546771E-02  0.1166178E+00
         21   -1    0    0  502  503  0.00000000000E+00  0.00000000000E+00  0.55746414167E+03  0.55746414167E+03  0.00000000000E+00 0. -1.
         21   -1    0    0  503  504 -0.00000000000E+00 -0.00000000000E+00 -0.75003087316E+02  0.75003087316E+02  0.00000000000E+00 0. -1.
         -6    2    1    2    0  504 -0.54887264217E+02  0.14737391843E+02  0.95675143353E+02  0.20509390970E+03  0.17227877481E+03 0.  0.
        -24    2    3    3    0    0  0.11344753244E+01  0.64769311974E+02  0.74795951357E+02  0.12699359606E+03  0.79602690233E+02 0.  0.
          6    2    1    2  502    0  0.54887264217E+02 -0.14737391843E+02  0.38678591100E+03  0.42737331928E+03  0.17266965742E+03 0.  0.
         24    2    5    5    0    0  0.99815656739E+02  0.28961441503E+01  0.23257185661E+03  0.26571452237E+03  0.80888725617E+02 0.  0.
          2    1    6    6  501    0  0.68962968638E+02 -0.22698829773E+02  0.80304428946E+02  0.10825862194E+03  0.00000000000E+00 0. -1.
         -1    1    6    6    0  501  0.30852688100E+02  0.25594973924E+02  0.15226742766E+03  0.15745590043E+03  0.00000000000E+00 0.  1.
          5    1    5    5  502    0 -0.44928392521E+02 -0.17633535994E+02  0.15421405440E+03  0.16165879691E+03  0.47000000000E+01 0. -1.
         13    1    4    4    0    0 -0.34663030670E+02  0.44388733295E+02  0.23050063596E+02  0.60853847623E+02  0.00000000000E+00 0. -1.
        -14    1    4    4    0    0  0.35797505995E+02  0.20380578679E+02  0.51745887761E+02  0.66139748434E+02  0.00000000000E+00 0.  1.
         -5    1    3    3    0  504 -0.56021739542E+02 -0.50031920131E+02  0.20879191996E+02  0.78100313647E+02  0.47000000000E+01 0.  1.
<mgrwt>
<rscale>  2 0.18168889E+03</rscale>
<asrwt>0</asrwt>
<pdfrwt beam="1">  1       21 0.85763712E-01 0.18178177E+03</pdfrwt>
<pdfrwt beam="2">  1       21 0.11538937E-01 0.18178177E+03</pdfrwt>
<totfact> 0.74235872E+04</totfact>
</mgrwt>
</event>
<event>
12    1  0.1410528E-001  0.1816775E+03  0.7546771E-02  0.1167314E+00
         21   -1    0    0  502  503  0.00000000000E+00  0.00000000000E+00  0.13637909564E+03  0.13637909564E+03  0.00000000000E+00 0.  1.
         21   -1    0    0  503  504 -0.00000000000E+00 -0.00000000000E+00 -0.45546461824E+03  0.45546461824E+03  0.00000000000E+00 0.  1.
         -6    2    1    2    0  504 -0.78437589108E+01  0.35460707957E+02 -0.36393614533E+03  0.40471200344E+03  0.17327233332E+03 0.  0.
        -24    2    3    3    0    0 -0.35447606869E+02  0.80538398009E+02 -0.29078675951E+03  0.31434113863E+03  0.80687331965E+02 0.  0.
          6    2    1    2  502    0  0.78437589108E+01 -0.35460707957E+02  0.44850622718E+02  0.18713171044E+03  0.17801042759E+03 0.  0.
         24    2    5    5    0    0  0.66543538378E+02 -0.53620699903E+02  0.10600115316E+02  0.11662896812E+03  0.78655780474E+02 0.  0.
          2    1    6    6  501    0  0.64022498938E+02 -0.61576424195E+02 -0.14656069410E+02  0.90029643771E+02  0.00000000000E+00 0. -1.
         -1    1    6    6    0  501  0.25210394397E+01  0.79557242916E+01  0.25256184727E+02  0.26599324349E+02  0.00000000000E+00 0.  1.
          5    1    5    5  502    0 -0.58699779467E+02  0.18159991946E+02  0.34250507401E+02  0.70502742317E+02  0.47000000000E+01 0. -1.
         13    1    4    4    0    0 -0.14130067765E+02 -0.12418103150E+02 -0.20997519034E+02  0.28191557362E+02  0.00000000000E+00 0. -1.
        -14    1    4    4    0    0 -0.21317539104E+02  0.92956501158E+02 -0.26978924048E+03  0.28614958126E+03  0.00000000000E+00 0.  1.
         -5    1    3    3    0  504  0.27603847958E+02 -0.45077690052E+02 -0.73149385817E+02  0.90370864818E+02  0.47000000000E+01 0.  1.
<mgrwt>
<rscale>  2 0.18050620E+03</rscale>
<asrwt>0</asrwt>
<pdfrwt beam="1">  1       21 0.20981399E-01 0.18167746E+03</pdfrwt>
<pdfrwt beam="2">  1       21 0.70071479E-01 0.18167746E+03</pdfrwt>
<totfact> 0.39232864E+04</totfact>
</mgrwt>
</event>
<event>
12    1  0.1410528E-001  0.2073664E+03  0.7546771E-02  0.1143754E+00
         21   -1    0    0  502  503  0.00000000000E+00  0.00000000000E+00  0.40908650898E+03  0.40908650898E+03  0.00000000000E+00 0.  1.
         21   -1    0    0  503  504 -0.00000000000E+00 -0.00000000000E+00 -0.11168444080E+03  0.11168444080E+03  0.00000000000E+00 0.  1.
         -6    2    1    2    0  504 -0.77337094213E+02  0.82972535531E+02  0.84665875135E+02  0.22398470777E+03  0.17359542364E+03 0.  0.
        -24    2    3    3    0    0 -0.45004100189E+02  0.69101429885E+02 -0.14692200105E+02  0.11847666452E+03  0.83788320463E+02 0.  0.
          6    2    1    2  502    0  0.77337094213E+02 -0.82972535531E+02  0.21273619304E+03  0.29678624200E+03  0.17308933479E+03 0.  0.
         24    2    5    5    0    0 -0.25508319739E+02 -0.33953146180E+02  0.11733219653E+03  0.14811179143E+03  0.79792029092E+02 0.  0.
          2    1    6    6  501    0 -0.29949533818E+02 -0.39628626884E+01  0.36191035454E+01  0.30426579944E+02  0.00000000000E+00 0. -1.
         -1    1    6    6    0  501  0.44412140794E+01 -0.29990283491E+02  0.11371309299E+03  0.11768521149E+03  0.00000000000E+00 0.  1.
          5    1    5    5  502    0  0.10284541395E+03 -0.49019389351E+02  0.95403996510E+02  0.14867445057E+03  0.47000000000E+01 0. -1.
         13    1    4    4    0    0  0.16992020034E+02  0.30627770017E+01  0.15291328335E+02  0.23063695932E+02  0.00000000000E+00 0. -1.
        -14    1    4    4    0    0 -0.61996120223E+02  0.66038652884E+02 -0.29983528440E+02  0.95412968590E+02  0.00000000000E+00 0.  1.
         -5    1    3    3    0  504 -0.32332994024E+02  0.13871105645E+02  0.99358075240E+02  0.10550804325E+03  0.47000000000E+01 0.  1.
<mgrwt>
<rscale>  2 0.20726048E+03</rscale>
<asrwt>0</asrwt>
<pdfrwt beam="1">  1       21 0.62936385E-01 0.20736644E+03</pdfrwt>
<pdfrwt beam="2">  1       21 0.17182222E-01 0.20736644E+03</pdfrwt>
<totfact> 0.71038331E+04</totfact>
</mgrwt>
</event>
<event>
12    1  0.1410528E-001  0.2232092E+03  0.7546771E-02  0.1132411E+00
         21   -1    0    0  502  503  0.00000000000E+00  0.00000000000E+00  0.48312805338E+03  0.48312805338E+03  0.00000000000E+00 0.  1.
         21   -1    0    0  503  504 -0.00000000000E+00 -0.00000000000E+00 -0.10656328843E+03  0.10656328843E+03  0.00000000000E+00 0. -1.
         -6    2    1    2    0  504  0.37527676741E+02 -0.13514747432E+03  0.12223697111E+03  0.25448814516E+03  0.17363517093E+03 0.  0.
        -24    2    3    3    0    0 -0.28601503073E+02 -0.11751909817E+03  0.48036041756E+02  0.15343520861E+03  0.81278026067E+02 0.  0.
          6    2    1    2  502    0 -0.37527676741E+02  0.13514747432E+03  0.25432779385E+03  0.33520319665E+03  0.16734811019E+03 0.  0.
         24    2    5    5    0    0 -0.54464724097E+02  0.14186301938E+03  0.14654077843E+03  0.22578613760E+03  0.80085315447E+02 0.  0.
          4    1    6    6  501    0 -0.33483053989E+02  0.54619081291E+02  0.13756248205E+02  0.65525516482E+02  0.00000000000E+00 0. -1.
         -3    1    6    6    0  501 -0.20981670108E+02  0.87243938089E+02  0.13278453022E+03  0.16026062111E+03  0.00000000000E+00 0.  1.
          5    1    5    5  502    0  0.16937047357E+02 -0.67155450624E+01  0.10778701542E+03  0.10941705905E+03  0.47000000000E+01 0. -1.
         13    1    4    4    0    0  0.24384284145E+02 -0.26540246179E+02 -0.35074264082E+01  0.36211600635E+02  0.00000000000E+00 0. -1.
        -14    1    4    4    0    0 -0.52985787218E+02 -0.90978851991E+02  0.51543468165E+02  0.11722360798E+03  0.00000000000E+00 0.  1.
         -5    1    3    3    0  504  0.66129179814E+02 -0.17628376147E+02  0.74200929351E+02  0.10105293655E+03  0.47000000000E+01 0.  1.
<mgrwt>
<rscale>  2 0.22198541E+03</rscale>
<asrwt>0</asrwt>
<pdfrwt beam="1">  1       21 0.74327392E-01 0.22320918E+03</pdfrwt>
<pdfrwt beam="2">  1       21 0.16394352E-01 0.22320918E+03</pdfrwt>
<totfact> 0.53320262E+04</totfact>
</mgrwt>
</event>
<event>
12    1  0.1410528E-001  0.2065733E+03  0.7546771E-02  0.1144593E+00
         21   -1    0    0  502  503  0.00000000000E+00  0.00000000000E+00  0.19118863803E+03  0.19118863803E+03  0.00000000000E+00 0. -1.
         21   -1    0    0  503  504 -0.00000000000E+00 -0.00000000000E+00 -0.76174738285E+03  0.76174738285E+03  0.00000000000E+00 0. -1.
         -6    2    1    2    0  504 -0.75305829163E+01  0.10974072769E+03 -0.68618591174E+03  0.71620376428E+03  0.17319638999E+03 0.  0.
        -24    2    3    3    0    0  0.42021217121E+02  0.49228674003E+02 -0.54538637695E+03  0.55507124576E+03  0.80427250790E+02 0.  0.
          6    2    1    2  502    0  0.75305829163E+01 -0.10974072769E+03  0.11562716693E+03  0.23673225660E+03  0.17485074375E+03 0.  0.
         24    2    5    5    0    0 -0.49744859413E+02 -0.38075709106E+02  0.10238315329E+03  0.14392145400E+03  0.79415138234E+02 0.  0.
          4    1    6    6  501    0 -0.19883433496E+02 -0.22638264964E+02  0.10591811478E+03  0.11012033875E+03  0.00000000000E+00 0. -1.
         -3    1    6    6    0  501 -0.29861425916E+02 -0.15437444143E+02 -0.35349614844E+01  0.33801115249E+02  0.00000000000E+00 0.  1.
          5    1    5    5  502    0  0.57275442329E+02 -0.71665018585E+02  0.13244013636E+02  0.92810802604E+02  0.47000000000E+01 0. -1.
         13    1    4    4    0    0  0.33952273641E+02  0.29755007397E+02 -0.52051379063E+03  0.52246791632E+03  0.00000000000E+00 0. -1.
        -14    1    4    4    0    0  0.80689434799E+01  0.19473666606E+02 -0.24872586326E+02  0.32603329439E+02  0.00000000000E+00 0.  1.
         -5    1    3    3    0  504 -0.49551800038E+02  0.60512053689E+02 -0.14079953479E+03  0.16113251852E+03  0.47000000000E+01 0.  1.
<mgrwt>
<rscale>  2 0.20622279E+03</rscale>
<asrwt>0</asrwt>
<pdfrwt beam="1">  1       21 0.29413637E-01 0.20657328E+03</pdfrwt>
<pdfrwt beam="2">  1       21 0.11719190E+00 0.20657328E+03</pdfrwt>
<totfact> 0.61331467E+03</totfact>
</mgrwt>
</event>
<event>
12    1  0.1410528E-001  0.1769104E+03  0.7546771E-02  0.1171147E+00
         21   -1    0    0  502  503  0.00000000000E+00  0.00000000000E+00  0.35617155840E+02  0.35617155840E+02  0.00000000000E+00 0. -1.
         21   -1    0    0  503  504 -0.00000000000E+00 -0.00000000000E+00 -0.11771098161E+04  0.11771098161E+04  0.00000000000E+00 0. -1.
         -6    2    1    2    0  504  0.29189320218E+02 -0.12600133046E+02 -0.87774609553E+03  0.89514305780E+03  0.17271973235E+03 0.  0.
        -24    2    3    3    0    0  0.30058840781E+02  0.58477794388E+02 -0.57622739805E+03  0.58532304107E+03  0.79005454259E+02 0.  0.
          6    2    1    2  502    0 -0.29189320218E+02  0.12600133046E+02 -0.26374656473E+03  0.31758391414E+03  0.17403020527E+03 0.  0.
         24    2    5    5    0    0  0.47335125847E+02  0.25045678605E+02 -0.17049313002E+03  0.19622009937E+03  0.81034066033E+02 0.  0.
          2    1    6    6  501    0  0.27865196049E+02  0.43233660784E+02 -0.46311935381E+02  0.69212816258E+02  0.00000000000E+00 0. -1.
         -1    1    6    6    0  501  0.19469929798E+02 -0.18187982179E+02 -0.12418119464E+03  0.12700728311E+03  0.00000000000E+00 0.  1.
          5    1    5    5  502    0 -0.76524446065E+02 -0.12445545559E+02 -0.93253434716E+02  0.12136381477E+03  0.47000000000E+01 0. -1.
         13    1    4    4    0    0  0.63769626064E+01  0.65707749187E+02 -0.26450993599E+03  0.27262369705E+03  0.00000000000E+00 0. -1.
        -14    1    4    4    0    0  0.23681878175E+02 -0.72299547989E+01 -0.31171746205E+03  0.31269934402E+03  0.00000000000E+00 0.  1.
         -5    1    3    3    0  504 -0.86952056372E+00 -0.71077927435E+02 -0.30151869748E+03  0.30982001673E+03  0.47000000000E+01 0.  1.
<mgrwt>
<rscale>  2 0.17658728E+03</rscale>
<asrwt>0</asrwt>
<pdfrwt beam="1">  1       21 0.54795631E-02 0.17691041E+03</pdfrwt>
<pdfrwt beam="2">  1       21 0.18109380E+00 0.17691041E+03</pdfrwt>
<totfact> 0.41601016E+04</totfact>
</mgrwt>
</event>
<event>
12    1  0.1410528E-001  0.1969669E+03  0.7546771E-02  0.1152615E+00
         21   -1    0    0  502  503  0.00000000000E+00  0.00000000000E+00  0.14295796540E+03  0.14295796540E+03  0.00000000000E+00 0.  1.
         21   -1    0    0  503  504 -0.00000000000E+00 -0.00000000000E+00 -0.37607908642E+03  0.37607908642E+03  0.00000000000E+00 0.  1.
         -6    2    1    2    0  504 -0.21859650809E+02  0.89371717925E+02 -0.25441082695E+03  0.32092287521E+03  0.17263103622E+03 0.  0.
        -24    2    3    3    0    0 -0.18980579542E+01  0.87937288291E+02 -0.27001868179E+03  0.29511167783E+03  0.80276052346E+02 0.  0.
          6    2    1    2  502    0  0.21859650809E+02 -0.89371717925E+02  0.21289705933E+02  0.19811417660E+03  0.17415747786E+03 0.  0.
         24    2    5    5    0    0  0.74348500092E+02 -0.41008358809E+02  0.41390941290E+02  0.12381583566E+03  0.80048523914E+02 0.  0.
          4    1    6    6  501    0  0.44343521267E+02  0.66252005807E+01  0.49671333557E+02  0.66913993592E+02  0.00000000000E+00 0. -1.
         -3    1    6    6    0  501  0.30004978825E+02 -0.47633559390E+02 -0.82803922673E+01  0.56901842066E+02  0.00000000000E+00 0.  1.
          5    1    5    5  502    0 -0.52488849283E+02 -0.48363359116E+02 -0.20101235357E+02  0.74298340943E+02  0.47000000000E+01 0. -1.
         11    1    4    4    0    0 -0.84311552109E+01 -0.10076156846E+02 -0.82373951235E+01  0.15507030451E+02  0.00000000000E+00 0. -1.
        -12    1    4    4    0    0  0.65330972567E+01  0.98013445137E+02 -0.26178128667E+03  0.27960464738E+03  0.00000000000E+00 0.  1.
         -5    1    3    3    0  504 -0.19961592855E+02  0.14344296342E+01  0.15607854838E+02  0.25811197383E+02  0.47000000000E+01 0.  1.
<mgrwt>
<rscale>  2 0.19662898E+03</rscale>
<asrwt>0</asrwt>
<pdfrwt beam="1">  1       21 0.21993533E-01 0.19696694E+03</pdfrwt>
<pdfrwt beam="2">  1       21 0.57858321E-01 0.19696694E+03</pdfrwt>
<totfact> 0.53984601E+04</totfact>
</mgrwt>
</event>
<event>
12    1  0.1410528E-001  0.2074486E+03  0.7546771E-02  0.1144500E+00
         21   -1    0    0  502  503  0.00000000000E+00  0.00000000000E+00  0.16686189151E+03  0.16686189151E+03  0.00000000000E+00 0.  1.
         21   -1    0    0  503  504 -0.00000000000E+00 -0.00000000000E+00 -0.48220043208E+03  0.48220043208E+03  0.00000000000E+00 0.  1.
         -6    2    1    2    0  504 -0.10603377109E+03 -0.14142334759E+02 -0.38256184350E+03  0.43518789344E+03  0.17774074448E+03 0.  0.
        -24    2    3    3    0    0 -0.71912452700E+02 -0.63105568474E+02 -0.33855884418E+03  0.36089107942E+03  0.80414965065E+02 0.  0.
          6    2    1    2  502    0  0.10603377109E+03  0.14142334759E+02  0.67223302925E+02  0.21387443015E+03  0.17256921270E+03 0.  0.
         24    2    5    5    0    0  0.49806525930E+01  0.51222983373E+02  0.31579879101E+02  0.10038764272E+03  0.80198435899E+02 0.  0.
          2    1    6    6  501    0  0.42458281856E+02  0.31175708264E+02  0.15035384981E+02  0.54778584186E+02  0.00000000000E+00 0. -1.
         -1    1    6    6    0  501 -0.37477629263E+02  0.20047275109E+02  0.16544494120E+02  0.45609058532E+02  0.00000000000E+00 0.  1.
          5    1    5    5  502    0  0.10105311850E+03 -0.37080648614E+02  0.35643423824E+02  0.11348678743E+03  0.47000000000E+01 0. -1.
         11    1    4    4    0    0 -0.73160752815E+02 -0.52356780143E+02 -0.17313742267E+03  0.19511610725E+03  0.00000000000E+00 0. -1.
        -12    1    4    4    0    0  0.12483001149E+01 -0.10748788330E+02 -0.16542142150E+03  0.16577497216E+03  0.00000000000E+00 0.  1.
         -5    1    3    3    0  504 -0.34121318391E+02  0.48963233714E+02 -0.44002999323E+02  0.74296814023E+02  0.47000000000E+01 0.  1.
<mgrwt>
<rscale>  2 0.20633637E+03</rscale>
<asrwt>0</asrwt>
<pdfrwt beam="1">  1       21 0.25671060E-01 0.20744864E+03</pdfrwt>
<pdfrwt beam="2">  1       21 0.74184681E-01 0.20744864E+03</pdfrwt>
<totfact> 0.23255919E+04</totfact>
</mgrwt>
</event>
<event>
12    1  0.1410528E-001  0.1875190E+03  0.7546771E-02  0.1160822E+00
         21   -1    0    0  502  503  0.00000000000E+00  0.00000000000E+00  0.21365701136E+03  0.21365701136E+03  0.00000000000E+00 0.  1.
         21   -1    0    0  503  504 -0.00000000000E+00 -0.00000000000E+00 -0.57286566745E+03  0.57286566745E+03  0.00000000000E+00 0.  1.
         -6    2    1    2    0  504  0.56304305860E+02 -0.41665314140E+02 -0.51170249346E+03  0.54482505581E+03  0.17346102258E+03 0.  0.
        -24    2    3    3    0    0  0.13375097521E+02 -0.48605362417E+02 -0.13305084144E+03  0.16365548097E+03  0.80865416308E+02 0.  0.
          6    2    1    2  502    0 -0.56304305860E+02  0.41665314140E+02  0.15249383738E+03  0.24169762301E+03  0.17394596077E+03 0.  0.
         24    2    5    5    0    0 -0.75324855627E+02  0.69763252037E+02  0.65323384885E+02  0.14803838312E+03  0.84305830491E+02 0.  0.
          4    1    6    6  501    0 -0.92990645958E+02  0.49830439186E+02  0.45790501083E+02  0.11500914266E+03  0.00000000000E+00 0. -1.
         -3    1    6    6    0  501  0.17665790331E+02  0.19932812851E+02  0.19532883802E+02  0.33029240467E+02  0.00000000000E+00 0.  1.
          5    1    5    5  502    0  0.19020549767E+02 -0.28097937897E+02  0.87170452494E+02  0.93659239883E+02  0.47000000000E+01 0. -1.
         13    1    4    4    0    0 -0.25899562173E+02  0.73463972632E+01 -0.38706592681E+02  0.47148246950E+02  0.00000000000E+00 0. -1.
        -14    1    4    4    0    0  0.39274659694E+02 -0.55951759681E+02 -0.94344248756E+02  0.11650723402E+03  0.00000000000E+00 0.  1.
         -5    1    3    3    0  504  0.42929208339E+02  0.69400482769E+01 -0.37865165203E+03  0.38116957484E+03  0.47000000000E+01 0.  1.
<mgrwt>
<rscale>  2 0.18740645E+03</rscale>
<asrwt>0</asrwt>
<pdfrwt beam="1">  1       21 0.32870310E-01 0.18751899E+03</pdfrwt>
<pdfrwt beam="2">  1       21 0.88133178E-01 0.18751899E+03</pdfrwt>
<totfact> 0.98597131E+03</totfact>
</mgrwt>
</event>
<event>
12    1  0.1410528E-001  0.4693184E+03  0.7546771E-02  0.1022218E+00
         21   -1    0    0  502  503  0.00000000000E+00  0.00000000000E+00  0.76459604929E+03  0.76459604929E+03  0.00000000000E+00 0. -1.
         21   -1    0    0  503  504 -0.00000000000E+00 -0.00000000000E+00 -0.86306638635E+03  0.86306638635E+03  0.00000000000E+00 0.  1.
         -6    2    1    2    0  504  0.22509519727E+03 -0.37217672196E+03 -0.71400187632E+03  0.85362187369E+03  0.17230282543E+03 0.  0.
        -24    2    3    3    0    0  0.12376198705E+03 -0.25627699705E+03 -0.57295875557E+03  0.64477643410E+03  0.80374036420E+02 0.  0.
          6    2    1    2  502    0 -0.22509519727E+03  0.37217672196E+03  0.61553153926E+03  0.77404056196E+03  0.17628487040E+03 0.  0.
         24    2    5    5    0    0 -0.64690211530E+02  0.21004463983E+03  0.37844010609E+03  0.44502535078E+03  0.80790313463E+02 0.  0.
          2    1    6    6  501    0 -0.50249916334E+02  0.19661192602E+03  0.28709112811E+03  0.35157164189E+03  0.00000000000E+00 0. -1.
         -1    1    6    6    0  501 -0.14440295196E+02  0.13432713802E+02  0.91348977984E+02  0.93453708884E+02  0.00000000000E+00 0.  1.
          5    1    5    5  502    0 -0.16040498574E+03  0.16213208213E+03  0.23709143317E+03  0.32901521118E+03  0.47000000000E+01 0. -1.
         13    1    4    4    0    0 -0.72810227600E+01 -0.36080433219E+02 -0.10486869233E+03  0.11114069274E+03  0.00000000000E+00 0. -1.
        -14    1    4    4    0    0  0.13104300981E+03 -0.22019656383E+03 -0.46809006324E+03  0.53363574135E+03  0.00000000000E+00 0.  1.
         -5    1    3    3    0  504  0.10133321021E+03 -0.11589972491E+03 -0.14104312075E+03  0.20884543959E+03  0.47000000000E+01 0.  1.
<mgrwt>
<rscale>  2 0.46894762E+03</rscale>
<asrwt>0</asrwt>
<pdfrwt beam="1">  1       21 0.11763016E+00 0.46931835E+03</pdfrwt>
<pdfrwt beam="2">  1       21 0.13277944E+00 0.46931835E+03</pdfrwt>
<totfact> 0.18366200E+02</totfact>
</mgrwt>
</event>
<event>
12    1  0.1410528E-001  0.1731538E+03  0.7546771E-02  0.1175379E+00
         21   -1    0    0  502  503  0.00000000000E+00  0.00000000000E+00  0.15255512687E+02  0.15255512687E+02  0.00000000000E+00 0. -1.
         21   -1    0    0  503  504 -0.00000000000E+00 -0.00000000000E+00 -0.22545336187E+04  0.22545336187E+04  0.00000000000E+00 0. -1.
         -6    2    1    2    0  504  0.77880733181E+00 -0.48952178915E+01 -0.15410580163E+04  0.15504188995E+04  0.17004230215E+03 0.  0.
        -24    2    3    3    0    0  0.39735028480E+02 -0.32780455326E+02 -0.57486702300E+03  0.58302947469E+03  0.82449035685E+02 0.  0.
          6    2    1    2  502    0 -0.77880733181E+00  0.48952178915E+01 -0.69822008965E+03  0.71937023185E+03  0.17308283333E+03 0.  0.
         24    2    5    5    0    0 -0.19205557470E+02  0.11542097373E+01 -0.69469074575E+03  0.69967031990E+03  0.81074895514E+02 0.  0.
          2    1    6    6  501    0 -0.36924554771E+02 -0.27877621744E+02 -0.48929692590E+03  0.49147946675E+03  0.00000000000E+00 0. -1.
         -1    1    6    6    0  501  0.17718997300E+02  0.29031831481E+02 -0.20539381984E+03  0.20819085315E+03  0.00000000000E+00 0.  1.
          5    1    5    5  502    0  0.18426750139E+02  0.37410081542E+01 -0.35293438985E+01  0.19699911955E+02  0.47000000000E+01 0. -1.
         11    1    4    4    0    0  0.24113038492E+02  0.22364896988E+02 -0.32565527922E+03  0.32731175983E+03  0.00000000000E+00 0. -1.
        -12    1    4    4    0    0  0.15621989987E+02 -0.55145352314E+02 -0.24921174378E+03  0.25571771486E+03  0.00000000000E+00 0.  1.
         -5    1    3    3    0  504 -0.38956221148E+02  0.27885237434E+02 -0.96619099333E+03  0.96738942480E+03  0.47000000000E+01 0.  1.
<mgrwt>
<rscale>  2 0.17238893E+03</rscale>
<asrwt>0</asrwt>
<pdfrwt beam="1">  1       21 0.23470039E-02 0.17315380E+03</pdfrwt>
<pdfrwt beam="2">  1       21 0.34685103E+00 0.17315380E+03</pdfrwt>
<totfact> 0.17701625E+04</totfact>
</mgrwt>
</event>
<event>
12    1  0.1410528E-001  0.1832021E+03  0.7546771E-02  0.1164743E+00
         21   -1    0    0  502  503  0.00000000000E+00  0.00000000000E+00  0.76050476476E+02  0.76050476476E+02  0.00000000000E+00 0.  1.
         21   -1    0    0  503  504 -0.00000000000E+00 -0.00000000000E+00 -0.55105849178E+03  0.55105849178E+03  0.00000000000E+00 0.  1.
         -6    2    1    2    0  504  0.44958954452E+02  0.38534001738E+02 -0.37745810506E+03  0.41956838274E+03  0.17336905677E+03 0.  0.
        -24    2    3    3    0    0  0.89030104153E+02  0.47482487139E+02 -0.21166999100E+03  0.24772505180E+03  0.79890989272E+02 0.  0.
          6    2    1    2  502    0 -0.44958954452E+02 -0.38534001738E+02 -0.97549910244E+02  0.20754058551E+03  0.17335204865E+03 0.  0.
         24    2    5    5    0    0 -0.61696349474E+02  0.75682439335E+01 -0.13787512612E+00  0.98376708550E+02  0.76251163407E+02 0.  0.
          2    1    6    6  501    0 -0.72542563774E+02  0.23933908892E+02  0.86291843492E+01  0.76874692691E+02  0.00000000000E+00 0. -1.
         -1    1    6    6    0  501  0.10846214300E+02 -0.16365664958E+02 -0.87670594753E+01  0.21502015859E+02  0.00000000000E+00 0.  1.
          5    1    5    5  502    0  0.16737395021E+02 -0.46102245672E+02 -0.97412035118E+02  0.10916387696E+03  0.47000000000E+01 0. -1.
         13    1    4    4    0    0  0.57630258436E+02 -0.14121676158E+02 -0.10498616905E+03  0.12059338339E+03  0.00000000000E+00 0. -1.
        -14    1    4    4    0    0  0.31399845718E+02  0.61604163297E+02 -0.10668382195E+03  0.12713166841E+03  0.00000000000E+00 0.  1.
         -5    1    3    3    0  504 -0.44071149701E+02 -0.89484854012E+01 -0.16578811406E+03  0.17184333094E+03  0.47000000000E+01 0.  1.
<mgrwt>
<rscale>  2 0.18319807E+03</rscale>
<asrwt>0</asrwt>
<pdfrwt beam="1">  1       21 0.11700074E-01 0.18320209E+03</pdfrwt>
<pdfrwt beam="2">  1       21 0.84778228E-01 0.18320209E+03</pdfrwt>
<totfact> 0.74315229E+04</totfact>
</mgrwt>
</event>
<event>
12    1  0.1410528E-001  0.1979602E+03  0.7546771E-02  0.1151670E+00
         21   -1    0    0  502  503  0.00000000000E+00  0.00000000000E+00  0.40595934424E+03  0.40595934424E+03  0.00000000000E+00 0.  1.
         21   -1    0    0  503  504 -0.00000000000E+00 -0.00000000000E+00 -0.12031389705E+03  0.12031389705E+03  0.00000000000E+00 0. -1.
         -6    2    1    2    0  504 -0.14641020293E+02  0.95786889720E+02  0.26118098320E+03  0.32772510534E+03  0.17262314725E+03 0.  0.
        -24    2    3    3    0    0  0.14316990849E+02  0.73306723302E+02  0.65094036489E+02  0.12818537255E+03  0.81335135338E+02 0.  0.
          6    2    1    2  502    0  0.14641020293E+02 -0.95786889720E+02  0.24464463986E+02  0.19854813595E+03  0.17156154748E+03 0.  0.
         24    2    5    5    0    0 -0.39201628056E+02 -0.50539784578E+01 -0.30060467549E+01  0.89423386571E+02  0.80157316623E+02 0.  0.
          2    1    6    6  501    0 -0.51481721469E+02 -0.50425191618E+01  0.26022087138E+02  0.57904608313E+02  0.00000000000E+00 0. -1.
         -1    1    6    6    0  501  0.12280093413E+02 -0.11459296015E-01 -0.29028133893E+02  0.31518778258E+02  0.00000000000E+00 0.  1.
          5    1    5    5  502    0  0.53842648349E+02 -0.90732911263E+02  0.27470510741E+02  0.10912474938E+03  0.47000000000E+01 0. -1.
         11    1    4    4    0    0  0.30571486456E+02 -0.44691260556E+01  0.16123767532E+02  0.34850606182E+02  0.00000000000E+00 0. -1.
        -12    1    4    4    0    0 -0.16254495607E+02  0.77775849358E+02  0.48970268957E+02  0.93334766366E+02  0.00000000000E+00 0.  1.
         -5    1    3    3    0  504 -0.28958011143E+02  0.22480166418E+02  0.19608694671E+03  0.19953973279E+03  0.47000000000E+01 0.  1.
<mgrwt>
<rscale>  2 0.19772853E+03</rscale>
<asrwt>0</asrwt>
<pdfrwt beam="1">  1       21 0.62455283E-01 0.19796019E+03</pdfrwt>
<pdfrwt beam="2">  1       21 0.18509831E-01 0.19796019E+03</pdfrwt>
<totfact> 0.63210109E+04</totfact>
</mgrwt>
</event>
<event>
12    1  0.1410528E-001  0.1760752E+03  0.7546771E-02  0.1172141E+00
         21   -1    0    0  502  503  0.00000000000E+00  0.00000000000E+00  0.90239423637E+03  0.90239423637E+03  0.00000000000E+00 0. -1.
         21   -1    0    0  503  504 -0.00000000000E+00 -0.00000000000E+00 -0.51080157294E+02  0.51080157294E+02  0.00000000000E+00 0. -1.
         -6    2    1    2    0  504  0.13228716463E+02  0.87691688558E+00  0.15138187785E+03  0.23220456999E+03  0.17557540107E+03 0.  0.
        -24    2    3    3    0    0  0.38952976397E+02  0.47354013918E+02  0.39710054496E+02  0.10845262362E+03  0.80158256834E+02 0.  0.
          6    2    1    2  502    0 -0.13228716463E+02 -0.87691688558E+00  0.69993220122E+03  0.72126982367E+03  0.17363555025E+03 0.  0.
         24    2    5    5    0    0 -0.12120707881E+02  0.61377012157E+02  0.31536306622E+03  0.33166452474E+03  0.81445959081E+02 0.  0.
          2    1    6    6  501    0 -0.21617599452E+02 -0.12348656283E+02  0.46875289259E+02  0.53076385156E+02  0.00000000000E+00 0. -1.
         -1    1    6    6    0  501  0.94968915712E+01  0.73725668440E+02  0.26848777696E+03  0.27858813958E+03  0.00000000000E+00 0.  1.
          5    1    5    5  502    0 -0.11080085825E+01 -0.62253929042E+02  0.38456913500E+03  0.38960529894E+03  0.47000000000E+01 0. -1.
         13    1    4    4    0    0  0.41353685388E-01 -0.17203697335E+02 -0.82820537671E+01  0.19093489118E+02  0.00000000000E+00 0. -1.
        -14    1    4    4    0    0  0.38911622711E+02  0.64557711252E+02  0.47992108263E+02  0.89359134506E+02  0.00000000000E+00 0.  1.
         -5    1    3    3    0  504 -0.25724259933E+02 -0.46477097032E+02  0.11167182335E+03  0.12375194636E+03  0.47000000000E+01 0.  1.
<mgrwt>
<rscale>  2 0.17558966E+03</rscale>
<asrwt>0</asrwt>
<pdfrwt beam="1">  1       21 0.13882987E+00 0.17607524E+03</pdfrwt>
<pdfrwt beam="2">  1       21 0.78584864E-02 0.17607524E+03</pdfrwt>
<totfact> 0.45687435E+04</totfact>
</mgrwt>
</event>
<event>
12    1  0.1410528E-001  0.1859999E+03  0.7546771E-02  0.1162124E+00
         21   -1    0    0  502  503  0.00000000000E+00  0.00000000000E+00  0.70331150690E+03  0.70331150690E+03  0.00000000000E+00 0.  1.
         21   -1    0    0  503  504 -0.00000000000E+00 -0.00000000000E+00 -0.92542589341E+02  0.92542589341E+02  0.00000000000E+00 0.  1.
         -6    2    1    2    0  504  0.69837255694E+02 -0.22977323115E+01  0.33018649022E+02  0.18890787307E+03  0.17237584363E+03 0.  0.
        -24    2    3    3    0    0 -0.20200497030E+02 -0.55641769915E+00  0.34876839164E+02  0.98711576232E+02  0.90106668406E+02 0.  0.
          6    2    1    2  502    0 -0.69837255694E+02  0.22977323115E+01  0.57775026854E+03  0.60694622317E+03  0.17235377331E+03 0.  0.
         24    2    5    5    0    0 -0.76290483922E+02  0.60081462458E+02  0.42190608033E+03  0.44054278384E+03  0.81505728061E+02 0.  0.
          2    1    6    6  501    0 -0.74727844631E+02  0.86076695269E+01  0.24371625122E+03  0.25506068659E+03  0.00000000000E+00 0. -1.
         -1    1    6    6    0  501 -0.15626392910E+01  0.51473792931E+02  0.17818982912E+03  0.18548209725E+03  0.00000000000E+00 0.  1.
          5    1    5    5  502    0  0.64532282282E+01 -0.57783730146E+02  0.15584418820E+03  0.16640343933E+03  0.47000000000E+01 0. -1.
         13    1    4    4    0    0 -0.40852386005E+02 -0.69899026787E+00 -0.15940607953E+02  0.43857827256E+02  0.00000000000E+00 0. -1.
        -14    1    4    4    0    0  0.20651888975E+02  0.14257256872E+00  0.50817447117E+02  0.54853748976E+02  0.00000000000E+00 0.  1.
         -5    1    3    3    0  504  0.90037752723E+02 -0.17413146123E+01 -0.18581901417E+01  0.90196296834E+02  0.47000000000E+01 0.  1.
<mgrwt>
<rscale>  2 0.18599476E+03</rscale>
<asrwt>0</asrwt>
<pdfrwt beam="1">  1       21 0.10820177E+00 0.18599987E+03</pdfrwt>
<pdfrwt beam="2">  1       21 0.14237322E-01 0.18599987E+03</pdfrwt>
<totfact> 0.29424864E+04</totfact>
</mgrwt>
</event>
<event>
12    1  0.1410528E-001  0.1876328E+03  0.7546771E-02  0.1160718E+00
         21   -1    0    0  502  503  0.00000000000E+00  0.00000000000E+00  0.48929632198E+03  0.48929632198E+03  0.00000000000E+00 0.  1.
         21   -1    0    0  503  504 -0.00000000000E+00 -0.00000000000E+00 -0.10205249908E+03  0.10205249908E+03  0.00000000000E+00 0. -1.
         -6    2    1    2    0  504 -0.24553405810E+01  0.70443574804E+02  0.35449833807E+03  0.40088014547E+03  0.17339980798E+03 0.  0.
        -24    2    3    3    0    0  0.22682713784E+01  0.68744705611E+02  0.36956440581E+03  0.38431889360E+03  0.79951124681E+02 0.  0.
          6    2    1    2  502    0  0.24553405810E+01 -0.70443574804E+02  0.32745484821E+02  0.19046867559E+03  0.17388997578E+03 0.  0.
         24    2    5    5    0    0  0.22545730843E+02 -0.10750480985E+03  0.48873246693E+02  0.14508857392E+03  0.81218876631E+02 0.  0.
          4    1    6    6  501    0 -0.30004774890E+02 -0.35656123759E+02  0.25202878809E+02  0.52979531689E+02  0.00000000000E+00 0. -1.
         -3    1    6    6    0  501  0.52550505733E+02 -0.71848686090E+02  0.23670367884E+02  0.92109042235E+02  0.00000000000E+00 0.  1.
          5    1    5    5  502    0 -0.20090390262E+02  0.37061235046E+02 -0.16127761872E+02  0.45380101664E+02  0.47000000000E+01 0. -1.
         13    1    4    4    0    0  0.19657181957E+02 -0.26684562469E+01  0.24553464772E+02  0.31565774084E+02  0.00000000000E+00 0. -1.
        -14    1    4    4    0    0 -0.17388910579E+02  0.71413161858E+02  0.34501094103E+03  0.35275311952E+03  0.00000000000E+00 0.  1.
         -5    1    3    3    0  504 -0.47236119594E+01  0.16988691929E+01 -0.15066067734E+02  0.16561251868E+02  0.47000000000E+01 0.  1.
<mgrwt>
<rscale>  2 0.18751910E+03</rscale>
<asrwt>0</asrwt>
<pdfrwt beam="1">  1       21 0.75276356E-01 0.18763275E+03</pdfrwt>
<pdfrwt beam="2">  1       21 0.15700385E-01 0.18763275E+03</pdfrwt>
<totfact> 0.57050722E+04</totfact>
</mgrwt>
</event>
<event>
12    1  0.1410528E-001  0.1900206E+03  0.7546771E-02  0.1159873E+00
         21   -1    0    0  502  503  0.00000000000E+00  0.00000000000E+00  0.10800143409E+03  0.10800143409E+03  0.00000000000E+00 0.  1.
         21   -1    0    0  503  504 -0.00000000000E+00 -0.00000000000E+00 -0.47736773384E+03  0.47736773384E+03  0.00000000000E+00 0.  1.
         -6    2    1    2    0  504 -0.76138642672E+02  0.13661561570E+02 -0.35294647251E+03  0.40084787882E+03  0.17356289443E+03 0.  0.
        -24    2    3    3    0    0 -0.75346600968E+02  0.28452398877E+02 -0.36464302218E+03  0.38139805947E+03  0.77545450300E+02 0.  0.
          6    2    1    2  502    0  0.76138642672E+02 -0.13661561570E+02 -0.16419827238E+02  0.18452128911E+03  0.16671761826E+03 0.  0.
         24    2    5    5    0    0 -0.18574233703E+02 -0.25073125099E+02  0.81962601867E+01  0.85886637527E+02  0.79596935022E+02 0.  0.
          2    1    6    6  501    0  0.12890998758E+02  0.12871977719E+02  0.27467567824E+02  0.32959565251E+02  0.00000000000E+00 0. -1.
         -1    1    6    6    0  501 -0.31465232460E+02 -0.37945102818E+02 -0.19271307637E+02  0.52927072276E+02  0.00000000000E+00 0.  1.
          5    1    5    5  502    0  0.94712876375E+02  0.11411563529E+02 -0.24616087425E+02  0.98634651586E+02  0.47000000000E+01 0. -1.
         13    1    4    4    0    0 -0.13002584096E+02  0.89770188741E+01 -0.60721971133E+01  0.16927068229E+02  0.00000000000E+00 0. -1.
        -14    1    4    4    0    0 -0.62344016872E+02  0.19475380002E+02 -0.35857082507E+03  0.36447099124E+03  0.00000000000E+00 0.  1.
         -5    1    3    3    0  504 -0.79204170429E+00 -0.14790837307E+02  0.11696549673E+02  0.19449819345E+02  0.47000000000E+01 0.  1.
<mgrwt>
<rscale>  2 0.18844320E+03</rscale>
<asrwt>0</asrwt>
<pdfrwt beam="1">  1       21 0.16615605E-01 0.19002055E+03</pdfrwt>
<pdfrwt beam="2">  1       21 0.73441192E-01 0.19002055E+03</pdfrwt>
<totfact> 0.54277002E+04</totfact>
</mgrwt>
</event>
<event>
12    1  0.1410528E-001  0.1816187E+03  0.7546771E-02  0.1166514E+00
         21   -1    0    0  502  503  0.00000000000E+00  0.00000000000E+00  0.86745458280E+02  0.86745458280E+02  0.00000000000E+00 0. -1.
         21   -1    0    0  503  504 -0.00000000000E+00 -0.00000000000E+00 -0.95030283960E+03  0.95030283960E+03  0.00000000000E+00 0. -1.
         -6    2    1    2    0  504  0.51245224664E+02  0.11776269703E+02 -0.83472964378E+03  0.85425928012E+03  0.17384069111E+03 0.  0.
        -24    2    3    3    0    0  0.95264030563E+02 -0.19227284987E+02 -0.62869725665E+03  0.64125620450E+03  0.80649583295E+02 0.  0.
          6    2    1    2  502    0 -0.51245224664E+02 -0.11776269703E+02 -0.28827737542E+02  0.18278901776E+03  0.17267319706E+03 0.  0.
         24    2    5    5    0    0  0.23877945409E+02  0.35362618729E+02 -0.80058923998E+01  0.91568380188E+02  0.80622595200E+02 0.  0.
          2    1    6    6  501    0  0.52023774000E+02  0.35570903740E+02 -0.69220207264E+01  0.63400919749E+02  0.00000000000E+00 0. -1.
         -1    1    6    6    0  501 -0.28145828591E+02 -0.20828501104E+00 -0.10838716733E+01  0.28167460438E+02  0.00000000000E+00 0.  1.
          5    1    5    5  502    0 -0.75123170073E+02 -0.47138888432E+02 -0.20821845142E+02  0.91220637575E+02  0.47000000000E+01 0. -1.
         11    1    4    4    0    0  0.10251914047E+03 -0.24386238635E+02 -0.44359949069E+03  0.45594448229E+03  0.00000000000E+00 0. -1.
        -12    1    4    4    0    0 -0.72551099093E+01  0.51589536480E+01 -0.18509776596E+03  0.18531172221E+03  0.00000000000E+00 0.  1.
         -5    1    3    3    0  504 -0.44018805900E+02  0.31003554690E+02 -0.20603238713E+03  0.21300307562E+03  0.47000000000E+01 0.  1.
<mgrwt>
<rscale>  2 0.18133872E+03</rscale>
<asrwt>0</asrwt>
<pdfrwt beam="1">  1       21 0.13345456E-01 0.18161866E+03</pdfrwt>
<pdfrwt beam="2">  1       21 0.14620043E+00 0.18161866E+03</pdfrwt>
<totfact> 0.15621304E+04</totfact>
</mgrwt>
</event>
<event>
12    1  0.1410528E-001  0.2860360E+03  0.7546771E-02  0.1092556E+00
         21   -1    0    0  502  503  0.00000000000E+00  0.00000000000E+00  0.62892662256E+02  0.62892662256E+02  0.00000000000E+00 0. -1.
         21   -1    0    0  503  504 -0.00000000000E+00 -0.00000000000E+00 -0.18142253894E+04  0.18142253894E+04  0.00000000000E+00 0. -1.
         -6    2    1    2    0  504 -0.19233247767E+03  0.12209908256E+03 -0.13759046554E+04  0.14051404933E+04  0.17148241120E+03 0.  0.
        -24    2    3    3    0    0 -0.19519475333E+03  0.14496458873E+03 -0.13178443958E+04  0.13424977943E+04  0.80440987925E+02 0.  0.
          6    2    1    2  502    0  0.19233247767E+03 -0.12209908256E+03 -0.37542807182E+03  0.47197755838E+03  0.17296418872E+03 0.  0.
         24    2    5    5    0    0  0.54294568495E+02  0.56403526929E+01 -0.14780845658E+03  0.17667329677E+03  0.79914956095E+02 0.  0.
          2    1    6    6  501    0  0.62354863466E+02  0.28586767704E+02 -0.12833446614E+03  0.14551655399E+03  0.00000000000E+00 0. -1.
         -1    1    6    6    0  501 -0.80602949704E+01 -0.22946415011E+02 -0.19473990437E+02  0.31156742776E+02  0.00000000000E+00 0.  1.
          5    1    5    5  502    0  0.13803790918E+03 -0.12773943525E+03 -0.22761961524E+03  0.29530426162E+03  0.47000000000E+01 0. -1.
         11    1    4    4    0    0 -0.76200750039E+02  0.24844858020E+02 -0.58105657190E+03  0.58655823327E+03  0.00000000000E+00 0. -1.
        -12    1    4    4    0    0 -0.11899400329E+03  0.12011973071E+03 -0.73678782388E+03  0.75593956104E+03  0.00000000000E+00 0.  1.
         -5    1    3    3    0  504  0.28622756612E+01 -0.22865506166E+02 -0.58060259590E+02  0.62642698999E+02  0.47000000000E+01 0.  1.
<mgrwt>
<rscale>  2 0.28581232E+03</rscale>
<asrwt>0</asrwt>
<pdfrwt beam="1">  1       21 0.96757926E-02 0.28603597E+03</pdfrwt>
<pdfrwt beam="2">  1       21 0.27911164E+00 0.28603597E+03</pdfrwt>
<totfact> 0.35468286E+03</totfact>
</mgrwt>
</event>
<event>
12    1  0.1410528E-001  0.1751102E+03  0.7546771E-02  0.1172979E+00
         21   -1    0    0  502  503  0.00000000000E+00  0.00000000000E+00  0.55893113583E+02  0.55893113583E+02  0.00000000000E+00 0. -1.
         21   -1    0    0  503  504 -0.00000000000E+00 -0.00000000000E+00 -0.58396271651E+03  0.58396271651E+03  0.00000000000E+00 0. -1.
         -6    2    1    2    0  504  0.21052381580E+02 -0.33838871611E+00 -0.34654287171E+03  0.38763460876E+03  0.17241029755E+03 0.  0.
        -24    2    3    3    0    0  0.54573345672E+02  0.50804770490E+02 -0.25546537966E+03  0.27783261731E+03  0.79806191979E+02 0.  0.
          6    2    1    2  502    0 -0.21052381580E+02  0.33838871611E+00 -0.18152673121E+03  0.25222122133E+03  0.17383979138E+03 0.  0.
         24    2    5    5    0    0 -0.14078886647E+02  0.48302405586E+02 -0.49947368648E+02  0.11192013367E+03  0.86602766991E+02 0.  0.
          4    1    6    6  501    0  0.33510052504E+02  0.76200590015E+01 -0.47271320172E+01  0.34689114937E+02  0.00000000000E+00 0. -1.
         -3    1    6    6    0  501 -0.47588939150E+02  0.40682346584E+02 -0.45220236631E+02  0.77231018730E+02  0.00000000000E+00 0.  1.
          5    1    5    5  502    0 -0.69734949332E+01 -0.47964016870E+02 -0.13157936256E+03  0.14030108766E+03  0.47000000000E+01 0. -1.
         13    1    4    4    0    0  0.40331834818E+02  0.66869486902E+02 -0.23693752595E+03  0.24947460067E+03  0.00000000000E+00 0. -1.
        -14    1    4    4    0    0  0.14241510854E+02 -0.16064716412E+02 -0.18527853709E+02  0.28358016642E+02  0.00000000000E+00 0.  1.
         -5    1    3    3    0  504 -0.33520964092E+02 -0.51143159206E+02 -0.91077492056E+02  0.10980199145E+03  0.47000000000E+01 0.  1.
<mgrwt>
<rscale>  2 0.17475438E+03</rscale>
<asrwt>0</asrwt>
<pdfrwt beam="1">  1       21 0.85989403E-02 0.17511022E+03</pdfrwt>
<pdfrwt beam="2">  1       21 0.89840421E-01 0.17511022E+03</pdfrwt>
<totfact> 0.11237708E+05</totfact>
</mgrwt>
</event>
<event>
12    1  0.1410528E-001  0.1872308E+03  0.7546771E-02  0.1161172E+00
         21   -1    0    0  502  503  0.00000000000E+00  0.00000000000E+00  0.31608407709E+03  0.31608407709E+03  0.00000000000E+00 0. -1.
         21   -1    0    0  503  504 -0.00000000000E+00 -0.00000000000E+00 -0.11083904263E+03  0.11083904263E+03  0.00000000000E+00 0.  1.
         -6    2    1    2    0  504  0.63602016904E+02 -0.30723007138E+02  0.89720731607E+02  0.20761783594E+03  0.17339618335E+03 0.  0.
        -24    2    3    3    0    0  0.29077557054E+02 -0.86494335376E+02  0.54959552634E+02  0.13323498211E+03  0.80026455969E+02 0.  0.
          6    2    1    2  502    0 -0.63602016904E+02  0.30723007138E+02  0.11552430285E+03  0.21930528378E+03  0.17251035686E+03 0.  0.
         24    2    5    5    0    0 -0.27374564522E+02  0.61704747264E+02  0.12364444934E+02  0.10556723908E+03  0.80216705556E+02 0.  0.
          4    1    6    6  501    0 -0.41413558438E+02  0.46474502110E+02  0.37751518715E+02  0.72802055837E+02  0.00000000000E+00 0. -1.
         -3    1    6    6    0  501  0.14038993916E+02  0.15230245153E+02 -0.25387073781E+02  0.32765183240E+02  0.00000000000E+00 0.  1.
          5    1    5    5  502    0 -0.36227452382E+02 -0.30981740126E+02  0.10315985792E+03  0.11373804470E+03  0.47000000000E+01 0. -1.
         13    1    4    4    0    0  0.23694553465E+02 -0.27113246405E+02  0.63503119138E+02  0.73001411868E+02  0.00000000000E+00 0. -1.
        -14    1    4    4    0    0  0.53830035890E+01 -0.59381088971E+02 -0.85435665041E+01  0.60233570238E+02  0.00000000000E+00 0.  1.
         -5    1    3    3    0  504  0.34524459850E+02  0.55771328238E+02  0.34761178973E+02  0.74382853837E+02  0.47000000000E+01 0.  1.
<mgrwt>
<rscale>  2 0.18702540E+03</rscale>
<asrwt>0</asrwt>
<pdfrwt beam="1">  1       21 0.48628319E-01 0.18723076E+03</pdfrwt>
<pdfrwt beam="2">  1       21 0.17052161E-01 0.18723076E+03</pdfrwt>
<totfact> 0.12548647E+05</totfact>
</mgrwt>
</event>
<event>
12    1  0.1410528E-001  0.2100518E+03  0.7546771E-02  0.1141573E+00
         21   -1    0    0  502  503  0.00000000000E+00  0.00000000000E+00  0.52465172776E+02  0.52465172776E+02  0.00000000000E+00 0. -1.
         21   -1    0    0  503  504 -0.00000000000E+00 -0.00000000000E+00 -0.84000582949E+03  0.84000582949E+03  0.00000000000E+00 0. -1.
         -6    2    1    2    0  504  0.11486430841E+03  0.27978852208E+02 -0.39260900606E+03  0.44526800823E+03  0.17362356407E+03 0.  0.
        -24    2    3    3    0    0  0.40908732817E+01  0.63346345398E+01 -0.18159173499E+03  0.20591553848E+03  0.96792499352E+02 0.  0.
          6    2    1    2  502    0 -0.11486430841E+03 -0.27978852208E+02 -0.39493165066E+03  0.44720299404E+03  0.17332883103E+03 0.  0.
         24    2    5    5    0    0 -0.47338070104E+02  0.45007026485E+02 -0.15028674300E+03  0.18308190023E+03  0.81647729656E+02 0.  0.
          4    1    6    6  501    0 -0.49973692056E+02  0.15718886120E+02 -0.32432343669E+02  0.61614204486E+02  0.00000000000E+00 0. -1.
         -3    1    6    6    0  501  0.26356219515E+01  0.29288140364E+02 -0.11785439933E+03  0.12146769575E+03  0.00000000000E+00 0.  1.
          5    1    5    5  502    0 -0.67526238303E+02 -0.72985878693E+02 -0.24464490766E+03  0.26412109380E+03  0.47000000000E+01 0. -1.
         11    1    4    4    0    0  0.39895749969E+02  0.28376870176E+02 -0.61079418454E+02  0.78279071184E+02  0.00000000000E+00 0. -1.
        -12    1    4    4    0    0 -0.35804876688E+02 -0.22042235637E+02 -0.12051231654E+03  0.12763646730E+03  0.00000000000E+00 0.  1.
         -5    1    3    3    0  504  0.11077343513E+03  0.21644217669E+02 -0.21101727106E+03  0.23935246975E+03  0.47000000000E+01 0.  1.
<mgrwt>
<rscale>  2 0.20999091E+03</rscale>
<asrwt>0</asrwt>
<pdfrwt beam="1">  1       21 0.80715654E-02 0.21005182E+03</pdfrwt>
<pdfrwt beam="2">  1       21 0.12923166E+00 0.21005182E+03</pdfrwt>
<totfact> 0.51363791E+04</totfact>
</mgrwt>
</event>
<event>
12    1  0.1410528E-001  0.1800505E+03  0.7546771E-02  0.1167982E+00
         21   -1    0    0  502  503  0.00000000000E+00  0.00000000000E+00  0.70040406641E+02  0.70040406641E+02  0.00000000000E+00 0. -1.
         21   -1    0    0  503  504 -0.00000000000E+00 -0.00000000000E+00 -0.47594074444E+03  0.47594074444E+03  0.00000000000E+00 0. -1.
         -6    2    1    2    0  504  0.78672765331E+01  0.45347136456E+02 -0.25273861775E+03  0.31031435565E+03  0.17406876111E+03 0.  0.
        -24    2    3    3    0    0  0.45473089990E+02  0.72896544279E+02 -0.13001883060E+03  0.17895453212E+03  0.87966585568E+02 0.  0.
          6    2    1    2  502    0 -0.78672765331E+01 -0.45347136456E+02 -0.15316172005E+03  0.23566679544E+03  0.17309554921E+03 0.  0.
         24    2    5    5    0    0 -0.26095331613E+02 -0.84774755976E+01 -0.17046140678E+03  0.19080029296E+03  0.81208538140E+02 0.  0.
          4    1    6    6  501    0 -0.18015605504E+02 -0.14270728169E+02 -0.17726788945E+03  0.17875156042E+03  0.00000000000E+00 0. -1.
         -3    1    6    6    0  501 -0.80797261084E+01  0.57932525709E+01  0.68064826696E+01  0.12048732534E+02  0.00000000000E+00 0.  1.
          5    1    5    5  502    0  0.18228055080E+02 -0.36869660858E+02  0.17299686729E+02  0.44866502479E+02  0.47000000000E+01 0. -1.
         11    1    4    4    0    0  0.38901690363E+01  0.40995605849E+02 -0.11828342213E+03  0.12524672078E+03  0.00000000000E+00 0. -1.
        -12    1    4    4    0    0  0.41582920953E+02  0.31900938430E+02 -0.11735408465E+02  0.53707811346E+02  0.00000000000E+00 0.  1.
         -5    1    3    3    0  504 -0.37605813457E+02 -0.27549407823E+02 -0.12271978715E+03  0.13135982352E+03  0.47000000000E+01 0.  1.
<mgrwt>
<rscale>  2 0.17981488E+03</rscale>
<asrwt>0</asrwt>
<pdfrwt beam="1">  1       21 0.10775447E-01 0.18005052E+03</pdfrwt>
<pdfrwt beam="2">  1       21 0.73221652E-01 0.18005052E+03</pdfrwt>
<totfact> 0.11978901E+05</totfact>
</mgrwt>
</event>
<event>
12    1  0.1410528E-001  0.1942716E+03  0.7546771E-02  0.1156676E+00
         21   -1    0    0  502  503  0.00000000000E+00  0.00000000000E+00  0.92158620589E+02  0.92158620589E+02  0.00000000000E+00 0. -1.
         21   -1    0    0  503  504 -0.00000000000E+00 -0.00000000000E+00 -0.49293189165E+03  0.49293189165E+03  0.00000000000E+00 0. -1.
         -6    2    1    2    0  504  0.65439022252E+02  0.23238233013E+02 -0.32972832002E+03  0.37823583813E+03  0.17181182472E+03 0.  0.
        -24    2    3    3    0    0  0.98118038999E+02  0.28788445373E+02 -0.16769051178E+03  0.21277567890E+03  0.81837996221E+02 0.  0.
          6    2    1    2  502    0 -0.65439022252E+02 -0.23238233013E+02 -0.71044951033E+02  0.20685467411E+03  0.18143646278E+03 0.  0.
         24    2    5    5    0    0 -0.51414774934E+02 -0.77299318052E+02 -0.90816582569E+01  0.12330337202E+03  0.80638584946E+02 0.  0.
          2    1    6    6  501    0 -0.10080289040E+02  0.11710479527E+02  0.15758039549E+02  0.22069512190E+02  0.00000000000E+00 0. -1.
         -1    1    6    6    0  501 -0.41334485894E+02 -0.89009797579E+02 -0.24839697806E+02  0.10123385983E+03  0.00000000000E+00 0.  1.
          5    1    5    5  502    0 -0.14024247318E+02  0.54061085039E+02 -0.61963292776E+02  0.83551302085E+02  0.47000000000E+01 0. -1.
         11    1    4    4    0    0  0.65075982884E+02 -0.15270660271E+02 -0.52146942070E+02  0.84778418130E+02  0.00000000000E+00 0. -1.
        -12    1    4    4    0    0  0.33042056115E+02  0.44059105645E+02 -0.11554356971E+03  0.12799726077E+03  0.00000000000E+00 0.  1.
         -5    1    3    3    0  504 -0.32679016747E+02 -0.55502123599E+01 -0.16203780824E+03  0.16546015923E+03  0.47000000000E+01 0.  1.
<mgrwt>
<rscale>  2 0.19199265E+03</rscale>
<asrwt>0</asrwt>
<pdfrwt beam="1">  1       21 0.14178249E-01 0.19427164E+03</pdfrwt>
<pdfrwt beam="2">  1       21 0.75835678E-01 0.19427164E+03</pdfrwt>
<totfact> 0.67355584E+04</totfact>
</mgrwt>
</event>
<event>
12    1  0.1410528E-001  0.1780026E+03  0.7546771E-02  0.1169792E+00
         21   -1    0    0  502  503  0.00000000000E+00  0.00000000000E+00  0.12508185525E+04  0.12508185525E+04  0.00000000000E+00 0. -1.
         21   -1    0    0  503  504 -0.00000000000E+00 -0.00000000000E+00 -0.27260456832E+02  0.27260456832E+02  0.00000000000E+00 0. -1.
         -6    2    1    2    0  504 -0.34289316744E+02 -0.23136182607E+02  0.44099207043E+03  0.47556169025E+03  0.17312964757E+03 0.  0.
        -24    2    3    3    0    0  0.36530447237E+02 -0.14598005946E+02  0.14106892114E+03  0.16723665897E+03  0.80747038592E+02 0.  0.
          6    2    1    2  502    0  0.34289316744E+02  0.23136182607E+02  0.78256602526E+03  0.80251731910E+03  0.17295497500E+03 0.  0.
         24    2    5    5    0    0  0.12478651313E+02 -0.45442285076E+02  0.58439766678E+03  0.59163465111E+03  0.79310840649E+02 0.  0.
          4    1    6    6  501    0  0.46215506954E+02 -0.28666492385E+02  0.32620053443E+03  0.33070293245E+03  0.00000000000E+00 0. -1.
         -3    1    6    6    0  501 -0.33736855642E+02 -0.16775792691E+02  0.25819713235E+03  0.26093171866E+03  0.00000000000E+00 0.  1.
          5    1    5    5  502    0  0.21810665432E+02  0.68578467683E+02  0.19816835848E+03  0.21088266799E+03  0.47000000000E+01 0. -1.
         11    1    4    4    0    0  0.54180515248E+01 -0.19060528407E+02 -0.27659204442E+01  0.20007732040E+02  0.00000000000E+00 0. -1.
        -12    1    4    4    0    0  0.31112395712E+02  0.44625224613E+01  0.14383484158E+03  0.14722892693E+03  0.00000000000E+00 0.  1.
         -5    1    3    3    0  504 -0.70819763981E+02 -0.85381766606E+01  0.29992314930E+03  0.30832503128E+03  0.47000000000E+01 0.  1.
<mgrwt>
<rscale>  2 0.17796008E+03</rscale>
<asrwt>0</asrwt>
<pdfrwt beam="1">  1       21 0.19243358E+00 0.17800257E+03</pdfrwt>
<pdfrwt beam="2">  1       21 0.41939174E-02 0.17800257E+03</pdfrwt>
<totfact> 0.54917345E+04</totfact>
</mgrwt>
</event>
<event>
12    1  0.1410528E-001  0.1956671E+03  0.7546771E-02  0.1153671E+00
         21   -1    0    0  502  503  0.00000000000E+00  0.00000000000E+00  0.10515323795E+04  0.10515323795E+04  0.00000000000E+00 0.  1.
         21   -1    0    0  503  504 -0.00000000000E+00 -0.00000000000E+00 -0.12313405909E+03  0.12313405909E+03  0.00000000000E+00 0.  1.
         -6    2    1    2    0  504 -0.88417114449E+02 -0.13784513354E+02 -0.28892342400E+02  0.19778875893E+03  0.17400582397E+03 0.  0.
        -24    2    3    3    0    0  0.21358180816E+02 -0.30149968144E+01 -0.11031711342E+02  0.85950974266E+02  0.82465806420E+02 0.  0.
          6    2    1    2  502    0  0.88417114449E+02  0.13784513354E+02  0.95729066278E+03  0.97687767964E+03  0.17284961381E+03 0.  0.
         24    2    5    5    0    0  0.20302616972E+02  0.45349231523E+02  0.75867763077E+03  0.76449796619E+03  0.79979021151E+02 0.  0.
          2    1    6    6  501    0  0.24782329024E+01  0.19339264206E+02  0.34453728886E+02  0.39587980657E+02  0.00000000000E+00 0. -1.
         -1    1    6    6    0  501  0.17824384069E+02  0.26009967317E+02  0.72422390188E+03  0.72490998553E+03  0.00000000000E+00 0.  1.
          5    1    5    5  502    0  0.68114497477E+02 -0.31564718170E+02  0.19861303201E+03  0.21237971345E+03  0.47000000000E+01 0. -1.
         11    1    4    4    0    0  0.37462454926E+02 -0.33090339510E+02 -0.13412803363E+02  0.51752385376E+02  0.00000000000E+00 0. -1.
        -12    1    4    4    0    0 -0.16104274110E+02  0.30075342696E+02  0.23810920209E+01  0.34198588890E+02  0.00000000000E+00 0.  1.
         -5    1    3    3    0  504 -0.10977529527E+03 -0.10769516539E+02 -0.17860631057E+02  0.11183778467E+03  0.47000000000E+01 0.  1.
<mgrwt>
<rscale>  2 0.19540975E+03</rscale>
<asrwt>0</asrwt>
<pdfrwt beam="1">  1       21 0.16177421E+00 0.19566713E+03</pdfrwt>
<pdfrwt beam="2">  1       21 0.18943702E-01 0.19566713E+03</pdfrwt>
<totfact> 0.62237203E+03</totfact>
</mgrwt>
</event>
<event>
12    1  0.1410528E-001  0.2199467E+03  0.7546771E-02  0.1134115E+00
         21   -1    0    0  502  503  0.00000000000E+00  0.00000000000E+00  0.15777116242E+02  0.15777116242E+02  0.00000000000E+00 0. -1.
         21   -1    0    0  503  504 -0.00000000000E+00 -0.00000000000E+00 -0.31377173497E+04  0.31377173497E+04  0.00000000000E+00 0. -1.
         -6    2    1    2    0  504 -0.13031295602E+03 -0.10079594398E+02 -0.18253069158E+04  0.18385107785E+04  0.17689963532E+03 0.  0.
        -24    2    3    3    0    0 -0.26560293204E+02  0.52520988688E+02 -0.66035016121E+03  0.66725940576E+03  0.75557102418E+02 0.  0.
          6    2    1    2  502    0  0.13031295602E+03  0.10079594398E+02 -0.12966333176E+04  0.13149836874E+04  0.17561626664E+03 0.  0.
         24    2    5    5    0    0  0.59891393476E+02  0.33979839239E+02 -0.10930468704E+04  0.10981889696E+04  0.80783312814E+02 0.  0.
          4    1    6    6  501    0  0.63496538470E+02 -0.75639421789E+01 -0.60829153486E+03  0.61164337240E+03  0.00000000000E+00 0. -1.
         -3    1    6    6    0  501 -0.36051449936E+01  0.41543781418E+02 -0.48475533554E+03  0.48654559722E+03  0.00000000000E+00 0.  1.
          5    1    5    5  502    0  0.70421562541E+02 -0.23900244842E+02 -0.20358644718E+03  0.21679471776E+03  0.47000000000E+01 0. -1.
         13    1    4    4    0    0 -0.12446311437E+02  0.65840515060E+01 -0.49155596860E+03  0.49175759340E+03  0.00000000000E+00 0. -1.
        -14    1    4    4    0    0 -0.14113981767E+02  0.45936937182E+02 -0.16879419261E+03  0.17550181235E+03  0.00000000000E+00 0.  1.
         -5    1    3    3    0  504 -0.10375266281E+03 -0.62600583086E+02 -0.11649567546E+04  0.11712513728E+04  0.47000000000E+01 0.  1.
<mgrwt>
<rscale>  2 0.21968852E+03</rscale>
<asrwt>0</asrwt>
<pdfrwt beam="1">  1       21 0.24272503E-02 0.21994669E+03</pdfrwt>
<pdfrwt beam="2">  1       21 0.48272542E+00 0.21994669E+03</pdfrwt>
<totfact> 0.21563342E+03</totfact>
</mgrwt>
</event>
<event>
12    1  0.1410528E-001  0.1811725E+03  0.7546771E-02  0.1167357E+00
         21   -1    0    0  502  503  0.00000000000E+00  0.00000000000E+00  0.47884122505E+02  0.47884122505E+02  0.00000000000E+00 0.  1.
         21   -1    0    0  503  504 -0.00000000000E+00 -0.00000000000E+00 -0.69710331698E+03  0.69710331698E+03  0.00000000000E+00 0.  1.
         -6    2    1    2    0  504  0.21092466733E+02 -0.39559920710E+02 -0.39366351922E+03  0.43335256004E+03  0.17553801712E+03 0.  0.
        -24    2    3    3    0    0  0.65376487745E+02  0.15973768643E+02 -0.17596202981E+03  0.20430869162E+03  0.79057947764E+02 0.  0.
          6    2    1    2  502    0 -0.21092466733E+02  0.39559920710E+02 -0.25555567526E+03  0.31163487944E+03  0.17262014786E+03 0.  0.
         24    2    5    5    0    0 -0.16624305462E+02  0.88815213488E+02 -0.21588434684E+03  0.24805852668E+03  0.82234249370E+02 0.  0.
          4    1    6    6  501    0 -0.11342019263E+02  0.34324200698E+02 -0.13807011582E+02  0.38696585423E+02  0.00000000000E+00 0. -1.
         -3    1    6    6    0  501 -0.52822861996E+01  0.54491012789E+02 -0.20207733526E+03  0.20936194126E+03  0.00000000000E+00 0.  1.
          5    1    5    5  502    0 -0.44681612705E+01 -0.49255292778E+02 -0.39671328417E+02  0.63576352759E+02  0.47000000000E+01 0. -1.
         13    1    4    4    0    0  0.25465856211E+02  0.30004965408E+02 -0.22953824959E+02  0.45559695587E+02  0.00000000000E+00 0. -1.
        -14    1    4    4    0    0  0.39910631534E+02 -0.14031196765E+02 -0.15300820485E+03  0.15874899604E+03  0.00000000000E+00 0.  1.
         -5    1    3    3    0  504 -0.44284021012E+02 -0.55533689353E+02 -0.21770148941E+03  0.22904386842E+03  0.47000000000E+01 0.  1.
<mgrwt>
<rscale>  2 0.18046192E+03</rscale>
<asrwt>0</asrwt>
<pdfrwt beam="1">  1       21 0.73667875E-02 0.18117250E+03</pdfrwt>
<pdfrwt beam="2">  1       21 0.10724667E+00 0.18117250E+03</pdfrwt>
<totfact> 0.96616547E+04</totfact>
</mgrwt>
</event>
<event>
12    1  0.1410528E-001  0.2223664E+03  0.7546771E-02  0.1132260E+00
         21   -1    0    0  502  503  0.00000000000E+00  0.00000000000E+00  0.19646042904E+03  0.19646042904E+03  0.00000000000E+00 0.  1.
         21   -1    0    0  503  504 -0.00000000000E+00 -0.00000000000E+00 -0.40312838037E+03  0.40312838037E+03  0.00000000000E+00 0.  1.
         -6    2    1    2    0  504 -0.11060421041E+03 -0.84806860160E+02 -0.28766295571E+03  0.36358875388E+03  0.17326658930E+03 0.  0.
        -24    2    3    3    0    0 -0.19375840005E+01 -0.51870085108E+02 -0.79715703138E+02  0.12661319248E+03  0.83558645411E+02 0.  0.
          6    2    1    2  502    0  0.11060421041E+03  0.84806860160E+02  0.80995004375E+02  0.23600005553E+03  0.17236687786E+03 0.  0.
         24    2    5    5    0    0  0.87828649807E+02  0.11464675148E+02  0.10073814311E+03  0.15656653747E+03  0.80744019439E+02 0.  0.
          4    1    6    6  501    0  0.34674172559E+02 -0.33744285960E+02  0.28614310257E+02  0.56211687656E+02  0.00000000000E+00 0. -1.
         -3    1    6    6    0  501  0.53154477247E+02  0.45208961108E+02  0.72123832855E+02  0.10035484982E+03  0.00000000000E+00 0.  1.
          5    1    5    5  502    0  0.22775560607E+02  0.73342185012E+02 -0.19743138737E+02  0.79433518054E+02  0.47000000000E+01 0. -1.
         13    1    4    4    0    0 -0.10911832224E+02 -0.67541362774E+02 -0.83715534873E+02  0.10811657850E+03  0.00000000000E+00 0. -1.
        -14    1    4    4    0    0  0.89742482235E+01  0.15671277666E+02  0.39998317345E+01  0.18496613981E+02  0.00000000000E+00 0.  1.
         -5    1    3    3    0  504 -0.10866662641E+03 -0.32936775053E+02 -0.20794725257E+03  0.23697556139E+03  0.47000000000E+01 0.  1.
<mgrwt>
<rscale>  2 0.22219109E+03</rscale>
<asrwt>0</asrwt>
<pdfrwt beam="1">  1       21 0.30224681E-01 0.22236638E+03</pdfrwt>
<pdfrwt beam="2">  1       21 0.62019751E-01 0.22236638E+03</pdfrwt>
<totfact> 0.24926144E+04</totfact>
</mgrwt>
</event>
<event>
12    1  0.1410528E-001  0.2523402E+03  0.7546771E-02  0.1112309E+00
         21   -1    0    0  502  503  0.00000000000E+00  0.00000000000E+00  0.29800753730E+03  0.29800753730E+03  0.00000000000E+00 0.  1.
         21   -1    0    0  503  504 -0.00000000000E+00 -0.00000000000E+00 -0.21557491681E+03  0.21557491681E+03  0.00000000000E+00 0.  1.
         -6    2    1    2    0  504 -0.17212138138E+03  0.52186941296E+02  0.45456760721E+01  0.25238118574E+03  0.17699252237E+03 0.  0.
        -24    2    3    3    0    0 -0.72797574955E+02  0.55547149134E+02  0.62761255601E+02  0.13710910231E+03  0.80467123939E+02 0.  0.
          6    2    1    2  502    0  0.17212138138E+03 -0.52186941296E+02  0.77886944416E+02  0.26120126837E+03  0.17265711603E+03 0.  0.
         24    2    5    5    0    0  0.48356396686E+02  0.28201590735E+02  0.95317967971E+01  0.98491085147E+02  0.80473398603E+02 0.  0.
          2    1    6    6  501    0  0.78568253453E+01  0.50942508138E+02  0.36716824933E+01  0.51675430257E+02  0.00000000000E+00 0. -1.
         -1    1    6    6    0  501  0.40499571341E+02 -0.22740917403E+02  0.58601143038E+01  0.46815654890E+02  0.00000000000E+00 0.  1.
          5    1    5    5  502    0  0.12376498469E+03 -0.80388532030E+02  0.68355147619E+02  0.16271018322E+03  0.47000000000E+01 0. -1.
         11    1    4    4    0    0 -0.17592273818E+02 -0.12179483717E+02 -0.97981452606E+01  0.23533626415E+02  0.00000000000E+00 0. -1.
        -12    1    4    4    0    0 -0.55205301137E+02  0.67726632851E+02  0.72559400862E+02  0.11357547589E+03  0.00000000000E+00 0.  1.
         -5    1    3    3    0  504 -0.99323806424E+02 -0.33602078381E+01 -0.58215579529E+02  0.11527208343E+03  0.47000000000E+01 0.  1.
<mgrwt>
<rscale>  2 0.25158140E+03</rscale>
<asrwt>0</asrwt>
<pdfrwt beam="1">  1       21 0.45847314E-01 0.25234025E+03</pdfrwt>
<pdfrwt beam="2">  1       21 0.33165372E-01 0.25234025E+03</pdfrwt>
<totfact> 0.38817560E+04</totfact>
</mgrwt>
</event>
<event>
12    1  0.1410528E-001  0.2123637E+03  0.7546771E-02  0.1140212E+00
         21   -1    0    0  502  503  0.00000000000E+00  0.00000000000E+00  0.40844797803E+03  0.40844797803E+03  0.00000000000E+00 0.  1.
         21   -1    0    0  503  504 -0.00000000000E+00 -0.00000000000E+00 -0.10920863220E+03  0.10920863220E+03  0.00000000000E+00 0.  1.
         -6    2    1    2    0  504 -0.19661834580E+01  0.11840158256E+03  0.15929670794E+03  0.26546896732E+03  0.17628253124E+03 0.  0.
        -24    2    3    3    0    0 -0.50681631921E+02  0.11673518438E+03  0.75569572451E+02  0.16847260131E+03  0.80476866396E+02 0.  0.
          6    2    1    2  502    0  0.19661834580E+01 -0.11840158256E+03  0.13994263789E+03  0.25218764291E+03  0.17318159460E+03 0.  0.
         24    2    5    5    0    0  0.39657819514E+01 -0.20345494329E+02  0.18523991205E+01  0.82747391270E+02  0.80087657061E+02 0.  0.
          2    1    6    6  501    0  0.22089840362E+02  0.92778920705E+01 -0.28071277111E+02  0.36905784467E+02  0.00000000000E+00 0. -1.
         -1    1    6    6    0  501 -0.18124058411E+02 -0.29623386400E+02  0.29923676231E+02  0.45841606803E+02  0.00000000000E+00 0.  1.
          5    1    5    5  502    0 -0.19995984934E+01 -0.98056088230E+02  0.13809023877E+03  0.16944025164E+03  0.47000000000E+01 0. -1.
         11    1    4    4    0    0 -0.35205532025E+02  0.13757890608E+02  0.47343051019E+02  0.60581131707E+02  0.00000000000E+00 0. -1.
        -12    1    4    4    0    0 -0.15476099896E+02  0.10297729377E+03  0.28226521432E+02  0.10789146960E+03  0.00000000000E+00 0.  1.
         -5    1    3    3    0  504  0.48715448463E+02  0.16663981775E+01  0.83727135485E+02  0.96996366006E+02  0.47000000000E+01 0.  1.
<mgrwt>
<rscale>  2 0.21171901E+03</rscale>
<asrwt>0</asrwt>
<pdfrwt beam="1">  1       21 0.62838150E-01 0.21236368E+03</pdfrwt>
<pdfrwt beam="2">  1       21 0.16801328E-01 0.21236368E+03</pdfrwt>
<totfact> 0.74126642E+04</totfact>
</mgrwt>
</event>
<event>
12    1  0.1410528E-001  0.2634230E+03  0.7546771E-02  0.1105183E+00
         21   -1    0    0  502  503  0.00000000000E+00  0.00000000000E+00  0.16539419005E+03  0.16539419005E+03  0.00000000000E+00 0.  1.
         21   -1    0    0  503  504 -0.00000000000E+00 -0.00000000000E+00 -0.48764994323E+03  0.48764994323E+03  0.00000000000E+00 0. -1.
         -6    2    1    2    0  504 -0.19293059434E+03 -0.40379139165E+02 -0.28404796613E+03  0.38739503316E+03  0.17475404301E+03 0.  0.
        -24    2    3    3    0    0 -0.17928557517E+03 -0.50666137937E+02 -0.30087467628E+03  0.36295659896E+03  0.80632170380E+02 0.  0.
          6    2    1    2  502    0  0.19293059434E+03  0.40379139165E+02 -0.38207787062E+02  0.26564910012E+03  0.17394516460E+03 0.  0.
         24    2    5    5    0    0  0.59871060226E+02 -0.38021436045E+02 -0.30041071078E+01  0.10717866472E+03  0.80299863390E+02 0.  0.
          4    1    6    6  501    0  0.21866077704E+02 -0.25388983949E+02 -0.40329320434E+02  0.52432622925E+02  0.00000000000E+00 0. -1.
         -3    1    6    6    0  501  0.38004982522E+02 -0.12632452096E+02  0.37325213327E+02  0.54746041796E+02  0.00000000000E+00 0.  1.
          5    1    5    5  502    0  0.13305953411E+03  0.78400575209E+02 -0.35203679954E+02  0.15847043539E+03  0.47000000000E+01 0. -1.
         13    1    4    4    0    0 -0.13063099995E+03 -0.12987589498E+01 -0.16529229648E+03  0.21068385842E+03  0.00000000000E+00 0. -1.
        -14    1    4    4    0    0 -0.48654575225E+02 -0.49367378987E+02 -0.13558237980E+03  0.15227274054E+03  0.00000000000E+00 0.  1.
         -5    1    3    3    0  504 -0.13645019166E+02  0.10286998772E+02  0.16826710156E+02  0.24438434206E+02  0.47000000000E+01 0.  1.
<mgrwt>
<rscale>  2 0.26328890E+03</rscale>
<asrwt>0</asrwt>
<pdfrwt beam="1">  1       21 0.25445260E-01 0.26342298E+03</pdfrwt>
<pdfrwt beam="2">  1       21 0.75023068E-01 0.26342298E+03</pdfrwt>
<totfact> 0.22421421E+04</totfact>
</mgrwt>
</event>
<event>
12    1  0.1410528E-001  0.1753223E+03  0.7546771E-02  0.1172690E+00
         21   -1    0    0  502  503  0.00000000000E+00  0.00000000000E+00  0.44215248621E+02  0.44215248621E+02  0.00000000000E+00 0.  1.
         21   -1    0    0  503  504 -0.00000000000E+00 -0.00000000000E+00 -0.94864092618E+03  0.94864092618E+03  0.00000000000E+00 0.  1.
         -6    2    1    2    0  504  0.24960647481E+02  0.43991200516E+01 -0.71210285985E+03  0.73336783843E+03  0.17348059620E+03 0.  0.
        -24    2    3    3    0    0 -0.25488620272E+02 -0.35775726237E+02 -0.24108220846E+03  0.25792941873E+03  0.80482181007E+02 0.  0.
          6    2    1    2  502    0 -0.24960647481E+02 -0.43991200516E+01 -0.19232281770E+03  0.25948833636E+03  0.17234774243E+03 0.  0.
         24    2    5    5    0    0 -0.48864878754E+02  0.27382731284E+02 -0.46058594316E+02  0.10784134038E+03  0.79817104914E+02 0.  0.
          4    1    6    6  501    0 -0.36454432586E+02  0.18887720981E+02 -0.69069907738E+02  0.80351252722E+02  0.00000000000E+00 0. -1.
         -3    1    6    6    0  501 -0.12410446168E+02  0.84950103036E+01  0.23011313422E+02  0.27490087660E+02  0.00000000000E+00 0.  1.
          5    1    5    5  502    0  0.23904231273E+02 -0.31781851336E+02 -0.14626422339E+03  0.15164699598E+03  0.47000000000E+01 0. -1.
         11    1    4    4    0    0 -0.28539186191E+02  0.12753877235E+02 -0.38495419996E+02  0.49588747652E+02  0.00000000000E+00 0. -1.
        -12    1    4    4    0    0  0.30505659194E+01 -0.48529603473E+02 -0.20258678846E+03  0.20834067108E+03  0.00000000000E+00 0.  1.
         -5    1    3    3    0  504  0.50449267753E+02  0.40174846289E+02 -0.47102065140E+03  0.47543841971E+03  0.47000000000E+01 0.  1.
<mgrwt>
<rscale>  2 0.17504139E+03</rscale>
<asrwt>0</asrwt>
<pdfrwt beam="1">  1       21 0.68023462E-02 0.17532228E+03</pdfrwt>
<pdfrwt beam="2">  1       21 0.14594475E+00 0.17532228E+03</pdfrwt>
<totfact> 0.51539921E+04</totfact>
</mgrwt>
</event>
<event>
12    1  0.1410528E-001  0.1907235E+03  0.7546771E-02  0.1158768E+00
         21   -1    0    0  502  503  0.00000000000E+00  0.00000000000E+00  0.19621735915E+03  0.19621735915E+03  0.00000000000E+00 0.  1.
         21   -1    0    0  503  504 -0.00000000000E+00 -0.00000000000E+00 -0.18132615428E+03  0.18132615428E+03  0.00000000000E+00 0. -1.
         -6    2    1    2    0  504 -0.44463759222E+02 -0.65123073064E+02  0.92275530988E+01  0.18673590084E+03  0.16901807122E+03 0.  0.
        -24    2    3    3    0    0  0.29517025899E+02 -0.67923250984E+02 -0.11781890803E+02  0.10963541903E+03  0.79976804838E+02 0.  0.
          6    2    1    2  502    0  0.44463759222E+02  0.65123073064E+02  0.56636517740E+01  0.19080761259E+03  0.17365894029E+03 0.  0.
         24    2    5    5    0    0  0.39843675994E+02  0.86889404907E+02  0.55348395555E+02  0.13616530173E+03  0.79625732676E+02 0.  0.
          4    1    6    6  501    0  0.45585602198E+02  0.94018277234E+01  0.24133277948E+02  0.52429539353E+02  0.00000000000E+00 0. -1.
         -3    1    6    6    0  501 -0.57419262044E+01  0.77487577184E+02  0.31215117607E+02  0.83735762382E+02  0.00000000000E+00 0.  1.
          5    1    5    5  502    0  0.46200832283E+01 -0.21766331844E+02 -0.49684743781E+02  0.54642310855E+02  0.47000000000E+01 0. -1.
         13    1    4    4    0    0 -0.13478407702E+02 -0.92574757791E+00 -0.25497410149E+02  0.28855543784E+02  0.00000000000E+00 0. -1.
        -14    1    4    4    0    0  0.42995433602E+02 -0.66997503406E+02  0.13715519346E+02  0.80779875243E+02  0.00000000000E+00 0.  1.
         -5    1    3    3    0  504 -0.73980785122E+02  0.28001779204E+01  0.21009443901E+02  0.77100481818E+02  0.47000000000E+01 0.  1.
<mgrwt>
<rscale>  2 0.18966075E+03</rscale>
<asrwt>0</asrwt>
<pdfrwt beam="1">  1       21 0.30187286E-01 0.19072354E+03</pdfrwt>
<pdfrwt beam="2">  1       21 0.27896331E-01 0.19072354E+03</pdfrwt>
<totfact> 0.12927698E+05</totfact>
</mgrwt>
</event>
<event>
12    1  0.1410528E-001  0.2478656E+03  0.7546771E-02  0.1114676E+00
         21   -1    0    0  502  503  0.00000000000E+00  0.00000000000E+00  0.23908457835E+03  0.23908457835E+03  0.00000000000E+00 0. -1.
         21   -1    0    0  503  504 -0.00000000000E+00 -0.00000000000E+00 -0.60492275199E+03  0.60492275199E+03  0.00000000000E+00 0.  1.
         -6    2    1    2    0  504  0.17265842408E+03 -0.41223773638E+02 -0.50300556826E+03  0.56071906086E+03  0.17286102103E+03 0.  0.
        -24    2    3    3    0    0  0.33317554512E+02 -0.24524311534E+02 -0.31061999690E+03  0.32254045553E+03  0.76394120768E+02 0.  0.
          6    2    1    2  502    0 -0.17265842408E+03  0.41223773638E+02  0.13716739463E+03  0.28328826948E+03  0.17299427319E+03 0.  0.
         24    2    5    5    0    0 -0.96213986010E+02 -0.16939177258E+02  0.13736166503E+03  0.18711754259E+03  0.81244574573E+02 0.  0.
          4    1    6    6  501    0 -0.11090210884E+03 -0.12976128187E+02  0.12406378874E+03  0.16691159733E+03  0.00000000000E+00 0. -1.
         -3    1    6    6    0  501  0.14688122829E+02 -0.39630490712E+01  0.13297876291E+02  0.20205945265E+02  0.00000000000E+00 0.  1.
          5    1    5    5  502    0 -0.76444438072E+02  0.58162950896E+02 -0.19427039825E+00  0.96170726887E+02  0.47000000000E+01 0. -1.
         11    1    4    4    0    0  0.33400500441E+02  0.21457748350E+02 -0.17082312438E+03  0.17537550632E+03  0.00000000000E+00 0. -1.
        -12    1    4    4    0    0 -0.82945929239E-01 -0.45982059884E+02 -0.13979687252E+03  0.14716494921E+03  0.00000000000E+00 0.  1.
         -5    1    3    3    0  504  0.13934086957E+03 -0.16699462104E+02 -0.19238557137E+03  0.23817860533E+03  0.47000000000E+01 0.  1.
<mgrwt>
<rscale>  2 0.24784234E+03</rscale>
<asrwt>0</asrwt>
<pdfrwt beam="1">  1       21 0.36782243E-01 0.24786559E+03</pdfrwt>
<pdfrwt beam="2">  1       21 0.93065038E-01 0.24786559E+03</pdfrwt>
<totfact> 0.66728645E+03</totfact>
</mgrwt>
</event>
<event>
12    1  0.1410528E-001  0.2210398E+03  0.7546771E-02  0.1133723E+00
         21   -1    0    0  502  503  0.00000000000E+00  0.00000000000E+00  0.17750633614E+03  0.17750633614E+03  0.00000000000E+00 0.  1.
         21   -1    0    0  503  504 -0.00000000000E+00 -0.00000000000E+00 -0.84289159272E+03  0.84289159272E+03  0.00000000000E+00 0. -1.
         -6    2    1    2    0  504 -0.38790970057E+02  0.12678045938E+03 -0.75207600016E+03  0.78296611262E+03  0.17274142313E+03 0.  0.
        -24    2    3    3    0    0 -0.85451279410E+02  0.55209394113E+02 -0.38100433204E+03  0.40215661335E+03  0.78839344758E+02 0.  0.
          6    2    1    2  502    0  0.38790970057E+02 -0.12678045938E+03  0.86690743569E+02  0.23743181624E+03  0.17686310554E+03 0.  0.
         24    2    5    5    0    0  0.40643180370E+01 -0.94130980586E+02 -0.17427465351E+02  0.12282544532E+03  0.76845385563E+02 0.  0.
          4    1    6    6  501    0 -0.33862038730E+02 -0.26227099942E+02 -0.13660526009E+02  0.44956739307E+02  0.00000000000E+00 0. -1.
         -3    1    6    6    0  501  0.37926356766E+02 -0.67903880644E+02 -0.37669393420E+01  0.77868706013E+02  0.00000000000E+00 0.  1.
          5    1    5    5  502    0  0.34726652020E+02 -0.32649478796E+02  0.10411820892E+03  0.11460637092E+03  0.47000000000E+01 0. -1.
         13    1    4    4    0    0 -0.15238126595E+02  0.25787627339E+02 -0.24046037291E+03  0.24231878418E+03  0.00000000000E+00 0. -1.
        -14    1    4    4    0    0 -0.70213152815E+02  0.29421766774E+02 -0.14054395913E+03  0.15983782918E+03  0.00000000000E+00 0.  1.
         -5    1    3    3    0  504  0.46660309353E+02  0.71571065269E+02 -0.37107166812E+03  0.38080949927E+03  0.47000000000E+01 0.  1.
<mgrwt>
<rscale>  2 0.22021419E+03</rscale>
<asrwt>0</asrwt>
<pdfrwt beam="1">  1       21 0.27308668E-01 0.22103978E+03</pdfrwt>
<pdfrwt beam="2">  1       21 0.12967563E+00 0.22103978E+03</pdfrwt>
<totfact> 0.54406304E+03</totfact>
</mgrwt>
</event>
<event>
12    1  0.1410528E-001  0.2897413E+03  0.7546771E-02  0.1090519E+00
         21   -1    0    0  502  503  0.00000000000E+00  0.00000000000E+00  0.98280619551E+02  0.98280619551E+02  0.00000000000E+00 0.  1.
         21   -1    0    0  503  504 -0.00000000000E+00 -0.00000000000E+00 -0.10514951693E+04  0.10514951693E+04  0.00000000000E+00 0. -1.
         -6    2    1    2    0  504 -0.13893596061E+03 -0.18657142813E+03 -0.72631424325E+03  0.78197339387E+03  0.17273653299E+03 0.  0.
        -24    2    3    3    0    0 -0.17083154904E+03 -0.14211120522E+03 -0.58584805325E+03  0.63115270392E+03  0.75873456342E+02 0.  0.
          6    2    1    2  502    0  0.13893596061E+03  0.18657142813E+03 -0.22690030652E+03  0.36780239500E+03  0.17228683561E+03 0.  0.
         24    2    5    5    0    0  0.13674791302E+03  0.11381527525E+03 -0.95236570051E+02  0.21728437337E+03  0.80551760010E+02 0.  0.
          4    1    6    6  501    0  0.13703536739E+03  0.83928672787E+02 -0.96367410041E+02  0.18737500300E+03  0.00000000000E+00 0. -1.
         -3    1    6    6    0  501 -0.28745437306E+00  0.29886602462E+02  0.11308399896E+01  0.29909370368E+02  0.00000000000E+00 0.  1.
          5    1    5    5  502    0  0.21880475900E+01  0.72756152882E+02 -0.13166373647E+03  0.15051802163E+03  0.47000000000E+01 0. -1.
         13    1    4    4    0    0 -0.63484953995E+02 -0.10011733078E+03 -0.32598869401E+03  0.34687526278E+03  0.00000000000E+00 0. -1.
        -14    1    4    4    0    0 -0.10734659505E+03 -0.41993874438E+02 -0.25985935923E+03  0.28427744114E+03  0.00000000000E+00 0.  1.
         -5    1    3    3    0  504  0.31895588434E+02 -0.44460222911E+02 -0.14046619000E+03  0.15082068995E+03  0.47000000000E+01 0.  1.
<mgrwt>
<rscale>  2 0.28967429E+03</rscale>
<asrwt>0</asrwt>
<pdfrwt beam="1">  1       21 0.15120095E-01 0.28974128E+03</pdfrwt>
<pdfrwt beam="2">  1       21 0.16176850E+00 0.28974128E+03</pdfrwt>
<totfact> 0.88641045E+03</totfact>
</mgrwt>
</event>
<event>
12    1  0.1410528E-001  0.4026039E+03  0.7546771E-02  0.1042905E+00
         21   -1    0    0  502  503  0.00000000000E+00  0.00000000000E+00  0.43806821312E+03  0.43806821312E+03  0.00000000000E+00 0. -1.
         21   -1    0    0  503  504 -0.00000000000E+00 -0.00000000000E+00 -0.12218005493E+04  0.12218005493E+04  0.00000000000E+00 0. -1.
         -6    2    1    2    0  504  0.33558203892E+03  0.13938122281E+03 -0.10849674523E+04  0.11572572034E+04  0.17334195133E+03 0.  0.
        -24    2    3    3    0    0  0.13640782993E+03  0.12182655260E+03 -0.62417529204E+03  0.65493257036E+03  0.76766343813E+02 0.  0.
          6    2    1    2  502    0 -0.33558203892E+03 -0.13938122281E+03  0.30123511607E+03  0.50261155910E+03  0.17272334547E+03 0.  0.
         24    2    5    5    0    0 -0.19794306039E+03 -0.88264254169E+02  0.26415046361E+03  0.35110316217E+03  0.80783224342E+02 0.  0.
          4    1    6    6  501    0 -0.20126398201E+03 -0.70555457298E+02  0.24424698221E+03  0.32425584239E+03  0.00000000000E+00 0. -1.
         -3    1    6    6    0  501  0.33209216159E+01 -0.17708796871E+02  0.19903481404E+02  0.26847319773E+02  0.00000000000E+00 0.  1.
          5    1    5    5  502    0 -0.13763897853E+03 -0.51116968642E+02  0.37084652456E+02  0.15150839693E+03  0.47000000000E+01 0. -1.
         13    1    4    4    0    0  0.12334909660E+03  0.77348412664E+02 -0.53462841447E+03  0.55409865379E+03  0.00000000000E+00 0. -1.
        -14    1    4    4    0    0  0.13058733332E+02  0.44478139941E+02 -0.89546877575E+02  0.10083391658E+03  0.00000000000E+00 0.  1.
         -5    1    3    3    0  504  0.19917420899E+03  0.17554670206E+02 -0.46079216024E+03  0.50232463299E+03  0.47000000000E+01 0.  1.
<mgrwt>
<rscale>  2 0.40253735E+03</rscale>
<asrwt>0</asrwt>
<pdfrwt beam="1">  1       21 0.67395111E-01 0.40260385E+03</pdfrwt>
<pdfrwt beam="2">  1       21 0.18796931E+00 0.40260385E+03</pdfrwt>
<totfact> 0.27108536E+02</totfact>
</mgrwt>
</event>
<event>
12    1  0.1410528E-001  0.2693731E+03  0.7546771E-02  0.1101916E+00
         21   -1    0    0  502  503  0.00000000000E+00  0.00000000000E+00  0.13600294384E+04  0.13600294384E+04  0.00000000000E+00 0. -1.
         21   -1    0    0  503  504 -0.00000000000E+00 -0.00000000000E+00 -0.53910398466E+02  0.53910398466E+02  0.00000000000E+00 0. -1.
         -6    2    1    2    0  504 -0.46269567812E+02 -0.20046373906E+03  0.56210499166E+03  0.62331685874E+03  0.17388300996E+03 0.  0.
        -24    2    3    3    0    0 -0.88828369272E+02 -0.18756487570E+03  0.49457432973E+03  0.54232233696E+03  0.80241434135E+02 0.  0.
          6    2    1    2  502    0  0.46269567812E+02  0.20046373906E+03  0.74401404825E+03  0.79062297810E+03  0.17088360345E+03 0.  0.
         24    2    5    5    0    0 -0.31778510598E+01  0.12538278990E+03  0.62072683548E+03  0.63796642569E+03  0.77255506531E+02 0.  0.
          4    1    6    6  501    0 -0.10511958185E+02  0.12406391089E+03  0.44523673148E+03  0.46231818297E+03  0.00000000000E+00 0. -1.
         -3    1    6    6    0  501  0.73341071253E+01  0.13188790117E+01  0.17549010400E+03  0.17564824272E+03  0.00000000000E+00 0.  1.
          5    1    5    5  502    0  0.49447418872E+02  0.75080949165E+02  0.12328721277E+03  0.15265655241E+03  0.47000000000E+01 0. -1.
         13    1    4    4    0    0 -0.52308620308E+02 -0.33359391682E+02  0.10841803271E+03  0.12491401278E+03  0.00000000000E+00 0. -1.
        -14    1    4    4    0    0 -0.36519748965E+02 -0.15420548401E+03  0.38615629703E+03  0.41740832418E+03  0.00000000000E+00 0.  1.
         -5    1    3    3    0  504  0.42558801460E+02 -0.12898863366E+02  0.67530661931E+02  0.80994521782E+02  0.47000000000E+01 0.  1.
<mgrwt>
<rscale>  2 0.26889025E+03</rscale>
<asrwt>0</asrwt>
<pdfrwt beam="1">  1       21 0.20923527E+00 0.26937313E+03</pdfrwt>
<pdfrwt beam="2">  1       21 0.82939085E-02 0.26937313E+03</pdfrwt>
<totfact> 0.12511205E+04</totfact>
</mgrwt>
</event>
<event>
12    1  0.1410528E-001  0.2120751E+03  0.7546771E-02  0.1140638E+00
         21   -1    0    0  502  503  0.00000000000E+00  0.00000000000E+00  0.37513005432E+03  0.37513005432E+03  0.00000000000E+00 0. -1.
         21   -1    0    0  503  504 -0.00000000000E+00 -0.00000000000E+00 -0.13717298801E+03  0.13717298801E+03  0.00000000000E+00 0. -1.
         -6    2    1    2    0  504  0.98423954272E+02  0.64702724408E+02  0.22053470051E+02  0.20966428409E+03  0.17204371294E+03 0.  0.
        -24    2    3    3    0    0  0.12694237599E+02  0.42004403566E+01 -0.38254229656E+02  0.88547731384E+02  0.78730726398E+02 0.  0.
          6    2    1    2  502    0 -0.98423954272E+02 -0.64702724408E+02  0.21590359627E+03  0.30263875824E+03  0.17635798192E+03 0.  0.
         24    2    5    5    0    0 -0.44060774631E+02  0.34674823707E+02  0.81749150282E+02  0.12699492047E+03  0.79379411637E+02 0.  0.
          2    1    6    6  501    0 -0.66339948907E+02  0.32263218916E+02  0.69987482207E+02  0.10168653687E+03  0.00000000000E+00 0. -1.
         -1    1    6    6    0  501  0.22279174276E+02  0.24116047912E+01  0.11761668076E+02  0.25308383591E+02  0.00000000000E+00 0.  1.
          5    1    5    5  502    0 -0.54363179642E+02 -0.99377548115E+02  0.13415444598E+03  0.17564383777E+03  0.47000000000E+01 0. -1.
         11    1    4    4    0    0 -0.80903392614E+01  0.38577896240E+02 -0.15317738959E+02  0.42288778588E+02  0.00000000000E+00 0. -1.
        -12    1    4    4    0    0  0.20784576860E+02 -0.34377455883E+02 -0.22936490698E+02  0.46258952796E+02  0.00000000000E+00 0.  1.
         -5    1    3    3    0  504  0.85729716674E+02  0.60502284051E+02  0.60307699708E+02  0.12111655271E+03  0.47000000000E+01 0.  1.
<mgrwt>
<rscale>  2 0.21117594E+03</rscale>
<asrwt>0</asrwt>
<pdfrwt beam="1">  1       21 0.57712316E-01 0.21207512E+03</pdfrwt>
<pdfrwt beam="2">  1       21 0.21103537E-01 0.21207512E+03</pdfrwt>
<totfact> 0.58253392E+04</totfact>
</mgrwt>
</event>
<event>
12    1  0.1410528E-001  0.1989317E+03  0.7546771E-02  0.1150715E+00
         21   -1    0    0  502  503  0.00000000000E+00  0.00000000000E+00  0.88572350666E+03  0.88572350666E+03  0.00000000000E+00 0. -1.
         21   -1    0    0  503  504 -0.00000000000E+00 -0.00000000000E+00 -0.61782867965E+02  0.61782867965E+02  0.00000000000E+00 0.  1.
         -6    2    1    2    0  504 -0.96222916969E+02  0.27966700114E+02  0.16190727840E+03  0.25623075277E+03  0.17146208269E+03 0.  0.
        -24    2    3    3    0    0 -0.75557581849E+02  0.52652004732E+01  0.18661353373E+03  0.21654570251E+03  0.79566071880E+02 0.  0.
          6    2    1    2  502    0  0.96222916969E+02 -0.27966700114E+02  0.66203336029E+03  0.69127562186E+03  0.17185118320E+03 0.  0.
         24    2    5    5    0    0  0.62988338871E+02 -0.61893933634E+02  0.25916574281E+03  0.28559101336E+03  0.81221640043E+02 0.  0.
          2    1    6    6  501    0  0.21995957237E+02 -0.41830460234E+02  0.22129607240E+03  0.22628645827E+03  0.00000000000E+00 0. -1.
         -1    1    6    6    0  501  0.40992381635E+02 -0.20063473400E+02  0.37869670407E+02  0.59304555084E+02  0.00000000000E+00 0.  1.
          5    1    5    5  502    0  0.33234578098E+02  0.33927233520E+02  0.40286761748E+03  0.40568460850E+03  0.47000000000E+01 0. -1.
         13    1    4    4    0    0  0.14417814426E+02  0.62262186150E+00  0.56298171514E+02  0.58118371851E+02  0.00000000000E+00 0. -1.
        -14    1    4    4    0    0 -0.89975396275E+02  0.46425786117E+01  0.13031536221E+03  0.15842733066E+03  0.00000000000E+00 0.  1.
         -5    1    3    3    0  504 -0.20665335120E+02  0.22701499641E+02 -0.24706255327E+02  0.39685050256E+02  0.47000000000E+01 0.  1.
<mgrwt>
<rscale>  2 0.19884762E+03</rscale>
<asrwt>0</asrwt>
<pdfrwt beam="1">  1       21 0.13626515E+00 0.19893168E+03</pdfrwt>
<pdfrwt beam="2">  1       21 0.95050573E-02 0.19893168E+03</pdfrwt>
<totfact> 0.33916443E+04</totfact>
</mgrwt>
</event>
<event>
12    1  0.1410528E-001  0.2007776E+03  0.7546771E-02  0.1149137E+00
         21   -1    0    0  502  503  0.00000000000E+00  0.00000000000E+00  0.47037183875E+02  0.47037183875E+02  0.00000000000E+00 0. -1.
         21   -1    0    0  503  504 -0.00000000000E+00 -0.00000000000E+00 -0.85980011507E+03  0.85980011507E+03  0.00000000000E+00 0. -1.
         -6    2    1    2    0  504  0.57476183882E+01 -0.10161909491E+03 -0.37626446940E+03  0.42648166448E+03  0.17306699176E+03 0.  0.
        -24    2    3    3    0    0 -0.38554079679E+02 -0.10033674374E+03 -0.17341967040E+03  0.21879828200E+03  0.79021686397E+02 0.  0.
          6    2    1    2  502    0 -0.57476183882E+01  0.10161909491E+03 -0.43649846179E+03  0.48035563446E+03  0.17277486173E+03 0.  0.
         24    2    5    5    0    0  0.55892048666E+02  0.36636768822E+02 -0.17707042854E+03  0.20586128900E+03  0.80986169864E+02 0.  0.
          4    1    6    6  501    0  0.35909198883E+02  0.61988282990E+02 -0.10771985206E+03  0.12936608644E+03  0.00000000000E+00 0. -1.
         -3    1    6    6    0  501  0.19982849783E+02 -0.25351514167E+02 -0.69350576483E+02  0.76495202559E+02  0.00000000000E+00 0.  1.
          5    1    5    5  502    0 -0.61639667054E+02  0.64982326086E+02 -0.25942803325E+03  0.27449434547E+03  0.47000000000E+01 0. -1.
         11    1    4    4    0    0 -0.56343979582E+02 -0.68329680593E+02 -0.83550459163E+02  0.12175495272E+03  0.00000000000E+00 0. -1.
        -12    1    4    4    0    0  0.17789899903E+02 -0.32007063144E+02 -0.89869211240E+02  0.97043329285E+02  0.00000000000E+00 0.  1.
         -5    1    3    3    0  504  0.44301698067E+02 -0.12823511712E+01 -0.20284479900E+03  0.20768338247E+03  0.47000000000E+01 0.  1.
<mgrwt>
<rscale>  2 0.20071467E+03</rscale>
<asrwt>0</asrwt>
<pdfrwt beam="1">  1       21 0.72364902E-02 0.20077764E+03</pdfrwt>
<pdfrwt beam="2">  1       21 0.13227693E+00 0.20077764E+03</pdfrwt>
<totfact> 0.58831375E+04</totfact>
</mgrwt>
</event>
<event>
12    1  0.1410528E-001  0.2406987E+03  0.7546771E-02  0.1119469E+00
         21   -1    0    0  502  503  0.00000000000E+00  0.00000000000E+00  0.66402357447E+03  0.66402357447E+03  0.00000000000E+00 0. -1.
         21   -1    0    0  503  504 -0.00000000000E+00 -0.00000000000E+00 -0.99255232677E+02  0.99255232677E+02  0.00000000000E+00 0. -1.
         -6    2    1    2    0  504 -0.88596515626E+02 -0.14180161507E+03  0.14840336183E+03  0.28277093098E+03  0.17314387366E+03 0.  0.
        -24    2    3    3    0    0 -0.44945349174E+02 -0.16551911263E+03  0.10527510935E+03  0.21681579331E+03  0.80681959079E+02 0.  0.
          6    2    1    2  502    0  0.88596515626E+02  0.14180161507E+03  0.41636497996E+03  0.48050787617E+03  0.17196215254E+03 0.  0.
         24    2    5    5    0    0  0.92572029940E+02  0.23903094576E+02  0.21614458327E+03  0.24807258819E+03  0.75369685384E+02 0.  0.
          2    1    6    6  501    0  0.37174188572E+02  0.45541180313E+02  0.78024138687E+02  0.97691788898E+02  0.00000000000E+00 0. -1.
         -1    1    6    6    0  501  0.55397841368E+02 -0.21638085737E+02  0.13812044459E+03  0.15038079929E+03  0.00000000000E+00 0.  1.
          5    1    5    5  502    0 -0.39755143138E+01  0.11789852050E+03  0.20022039668E+03  0.23243528798E+03  0.47000000000E+01 0. -1.
         11    1    4    4    0    0 -0.39253254433E+02 -0.15461866141E+03  0.60874633481E+02  0.17074387087E+03  0.00000000000E+00 0. -1.
        -12    1    4    4    0    0 -0.56920947410E+01 -0.10900451219E+02  0.44400475867E+02  0.46071922431E+02  0.00000000000E+00 0.  1.
         -5    1    3    3    0  504 -0.43651166452E+02  0.23717497558E+02  0.43128252487E+02  0.65955137674E+02  0.47000000000E+01 0.  1.
<mgrwt>
<rscale>  2 0.24048621E+03</rscale>
<asrwt>0</asrwt>
<pdfrwt beam="1">  1       21 0.10215747E+00 0.24069865E+03</pdfrwt>
<pdfrwt beam="2">  1       21 0.15270036E-01 0.24069865E+03</pdfrwt>
<totfact> 0.28873175E+04</totfact>
</mgrwt>
</event>
<event>
12    1  0.1410528E-001  0.1796745E+03  0.7546771E-02  0.1168669E+00
         21   -1    0    0  502  503  0.00000000000E+00  0.00000000000E+00  0.52494065324E+03  0.52494065324E+03  0.00000000000E+00 0.  1.
         21   -1    0    0  503  504 -0.00000000000E+00 -0.00000000000E+00 -0.10092826771E+03  0.10092826771E+03  0.00000000000E+00 0.  1.
         -6    2    1    2    0  504  0.42428650446E+02 -0.75316883473E+01  0.15318700436E+02  0.18032629683E+03  0.17443048483E+03 0.  0.
        -24    2    3    3    0    0  0.94311249195E+02 -0.75025915531E+01  0.27980413249E+02  0.12671460155E+03  0.79515948808E+02 0.  0.
          6    2    1    2  502    0 -0.42428650446E+02  0.75316883473E+01  0.40869368509E+03  0.44554262412E+03  0.17210689981E+03 0.  0.
         24    2    5    5    0    0 -0.61952187101E+01  0.18574793087E+02  0.39714179875E+03  0.40566345893E+03  0.80360624237E+02 0.  0.
          2    1    6    6  501    0  0.36622355878E+02  0.13035295660E+02  0.21394694994E+03  0.21744979483E+03  0.00000000000E+00 0. -1.
         -1    1    6    6    0  501 -0.42817574588E+02  0.55394974267E+01  0.18319484881E+03  0.18821366410E+03  0.00000000000E+00 0.  1.
          5    1    5    5  502    0 -0.36233431736E+02 -0.11043104740E+02  0.11551886346E+02  0.39879165184E+02  0.47000000000E+01 0. -1.
         13    1    4    4    0    0  0.50722983630E+02  0.35063390528E+02  0.22115343240E+02  0.65508402745E+02  0.00000000000E+00 0. -1.
        -14    1    4    4    0    0  0.43588265565E+02 -0.42565982081E+02  0.58650700097E+01  0.61206198801E+02  0.00000000000E+00 0.  1.
         -5    1    3    3    0  504 -0.51882598749E+02 -0.29096794186E-01 -0.12661712813E+02  0.53611695281E+02  0.47000000000E+01 0.  1.
<mgrwt>
<rscale>  2 0.17910806E+03</rscale>
<asrwt>0</asrwt>
<pdfrwt beam="1">  1       21 0.80760099E-01 0.17967446E+03</pdfrwt>
<pdfrwt beam="2">  1       21 0.15527426E-01 0.17967446E+03</pdfrwt>
<totfact> 0.49898953E+04</totfact>
</mgrwt>
</event>
<event>
12    1  0.1410528E-001  0.2021728E+03  0.7546771E-02  0.1148781E+00
         21   -1    0    0  502  503  0.00000000000E+00  0.00000000000E+00  0.81277928557E+03  0.81277928557E+03  0.00000000000E+00 0. -1.
         21   -1    0    0  503  504 -0.00000000000E+00 -0.00000000000E+00 -0.58232344586E+02  0.58232344586E+02  0.00000000000E+00 0. -1.
         -6    2    1    2    0  504  0.67839710756E+02  0.78887373164E+02  0.54480615916E+03  0.57969560188E+03  0.16854612359E+03 0.  0.
        -24    2    3    3    0    0  0.41203899807E+02  0.74142367878E+00  0.41796792197E+03  0.42828132164E+03  0.83841490950E+02 0.  0.
          6    2    1    2  502    0 -0.67839710756E+02 -0.78887373164E+02  0.20974078182E+03  0.29131602827E+03  0.17334471082E+03 0.  0.
         24    2    5    5    0    0 -0.31647469607E+01 -0.90764416592E+02  0.18303174739E+03  0.22018672613E+03  0.82057168316E+02 0.  0.
          2    1    6    6  501    0  0.38000695997E+02 -0.48397286789E+02  0.11210185617E+03  0.12787953872E+03  0.00000000000E+00 0. -1.
         -1    1    6    6    0  501 -0.41165442957E+02 -0.42367129803E+02  0.70929891213E+02  0.92307187419E+02  0.00000000000E+00 0.  1.
          5    1    5    5  502    0 -0.64674963795E+02  0.11877043429E+02  0.26709034434E+02  0.71129302140E+02  0.47000000000E+01 0. -1.
         13    1    4    4    0    0  0.71099638508E+01  0.18435031243E+02  0.34719172447E+03  0.34775349819E+03  0.00000000000E+00 0. -1.
        -14    1    4    4    0    0  0.34093935956E+02 -0.17693607564E+02  0.70776197496E+02  0.80527823450E+02  0.00000000000E+00 0.  1.
         -5    1    3    3    0  504  0.26635810949E+02  0.78145949485E+02  0.12683823720E+03  0.15141428024E+03  0.47000000000E+01 0.  1.
<mgrwt>
<rscale>  2 0.20114016E+03</rscale>
<asrwt>0</asrwt>
<pdfrwt beam="1">  1       21 0.12504296E+00 0.20217278E+03</pdfrwt>
<pdfrwt beam="2">  1       21 0.89588228E-02 0.20217278E+03</pdfrwt>
<totfact> 0.46689999E+04</totfact>
</mgrwt>
</event>
<event>
12    1  0.1410528E-001  0.1972324E+03  0.7546771E-02  0.1152324E+00
         21   -1    0    0  502  503  0.00000000000E+00  0.00000000000E+00  0.91323066378E+03  0.91323066378E+03  0.00000000000E+00 0. -1.
         21   -1    0    0  503  504 -0.00000000000E+00 -0.00000000000E+00 -0.17349579691E+03  0.17349579691E+03  0.00000000000E+00 0.  1.
         -6    2    1    2    0  504  0.30511800185E+02 -0.89301214699E+02 -0.10227067353E+03  0.22217094107E+03  0.17319052946E+03 0.  0.
        -24    2    3    3    0    0  0.75767721930E+02 -0.17754920465E+02 -0.60021126936E+02  0.12743929452E+03  0.81131086648E+02 0.  0.
          6    2    1    2  502    0 -0.30511800185E+02  0.89301214699E+02  0.84200554041E+03  0.86455551962E+03  0.17198034634E+03 0.  0.
         24    2    5    5    0    0 -0.34170008645E+02  0.11725750368E+03  0.80377648336E+03  0.81682201581E+03  0.78896505959E+02 0.  0.
          4    1    6    6  501    0  0.20816948828E+02  0.43818283417E+02  0.38944823161E+03  0.39245803907E+03  0.00000000000E+00 0. -1.
         -3    1    6    6    0  501 -0.54986957473E+02  0.73439220262E+02  0.41432825175E+03  0.42436397675E+03  0.00000000000E+00 0.  1.
          5    1    5    5  502    0  0.36582084606E+01 -0.27956288981E+02  0.38229057044E+02  0.47733503801E+02  0.47000000000E+01 0. -1.
         13    1    4    4    0    0  0.35687713876E+02 -0.44253101797E+02 -0.93570087853E+01  0.57615133027E+02  0.00000000000E+00 0. -1.
        -14    1    4    4    0    0  0.40080008054E+02  0.26498181332E+02 -0.50664118151E+02  0.69824161488E+02  0.00000000000E+00 0.  1.
         -5    1    3    3    0  504 -0.45255921745E+02 -0.71546294234E+02 -0.42249546596E+02  0.94731646556E+02  0.47000000000E+01 0.  1.
<mgrwt>
<rscale>  2 0.19696645E+03</rscale>
<asrwt>0</asrwt>
<pdfrwt beam="1">  1       21 0.14049702E+00 0.19723244E+03</pdfrwt>
<pdfrwt beam="2">  1       21 0.26691661E-01 0.19723244E+03</pdfrwt>
<totfact> 0.47193246E+03</totfact>
</mgrwt>
</event>
<event>
12    1  0.1410528E-001  0.1969821E+03  0.7546771E-02  0.1152490E+00
         21   -1    0    0  502  503  0.00000000000E+00  0.00000000000E+00  0.95592423588E+02  0.95592423588E+02  0.00000000000E+00 0.  1.
         21   -1    0    0  503  504 -0.00000000000E+00 -0.00000000000E+00 -0.45845720308E+03  0.45845720308E+03  0.00000000000E+00 0.  1.
         -6    2    1    2    0  504  0.25508077473E+02  0.88768146961E+02 -0.27707120910E+03  0.33995647317E+03  0.17398707655E+03 0.  0.
        -24    2    3    3    0    0 -0.13654077637E+02  0.10761384730E+03 -0.26139226742E+03  0.29351560726E+03  0.77835212292E+02 0.  0.
          6    2    1    2  502    0 -0.25508077473E+02 -0.88768146961E+02 -0.85793570400E+02  0.21409315350E+03  0.17304593530E+03 0.  0.
         24    2    5    5    0    0  0.64545682953E+01 -0.12229902682E+03 -0.46313869853E+02  0.15304671721E+03  0.79243988386E+02 0.  0.
          4    1    6    6  501    0 -0.19507311012E+02 -0.10541626422E+02  0.11047713225E+02  0.24773232289E+02  0.00000000000E+00 0. -1.
         -3    1    6    6    0  501  0.25961879307E+02 -0.11175740040E+03 -0.57361583078E+02  0.12827348492E+03  0.00000000000E+00 0.  1.
          5    1    5    5  502    0 -0.31962645768E+02  0.33530879860E+02 -0.39479700547E+02  0.61046436292E+02  0.47000000000E+01 0. -1.
         11    1    4    4    0    0  0.81379312619E+01  0.10525084739E+02  0.54480702396E+00  0.13315410196E+02  0.00000000000E+00 0. -1.
        -12    1    4    4    0    0 -0.21792008899E+02  0.97088762557E+02 -0.26193707445E+03  0.28020019707E+03  0.00000000000E+00 0.  1.
         -5    1    3    3    0  504  0.39162155109E+02 -0.18845700335E+02 -0.15678941672E+02  0.46440865904E+02  0.47000000000E+01 0.  1.
<mgrwt>
<rscale>  2 0.19677408E+03</rscale>
<asrwt>0</asrwt>
<pdfrwt beam="1">  1       21 0.14706527E-01 0.19698210E+03</pdfrwt>
<pdfrwt beam="2">  1       21 0.70531876E-01 0.19698210E+03</pdfrwt>
<totfact> 0.73956877E+04</totfact>
</mgrwt>
</event>
<event>
12    1  0.1410528E-001  0.1806580E+03  0.7546771E-02  0.1167542E+00
         21   -1    0    0  502  503  0.00000000000E+00  0.00000000000E+00  0.82240403193E+03  0.82240403193E+03  0.00000000000E+00 0. -1.
         21   -1    0    0  503  504 -0.00000000000E+00 -0.00000000000E+00 -0.32498251052E+03  0.32498251052E+03  0.00000000000E+00 0. -1.
         -6    2    1    2    0  504  0.52996151753E+02 -0.49299342970E+01 -0.28900356927E+03  0.34082309710E+03  0.17263957863E+03 0.  0.
        -24    2    3    3    0    0  0.47489430497E+02  0.58914008275E+02 -0.22183731375E+03  0.24787274011E+03  0.80641150418E+02 0.  0.
          6    2    1    2  502    0 -0.52996151753E+02  0.49299342970E+01  0.78642509068E+03  0.80656344535E+03  0.17101833753E+03 0.  0.
         24    2    5    5    0    0 -0.80452046110E+02 -0.44045410381E+02  0.55893296586E+03  0.57219798848E+03  0.81190811000E+02 0.  0.
          2    1    6    6  501    0 -0.84993347030E+02 -0.61206519173E+02  0.47659165519E+03  0.48796486844E+03  0.00000000000E+00 0. -1.
         -1    1    6    6    0  501  0.45413009201E+01  0.17161108793E+02  0.82341310667E+02  0.84233120039E+02  0.00000000000E+00 0.  1.
          5    1    5    5  502    0  0.27455894357E+02  0.48975344678E+02  0.22749212482E+03  0.23436545688E+03  0.47000000000E+01 0. -1.
         11    1    4    4    0    0  0.49014995493E+02  0.97516542390E+00 -0.13351940153E+03  0.14223519717E+03  0.00000000000E+00 0. -1.
        -12    1    4    4    0    0 -0.15255649960E+01  0.57938842851E+02 -0.88317912219E+02  0.10563754294E+03  0.00000000000E+00 0.  1.
         -5    1    3    3    0  504  0.55067212555E+01 -0.63843942572E+02 -0.67166255525E+02  0.92950356983E+02  0.47000000000E+01 0.  1.
<mgrwt>
<rscale>  2 0.18026961E+03</rscale>
<asrwt>0</asrwt>
<pdfrwt beam="1">  1       21 0.12652370E+00 0.18065802E+03</pdfrwt>
<pdfrwt beam="2">  1       21 0.49997310E-01 0.18065802E+03</pdfrwt>
<totfact> 0.17841477E+03</totfact>
</mgrwt>
</event>
<event>
12    1  0.1410528E-001  0.2249227E+03  0.7546771E-02  0.1130268E+00
         21   -1    0    0  502  503  0.00000000000E+00  0.00000000000E+00  0.59672679854E+02  0.59672679854E+02  0.00000000000E+00 0. -1.
         21   -1    0    0  503  504 -0.00000000000E+00 -0.00000000000E+00 -0.10797738618E+04  0.10797738618E+04  0.00000000000E+00 0. -1.
         -6    2    1    2    0  504  0.13415265687E+03 -0.50718410492E+02 -0.24593848930E+03  0.33327155340E+03  0.17324807439E+03 0.  0.
        -24    2    3    3    0    0  0.24642932336E+02  0.10906594135E+02 -0.17252930818E+03  0.18766585696E+03  0.68745063686E+02 0.  0.
          6    2    1    2  502    0 -0.13415265687E+03  0.50718410492E+02 -0.77416269262E+03  0.80617498822E+03  0.17326553174E+03 0.  0.
         24    2    5    5    0    0 -0.44119065927E+02  0.71938060820E+02 -0.57435988451E+03  0.58594880180E+03  0.79530779117E+02 0.  0.
          4    1    6    6  501    0 -0.53563057532E+02  0.53298845990E+02 -0.54320630074E+03  0.54843673590E+03  0.00000000000E+00 0. -1.
         -3    1    6    6    0  501  0.94439916051E+01  0.18639214829E+02 -0.31153583768E+02  0.37512065906E+02  0.00000000000E+00 0.  1.
          5    1    5    5  502    0 -0.90033590940E+02 -0.21219650327E+02 -0.19980280811E+03  0.22022618642E+03  0.47000000000E+01 0. -1.
         13    1    4    4    0    0  0.14622746419E+02 -0.25381833051E+02 -0.11676693643E+03  0.12038513034E+03  0.00000000000E+00 0. -1.
        -14    1    4    4    0    0  0.10020185917E+02  0.36288427186E+02 -0.55762371741E+02  0.67280726628E+02  0.00000000000E+00 0.  1.
         -5    1    3    3    0  504  0.10950972453E+03 -0.61625004627E+02 -0.73409181125E+02  0.14560569644E+03  0.47000000000E+01 0.  1.
<mgrwt>
<rscale>  2 0.22491937E+03</rscale>
<asrwt>0</asrwt>
<pdfrwt beam="1">  1       21 0.91804125E-02 0.22492274E+03</pdfrwt>
<pdfrwt beam="2">  1       21 0.16611905E+00 0.22492274E+03</pdfrwt>
<totfact> 0.20990269E+04</totfact>
</mgrwt>
</event>
<event>
12    1  0.1410528E-001  0.2204177E+03  0.7546771E-02  0.1133804E+00
         21   -1    0    0  502  503  0.00000000000E+00  0.00000000000E+00  0.29730175325E+04  0.29730175325E+04  0.00000000000E+00 0.  1.
         21   -1    0    0  503  504 -0.00000000000E+00 -0.00000000000E+00 -0.19417671368E+02  0.19417671368E+02  0.00000000000E+00 0.  1.
         -6    2    1    2    0  504 -0.26145908091E+02 -0.13278277663E+03  0.87593840999E+03  0.90324529762E+03  0.17398015774E+03 0.  0.
        -24    2    3    3    0    0 -0.30862474521E+02 -0.75481642344E+02  0.24496040336E+03  0.26963579576E+03  0.77768197078E+02 0.  0.
          6    2    1    2  502    0  0.26145908091E+02  0.13278277663E+03  0.20776614512E+04  0.20891899063E+04  0.17240210135E+03 0.  0.
         24    2    5    5    0    0  0.43926525356E+02  0.26562564049E+02  0.14509278959E+04  0.14532528628E+04  0.64163968345E+02 0.  0.
          2    1    6    6  501    0 -0.13928282174E+02  0.34199894813E+01  0.54292754420E+03  0.54311694102E+03  0.00000000000E+00 0. -1.
         -1    1    6    6    0  501  0.57854807530E+02  0.23142574568E+02  0.90800035168E+03  0.91013592181E+03  0.00000000000E+00 0.  1.
          5    1    5    5  502    0 -0.17780617265E+02  0.10622021258E+03  0.62673355529E+03  0.63593704345E+03  0.47000000000E+01 0. -1.
         13    1    4    4    0    0  0.52870236126E+01  0.13724648501E+02  0.51419440386E+02  0.53481561727E+02  0.00000000000E+00 0. -1.
        -14    1    4    4    0    0 -0.36149498134E+02 -0.89206290846E+02  0.19354096298E+03  0.21615423404E+03  0.00000000000E+00 0.  1.
         -5    1    3    3    0  504  0.47165664304E+01 -0.57301134281E+02  0.63097800663E+03  0.63360950185E+03  0.47000000000E+01 0.  1.
<mgrwt>
<rscale>  2 0.22010619E+03</rscale>
<asrwt>0</asrwt>
<pdfrwt beam="1">  1       21 0.45738695E+00 0.22041772E+03</pdfrwt>
<pdfrwt beam="2">  1       21 0.29873364E-02 0.22041772E+03</pdfrwt>
<totfact> 0.22764638E+03</totfact>
</mgrwt>
</event>
<event>
12    1  0.1410528E-001  0.2345762E+03  0.7546771E-02  0.1125841E+00
         21   -1    0    0  502  503  0.00000000000E+00  0.00000000000E+00  0.49701239418E+03  0.49701239418E+03  0.00000000000E+00 0.  1.
         21   -1    0    0  503  504 -0.00000000000E+00 -0.00000000000E+00 -0.58953227439E+03  0.58953227439E+03  0.00000000000E+00 0.  1.
         -6    2    1    2    0  504 -0.25432500779E+02 -0.13712585629E+03 -0.53926165886E+03  0.58807239036E+03  0.18861518238E+03 0.  0.
        -24    2    3    3    0    0 -0.30439808121E+02 -0.92862394591E+02 -0.15370502127E+03  0.19992249926E+03  0.82424304055E+02 0.  0.
          6    2    1    2  502    0  0.25432500779E+02  0.13712585629E+03  0.44674177865E+03  0.49847227821E+03  0.17159860952E+03 0.  0.
         24    2    5    5    0    0 -0.75194393831E+01  0.11914538120E+02  0.11203611444E+03  0.13956605617E+03  0.82024965162E+02 0.  0.
          4    1    6    6  501    0  0.10993078661E+02  0.26171621288E+01  0.11757940508E+03  0.11812118276E+03  0.00000000000E+00 0. -1.
         -3    1    6    6    0  501 -0.18512518044E+02  0.92973759912E+01 -0.55432906447E+01  0.21444873416E+02  0.00000000000E+00 0.  1.
          5    1    5    5  502    0  0.32951940162E+02  0.12521131817E+03  0.33470566421E+03  0.35890622203E+03  0.47000000000E+01 0. -1.
         13    1    4    4    0    0 -0.27275017293E+02  0.61679433918E+01 -0.43634987188E+02  0.51826462362E+02  0.00000000000E+00 0. -1.
        -14    1    4    4    0    0 -0.31647908277E+01 -0.99030337983E+02 -0.11007003408E+03  0.14809603690E+03  0.00000000000E+00 0.  1.
         -5    1    3    3    0  504  0.50073073418E+01 -0.44263461697E+02 -0.38555663759E+03  0.38814989110E+03  0.47000000000E+01 0.  1.
<mgrwt>
<rscale>  2 0.23113866E+03</rscale>
<asrwt>0</asrwt>
<pdfrwt beam="1">  1       21 0.76463445E-01 0.23457621E+03</pdfrwt>
<pdfrwt beam="2">  1       21 0.90697273E-01 0.23457621E+03</pdfrwt>
<totfact> 0.15145207E+03</totfact>
</mgrwt>
</event>
<event>
12    1  0.1410528E-001  0.1861025E+03  0.7546771E-02  0.1162270E+00
         21   -1    0    0  502  503  0.00000000000E+00  0.00000000000E+00  0.25075878729E+03  0.25075878729E+03  0.00000000000E+00 0. -1.
         21   -1    0    0  503  504 -0.00000000000E+00 -0.00000000000E+00 -0.23775383276E+03  0.23775383276E+03  0.00000000000E+00 0. -1.
         -6    2    1    2    0  504  0.67651989936E+02 -0.43998802901E+01 -0.15224952307E+03  0.23962873996E+03  0.17217974633E+03 0.  0.
        -24    2    3    3    0    0  0.31281352636E+02  0.34255192550E+02 -0.16256016401E+02  0.93569293937E+02  0.79617921721E+02 0.  0.
          6    2    1    2  502    0 -0.67651989936E+02  0.43998802901E+01  0.16525447761E+03  0.24888388010E+03  0.17331472157E+03 0.  0.
         24    2    5    5    0    0 -0.79419042463E+02 -0.23262694725E+02  0.43654347688E+02  0.12353491449E+03  0.80663720186E+02 0.  0.
          4    1    6    6  501    0 -0.30090738918E+02 -0.25562717000E+02  0.59731886154E+02  0.71601698951E+02  0.00000000000E+00 0. -1.
         -3    1    6    6    0  501 -0.49328303544E+02  0.23000222757E+01 -0.16077538466E+02  0.51933215539E+02  0.00000000000E+00 0.  1.
          5    1    5    5  502    0  0.11767052527E+02  0.27662575015E+02  0.12160012992E+03  0.12534896561E+03  0.47000000000E+01 0. -1.
         13    1    4    4    0    0  0.48013268653E+02  0.46531041125E+01 -0.30096332870E+02  0.56856966124E+02  0.00000000000E+00 0. -1.
        -14    1    4    4    0    0 -0.16731916017E+02  0.29602088438E+02  0.13840316469E+02  0.36712327813E+02  0.00000000000E+00 0.  1.
         -5    1    3    3    0  504  0.36370637300E+02 -0.38655072840E+02 -0.13599350667E+03  0.14605944602E+03  0.47000000000E+01 0.  1.
<mgrwt>
<rscale>  2 0.18583781E+03</rscale>
<asrwt>0</asrwt>
<pdfrwt beam="1">  1       21 0.38578275E-01 0.18610251E+03</pdfrwt>
<pdfrwt beam="2">  1       21 0.36577513E-01 0.18610251E+03</pdfrwt>
<totfact> 0.46849520E+04</totfact>
</mgrwt>
</event>
<event>
12    1  0.1410528E-001  0.1962998E+03  0.7546771E-02  0.1153078E+00
         21   -1    0    0  502  503  0.00000000000E+00  0.00000000000E+00  0.38848824334E+03  0.38848824334E+03  0.00000000000E+00 0. -1.
         21   -1    0    0  503  504 -0.00000000000E+00 -0.00000000000E+00 -0.12962615211E+03  0.12962615211E+03  0.00000000000E+00 0.  1.
         -6    2    1    2    0  504 -0.44445491255E+02  0.82832440146E+02  0.25602674216E+03  0.32261945221E+03  0.17232818519E+03 0.  0.
        -24    2    3    3    0    0  0.31067456962E+02  0.98644227470E+01  0.93047116417E+02  0.12868393376E+03  0.82700031531E+02 0.  0.
          6    2    1    2  502    0  0.44445491255E+02 -0.82832440146E+02  0.28353490696E+01  0.19549494323E+03  0.17138733556E+03 0.  0.
         24    2    5    5    0    0  0.15844107490E+02 -0.33582555489E+02 -0.62874370992E+02  0.10841195062E+03  0.80132020651E+02 0.  0.
          4    1    6    6  501    0  0.27682348461E+02 -0.50245072074E+02 -0.66315231702E+02  0.87684603208E+02  0.00000000000E+00 0. -1.
         -3    1    6    6    0  501 -0.11838240971E+02  0.16662516584E+02  0.34408607102E+01  0.20727347409E+02  0.00000000000E+00 0.  1.
          5    1    5    5  502    0  0.28601383765E+02 -0.49249884656E+02  0.65709720062E+02  0.87082992614E+02  0.47000000000E+01 0. -1.
         11    1    4    4    0    0  0.47291596623E+02  0.32213870374E+02  0.43198448408E+02  0.71696126119E+02  0.00000000000E+00 0. -1.
        -12    1    4    4    0    0 -0.16224139661E+02 -0.22349447627E+02  0.49848668010E+02  0.56987807637E+02  0.00000000000E+00 0.  1.
         -5    1    3    3    0  504 -0.75512948217E+02  0.72968017399E+02  0.16297962575E+03  0.19393551846E+03  0.47000000000E+01 0.  1.
<mgrwt>
<rscale>  2 0.19609313E+03</rscale>
<asrwt>0</asrwt>
<pdfrwt beam="1">  1       21 0.59767421E-01 0.19629982E+03</pdfrwt>
<pdfrwt beam="2">  1       21 0.19942485E-01 0.19629982E+03</pdfrwt>
<totfact> 0.60537114E+04</totfact>
</mgrwt>
</event>
<event>
12    1  0.1410528E-001  0.2056019E+03  0.7546771E-02  0.1145208E+00
         21   -1    0    0  502  503  0.00000000000E+00  0.00000000000E+00  0.13270546924E+03  0.13270546924E+03  0.00000000000E+00 0. -1.
         21   -1    0    0  503  504 -0.00000000000E+00 -0.00000000000E+00 -0.41341941044E+03  0.41341941044E+03  0.00000000000E+00 0.  1.
         -6    2    1    2    0  504 -0.91369038243E+02 -0.56404847611E+02 -0.27189402647E+03  0.34087900693E+03  0.17533490170E+03 0.  0.
        -24    2    3    3    0    0 -0.83280550865E+02 -0.10349732810E+03 -0.18736011024E+03  0.24366173306E+03  0.81362658328E+02 0.  0.
          6    2    1    2  502    0  0.91369038243E+02  0.56404847611E+02 -0.88199147313E+01  0.20524587275E+03  0.17469478927E+03 0.  0.
         24    2    5    5    0    0  0.12361708252E+03  0.37319573949E+02 -0.40400652691E+02  0.15601562757E+03  0.77683522173E+02 0.  0.
          2    1    6    6  501    0  0.89739179489E+02  0.51890818412E+02 -0.33150848243E+01  0.10371483577E+03  0.00000000000E+00 0. -1.
         -1    1    6    6    0  501  0.33877903029E+02 -0.14571244463E+02 -0.37085567867E+02  0.52300791799E+02  0.00000000000E+00 0.  1.
          5    1    5    5  502    0 -0.32248044275E+02  0.19085273662E+02  0.31580737960E+02  0.49230245179E+02  0.47000000000E+01 0. -1.
         11    1    4    4    0    0 -0.51565530912E+02 -0.75484313160E+02 -0.59729615560E+02  0.10919941615E+03  0.00000000000E+00 0. -1.
        -12    1    4    4    0    0 -0.31715019953E+02 -0.28013014941E+02 -0.12763049468E+03  0.13446231691E+03  0.00000000000E+00 0.  1.
         -5    1    3    3    0  504 -0.80884873780E+01  0.47092480491E+02 -0.84533916227E+02  0.97217273874E+02  0.47000000000E+01 0.  1.
<mgrwt>
<rscale>  2 0.20546535E+03</rscale>
<asrwt>0</asrwt>
<pdfrwt beam="1">  1       21 0.20416226E-01 0.20560189E+03</pdfrwt>
<pdfrwt beam="2">  1       21 0.63602985E-01 0.20560189E+03</pdfrwt>
<totfact> 0.50427297E+04</totfact>
</mgrwt>
</event>
<event>
12    1  0.1410528E-001  0.1899398E+03  0.7546771E-02  0.1158768E+00
         21   -1    0    0  502  503  0.00000000000E+00  0.00000000000E+00  0.63652329796E+02  0.63652329796E+02  0.00000000000E+00 0. -1.
         21   -1    0    0  503  504 -0.00000000000E+00 -0.00000000000E+00 -0.83219231751E+03  0.83219231751E+03  0.00000000000E+00 0. -1.
         -6    2    1    2    0  504  0.38736901061E+02  0.66403862944E+02 -0.63956679468E+03  0.66717523563E+03  0.17368675731E+03 0.  0.
        -24    2    3    3    0    0 -0.42880156900E+02  0.21097831297E+02 -0.27990529771E+03  0.29556729295E+03  0.82031839183E+02 0.  0.
          6    2    1    2  502    0 -0.38736901061E+02 -0.66403862944E+02 -0.12897319303E+03  0.22866941167E+03  0.17246911258E+03 0.  0.
         24    2    5    5    0    0  0.29204358289E+02 -0.43614128991E+02 -0.12377677875E+03  0.15666608246E+03  0.80426883842E+02 0.  0.
          4    1    6    6  501    0  0.66942131483E+01 -0.51209126930E+02 -0.12242311930E+03  0.13287064126E+03  0.00000000000E+00 0. -1.
         -3    1    6    6    0  501  0.22510145141E+02  0.75949979388E+01 -0.13536594547E+01  0.23795441200E+02  0.00000000000E+00 0.  1.
          5    1    5    5  502    0 -0.67941259351E+02 -0.22789733953E+02 -0.51964142763E+01  0.72003329209E+02  0.47000000000E+01 0. -1.
         13    1    4    4    0    0  0.23058079253E+02  0.13693544038E+02 -0.10855650405E+03  0.11181995680E+03  0.00000000000E+00 0. -1.
        -14    1    4    4    0    0 -0.65938236153E+02  0.74042872583E+01 -0.17134879366E+03  0.18374733616E+03  0.00000000000E+00 0.  1.
         -5    1    3    3    0  504  0.81617057961E+02  0.45306031647E+02 -0.35966149698E+03  0.37160794268E+03  0.47000000000E+01 0.  1.
<mgrwt>
<rscale>  2 0.18966094E+03</rscale>
<asrwt>0</asrwt>
<pdfrwt beam="1">  1       21 0.97926674E-02 0.18993975E+03</pdfrwt>
<pdfrwt beam="2">  1       21 0.12802957E+00 0.18993975E+03</pdfrwt>
<totfact> 0.37882602E+04</totfact>
</mgrwt>
</event>
<event>
12    1  0.1410528E-001  0.1920895E+03  0.7546771E-02  0.1156786E+00
         21   -1    0    0  502  503  0.00000000000E+00  0.00000000000E+00  0.18483064977E+03  0.18483064977E+03  0.00000000000E+00 0. -1.
         21   -1    0    0  503  504 -0.00000000000E+00 -0.00000000000E+00 -0.20179928762E+03  0.20179928762E+03  0.00000000000E+00 0. -1.
         -6    2    1    2    0  504 -0.82169977564E+02  0.10348902206E+02 -0.32372965418E+02  0.19479831101E+03  0.17331868939E+03 0.  0.
        -24    2    3    3    0    0 -0.92326671446E+01  0.41832004370E+02  0.28232179572E+02  0.94767762816E+02  0.79678818851E+02 0.  0.
          6    2    1    2  502    0  0.82169977564E+02 -0.10348902206E+02  0.15404327565E+02  0.19183162638E+03  0.17234579943E+03 0.  0.
         24    2    5    5    0    0  0.18395584394E+02  0.53457748725E+02  0.23972858072E+02  0.10109039186E+03  0.80302185389E+02 0.  0.
          4    1    6    6  501    0  0.24141765985E+02  0.49970971869E+02 -0.18184698744E+02  0.58400395229E+02  0.00000000000E+00 0. -1.
         -3    1    6    6    0  501 -0.57461815914E+01  0.34867768556E+01  0.42157556815E+02  0.42689996631E+02  0.00000000000E+00 0.  1.
          5    1    5    5  502    0  0.63774393170E+02 -0.63806650931E+02 -0.85685305062E+01  0.90741234520E+02  0.47000000000E+01 0. -1.
         11    1    4    4    0    0  0.20227491362E+02  0.41308332398E+02 -0.94275515985E+01  0.46951128436E+02  0.00000000000E+00 0. -1.
        -12    1    4    4    0    0 -0.29460158506E+02  0.52367197183E+00  0.37659731171E+02  0.47816634380E+02  0.00000000000E+00 0.  1.
         -5    1    3    3    0  504 -0.72937310419E+02 -0.31483102164E+02 -0.60605144990E+02  0.10003054820E+03  0.47000000000E+01 0.  1.
<mgrwt>
<rscale>  2 0.19186978E+03</rscale>
<asrwt>0</asrwt>
<pdfrwt beam="1">  1       21 0.28435485E-01 0.19208949E+03</pdfrwt>
<pdfrwt beam="2">  1       21 0.31046044E-01 0.19208949E+03</pdfrwt>
<totfact> 0.11788120E+05</totfact>
</mgrwt>
</event>
<event>
12    1  0.1410528E-001  0.2638706E+03  0.7546771E-02  0.1104965E+00
         21   -1    0    0  502  503  0.00000000000E+00  0.00000000000E+00  0.98924389861E+02  0.98924389861E+02  0.00000000000E+00 0.  1.
         21   -1    0    0  503  504 -0.00000000000E+00 -0.00000000000E+00 -0.96719216719E+03  0.96719216719E+03  0.00000000000E+00 0. -1.
         -6    2    1    2    0  504  0.97790738505E+02 -0.17224947403E+03 -0.71397713815E+03  0.76117740237E+03  0.17434097121E+03 0.  0.
        -24    2    3    3    0    0  0.15710201106E+01 -0.11598577473E+03 -0.50756865854E+03  0.52654921029E+03  0.78568184892E+02 0.  0.
          6    2    1    2  502    0 -0.97790738505E+02  0.17224947403E+03 -0.15429063918E+03  0.30493915468E+03  0.17305888268E+03 0.  0.
         24    2    5    5    0    0 -0.12638196516E+03  0.13998320258E+03 -0.16156323205E+03  0.26096699164E+03  0.80208445030E+02 0.  0.
          2    1    6    6  501    0 -0.38834099734E+02  0.37083352836E+02 -0.97802869065E+02  0.11157357912E+03  0.00000000000E+00 0. -1.
         -1    1    6    6    0  501 -0.87547865426E+02  0.10289984974E+03 -0.63760362984E+02  0.14939341252E+03  0.00000000000E+00 0.  1.
          5    1    5    5  502    0  0.28591226656E+02  0.32266271457E+02  0.72725928676E+01  0.43972163041E+02  0.47000000000E+01 0. -1.
         13    1    4    4    0    0 -0.11583440101E+02 -0.12363791591E+03 -0.46672712589E+03  0.48296451254E+03  0.00000000000E+00 0. -1.
        -14    1    4    4    0    0  0.13154460211E+02  0.76521411812E+01 -0.40841532655E+02  0.43584697747E+02  0.00000000000E+00 0.  1.
         -5    1    3    3    0  504  0.96219718394E+02 -0.56263699304E+02 -0.20640847961E+03  0.23462819209E+03  0.47000000000E+01 0.  1.
<mgrwt>
<rscale>  2 0.26365900E+03</rscale>
<asrwt>0</asrwt>
<pdfrwt beam="1">  1       21 0.15219137E-01 0.26387058E+03</pdfrwt>
<pdfrwt beam="2">  1       21 0.14879880E+00 0.26387058E+03</pdfrwt>
<totfact> 0.11135041E+04</totfact>
</mgrwt>
</event>
<event>
12    1  0.1410528E-001  0.2130567E+03  0.7546771E-02  0.1140260E+00
         21   -1    0    0  502  503  0.00000000000E+00  0.00000000000E+00  0.24892291328E+03  0.24892291328E+03  0.00000000000E+00 0. -1.
         21   -1    0    0  503  504 -0.00000000000E+00 -0.00000000000E+00 -0.23900942406E+03  0.23900942406E+03  0.00000000000E+00 0. -1.
         -6    2    1    2    0  504  0.33994444224E+02 -0.10942082190E+03 -0.11870111386E+03  0.23906517215E+03  0.17301347808E+03 0.  0.
        -24    2    3    3    0    0  0.17277464766E+02 -0.29075407015E+02 -0.12924861824E+03  0.15619067098E+03  0.80910013612E+02 0.  0.
          6    2    1    2  502    0 -0.33994444224E+02  0.10942082190E+03  0.12861460309E+03  0.24886716520E+03  0.17962352653E+03 0.  0.
         24    2    5    5    0    0 -0.31581537787E+02  0.29162070977E+02 -0.49516967038E+01  0.92952651258E+02  0.82266981001E+02 0.  0.
          2    1    6    6  501    0  0.13211609344E+02 -0.82977690886E+01 -0.26466718416E+02  0.30722740389E+02  0.00000000000E+00 0. -1.
         -1    1    6    6    0  501 -0.44793147130E+02  0.37459840065E+02  0.21515021712E+02  0.62229910869E+02  0.00000000000E+00 0.  1.
          5    1    5    5  502    0 -0.24129064373E+01  0.80258750921E+02  0.13356629979E+03  0.15591451394E+03  0.47000000000E+01 0. -1.
         11    1    4    4    0    0 -0.31443568263E+02 -0.17066067947E+02 -0.38956589314E+02  0.52892008009E+02  0.00000000000E+00 0. -1.
        -12    1    4    4    0    0  0.48721033029E+02 -0.12009339068E+02 -0.90292028924E+02  0.10329866297E+03  0.00000000000E+00 0.  1.
         -5    1    3    3    0  504  0.16716979458E+02 -0.80345414883E+02  0.10547504379E+02  0.82874501166E+02  0.47000000000E+01 0.  1.
<mgrwt>
<rscale>  2 0.21165737E+03</rscale>
<asrwt>0</asrwt>
<pdfrwt beam="1">  1       21 0.38295833E-01 0.21305668E+03</pdfrwt>
<pdfrwt beam="2">  1       21 0.36770681E-01 0.21305668E+03</pdfrwt>
<totfact> 0.46437224E+04</totfact>
</mgrwt>
</event>
<event>
12    1  0.1410528E-001  0.2595595E+03  0.7546771E-02  0.1107490E+00
         21   -1    0    0  502  503  0.00000000000E+00  0.00000000000E+00  0.42250312284E+03  0.42250312284E+03  0.00000000000E+00 0. -1.
         21   -1    0    0  503  504 -0.00000000000E+00 -0.00000000000E+00 -0.21964580715E+03  0.21964580715E+03  0.00000000000E+00 0.  1.
         -6    2    1    2    0  504  0.18072317641E+03 -0.68714642604E+02 -0.67033850246E+02  0.26807589580E+03  0.17317211157E+03 0.  0.
        -24    2    3    3    0    0  0.11053168620E+03 -0.62161515579E+02  0.25190626153E+02  0.15189830407E+03  0.79732173305E+02 0.  0.
          6    2    1    2  502    0 -0.18072317641E+03  0.68714642604E+02  0.26989116593E+03  0.37407303419E+03  0.17235667920E+03 0.  0.
         24    2    5    5    0    0 -0.31676277483E+02 -0.14435820426E+02  0.10728754853E+03  0.13829558834E+03  0.80020448747E+02 0.  0.
          4    1    6    6  501    0 -0.32001277184E+02  0.13119433839E+02  0.83333539147E+01  0.35575919849E+02  0.00000000000E+00 0. -1.
         -3    1    6    6    0  501  0.32499970143E+00 -0.27555254265E+02  0.98954194616E+02  0.10271966849E+03  0.00000000000E+00 0.  1.
          5    1    5    5  502    0 -0.14904689893E+03  0.83150463030E+02  0.16260361740E+03  0.23577744586E+03  0.47000000000E+01 0. -1.
         13    1    4    4    0    0  0.57949572019E+01 -0.35949331508E+02 -0.10981233780E+02  0.38033188930E+02  0.00000000000E+00 0. -1.
        -14    1    4    4    0    0  0.10473672899E+03 -0.26212184071E+02  0.36171859933E+02  0.11386511514E+03  0.00000000000E+00 0.  1.
         -5    1    3    3    0  504  0.70191490219E+02 -0.65531270249E+01 -0.92224476399E+02  0.11617759173E+03  0.47000000000E+01 0.  1.
<mgrwt>
<rscale>  2 0.25942359E+03</rscale>
<asrwt>0</asrwt>
<pdfrwt beam="1">  1       21 0.65000480E-01 0.25955953E+03</pdfrwt>
<pdfrwt beam="2">  1       21 0.33791663E-01 0.25955953E+03</pdfrwt>
<totfact> 0.17723569E+04</totfact>
</mgrwt>
</event>
<event>
12    1  0.1410528E-001  0.2397952E+03  0.7546771E-02  0.1120399E+00
         21   -1    0    0  502  503  0.00000000000E+00  0.00000000000E+00  0.27578161428E+03  0.27578161428E+03  0.00000000000E+00 0.  1.
         21   -1    0    0  503  504 -0.00000000000E+00 -0.00000000000E+00 -0.26213291052E+03  0.26213291052E+03  0.00000000000E+00 0. -1.
         -6    2    1    2    0  504  0.47431316500E+02  0.15915699392E+03 -0.11751829971E+03  0.26704362486E+03  0.17297707453E+03 0.  0.
        -24    2    3    3    0    0  0.42424332174E+02  0.27578105170E+02 -0.77929416644E+01  0.95579873426E+02  0.80711872851E+02 0.  0.
          6    2    1    2  502    0 -0.47431316500E+02 -0.15915699392E+03  0.13116700347E+03  0.27087089993E+03  0.16907271551E+03 0.  0.
         24    2    5    5    0    0  0.12228241429E+02 -0.13245322193E+03  0.13444527787E+03  0.20525694278E+03  0.79758973961E+02 0.  0.
          4    1    6    6  501    0  0.42507747952E+02 -0.46559311575E+02  0.43841126465E+02  0.76790119808E+02  0.00000000000E+00 0. -1.
         -3    1    6    6    0  501 -0.30279506523E+02 -0.85893910357E+02  0.90604151405E+02  0.12846682297E+03  0.00000000000E+00 0.  1.
          5    1    5    5  502    0 -0.59659557929E+02 -0.26703771993E+02 -0.32782744004E+01  0.65613957158E+02  0.47000000000E+01 0. -1.
         13    1    4    4    0    0 -0.22611983040E+02  0.70463393992E+01 -0.13290121817E+02  0.27158424363E+02  0.00000000000E+00 0. -1.
        -14    1    4    4    0    0  0.65036315214E+02  0.20531765771E+02  0.54971801526E+01  0.68421449063E+02  0.00000000000E+00 0.  1.
         -5    1    3    3    0  504  0.50069843265E+01  0.13157888875E+03 -0.10972535805E+03  0.17146375144E+03  0.47000000000E+01 0.  1.
<mgrwt>
<rscale>  2 0.23909188E+03</rscale>
<asrwt>0</asrwt>
<pdfrwt beam="1">  1       21 0.42427940E-01 0.23979522E+03</pdfrwt>
<pdfrwt beam="2">  1       21 0.40328140E-01 0.23979522E+03</pdfrwt>
<totfact> 0.30918304E+04</totfact>
</mgrwt>
</event>
<event>
12    1  0.1410528E-001  0.2319211E+03  0.7546771E-02  0.1125363E+00
         21   -1    0    0  502  503  0.00000000000E+00  0.00000000000E+00  0.59689388581E+03  0.59689388581E+03  0.00000000000E+00 0.  1.
         21   -1    0    0  503  504 -0.00000000000E+00 -0.00000000000E+00 -0.11825522446E+03  0.11825522446E+03  0.00000000000E+00 0.  1.
         -6    2    1    2    0  504  0.13063093985E+02  0.15427690054E+03  0.64563402946E+02  0.24074013557E+03  0.17267128717E+03 0.  0.
        -24    2    3    3    0    0  0.24098139396E+02  0.21177605471E+02  0.61814634085E+02  0.10707323502E+03  0.81329068446E+02 0.  0.
          6    2    1    2  502    0 -0.13063093985E+02 -0.15427690054E+03  0.41407525840E+03  0.47440897469E+03  0.17214397807E+03 0.  0.
         24    2    5    5    0    0 -0.34793029545E+02 -0.11710280075E+03  0.16159921350E+03  0.21824428735E+03  0.81195087959E+02 0.  0.
          4    1    6    6  501    0 -0.43047086778E+02 -0.78657163660E+02  0.15398943475E+03  0.17819300517E+03  0.00000000000E+00 0. -1.
         -3    1    6    6    0  501  0.82540572331E+01 -0.38445637088E+02  0.76097787503E+01  0.40051282183E+02  0.00000000000E+00 0.  1.
          5    1    5    5  502    0  0.21729935559E+02 -0.37174099788E+02  0.25247604489E+03  0.25616468734E+03  0.47000000000E+01 0. -1.
         13    1    4    4    0    0 -0.25399638860E+02  0.17919741893E+02  0.45007153170E+02  0.54698287361E+02  0.00000000000E+00 0. -1.
        -14    1    4    4    0    0  0.49497778256E+02  0.32578635781E+01  0.16807480915E+02  0.52374947656E+02  0.00000000000E+00 0.  1.
         -5    1    3    3    0  504 -0.11035045410E+02  0.13309929506E+03  0.27487688614E+01  0.13366690056E+03  0.47000000000E+01 0.  1.
<mgrwt>
<rscale>  2 0.23182292E+03</rscale>
<asrwt>0</asrwt>
<pdfrwt beam="1">  1       21 0.91829827E-01 0.23192106E+03</pdfrwt>
<pdfrwt beam="2">  1       21 0.18193112E-01 0.23192106E+03</pdfrwt>
<totfact> 0.27011925E+04</totfact>
</mgrwt>
</event>
<event>
12    1  0.1410528E-001  0.1941869E+03  0.7546771E-02  0.1154748E+00
         21   -1    0    0  502  503  0.00000000000E+00  0.00000000000E+00  0.11480556165E+04  0.11480556165E+04  0.00000000000E+00 0.  1.
         21   -1    0    0  503  504 -0.00000000000E+00 -0.00000000000E+00 -0.47002412538E+02  0.47002412538E+02  0.00000000000E+00 0.  1.
         -6    2    1    2    0  504 -0.67690906389E+02  0.52854362520E+02  0.22255104486E+03  0.29535998415E+03  0.17416345836E+03 0.  0.
        -24    2    3    3    0    0 -0.71959495879E+01 -0.29706804109E+02  0.59070270754E+02  0.10242465941E+03  0.77892477604E+02 0.  0.
          6    2    1    2  502    0  0.67690906389E+02 -0.52854362520E+02  0.87850215914E+03  0.89969804492E+03  0.17411170544E+03 0.  0.
         24    2    5    5    0    0  0.51013622694E+02 -0.98215759752E+02  0.74919293975E+03  0.76157218793E+03  0.80333126967E+02 0.  0.
          4    1    6    6  501    0 -0.15415632440E+02 -0.30970849863E+02  0.10683111826E+03  0.11229302335E+03  0.00000000000E+00 0. -1.
         -3    1    6    6    0  501  0.66429255134E+02 -0.67244909889E+02  0.64236182149E+03  0.64927916458E+03  0.00000000000E+00 0.  1.
          5    1    5    5  502    0  0.16677283695E+02  0.45361397232E+02  0.12930921939E+03  0.13812585699E+03  0.47000000000E+01 0. -1.
         11    1    4    4    0    0 -0.28712009299E+02 -0.38028975137E+02  0.63032990711E+02  0.79017342058E+02  0.00000000000E+00 0. -1.
        -12    1    4    4    0    0  0.21516059711E+02  0.83221710275E+01 -0.39627199569E+01  0.23407317351E+02  0.00000000000E+00 0.  1.
         -5    1    3    3    0  504 -0.60494956801E+02  0.82561166630E+02  0.16348077410E+03  0.19293532474E+03  0.47000000000E+01 0.  1.
<mgrwt>
<rscale>  2 0.19417530E+03</rscale>
<asrwt>0</asrwt>
<pdfrwt beam="1">  1       21 0.17662392E+00 0.19418690E+03</pdfrwt>
<pdfrwt beam="2">  1       21 0.72311413E-02 0.19418690E+03</pdfrwt>
<totfact> 0.27415371E+04</totfact>
</mgrwt>
</event>
<event>
12    1  0.1410528E-001  0.2092025E+03  0.7546771E-02  0.1142446E+00
         21   -1    0    0  502  503  0.00000000000E+00  0.00000000000E+00  0.42466200629E+03  0.42466200629E+03  0.00000000000E+00 0. -1.
         21   -1    0    0  503  504 -0.00000000000E+00 -0.00000000000E+00 -0.32304201957E+03  0.32304201957E+03  0.00000000000E+00 0. -1.
         -6    2    1    2    0  504  0.19883802253E+02 -0.11413530990E+03 -0.25807400547E+03  0.33221662069E+03  0.17419373181E+03 0.  0.
        -24    2    3    3    0    0  0.75264491922E+02 -0.47986643610E+02 -0.11602284005E+03  0.16595390558E+03  0.78178882393E+02 0.  0.
          6    2    1    2  502    0 -0.19883802253E+02  0.11413530990E+03  0.35969399219E+03  0.41548740517E+03  0.17270721259E+03 0.  0.
         24    2    5    5    0    0  0.30887816485E+02 -0.43578798549E+01  0.18070832824E+03  0.19486022827E+03  0.65893553115E+02 0.  0.
          2    1    6    6  501    0  0.15369074029E+02  0.29930131661E+02  0.10592607981E+03  0.11114115170E+03  0.00000000000E+00 0. -1.
         -1    1    6    6    0  501  0.15518742456E+02 -0.34288011516E+02  0.74782248435E+02  0.83719076572E+02  0.00000000000E+00 0.  1.
          5    1    5    5  502    0 -0.50771618737E+02  0.11849318975E+03  0.17898566395E+03  0.22062717690E+03  0.47000000000E+01 0. -1.
         13    1    4    4    0    0  0.70578176446E+02 -0.61288943102E+02 -0.67170442831E+02  0.11510639395E+03  0.00000000000E+00 0. -1.
        -14    1    4    4    0    0  0.46863154764E+01  0.13302299492E+02 -0.48852397224E+02  0.50847511631E+02  0.00000000000E+00 0.  1.
         -5    1    3    3    0  504 -0.55380689669E+02 -0.66148666289E+02 -0.14205116542E+03  0.16626271511E+03  0.47000000000E+01 0.  1.
<mgrwt>
<rscale>  2 0.20889279E+03</rscale>
<asrwt>0</asrwt>
<pdfrwt beam="1">  1       21 0.65332616E-01 0.20920251E+03</pdfrwt>
<pdfrwt beam="2">  1       21 0.49698772E-01 0.20920251E+03</pdfrwt>
<totfact> 0.82204185E+03</totfact>
</mgrwt>
</event>
<event>
12    1  0.1410528E-001  0.1992049E+03  0.7546771E-02  0.1154874E+00
         21   -1    0    0  502  503  0.00000000000E+00  0.00000000000E+00  0.17472776184E+03  0.17472776184E+03  0.00000000000E+00 0. -1.
         21   -1    0    0  503  504 -0.00000000000E+00 -0.00000000000E+00 -0.38623070494E+03  0.38623070494E+03  0.00000000000E+00 0. -1.
         -6    2    1    2    0  504  0.63023226504E+01  0.45156440280E+02 -0.30069543459E+03  0.36069424152E+03  0.19391691034E+03 0.  0.
        -24    2    3    3    0    0 -0.26386142411E+02 -0.98220540965E+01 -0.28000242193E+03  0.29330387600E+03  0.82662604206E+02 0.  0.
          6    2    1    2  502    0 -0.63023226504E+01 -0.45156440280E+02  0.89192491487E+02  0.20026422525E+03  0.17341175280E+03 0.  0.
         24    2    5    5    0    0  0.27553363007E+02 -0.89406520018E+02  0.64719065727E+02  0.13922886193E+03  0.80270822159E+02 0.  0.
          4    1    6    6  501    0  0.20354250432E+02 -0.70745760873E+02  0.83830197785E+02  0.11156504942E+03  0.00000000000E+00 0. -1.
         -3    1    6    6    0  501  0.71991125745E+01 -0.18660759145E+02 -0.19111132057E+02  0.27663812503E+02  0.00000000000E+00 0.  1.
          5    1    5    5  502    0 -0.33855685657E+02  0.44250079738E+02  0.24473425760E+02  0.61035363328E+02  0.47000000000E+01 0. -1.
         13    1    4    4    0    0 -0.25769617918E+02 -0.43262421940E+02 -0.20647679078E+03  0.21252852865E+03  0.00000000000E+00 0. -1.
        -14    1    4    4    0    0 -0.61652449328E+00  0.33440367843E+02 -0.73525631150E+02  0.80775347353E+02  0.00000000000E+00 0.  1.
         -5    1    3    3    0  504  0.32688465061E+02  0.54978494376E+02 -0.20693012660E+02  0.67390365520E+02  0.47000000000E+01 0.  1.
<mgrwt>
<rscale>  2 0.19403202E+03</rscale>
<asrwt>0</asrwt>
<pdfrwt beam="1">  1       21 0.26881194E-01 0.19920490E+03</pdfrwt>
<pdfrwt beam="2">  1       21 0.59420108E-01 0.19920490E+03</pdfrwt>
<totfact> 0.34750762E+04</totfact>
</mgrwt>
</event>
<event>
12    1  0.1410528E-001  0.2042489E+03  0.7546771E-02  0.1147291E+00
         21   -1    0    0  502  503  0.00000000000E+00  0.00000000000E+00  0.20533608713E+03  0.20533608713E+03  0.00000000000E+00 0.  1.
         21   -1    0    0  503  504 -0.00000000000E+00 -0.00000000000E+00 -0.20097448525E+03  0.20097448525E+03  0.00000000000E+00 0. -1.
         -6    2    1    2    0  504 -0.73441796994E+02 -0.74579443901E+02  0.26929797877E+02  0.20601657629E+03  0.17539049203E+03 0.  0.
        -24    2    3    3    0    0 -0.10214960799E+01 -0.51305739877E+02 -0.41262485189E+02  0.10374907044E+03  0.80174525473E+02 0.  0.
          6    2    1    2  502    0  0.73441796994E+02  0.74579443901E+02 -0.22568196002E+02  0.20029399609E+03  0.16927070154E+03 0.  0.
         24    2    5    5    0    0  0.84291225174E+02  0.23389177809E+02 -0.60479610231E+02  0.13550573509E+03  0.83975929337E+02 0.  0.
          4    1    6    6  501    0  0.48771969242E+02 -0.29820563907E+02 -0.31529830561E+02  0.65284770281E+02  0.00000000000E+00 0. -1.
         -3    1    6    6    0  501  0.35519255932E+02  0.53209741715E+02 -0.28949779670E+02  0.70220964806E+02  0.00000000000E+00 0.  1.
          5    1    5    5  502    0 -0.10849428180E+02  0.51190266092E+02  0.37911414229E+02  0.64788260999E+02  0.47000000000E+01 0. -1.
         11    1    4    4    0    0  0.17467925526E+02 -0.15470087274E+02  0.19780581024E+02  0.30589596403E+02  0.00000000000E+00 0. -1.
        -12    1    4    4    0    0 -0.18489421606E+02 -0.35835652603E+02 -0.61043066213E+02  0.73159474038E+02  0.00000000000E+00 0.  1.
         -5    1    3    3    0  504 -0.72420300914E+02 -0.23273704024E+02  0.68192283065E+02  0.10226750585E+03  0.47000000000E+01 0.  1.
<mgrwt>
<rscale>  2 0.20292856E+03</rscale>
<asrwt>0</asrwt>
<pdfrwt beam="1">  1       21 0.31590167E-01 0.20424891E+03</pdfrwt>
<pdfrwt beam="2">  1       21 0.30919151E-01 0.20424891E+03</pdfrwt>
<totfact> 0.96320945E+04</totfact>
</mgrwt>
</event>
<event>
12    1  0.1410528E-001  0.2694085E+03  0.7546771E-02  0.1101817E+00
         21   -1    0    0  502  503  0.00000000000E+00  0.00000000000E+00  0.21499549104E+03  0.21499549104E+03  0.00000000000E+00 0.  1.
         21   -1    0    0  503  504 -0.00000000000E+00 -0.00000000000E+00 -0.35741417089E+03  0.35741417089E+03  0.00000000000E+00 0.  1.
         -6    2    1    2    0  504  0.19746115290E+03 -0.59649380032E+02 -0.11073809037E+01  0.26941077311E+03  0.17329738294E+03 0.  0.
        -24    2    3    3    0    0  0.16488423017E+03 -0.91005117570E+02  0.42277961954E+02  0.20657116660E+03  0.73589945116E+02 0.  0.
          6    2    1    2  502    0 -0.19746115290E+03  0.59649380032E+02 -0.14131129895E+03  0.30299888883E+03  0.17114464051E+03 0.  0.
         24    2    5    5    0    0 -0.18265955911E+03  0.38687307843E+02 -0.51380316750E+02  0.20936039670E+03  0.79565170968E+02 0.  0.
          4    1    6    6  501    0 -0.17810398069E+03  0.31771480372E+02 -0.65983230075E+02  0.19257269161E+03  0.00000000000E+00 0. -1.
         -3    1    6    6    0  501 -0.45555784212E+01  0.69158274717E+01  0.14602913325E+02  0.16787705083E+02  0.00000000000E+00 0.  1.
          5    1    5    5  502    0 -0.14801593784E+02  0.20962072188E+02 -0.89930982200E+02  0.93638492130E+02  0.47000000000E+01 0. -1.
         13    1    4    4    0    0  0.43287121385E+02 -0.64494390500E+02  0.18905873869E+02  0.79942062461E+02  0.00000000000E+00 0. -1.
        -14    1    4    4    0    0  0.12159710878E+03 -0.26510727071E+02  0.23372088085E+02  0.12662910414E+03  0.00000000000E+00 0.  1.
         -5    1    3    3    0  504  0.32576922731E+02  0.31355737539E+02 -0.43385342857E+02  0.62839606508E+02  0.47000000000E+01 0.  1.
<mgrwt>
<rscale>  2 0.26906291E+03</rscale>
<asrwt>0</asrwt>
<pdfrwt beam="1">  1       21 0.33076230E-01 0.26940850E+03</pdfrwt>
<pdfrwt beam="2">  1       21 0.54986795E-01 0.26940850E+03</pdfrwt>
<totfact> 0.26441207E+04</totfact>
</mgrwt>
</event>
<event>
12    1  0.1410528E-001  0.2321979E+03  0.7546771E-02  0.1125401E+00
         21   -1    0    0  502  503  0.00000000000E+00  0.00000000000E+00  0.20750577331E+03  0.20750577331E+03  0.00000000000E+00 0. -1.
         21   -1    0    0  503  504 -0.00000000000E+00 -0.00000000000E+00 -0.62247701295E+03  0.62247701295E+03  0.00000000000E+00 0.  1.
         -6    2    1    2    0  504 -0.12228324252E+03 -0.92448382513E+02 -0.52475362988E+03  0.57314030445E+03  0.17211490834E+03 0.  0.
        -24    2    3    3    0    0 -0.12348025517E+03 -0.12425635574E+03 -0.39854422493E+03  0.44289406113E+03  0.81428709912E+02 0.  0.
          6    2    1    2  502    0  0.12228324252E+03  0.92448382513E+02  0.10978239025E+03  0.25684248181E+03  0.17440181314E+03 0.  0.
         24    2    5    5    0    0  0.10980679758E+03  0.94062943976E+01  0.10546695416E+03  0.17262631314E+03  0.80811845665E+02 0.  0.
          2    1    6    6  501    0  0.11544582848E+03  0.16052705918E+02  0.11206755686E+03  0.16169281363E+03  0.00000000000E+00 0. -1.
         -1    1    6    6    0  501 -0.56390308992E+01 -0.66464115204E+01 -0.66006026952E+01  0.10933499509E+02  0.00000000000E+00 0.  1.
          5    1    5    5  502    0  0.12476444942E+02  0.83042088116E+02  0.43154360842E+01  0.84216168671E+02  0.47000000000E+01 0. -1.
         13    1    4    4    0    0 -0.21222036838E+02 -0.51128603388E+02 -0.59387117456E+02  0.81187059632E+02  0.00000000000E+00 0. -1.
        -14    1    4    4    0    0 -0.10225821833E+03 -0.73127752353E+02 -0.33915710747E+03  0.36170700149E+03  0.00000000000E+00 0.  1.
         -5    1    3    3    0  504  0.11970126478E+01  0.31807973227E+02 -0.12620940496E+03  0.13024624332E+03  0.47000000000E+01 0.  1.
<mgrwt>
<rscale>  2 0.23176858E+03</rscale>
<asrwt>0</asrwt>
<pdfrwt beam="1">  1       21 0.31923965E-01 0.23219795E+03</pdfrwt>
<pdfrwt beam="2">  1       21 0.95765694E-01 0.23219795E+03</pdfrwt>
<totfact> 0.83496908E+03</totfact>
</mgrwt>
</event>
<event>
12    1  0.1410528E-001  0.1874022E+03  0.7546771E-02  0.1160896E+00
         21   -1    0    0  502  503  0.00000000000E+00  0.00000000000E+00  0.98710923086E+02  0.98710923086E+02  0.00000000000E+00 0.  1.
         21   -1    0    0  503  504 -0.00000000000E+00 -0.00000000000E+00 -0.39560392040E+03  0.39560392040E+03  0.00000000000E+00 0.  1.
         -6    2    1    2    0  504  0.70109120273E+02 -0.19268187764E+02 -0.22732174851E+03  0.29441552565E+03  0.17239133561E+03 0.  0.
        -24    2    3    3    0    0 -0.24230085365E+02 -0.36044957207E+02 -0.10800877173E+03  0.14131744551E+03  0.80114852923E+02 0.  0.
          6    2    1    2  502    0 -0.70109120273E+02  0.19268187764E+02 -0.69571248803E+02  0.19989931784E+03  0.17272239810E+03 0.  0.
         24    2    5    5    0    0 -0.26298177878E+02  0.76280413461E+02 -0.29426462470E+02  0.11741606849E+03  0.80064479072E+02 0.  0.
          2    1    6    6  501    0 -0.27194521084E+00  0.83782671734E+02 -0.33095267881E+02  0.90082777450E+02  0.00000000000E+00 0. -1.
         -1    1    6    6    0  501 -0.26026232667E+02 -0.75022582726E+01  0.36688054109E+01  0.27333291042E+02  0.00000000000E+00 0.  1.
          5    1    5    5  502    0 -0.43810942395E+02 -0.57012225698E+02 -0.40144786333E+02  0.82483249344E+02  0.47000000000E+01 0. -1.
         11    1    4    4    0    0 -0.80494067235E+01 -0.87810335148E+01  0.12168534144E+02  0.17028585420E+02  0.00000000000E+00 0. -1.
        -12    1    4    4    0    0 -0.16180678641E+02 -0.27263923692E+02 -0.12017730587E+03  0.12428886009E+03  0.00000000000E+00 0.  1.
         -5    1    3    3    0  504  0.94339205637E+02  0.16776769443E+02 -0.11931297678E+03  0.15309808014E+03  0.47000000000E+01 0.  1.
<mgrwt>
<rscale>  2 0.18732587E+03</rscale>
<asrwt>0</asrwt>
<pdfrwt beam="1">  1       21 0.15186296E-01 0.18740218E+03</pdfrwt>
<pdfrwt beam="2">  1       21 0.60862142E-01 0.18740218E+03</pdfrwt>
<totfact> 0.96582328E+04</totfact>
</mgrwt>
</event>
<event>
12    1  0.1410528E-001  0.1835023E+03  0.7546771E-02  0.1164751E+00
         21   -1    0    0  502  503  0.00000000000E+00  0.00000000000E+00  0.17850920727E+03  0.17850920727E+03  0.00000000000E+00 0. -1.
         21   -1    0    0  503  504 -0.00000000000E+00 -0.00000000000E+00 -0.46064520634E+03  0.46064520634E+03  0.00000000000E+00 0. -1.
         -6    2    1    2    0  504  0.45496247649E+02 -0.35431652573E+02 -0.38741453926E+03  0.42867602666E+03  0.17420619980E+03 0.  0.
        -24    2    3    3    0    0  0.65261885820E+02 -0.78960330605E+02 -0.22681404145E+03  0.26104537266E+03  0.78779627056E+02 0.  0.
          6    2    1    2  502    0 -0.45496247649E+02  0.35431652573E+02  0.10527854019E+03  0.21047838694E+03  0.17289381074E+03 0.  0.
         24    2    5    5    0    0  0.28063788005E+02 -0.13342803596E+02  0.78321079369E+02  0.11807264516E+03  0.82712462528E+02 0.  0.
          4    1    6    6  501    0  0.36170704520E+02  0.11124217602E+02  0.24262202526E+01  0.37920372196E+02  0.00000000000E+00 0. -1.
         -3    1    6    6    0  501 -0.81069165149E+01 -0.24467021198E+02  0.75894859116E+02  0.80152272968E+02  0.00000000000E+00 0.  1.
          5    1    5    5  502    0 -0.73560035654E+02  0.48774456170E+02  0.26957460820E+02  0.92405741780E+02  0.47000000000E+01 0. -1.
         13    1    4    4    0    0  0.24796313260E+02 -0.40821436873E+02 -0.29712346543E+02  0.56250070194E+02  0.00000000000E+00 0. -1.
        -14    1    4    4    0    0  0.40465572559E+02 -0.38138893732E+02 -0.19710169491E+03  0.20479530247E+03  0.00000000000E+00 0.  1.
         -5    1    3    3    0  504 -0.19765638171E+02  0.43528678032E+02 -0.16060049781E+03  0.16763065400E+03  0.47000000000E+01 0.  1.
<mgrwt>
<rscale>  2 0.18319019E+03</rscale>
<asrwt>0</asrwt>
<pdfrwt beam="1">  1       21 0.27462955E-01 0.18350234E+03</pdfrwt>
<pdfrwt beam="2">  1       21 0.70868492E-01 0.18350234E+03</pdfrwt>
<totfact> 0.22927537E+04</totfact>
</mgrwt>
</event>
<event>
12    1  0.1410528E-001  0.1997881E+03  0.7546771E-02  0.1150131E+00
         21   -1    0    0  502  503  0.00000000000E+00  0.00000000000E+00  0.46878179040E+03  0.46878179040E+03  0.00000000000E+00 0. -1.
         21   -1    0    0  503  504 -0.00000000000E+00 -0.00000000000E+00 -0.12570730161E+03  0.12570730161E+03  0.00000000000E+00 0. -1.
         -6    2    1    2    0  504 -0.97250806962E+02  0.78719027551E+00  0.15139265595E+01  0.19878858045E+03  0.17336743818E+03 0.  0.
        -24    2    3    3    0    0 -0.36755018107E+02  0.39734757741E+02  0.52363684269E+02  0.11055909932E+03  0.80941810480E+02 0.  0.
          6    2    1    2  502    0  0.97250806962E+02 -0.78719027551E+00  0.34156056224E+03  0.39570051156E+03  0.17451916242E+03 0.  0.
         24    2    5    5    0    0  0.94040312440E+02  0.37663480837E+02  0.14964389089E+03  0.19988718177E+03  0.85436954544E+02 0.  0.
          2    1    6    6  501    0  0.10767746531E+03  0.28957596478E+02  0.14526609158E+03  0.18312623049E+03  0.00000000000E+00 0. -1.
         -1    1    6    6    0  501 -0.13637152872E+02  0.87058843597E+01  0.43777993057E+01  0.16760951277E+02  0.00000000000E+00 0.  1.
          5    1    5    5  502    0  0.32104945213E+01 -0.38450671113E+02  0.19191667135E+03  0.19581332979E+03  0.47000000000E+01 0. -1.
         13    1    4    4    0    0  0.72992412626E+00  0.56078070098E+02  0.25326334938E+02  0.61536216788E+02  0.00000000000E+00 0. -1.
        -14    1    4    4    0    0 -0.37484942233E+02 -0.16343312357E+02  0.27037349331E+02  0.49022882533E+02  0.00000000000E+00 0.  1.
         -5    1    3    3    0  504 -0.60495788855E+02 -0.38947567466E+02 -0.50849757710E+02  0.88229481126E+02  0.47000000000E+01 0.  1.
<mgrwt>
<rscale>  2 0.19953629E+03</rscale>
<asrwt>0</asrwt>
<pdfrwt beam="1">  1       21 0.72120275E-01 0.19978808E+03</pdfrwt>
<pdfrwt beam="2">  1       21 0.19339585E-01 0.19978808E+03</pdfrwt>
<totfact> 0.42471389E+04</totfact>
</mgrwt>
</event>
<event>
12    1  0.1410528E-001  0.1968152E+03  0.7546771E-02  0.1152462E+00
         21   -1    0    0  502  503  0.00000000000E+00  0.00000000000E+00  0.34001656186E+03  0.34001656186E+03  0.00000000000E+00 0. -1.
         21   -1    0    0  503  504 -0.00000000000E+00 -0.00000000000E+00 -0.27173140793E+03  0.27173140793E+03  0.00000000000E+00 0. -1.
         -6    2    1    2    0  504  0.79561969451E+02 -0.50854000201E+02 -0.19897120941E+03  0.27984109756E+03  0.17264200355E+03 0.  0.
        -24    2    3    3    0    0  0.23074514697E+02 -0.10204472275E+02 -0.19238365333E+03  0.20977896399E+03  0.79744461741E+02 0.  0.
          6    2    1    2  502    0 -0.79561969451E+02  0.50854000201E+02  0.26725636334E+03  0.33190687223E+03  0.17268460200E+03 0.  0.
         24    2    5    5    0    0 -0.93787401512E+02  0.56117936774E+02  0.12198949987E+03  0.18577465960E+03  0.87666906879E+02 0.  0.
          4    1    6    6  501    0 -0.46758292880E+02  0.11507889935E+02  0.10969355002E+03  0.11979751416E+03  0.00000000000E+00 0. -1.
         -3    1    6    6    0  501 -0.47029108633E+02  0.44610046839E+02  0.12295949852E+02  0.65977145441E+02  0.00000000000E+00 0.  1.
          5    1    5    5  502    0  0.14225432061E+02 -0.52639365729E+01  0.14526686347E+03  0.14613221263E+03  0.47000000000E+01 0. -1.
         11    1    4    4    0    0  0.39618199204E+02  0.20085155311E+02 -0.72489459861E+02  0.85016098258E+02  0.00000000000E+00 0. -1.
        -12    1    4    4    0    0 -0.16543684508E+02 -0.30289627585E+02 -0.11989419347E+03  0.12476286573E+03  0.00000000000E+00 0.  1.
         -5    1    3    3    0  504  0.56487454754E+02 -0.40649527926E+02 -0.65875560747E+01  0.70062133569E+02  0.47000000000E+01 0.  1.
<mgrwt>
<rscale>  2 0.19680582E+03</rscale>
<asrwt>0</asrwt>
<pdfrwt beam="1">  1       21 0.52310240E-01 0.19681516E+03</pdfrwt>
<pdfrwt beam="2">  1       21 0.41804832E-01 0.19681516E+03</pdfrwt>
<totfact> 0.19047812E+04</totfact>
</mgrwt>
</event>
<event>
12    1  0.1410528E-001  0.1813122E+03  0.7546771E-02  0.1170393E+00
         21   -1    0    0  502  503  0.00000000000E+00  0.00000000000E+00  0.40472306849E+03  0.40472306849E+03  0.00000000000E+00 0.  1.
         21   -1    0    0  503  504 -0.00000000000E+00 -0.00000000000E+00 -0.74555921297E+02  0.74555921297E+02  0.00000000000E+00 0.  1.
         -6    2    1    2    0  504 -0.49490845821E+02  0.22488936491E+02  0.15120914073E+03  0.22452405745E+03  0.15681757570E+03 0.  0.
        -24    2    3    3    0    0  0.39797149996E+01 -0.38206723620E+00  0.16350460552E+02  0.77584827475E+02  0.75736938063E+02 0.  0.
          6    2    1    2  502    0  0.49490845821E+02 -0.22488936491E+02  0.17895800647E+03  0.25475493234E+03  0.17297112877E+03 0.  0.
         24    2    5    5    0    0  0.75089294395E+02 -0.30434113574E+02  0.51832951004E+02  0.12475002422E+03  0.79443541791E+02 0.  0.
          2    1    6    6  501    0  0.60436802883E+02 -0.49210075770E+02  0.12737570294E+02  0.78971415063E+02  0.00000000000E+00 0. -1.
         -1    1    6    6    0  501  0.14652491512E+02  0.18775962196E+02  0.39095380710E+02  0.45778609161E+02  0.00000000000E+00 0.  1.
          5    1    5    5  502    0 -0.25598448574E+02  0.79451770831E+01  0.12712505546E+03  0.13000490812E+03  0.47000000000E+01 0. -1.
         11    1    4    4    0    0  0.82257512447E+01  0.33177244302E+02 -0.89605344206E+01  0.35336718864E+02  0.00000000000E+00 0. -1.
        -12    1    4    4    0    0 -0.42460362451E+01 -0.33559311538E+02  0.25310994973E+02  0.42248108611E+02  0.00000000000E+00 0.  1.
         -5    1    3    3    0  504 -0.53470560820E+02  0.22871003727E+02  0.13485868018E+03  0.14693922997E+03  0.47000000000E+01 0.  1.
<mgrwt>
<rscale>  2 0.17734920E+03</rscale>
<asrwt>0</asrwt>
<pdfrwt beam="1">  1       21 0.62265086E-01 0.18131218E+03</pdfrwt>
<pdfrwt beam="2">  1       21 0.11470142E-01 0.18131218E+03</pdfrwt>
<totfact> 0.15275350E+05</totfact>
</mgrwt>
</event>
<event>
12    1  0.1410528E-001  0.2509648E+03  0.7546771E-02  0.1113006E+00
         21   -1    0    0  502  503  0.00000000000E+00  0.00000000000E+00  0.71923873182E+03  0.71923873182E+03  0.00000000000E+00 0. -1.
         21   -1    0    0  503  504 -0.00000000000E+00 -0.00000000000E+00 -0.51201713646E+03  0.51201713646E+03  0.00000000000E+00 0. -1.
         -6    2    1    2    0  504 -0.16050373491E+03  0.85888884083E+02 -0.45728620850E+03  0.52162629359E+03  0.17275695164E+03 0.  0.
        -24    2    3    3    0    0 -0.13004782665E+03  0.70137656632E+02 -0.19806088357E+03  0.26010091699E+03  0.81195106542E+02 0.  0.
          6    2    1    2  502    0  0.16050373491E+03 -0.85888884083E+02  0.66450780386E+03  0.70962957470E+03  0.16989750606E+03 0.  0.
         24    2    5    5    0    0  0.55246179604E+02 -0.14082857811E+02  0.44631053577E+03  0.45690957913E+03  0.79516048158E+02 0.  0.
          2    1    6    6  501    0  0.10592390792E+02 -0.23324533357E+01  0.34932603183E+03  0.34949437133E+03  0.00000000000E+00 0. -1.
         -1    1    6    6    0  501  0.44653788813E+02 -0.11750404476E+02  0.96984503945E+02  0.10741520780E+03  0.00000000000E+00 0.  1.
          5    1    5    5  502    0  0.10525755531E+03 -0.71806026272E+02  0.21819726809E+03  0.25271999557E+03  0.47000000000E+01 0. -1.
         13    1    4    4    0    0 -0.94350635973E+02  0.45575210208E+02 -0.18859451613E+03  0.21574761600E+03  0.00000000000E+00 0. -1.
        -14    1    4    4    0    0 -0.35697190676E+02  0.24562446424E+02 -0.94663674350E+01  0.44353300992E+02  0.00000000000E+00 0.  1.
         -5    1    3    3    0  504 -0.30455908266E+02  0.15751227451E+02 -0.25922532493E+03  0.26152537659E+03  0.47000000000E+01 0.  1.
<mgrwt>
<rscale>  2 0.25047339E+03</rscale>
<asrwt>0</asrwt>
<pdfrwt beam="1">  1       21 0.11065211E+00 0.25096477E+03</pdfrwt>
<pdfrwt beam="2">  1       21 0.78771867E-01 0.25096477E+03</pdfrwt>
<totfact> 0.86919719E+02</totfact>
</mgrwt>
</event>
<event>
12    1  0.1410528E-001  0.2702371E+03  0.7546771E-02  0.1101206E+00
         21   -1    0    0  502  503  0.00000000000E+00  0.00000000000E+00  0.19886897651E+03  0.19886897651E+03  0.00000000000E+00 0. -1.
         21   -1    0    0  503  504 -0.00000000000E+00 -0.00000000000E+00 -0.74715904694E+03  0.74715904694E+03  0.00000000000E+00 0.  1.
         -6    2    1    2    0  504  0.20714558690E+03 -0.18283392700E+02 -0.61160555137E+03  0.66847274170E+03  0.17190369194E+03 0.  0.
        -24    2    3    3    0    0  0.19941373811E+03 -0.11873264680E+02 -0.61877880114E+03  0.65526604873E+03  0.81114588727E+02 0.  0.
          6    2    1    2  502    0 -0.20714558690E+03  0.18283392700E+02  0.63315480935E+02  0.27755528175E+03  0.17258188689E+03 0.  0.
         24    2    5    5    0    0 -0.11153479210E+03  0.68717333638E+02  0.71622786198E+02  0.16903750533E+03  0.79257636302E+02 0.  0.
          2    1    6    6  501    0 -0.10278148337E+03  0.23058372022E+02  0.39362691775E+02  0.11245062627E+03  0.00000000000E+00 0. -1.
         -1    1    6    6    0  501 -0.87533087355E+01  0.45658961616E+02  0.32260094422E+02  0.56586879061E+02  0.00000000000E+00 0.  1.
          5    1    5    5  502    0 -0.95610794794E+02 -0.50433940938E+02 -0.83073052630E+01  0.10851777643E+03  0.47000000000E+01 0. -1.
         13    1    4    4    0    0 -0.59424331324E+01 -0.68302494086E+01 -0.15228893854E+02  0.17716772464E+02  0.00000000000E+00 0. -1.
        -14    1    4    4    0    0  0.20535617125E+03 -0.50430152719E+01 -0.60354990729E+03  0.63754927626E+03  0.00000000000E+00 0.  1.
         -5    1    3    3    0  504  0.77318487833E+01 -0.64101280200E+01  0.71732497747E+01  0.13206692969E+02  0.47000000000E+01 0.  1.
<mgrwt>
<rscale>  2 0.27012887E+03</rscale>
<asrwt>0</asrwt>
<pdfrwt beam="1">  1       21 0.30595227E-01 0.27023709E+03</pdfrwt>
<pdfrwt beam="2">  1       21 0.11494755E+00 0.27023709E+03</pdfrwt>
<totfact> 0.57101903E+03</totfact>
</mgrwt>
</event>
<event>
12    1  0.1410528E-001  0.2267355E+03  0.7546771E-02  0.1129108E+00
         21   -1    0    0  502  503  0.00000000000E+00  0.00000000000E+00  0.16178666508E+03  0.16178666508E+03  0.00000000000E+00 0.  1.
         21   -1    0    0  503  504 -0.00000000000E+00 -0.00000000000E+00 -0.35349413815E+03  0.35349413815E+03  0.00000000000E+00 0.  1.
         -6    2    1    2    0  504  0.11755580149E+03  0.85170106909E+02 -0.17924661137E+03  0.28902999238E+03  0.17417139614E+03 0.  0.
        -24    2    3    3    0    0  0.14370121912E+03  0.55071208740E+02 -0.17954381792E+03  0.24888394817E+03  0.77616742339E+02 0.  0.
          6    2    1    2  502    0 -0.11755580149E+03 -0.85170106909E+02 -0.12460861697E+02  0.22625081085E+03  0.17309200664E+03 0.  0.
         24    2    5    5    0    0 -0.10617111096E+03 -0.51939949945E+02  0.51802291298E+02  0.15286350035E+03  0.81937226894E+02 0.  0.
          4    1    6    6  501    0 -0.86028436980E+02 -0.59361478285E+02  0.89110679724E+01  0.10490035370E+03  0.00000000000E+00 0. -1.
         -3    1    6    6    0  501 -0.20142673982E+02  0.74215283400E+01  0.42891223326E+02  0.47963146648E+02  0.00000000000E+00 0.  1.
          5    1    5    5  502    0 -0.11384690524E+02 -0.33230156964E+02 -0.64263152995E+02  0.73387310504E+02  0.47000000000E+01 0. -1.
         11    1    4    4    0    0  0.38427870439E+02  0.54385711371E+02 -0.60541592268E+02  0.89998840116E+02  0.00000000000E+00 0. -1.
        -12    1    4    4    0    0  0.10527334868E+03  0.68549736938E+00 -0.11900222565E+03  0.15888510805E+03  0.00000000000E+00 0.  1.
         -5    1    3    3    0  504 -0.26145417637E+02  0.30098898169E+02  0.29720655299E+00  0.40146044215E+02  0.47000000000E+01 0.  1.
<mgrwt>
<rscale>  2 0.22652820E+03</rscale>
<asrwt>0</asrwt>
<pdfrwt beam="1">  1       21 0.24890257E-01 0.22673550E+03</pdfrwt>
<pdfrwt beam="2">  1       21 0.54383712E-01 0.22673550E+03</pdfrwt>
<totfact> 0.48011309E+04</totfact>
</mgrwt>
</event>
<event>
12    1  0.1410528E-001  0.2290096E+03  0.7546771E-02  0.1127651E+00
         21   -1    0    0  502  503  0.00000000000E+00  0.00000000000E+00  0.29567120206E+03  0.29567120206E+03  0.00000000000E+00 0.  1.
         21   -1    0    0  503  504 -0.00000000000E+00 -0.00000000000E+00 -0.36137236812E+03  0.36137236812E+03  0.00000000000E+00 0. -1.
         -6    2    1    2    0  504  0.35157717070E+02  0.14275648399E+03 -0.26819139772E+03  0.35266418212E+03  0.17558451170E+03 0.  0.
        -24    2    3    3    0    0  0.60675794272E+02  0.15657098305E+03 -0.26440612943E+03  0.32302584708E+03  0.78987795625E+02 0.  0.
          6    2    1    2  502    0 -0.35157717070E+02 -0.14275648399E+03  0.20249023166E+03  0.30437938806E+03  0.17328888933E+03 0.  0.
         24    2    5    5    0    0 -0.78380251972E+02 -0.52693312257E+02  0.13820504233E+03  0.18549188664E+03  0.79915938506E+02 0.  0.
          4    1    6    6  501    0 -0.19758031368E+02 -0.48831241023E+02  0.10630471494E+03  0.11864047506E+03  0.00000000000E+00 0. -1.
         -3    1    6    6    0  501 -0.58622220605E+02 -0.38620712339E+01  0.31900327392E+02  0.66851411582E+02  0.00000000000E+00 0.  1.
          5    1    5    5  502    0  0.43222534902E+02 -0.90063171735E+02  0.64285189325E+02  0.11888750142E+03  0.47000000000E+01 0. -1.
         13    1    4    4    0    0  0.54655808124E+02  0.46757142669E+02 -0.13687570980E+03  0.15462356769E+03  0.00000000000E+00 0. -1.
        -14    1    4    4    0    0  0.60199861473E+01  0.10981384038E+03 -0.12753041963E+03  0.16840227939E+03  0.00000000000E+00 0.  1.
         -5    1    3    3    0  504 -0.25518077202E+02 -0.13814499053E+02 -0.37852682927E+01  0.29638335045E+02  0.47000000000E+01 0.  1.
<mgrwt>
<rscale>  2 0.22856951E+03</rscale>
<asrwt>0</asrwt>
<pdfrwt beam="1">  1       21 0.45487877E-01 0.22900961E+03</pdfrwt>
<pdfrwt beam="2">  1       21 0.55595749E-01 0.22900961E+03</pdfrwt>
<totfact> 0.13818146E+04</totfact>
</mgrwt>
</event>
<event>
12    1  0.1410528E-001  0.2040209E+03  0.7546771E-02  0.1146557E+00
         21   -1    0    0  502  503  0.00000000000E+00  0.00000000000E+00  0.12943249556E+04  0.12943249556E+04  0.00000000000E+00 0. -1.
         21   -1    0    0  503  504 -0.00000000000E+00 -0.00000000000E+00 -0.87994248566E+02  0.87994248566E+02  0.00000000000E+00 0.  1.
         -6    2    1    2    0  504 -0.20900513531E+02  0.10391564728E+03  0.51543673619E+02  0.20964806049E+03  0.17337896575E+03 0.  0.
        -24    2    3    3    0    0  0.57686823831E+02  0.90664931690E+02  0.36304193260E+02  0.12837147826E+03  0.60111084682E+02 0.  0.
          6    2    1    2  502    0  0.20900513531E+02 -0.10391564728E+03  0.11547870334E+04  0.11726711436E+04  0.17432505683E+03 0.  0.
         24    2    5    5    0    0  0.45163817437E+02 -0.12829018334E+03  0.10585674159E+04  0.10703816979E+04  0.81571218016E+02 0.  0.
          4    1    6    6  501    0  0.62687369666E+00 -0.63268117868E+01  0.34743124178E+03  0.34748940888E+03  0.00000000000E+00 0. -1.
         -3    1    6    6    0  501  0.44536943740E+02 -0.12196337155E+03  0.71113617410E+03  0.72289228899E+03  0.00000000000E+00 0.  1.
          5    1    5    5  502    0 -0.24263303906E+02  0.24374536063E+02  0.96219617484E+02  0.10228944576E+03  0.47000000000E+01 0. -1.
         11    1    4    4    0    0  0.64061955609E+01  0.52589862487E+02  0.36789035576E+02  0.64499349737E+02  0.00000000000E+00 0. -1.
        -12    1    4    4    0    0  0.51280628270E+02  0.38075069203E+02 -0.48484231578E+00  0.63872128528E+02  0.00000000000E+00 0.  1.
         -5    1    3    3    0  504 -0.78587337362E+02  0.13250715588E+02  0.15239480359E+02  0.81276582230E+02  0.47000000000E+01 0.  1.
<mgrwt>
<rscale>  2 0.20381863E+03</rscale>
<asrwt>0</asrwt>
<pdfrwt beam="1">  1       21 0.19912690E+00 0.20402088E+03</pdfrwt>
<pdfrwt beam="2">  1       21 0.13537578E-01 0.20402088E+03</pdfrwt>
<totfact> 0.63621767E+03</totfact>
</mgrwt>
</event>
<event>
12    1  0.1410528E-001  0.1865391E+03  0.7546771E-02  0.1162456E+00
         21   -1    0    0  502  503  0.00000000000E+00  0.00000000000E+00  0.62576093799E+02  0.62576093799E+02  0.00000000000E+00 0. -1.
         21   -1    0    0  503  504 -0.00000000000E+00 -0.00000000000E+00 -0.79996959275E+03  0.79996959275E+03  0.00000000000E+00 0. -1.
         -6    2    1    2    0  504 -0.39895041916E+00  0.60045002829E+02 -0.61439173466E+03  0.64208569860E+03  0.17661052970E+03 0.  0.
        -24    2    3    3    0    0  0.51249427675E+01 -0.45383396143E+02 -0.32998174221E+03  0.33867707230E+03  0.61059736550E+02 0.  0.
          6    2    1    2  502    0  0.39895041916E+00 -0.60045002829E+02 -0.12300176429E+03  0.22045998795E+03  0.17282248333E+03 0.  0.
         24    2    5    5    0    0 -0.70450232368E+01  0.33145634153E+02 -0.70668764773E+02  0.11321848291E+03  0.81707313886E+02 0.  0.
          2    1    6    6  501    0  0.19163016372E+02  0.60877529984E+01 -0.72763836287E+02  0.75490779598E+02  0.00000000000E+00 0. -1.
         -1    1    6    6    0  501 -0.26208039608E+02  0.27057881154E+02  0.20950715144E+01  0.37727703314E+02  0.00000000000E+00 0.  1.
          5    1    5    5  502    0  0.74439736560E+01 -0.93190636982E+02 -0.52332999522E+02  0.10724150504E+03  0.47000000000E+01 0. -1.
         13    1    4    4    0    0 -0.13438523413E+02 -0.72223389013E+01 -0.22394186741E+03  0.22446094554E+03  0.00000000000E+00 0. -1.
        -14    1    4    4    0    0  0.18563466181E+02 -0.38161057242E+02 -0.10603987480E+03  0.11421612676E+03  0.00000000000E+00 0.  1.
         -5    1    3    3    0  504 -0.55238931867E+01  0.10542839897E+03 -0.28440999245E+03  0.30340862629E+03  0.47000000000E+01 0.  1.
<mgrwt>
<rscale>  2 0.18563700E+03</rscale>
<asrwt>0</asrwt>
<pdfrwt beam="1">  1       21 0.96270921E-02 0.18653911E+03</pdfrwt>
<pdfrwt beam="2">  1       21 0.12307224E+00 0.18653911E+03</pdfrwt>
<totfact> 0.43173514E+04</totfact>
</mgrwt>
</event>
<event>
12    1  0.1410528E-001  0.1787925E+03  0.7546771E-02  0.1169601E+00
         21   -1    0    0  502  503  0.00000000000E+00  0.00000000000E+00  0.57285906809E+02  0.57285906809E+02  0.00000000000E+00 0.  1.
         21   -1    0    0  503  504 -0.00000000000E+00 -0.00000000000E+00 -0.55106466880E+03  0.55106466880E+03  0.00000000000E+00 0.  1.
         -6    2    1    2    0  504  0.44973777069E+02  0.24095469010E+01 -0.23259556521E+03  0.29183294804E+03  0.17040342152E+03 0.  0.
        -24    2    3    3    0    0 -0.29798611740E+02 -0.30927752675E+02 -0.98665322026E+02  0.13479255288E+03  0.81176988090E+02 0.  0.
          6    2    1    2  502    0 -0.44973777069E+02 -0.24095469010E+01 -0.26118319677E+03  0.31651762756E+03  0.17302687578E+03 0.  0.
         24    2    5    5    0    0 -0.87753727061E+02 -0.65195586357E+01 -0.23945880704E+03  0.26813317317E+03  0.82532763351E+02 0.  0.
          2    1    6    6  501    0 -0.80351186456E+02  0.16570818947E+02 -0.22593345879E+03  0.24036811978E+03  0.00000000000E+00 0. -1.
         -1    1    6    6    0  501 -0.74025406045E+01 -0.23090377583E+02 -0.13525348247E+02  0.27765053386E+02  0.00000000000E+00 0.  1.
          5    1    5    5  502    0  0.42779949992E+02  0.41100117347E+01 -0.21724389734E+02  0.48384454395E+02  0.47000000000E+01 0. -1.
         13    1    4    4    0    0 -0.21823896210E+02 -0.35117382125E+02 -0.11160977427E+03  0.11902207646E+03  0.00000000000E+00 0. -1.
        -14    1    4    4    0    0 -0.79747155295E+01  0.41896294505E+01  0.12944452242E+02  0.15770476422E+02  0.00000000000E+00 0.  1.
         -5    1    3    3    0  504  0.74772388809E+02  0.33337299576E+02 -0.13393024319E+03  0.15704039516E+03  0.47000000000E+01 0.  1.
<mgrwt>
<rscale>  2 0.17815466E+03</rscale>
<asrwt>0</asrwt>
<pdfrwt beam="1">  1       21 0.88132164E-02 0.17879247E+03</pdfrwt>
<pdfrwt beam="2">  1       21 0.84779180E-01 0.17879247E+03</pdfrwt>
<totfact> 0.12278805E+05</totfact>
</mgrwt>
</event>
<event>
12    1  0.1410528E-001  0.1884633E+03  0.7546771E-02  0.1160525E+00
         21   -1    0    0  502  503  0.00000000000E+00  0.00000000000E+00  0.43413968674E+02  0.43413968674E+02  0.00000000000E+00 0.  1.
         21   -1    0    0  503  504 -0.00000000000E+00 -0.00000000000E+00 -0.11299205278E+04  0.11299205278E+04  0.00000000000E+00 0.  1.
         -6    2    1    2    0  504 -0.28486176510E+02  0.65002249798E+02 -0.22589792043E+03  0.29233186968E+03  0.17143890119E+03 0.  0.
        -24    2    3    3    0    0 -0.61152443514E+02  0.96438886854E+02 -0.15844873341E+03  0.21092652600E+03  0.79648716279E+02 0.  0.
          6    2    1    2  502    0  0.28486176510E+02 -0.65002249798E+02 -0.86060863865E+03  0.88100262675E+03  0.17458993298E+03 0.  0.
         24    2    5    5    0    0  0.78698035212E+02 -0.40523576708E+02 -0.72116640833E+03  0.73071403176E+03  0.77630320639E+02 0.  0.
          4    1    6    6  501    0 -0.46447015678E+01 -0.30568853424E+02 -0.13045267619E+03  0.13406688173E+03  0.00000000000E+00 0. -1.
         -3    1    6    6    0  501  0.83342736780E+02 -0.99547232841E+01 -0.59071373215E+03  0.59664715003E+03  0.00000000000E+00 0.  1.
          5    1    5    5  502    0 -0.50211858703E+02 -0.24478673091E+02 -0.13944223031E+03  0.15028859499E+03  0.47000000000E+01 0. -1.
         13    1    4    4    0    0 -0.53455395721E+02  0.22124665932E+02 -0.10208494305E+03  0.11733846672E+03  0.00000000000E+00 0. -1.
        -14    1    4    4    0    0 -0.76970477926E+01  0.74314220922E+02 -0.56363790360E+02  0.93588059279E+02  0.00000000000E+00 0.  1.
         -5    1    3    3    0  504  0.32666267004E+02 -0.31436637055E+02 -0.67449187023E+02  0.81405343679E+02  0.47000000000E+01 0.  1.
<mgrwt>
<rscale>  2 0.18773017E+03</rscale>
<asrwt>0</asrwt>
<pdfrwt beam="1">  1       21 0.66790723E-02 0.18846326E+03</pdfrwt>
<pdfrwt beam="2">  1       21 0.17383392E+00 0.18846326E+03</pdfrwt>
<totfact> 0.32996588E+04</totfact>
</mgrwt>
</event>
<event>
12    1  0.1410528E-001  0.1963391E+03  0.7546771E-02  0.1153224E+00
         21   -1    0    0  502  503  0.00000000000E+00  0.00000000000E+00  0.31211436707E+03  0.31211436707E+03  0.00000000000E+00 0.  1.
         21   -1    0    0  503  504 -0.00000000000E+00 -0.00000000000E+00 -0.17057262087E+03  0.17057262087E+03  0.00000000000E+00 0.  1.
         -6    2    1    2    0  504  0.49476320336E+02  0.77676068010E+02 -0.57605611375E+02  0.20302875395E+03  0.17152489806E+03 0.  0.
        -24    2    3    3    0    0 -0.69199316367E+01 -0.17210033415E+02 -0.34643006230E+02  0.90186914567E+02  0.81175556509E+02 0.  0.
          6    2    1    2  502    0 -0.49476320336E+02 -0.77676068010E+02  0.19914735757E+03  0.27965823399E+03  0.17340005765E+03 0.  0.
         24    2    5    5    0    0 -0.87731125125E+02 -0.25351898546E+02  0.16286305754E+03  0.20522780185E+03  0.85173975281E+02 0.  0.
          4    1    6    6  501    0 -0.95462388179E+01  0.25402128803E+02  0.63132456032E+02  0.68717580196E+02  0.00000000000E+00 0. -1.
         -3    1    6    6    0  501 -0.78184886307E+02 -0.50754027348E+02  0.99730601508E+02  0.13651022165E+03  0.00000000000E+00 0.  1.
          5    1    5    5  502    0  0.38254804789E+02 -0.52324169464E+02  0.36284300030E+02  0.74430432138E+02  0.47000000000E+01 0. -1.
         11    1    4    4    0    0  0.16761137619E+02 -0.32469280469E+02 -0.46908618731E+02  0.59460982331E+02  0.00000000000E+00 0. -1.
        -12    1    4    4    0    0 -0.23681069256E+02  0.15259247054E+02  0.12265612501E+02  0.30725932237E+02  0.00000000000E+00 0.  1.
         -5    1    3    3    0  504  0.56396251973E+02  0.94886101425E+02 -0.22962605145E+02  0.11284183938E+03  0.47000000000E+01 0.  1.
<mgrwt>
<rscale>  2 0.19592430E+03</rscale>
<asrwt>0</asrwt>
<pdfrwt beam="1">  1       21 0.48017595E-01 0.19633914E+03</pdfrwt>
<pdfrwt beam="2">  1       21 0.26241942E-01 0.19633914E+03</pdfrwt>
<totfact> 0.57118220E+04</totfact>
</mgrwt>
</event>
<event>
12    1  0.1410528E-001  0.2238692E+03  0.7546771E-02  0.1131257E+00
         21   -1    0    0  502  503  0.00000000000E+00  0.00000000000E+00  0.51354173119E+03  0.51354173119E+03  0.00000000000E+00 0.  1.
         21   -1    0    0  503  504 -0.00000000000E+00 -0.00000000000E+00 -0.15269589336E+03  0.15269589336E+03  0.00000000000E+00 0. -1.
         -6    2    1    2    0  504 -0.49308574965E+01  0.14310605538E+03 -0.20349883434E+02  0.22479223762E+03  0.17208653607E+03 0.  0.
        -24    2    3    3    0    0 -0.56355173468E+02  0.11636710614E+03  0.20558988428E+02  0.15369331023E+03  0.80509332603E+02 0.  0.
          6    2    1    2  502    0  0.49308574965E+01 -0.14310605538E+03  0.38119572127E+03  0.44144538693E+03  0.17047051150E+03 0.  0.
         24    2    5    5    0    0  0.61140222887E+02 -0.12651742524E+03  0.30107633744E+03  0.34206791930E+03  0.81355483573E+02 0.  0.
          4    1    6    6  501    0  0.58396217494E+02 -0.10727064132E+03  0.16869667643E+03  0.20826828214E+03  0.00000000000E+00 0. -1.
         -3    1    6    6    0  501  0.27440053936E+01 -0.19246783920E+02  0.13237966100E+03  0.13379963716E+03  0.00000000000E+00 0.  1.
          5    1    5    5  502    0 -0.56209365391E+02 -0.16588630137E+02  0.80119383829E+02  0.99377467630E+02  0.47000000000E+01 0. -1.
         11    1    4    4    0    0 -0.38935596486E+02  0.10078436327E+03 -0.17082492029E+02  0.10938592271E+03  0.00000000000E+00 0. -1.
        -12    1    4    4    0    0 -0.17419576982E+02  0.15582742867E+02  0.37641480457E+02  0.44307387516E+02  0.00000000000E+00 0.  1.
         -5    1    3    3    0  504  0.51424315971E+02  0.26738949240E+02 -0.40908871862E+02  0.71098927394E+02  0.47000000000E+01 0.  1.
<mgrwt>
<rscale>  2 0.22355863E+03</rscale>
<asrwt>0</asrwt>
<pdfrwt beam="1">  1       21 0.79006420E-01 0.22386923E+03</pdfrwt>
<pdfrwt beam="2">  1       21 0.23491676E-01 0.22386923E+03</pdfrwt>
<totfact> 0.23700026E+04</totfact>
</mgrwt>
</event>
<event>
12    1  0.1410528E-001  0.3033815E+03  0.7546771E-02  0.1083578E+00
         21   -1    0    0  502  503  0.00000000000E+00  0.00000000000E+00  0.30159492813E+03  0.30159492813E+03  0.00000000000E+00 0.  1.
         21   -1    0    0  503  504 -0.00000000000E+00 -0.00000000000E+00 -0.47817149428E+03  0.47817149428E+03  0.00000000000E+00 0. -1.
         -6    2    1    2    0  504  0.24291964351E+03  0.55925280321E+02 -0.32289402614E+03  0.44305857599E+03  0.17292414367E+03 0.  0.
        -24    2    3    3    0    0  0.60047099327E+02 -0.36114716161E+01 -0.46438394300E+02  0.10625477759E+03  0.74262079354E+02 0.  0.
          6    2    1    2  502    0 -0.24291964351E+03 -0.55925280321E+02  0.14631745999E+03  0.33670784641E+03  0.17270143183E+03 0.  0.
         24    2    5    5    0    0 -0.23305209153E+03 -0.41718925784E+01  0.13964052936E+03  0.28339318494E+03  0.80507998227E+02 0.  0.
          2    1    6    6  501    0 -0.97051844109E+02  0.33705073383E+02  0.38449880208E+02  0.10969724566E+03  0.00000000000E+00 0. -1.
         -1    1    6    6    0  501 -0.13600024742E+03 -0.37876965962E+02  0.10119064915E+03  0.17369593929E+03  0.00000000000E+00 0.  1.
          5    1    5    5  502    0 -0.98675519766E+01 -0.51753387743E+02  0.66769306299E+01  0.53314661469E+02  0.47000000000E+01 0. -1.
         13    1    4    4    0    0  0.73422454363E+02  0.47477178640E+01 -0.51363874917E+02  0.89730960521E+02  0.00000000000E+00 0. -1.
        -14    1    4    4    0    0 -0.13375355036E+02 -0.83591894801E+01  0.49254806169E+01  0.16523817065E+02  0.00000000000E+00 0.  1.
         -5    1    3    3    0  504  0.18287254418E+03  0.59536751937E+02 -0.27645563184E+03  0.33680379841E+03  0.47000000000E+01 0.  1.
<mgrwt>
<rscale>  2 0.30334980E+03</rscale>
<asrwt>0</asrwt>
<pdfrwt beam="1">  1       21 0.46399220E-01 0.30338152E+03</pdfrwt>
<pdfrwt beam="2">  1       21 0.73564845E-01 0.30338152E+03</pdfrwt>
<totfact> 0.69125941E+03</totfact>
</mgrwt>
</event>
<event>
12    1  0.1410528E-001  0.1856524E+03  0.7546771E-02  0.1162671E+00
         21   -1    0    0  502  503  0.00000000000E+00  0.00000000000E+00  0.63097252079E+03  0.63097252079E+03  0.00000000000E+00 0. -1.
         21   -1    0    0  503  504 -0.00000000000E+00 -0.00000000000E+00 -0.59108904104E+02  0.59108904104E+02  0.00000000000E+00 0. -1.
         -6    2    1    2    0  504 -0.65099920535E+02 -0.88110809070E+01  0.18718410942E+03  0.26294544473E+03  0.17258847378E+03 0.  0.
        -24    2    3    3    0    0 -0.43082048971E+02  0.66262252413E+02  0.11827226431E+03  0.15858201990E+03  0.70094076028E+02 0.  0.
          6    2    1    2  502    0  0.65099920535E+02  0.88110809070E+01  0.38467950727E+03  0.42713598017E+03  0.17364097282E+03 0.  0.
         24    2    5    5    0    0  0.50696609502E+02  0.57322829193E+02  0.34558927186E+03  0.36301904329E+03  0.80590495743E+02 0.  0.
          2    1    6    6  501    0  0.42532998427E+01 -0.11383118931E+02  0.15108723176E+03  0.15157512183E+03  0.00000000000E+00 0. -1.
         -1    1    6    6    0  501  0.46443309659E+02  0.68705948125E+02  0.19450204010E+03  0.21144392146E+03  0.00000000000E+00 0.  1.
          5    1    5    5  502    0  0.14403311034E+02 -0.48511748286E+02  0.39090235407E+02  0.64116936879E+02  0.47000000000E+01 0. -1.
         13    1    4    4    0    0 -0.52993322822E+02  0.31111850905E+02  0.43257822956E+02  0.75149709097E+02  0.00000000000E+00 0. -1.
        -14    1    4    4    0    0  0.99112738505E+01  0.35150401508E+02  0.75014441350E+02  0.83432310806E+02  0.00000000000E+00 0.  1.
         -5    1    3    3    0  504 -0.22017871564E+02 -0.75073333320E+02  0.68911845112E+02  0.10436342482E+03  0.47000000000E+01 0.  1.
<mgrwt>
<rscale>  2 0.18540593E+03</rscale>
<asrwt>0</asrwt>
<pdfrwt beam="1">  1       21 0.97072691E-01 0.18565242E+03</pdfrwt>
<pdfrwt beam="2">  1       21 0.90936780E-02 0.18565242E+03</pdfrwt>
<totfact> 0.84722849E+04</totfact>
</mgrwt>
</event>
<event>
12    1  0.1410528E-001  0.2902995E+03  0.7546771E-02  0.1090846E+00
         21   -1    0    0  502  503  0.00000000000E+00  0.00000000000E+00  0.30930502981E+03  0.30930502981E+03  0.00000000000E+00 0.  1.
         21   -1    0    0  503  504 -0.00000000000E+00 -0.00000000000E+00 -0.29252310881E+03  0.29252310881E+03  0.00000000000E+00 0. -1.
         -6    2    1    2    0  504  0.16808315967E+03  0.15340464164E+03 -0.79115163544E+02  0.29609937212E+03  0.17213569190E+03 0.  0.
        -24    2    3    3    0    0  0.16917001914E+03  0.67585729099E+02 -0.56313717314E+02  0.20717208180E+03  0.81010558353E+02 0.  0.
          6    2    1    2  502    0 -0.16808315967E+03 -0.15340464164E+03  0.95897084546E+02  0.30572876650E+03  0.18024676198E+03 0.  0.
         24    2    5    5    0    0 -0.89983378913E+02 -0.12469932514E+03  0.12869309826E+03  0.21616739389E+03  0.80743411313E+02 0.  0.
          2    1    6    6  501    0 -0.77908610257E+02 -0.38996354824E+02  0.63280004542E+02  0.10767927478E+03  0.00000000000E+00 0. -1.
         -1    1    6    6    0  501 -0.12074768656E+02 -0.85702970312E+02  0.65413093717E+02  0.10848811911E+03  0.00000000000E+00 0.  1.
          5    1    5    5  502    0 -0.78099780755E+02 -0.28705316504E+02 -0.32796013713E+02  0.89561372618E+02  0.47000000000E+01 0. -1.
         13    1    4    4    0    0  0.56731870291E+02  0.59896284222E+02 -0.44817394975E+02  0.93886467942E+02  0.00000000000E+00 0. -1.
        -14    1    4    4    0    0  0.11243814885E+03  0.76894448772E+01 -0.11496322339E+02  0.11328561386E+03  0.00000000000E+00 0.  1.
         -5    1    3    3    0  504 -0.10868594731E+01  0.85818912541E+02 -0.22801446230E+02  0.88927290319E+02  0.47000000000E+01 0.  1.
<mgrwt>
<rscale>  2 0.28905018E+03</rscale>
<asrwt>0</asrwt>
<pdfrwt beam="1">  1       21 0.47585390E-01 0.29029955E+03</pdfrwt>
<pdfrwt beam="2">  1       21 0.45003555E-01 0.29029955E+03</pdfrwt>
<totfact> 0.19042512E+04</totfact>
</mgrwt>
</event>
<event>
12    1  0.1410528E-001  0.2068698E+03  0.7546771E-02  0.1144525E+00
         21   -1    0    0  502  503  0.00000000000E+00  0.00000000000E+00  0.21939727224E+03  0.21939727224E+03  0.00000000000E+00 0. -1.
         21   -1    0    0  503  504 -0.00000000000E+00 -0.00000000000E+00 -0.24991664901E+03  0.24991664901E+03  0.00000000000E+00 0. -1.
         -6    2    1    2    0  504  0.79462583895E+02 -0.77213087923E+02 -0.12722993624E+03  0.24095443138E+03  0.17203318907E+03 0.  0.
        -24    2    3    3    0    0  0.45876667865E+02 -0.34890782556E+01 -0.35261368617E+01  0.93008619213E+02  0.80754735373E+02 0.  0.
          6    2    1    2  502    0 -0.79462583895E+02  0.77213087923E+02  0.96710559474E+02  0.22835948987E+03  0.17469676905E+03 0.  0.
         24    2    5    5    0    0  0.27995472209E+02  0.38352039707E+02  0.36880858292E+02  0.99289361519E+02  0.79016164098E+02 0.  0.
          4    1    6    6  501    0  0.28877428777E+02  0.60342217821E+02  0.38566589160E+02  0.77217037911E+02  0.00000000000E+00 0. -1.
         -3    1    6    6    0  501 -0.88195656826E+00 -0.21990178115E+02 -0.16857308676E+01  0.22072323608E+02  0.00000000000E+00 0.  1.
          5    1    5    5  502    0 -0.10745805610E+03  0.38861048216E+02  0.59829701181E+02  0.12907012835E+03  0.47000000000E+01 0. -1.
         11    1    4    4    0    0  0.48627268223E+01 -0.36873663428E+02 -0.12768182526E+02  0.39323525424E+02  0.00000000000E+00 0. -1.
        -12    1    4    4    0    0  0.41013941043E+02  0.33384585172E+02  0.92420456647E+01  0.53685093789E+02  0.00000000000E+00 0.  1.
         -5    1    3    3    0  504  0.33585916029E+02 -0.73724009667E+02 -0.12370379938E+03  0.14794581217E+03  0.47000000000E+01 0.  1.
<mgrwt>
<rscale>  2 0.20630644E+03</rscale>
<asrwt>0</asrwt>
<pdfrwt beam="1">  1       21 0.33753427E-01 0.20686982E+03</pdfrwt>
<pdfrwt beam="2">  1       21 0.38448715E-01 0.20686982E+03</pdfrwt>
<totfact> 0.54784885E+04</totfact>
</mgrwt>
</event>
<event>
12    1  0.1410528E-001  0.3152976E+03  0.7546771E-02  0.1077836E+00
         21   -1    0    0  502  503  0.00000000000E+00  0.00000000000E+00  0.22905522891E+03  0.22905522891E+03  0.00000000000E+00 0. -1.
         21   -1    0    0  503  504 -0.00000000000E+00 -0.00000000000E+00 -0.44972200127E+03  0.44972200127E+03  0.00000000000E+00 0. -1.
         -6    2    1    2    0  504 -0.21706456421E+03  0.14892032444E+03 -0.17381620801E+03  0.36003419914E+03  0.17354613888E+03 0.  0.
        -24    2    3    3    0    0 -0.15842966305E+03  0.83109939526E+02 -0.18693174658E+03  0.27079762733E+03  0.79879014183E+02 0.  0.
          6    2    1    2  502    0  0.21706456421E+03 -0.14892032444E+03 -0.46850564348E+02  0.31874303104E+03  0.17351615598E+03 0.  0.
         24    2    5    5    0    0  0.17236972100E+03 -0.40263185469E+02 -0.48551942084E+02  0.20114631533E+03  0.82280643352E+02 0.  0.
          2    1    6    6  501    0  0.17494747122E+03 -0.51950623581E+02 -0.49640166971E+02  0.18912861009E+03  0.00000000000E+00 0. -1.
         -1    1    6    6    0  501 -0.25777502263E+01  0.11687438112E+02  0.10882248865E+01  0.12017705241E+02  0.00000000000E+00 0.  1.
          5    1    5    5  502    0  0.44694843218E+02 -0.10865713897E+03  0.17013777364E+01  0.11759671571E+03  0.47000000000E+01 0. -1.
         13    1    4    4    0    0 -0.56555335391E+02  0.66650959753E+02 -0.54902401444E+02  0.10322368954E+03  0.00000000000E+00 0. -1.
        -14    1    4    4    0    0 -0.10187432766E+03  0.16458979773E+02 -0.13202934514E+03  0.16757393779E+03  0.00000000000E+00 0.  1.
         -5    1    3    3    0  504 -0.58634901166E+02  0.65810384910E+02  0.13115538573E+02  0.89236571813E+02  0.47000000000E+01 0.  1.
<mgrwt>
<rscale>  2 0.31529343E+03</rscale>
<asrwt>0</asrwt>
<pdfrwt beam="1">  1       21 0.35239266E-01 0.31529756E+03</pdfrwt>
<pdfrwt beam="2">  1       21 0.69187999E-01 0.31529756E+03</pdfrwt>
<totfact> 0.13853355E+04</totfact>
</mgrwt>
</event>
<event>
12    1  0.1410528E-001  0.2076890E+03  0.7546771E-02  0.1143529E+00
         21   -1    0    0  502  503  0.00000000000E+00  0.00000000000E+00  0.12293738676E+04  0.12293738676E+04  0.00000000000E+00 0.  1.
         21   -1    0    0  503  504 -0.00000000000E+00 -0.00000000000E+00 -0.67489380741E+02  0.67489380741E+02  0.00000000000E+00 0. -1.
         -6    2    1    2    0  504  0.10813942130E+03  0.37275633034E+02  0.13051554236E+03  0.24479071207E+03  0.17264002624E+03 0.  0.
        -24    2    3    3    0    0  0.58012937804E+02 -0.27955893163E+02  0.13659598479E+02  0.10180393653E+03  0.77655804339E+02 0.  0.
          6    2    1    2  502    0 -0.10813942130E+03 -0.37275633034E+02  0.10313689445E+04  0.10520725362E+04  0.17335257323E+03 0.  0.
         24    2    5    5    0    0  0.60156490275E+01  0.33059093199E+01  0.54421633709E+03  0.55005859766E+03  0.79661296924E+02 0.  0.
          4    1    6    6  501    0  0.13069790274E+02  0.74842525433E+01  0.16737932837E+02  0.22516479512E+02  0.00000000000E+00 0. -1.
         -3    1    6    6    0  501 -0.70541412465E+01 -0.41783432234E+01  0.52747840426E+03  0.52754211815E+03  0.00000000000E+00 0.  1.
          5    1    5    5  502    0 -0.11415507033E+03 -0.40581542354E+02  0.48715260737E+03  0.50201393858E+03  0.47000000000E+01 0. -1.
         13    1    4    4    0    0  0.56337068019E+02 -0.80962099713E+01  0.39419833877E+02  0.69233930639E+02  0.00000000000E+00 0. -1.
        -14    1    4    4    0    0  0.16758697856E+01 -0.19859683192E+02 -0.25760235399E+02  0.32570005892E+02  0.00000000000E+00 0.  1.
         -5    1    3    3    0  504  0.50126483498E+02  0.65231526198E+02  0.11685594388E+03  0.14298677554E+03  0.47000000000E+01 0.  1.
<mgrwt>
<rscale>  2 0.20754025E+03</rscale>
<asrwt>0</asrwt>
<pdfrwt beam="1">  1       21 0.18913442E+00 0.20768900E+03</pdfrwt>
<pdfrwt beam="2">  1       21 0.10382983E-01 0.20768900E+03</pdfrwt>
<totfact> 0.11857213E+04</totfact>
</mgrwt>
</event>
<event>
12    1  0.1410528E-001  0.3754388E+03  0.7546771E-02  0.1052744E+00
         21   -1    0    0  502  503  0.00000000000E+00  0.00000000000E+00  0.48199234824E+03  0.48199234824E+03  0.00000000000E+00 0. -1.
         21   -1    0    0  503  504 -0.00000000000E+00 -0.00000000000E+00 -0.35303303164E+03  0.35303303164E+03  0.00000000000E+00 0.  1.
         -6    2    1    2    0  504  0.19439959669E+03  0.27027131641E+03 -0.10988039037E+03  0.39005490785E+03  0.17097176166E+03 0.  0.
        -24    2    3    3    0    0  0.14508621095E+03  0.27748991674E+03 -0.86556005866E+02  0.33482778483E+03  0.81037280584E+02 0.  0.
          6    2    1    2  502    0 -0.19439959669E+03 -0.27027131641E+03  0.23883970697E+03  0.44497047203E+03  0.17354114120E+03 0.  0.
         24    2    5    5    0    0 -0.47563208012E+02 -0.17228034429E+03  0.15428807347E+03  0.24917919443E+03  0.79640979003E+02 0.  0.
          4    1    6    6  501    0 -0.15356753335E+01  0.69314437643E+01  0.18076374316E+02  0.19420569502E+02  0.00000000000E+00 0. -1.
         -3    1    6    6    0  501 -0.46027532678E+02 -0.17921178806E+03  0.13621169916E+03  0.22975862493E+03  0.00000000000E+00 0.  1.
          5    1    5    5  502    0 -0.14683638868E+03 -0.97990972113E+02  0.84551633496E+02  0.19579127760E+03  0.47000000000E+01 0. -1.
         11    1    4    4    0    0  0.45294401082E+02  0.79143713113E+02  0.11864637627E+02  0.91956944930E+02  0.00000000000E+00 0. -1.
        -12    1    4    4    0    0  0.99791809871E+02  0.19834620363E+03 -0.98420643493E+02  0.24287083990E+03  0.00000000000E+00 0.  1.
         -5    1    3    3    0  504  0.49313385741E+02 -0.72186003348E+01 -0.23324384508E+02  0.55227123017E+02  0.47000000000E+01 0.  1.
<mgrwt>
<rscale>  2 0.37514330E+03</rscale>
<asrwt>0</asrwt>
<pdfrwt beam="1">  1       21 0.74152669E-01 0.37543883E+03</pdfrwt>
<pdfrwt beam="2">  1       21 0.54312774E-01 0.37543883E+03</pdfrwt>
<totfact> 0.47151869E+03</totfact>
</mgrwt>
</event>
<event>
12    1  0.1410528E-001  0.2205815E+03  0.7546771E-02  0.1133768E+00
         21   -1    0    0  502  503  0.00000000000E+00  0.00000000000E+00  0.34355689222E+02  0.34355689222E+02  0.00000000000E+00 0.  1.
         21   -1    0    0  503  504 -0.00000000000E+00 -0.00000000000E+00 -0.14862176304E+04  0.14862176304E+04  0.00000000000E+00 0.  1.
         -6    2    1    2    0  504 -0.11281235247E+03 -0.77162443298E+02 -0.90062415074E+03  0.92683994620E+03  0.17096126884E+03 0.  0.
        -24    2    3    3    0    0 -0.92301196387E+02 -0.95832905789E+02 -0.46291903821E+03  0.48823175062E+03  0.79829503872E+02 0.  0.
          6    2    1    2  502    0  0.11281235247E+03  0.77162443298E+02 -0.55123779041E+03  0.59373337339E+03  0.17313447832E+03 0.  0.
         24    2    5    5    0    0  0.76935934482E+02  0.57539025529E+02 -0.53590169806E+03  0.54980750833E+03  0.76601493207E+02 0.  0.
          4    1    6    6  501    0 -0.14244419337E+02  0.93258690399E+01 -0.43373791800E+02  0.46595720090E+02  0.00000000000E+00 0. -1.
         -3    1    6    6    0  501  0.91180353819E+02  0.48213156489E+02 -0.49252790626E+03  0.50321178824E+03  0.00000000000E+00 0.  1.
          5    1    5    5  502    0  0.35876417992E+02  0.19623417769E+02 -0.15336092347E+02  0.43925865061E+02  0.47000000000E+01 0. -1.
         13    1    4    4    0    0 -0.25483423983E+02  0.10266151505E+02 -0.12009908400E+03  0.12320141534E+03  0.00000000000E+00 0. -1.
        -14    1    4    4    0    0 -0.66817772404E+02 -0.10609905729E+03 -0.34281995421E+03  0.36503033528E+03  0.00000000000E+00 0.  1.
         -5    1    3    3    0  504 -0.20511156087E+02  0.18670462491E+02 -0.43770511254E+03  0.43860819558E+03  0.47000000000E+01 0.  1.
<mgrwt>
<rscale>  2 0.22015490E+03</rscale>
<asrwt>0</asrwt>
<pdfrwt beam="1">  1       21 0.52854916E-02 0.22058154E+03</pdfrwt>
<pdfrwt beam="2">  1       21 0.22864882E+00 0.22058154E+03</pdfrwt>
<totfact> 0.21342684E+04</totfact>
</mgrwt>
</event>
<event>
12    1  0.1410528E-001  0.1979178E+03  0.7546771E-02  0.1151985E+00
         21   -1    0    0  502  503  0.00000000000E+00  0.00000000000E+00  0.19869176439E+03  0.19869176439E+03  0.00000000000E+00 0. -1.
         21   -1    0    0  503  504 -0.00000000000E+00 -0.00000000000E+00 -0.44620370999E+03  0.44620370999E+03  0.00000000000E+00 0. -1.
         -6    2    1    2    0  504 -0.74142807510E+02  0.61167087764E+02 -0.36602406004E+03  0.41610702967E+03  0.17301121086E+03 0.  0.
        -24    2    3    3    0    0 -0.78918222009E+02 -0.21687230859E+02 -0.23857472274E+03  0.26394571305E+03  0.77788298344E+02 0.  0.
          6    2    1    2  502    0  0.74142807510E+02 -0.61167087764E+02  0.11851211444E+03  0.22878844471E+03  0.17047129562E+03 0.  0.
         24    2    5    5    0    0  0.66359453414E+02 -0.58547876536E+02  0.95022742502E+01  0.11936872013E+03  0.79543492659E+02 0.  0.
          4    1    6    6  501    0  0.20552575852E+02 -0.68822713310E+02  0.22048801030E+01  0.71859833967E+02  0.00000000000E+00 0. -1.
         -3    1    6    6    0  501  0.45806877562E+02  0.10274836774E+02  0.72973941472E+01  0.47508886159E+02  0.00000000000E+00 0.  1.
          5    1    5    5  502    0  0.77833540959E+01 -0.26192112280E+01  0.10900984019E+03  0.10941972458E+03  0.47000000000E+01 0. -1.
         13    1    4    4    0    0 -0.17840368885E+02  0.21376006505E+02 -0.12447093227E+03  0.12754695369E+03  0.00000000000E+00 0. -1.
        -14    1    4    4    0    0 -0.61077853123E+02 -0.43063237364E+02 -0.11410379047E+03  0.13639875936E+03  0.00000000000E+00 0.  1.
         -5    1    3    3    0  504  0.47754144989E+01  0.82854318623E+02 -0.12744933730E+03  0.15216131663E+03  0.47000000000E+01 0.  1.
<mgrwt>
<rscale>  2 0.19736134E+03</rscale>
<asrwt>0</asrwt>
<pdfrwt beam="1">  1       21 0.30567964E-01 0.19791778E+03</pdfrwt>
<pdfrwt beam="2">  1       21 0.68646724E-01 0.19791778E+03</pdfrwt>
<totfact> 0.19807985E+04</totfact>
</mgrwt>
</event>
<event>
12    1  0.1410528E-001  0.1815873E+03  0.7546771E-02  0.1166348E+00
         21   -1    0    0  502  503  0.00000000000E+00  0.00000000000E+00  0.35046566124E+03  0.35046566124E+03  0.00000000000E+00 0. -1.
         21   -1    0    0  503  504 -0.00000000000E+00 -0.00000000000E+00 -0.31215388867E+03  0.31215388867E+03  0.00000000000E+00 0. -1.
         -6    2    1    2    0  504 -0.15698963524E+02  0.54074212786E+02 -0.25785276637E+03  0.31537594708E+03  0.17263678903E+03 0.  0.
        -24    2    3    3    0    0 -0.29386609803E+02  0.95136926033E+02 -0.12294045836E+03  0.17361234479E+03  0.71500226800E+02 0.  0.
          6    2    1    2  502    0  0.15698963524E+02 -0.54074212786E+02  0.29616453894E+03  0.34724360283E+03  0.17232007322E+03 0.  0.
         24    2    5    5    0    0  0.52666672324E+02  0.45782164375E+01  0.10440358616E+03  0.14328019445E+03  0.82670229698E+02 0.  0.
          4    1    6    6  501    0  0.42505983861E+02 -0.29131052585E+02  0.26842909263E+02  0.58102656277E+02  0.00000000000E+00 0. -1.
         -3    1    6    6    0  501  0.10160688463E+02  0.33709269023E+02  0.77560676899E+02  0.85177538173E+02  0.00000000000E+00 0.  1.
          5    1    5    5  502    0 -0.36967708800E+02 -0.58652429223E+02  0.19176095278E+03  0.20396340838E+03  0.47000000000E+01 0. -1.
         11    1    4    4    0    0 -0.27109881857E+01  0.64298458275E+02 -0.11542057766E+03  0.13214972925E+03  0.00000000000E+00 0. -1.
        -12    1    4    4    0    0 -0.26675621617E+02  0.30838467758E+02 -0.75198807047E+01  0.41462615548E+02  0.00000000000E+00 0.  1.
         -5    1    3    3    0  504  0.13687646278E+02 -0.41062713247E+02 -0.13491230801E+03  0.14176360229E+03  0.47000000000E+01 0.  1.
<mgrwt>
<rscale>  2 0.18151196E+03</rscale>
<asrwt>0</asrwt>
<pdfrwt beam="1">  1       21 0.53917794E-01 0.18158728E+03</pdfrwt>
<pdfrwt beam="2">  1       21 0.48023675E-01 0.18158728E+03</pdfrwt>
<totfact> 0.13576002E+04</totfact>
</mgrwt>
</event>
<event>
12    1  0.1410528E-001  0.1979528E+03  0.7546771E-02  0.1151494E+00
         21   -1    0    0  502  503  0.00000000000E+00  0.00000000000E+00  0.45281559410E+03  0.45281559410E+03  0.00000000000E+00 0. -1.
         21   -1    0    0  503  504 -0.00000000000E+00 -0.00000000000E+00 -0.10336086441E+03  0.10336086441E+03  0.00000000000E+00 0.  1.
         -6    2    1    2    0  504 -0.94927174852E+02 -0.14608299772E+02  0.62396782024E+02  0.20748235449E+03  0.17300577467E+03 0.  0.
        -24    2    3    3    0    0 -0.79731873230E+02 -0.74690748886E+02  0.68059451048E+02  0.14507279029E+03  0.66918951188E+02 0.  0.
          6    2    1    2  502    0  0.94927174852E+02  0.14608299772E+02  0.28705794767E+03  0.34869410402E+03  0.17309171532E+03 0.  0.
         24    2    5    5    0    0  0.18341060792E+02  0.22275589381E+02  0.25119773178E+03  0.26365137782E+03  0.74693722498E+02 0.  0.
          4    1    6    6  501    0 -0.52910606190E+00  0.24466009966E+02  0.24071194599E+03  0.24195269484E+03  0.00000000000E+00 0. -1.
         -3    1    6    6    0  501  0.18870166854E+02 -0.21904205854E+01  0.10485785790E+02  0.21698682980E+02  0.00000000000E+00 0.  1.
          5    1    5    5  502    0  0.76586114060E+02 -0.76672896094E+01  0.35860215892E+02  0.85042726206E+02  0.47000000000E+01 0. -1.
         13    1    4    4    0    0 -0.26869795402E+02 -0.50961120472E+02  0.26253304187E+01  0.57670738373E+02  0.00000000000E+00 0. -1.
        -14    1    4    4    0    0 -0.52862077829E+02 -0.23729628414E+02  0.65434120630E+02  0.87402051919E+02  0.00000000000E+00 0.  1.
         -5    1    3    3    0  504 -0.15195301621E+02  0.60082449114E+02 -0.56626690243E+01  0.62409564198E+02  0.47000000000E+01 0.  1.
<mgrwt>
<rscale>  2 0.19793402E+03</rscale>
<asrwt>0</asrwt>
<pdfrwt beam="1">  1       21 0.69663936E-01 0.19795280E+03</pdfrwt>
<pdfrwt beam="2">  1       21 0.15901672E-01 0.19795280E+03</pdfrwt>
<totfact> 0.65876384E+04</totfact>
</mgrwt>
</event>
<event>
12    1  0.1410528E-001  0.1835674E+03  0.7546771E-02  0.1164800E+00
         21   -1    0    0  502  503  0.00000000000E+00  0.00000000000E+00  0.51064659983E+02  0.51064659983E+02  0.00000000000E+00 0. -1.
         21   -1    0    0  503  504 -0.00000000000E+00 -0.00000000000E+00 -0.71488546852E+03  0.71488546852E+03  0.00000000000E+00 0.  1.
         -6    2    1    2    0  504 -0.19433734927E+02 -0.51345340481E+02 -0.44532233708E+03  0.48167311584E+03  0.17516561470E+03 0.  0.
        -24    2    3    3    0    0 -0.23008795842E+02  0.29945642152E+02 -0.31708406514E+03  0.32972526522E+03  0.82160209261E+02 0.  0.
          6    2    1    2  502    0  0.19433734927E+02  0.51345340481E+02 -0.21849847145E+03  0.28427701266E+03  0.17337192350E+03 0.  0.
         24    2    5    5    0    0 -0.21860853277E+02 -0.10143159248E+02 -0.39191086072E+02  0.90216952203E+02  0.77603973169E+02 0.  0.
          4    1    6    6  501    0  0.11507991090E+02 -0.33119014367E+02 -0.34910314791E+02  0.49477601501E+02  0.00000000000E+00 0. -1.
         -3    1    6    6    0  501 -0.33368844367E+02  0.22975855119E+02 -0.42807712816E+01  0.40739350701E+02  0.00000000000E+00 0.  1.
          5    1    5    5  502    0  0.41294588204E+02  0.61488499729E+02 -0.17930738538E+03  0.19406006046E+03  0.47000000000E+01 0. -1.
         13    1    4    4    0    0  0.26644231111E+02  0.20064477398E+02 -0.70424265624E+02  0.77923523364E+02  0.00000000000E+00 0. -1.
        -14    1    4    4    0    0 -0.49653026952E+02  0.98811647542E+01 -0.24665979952E+03  0.25180174186E+03  0.00000000000E+00 0.  1.
         -5    1    3    3    0  504  0.35750609144E+01 -0.81290982633E+02 -0.12823827194E+03  0.15194785062E+03  0.47000000000E+01 0.  1.
<mgrwt>
<rscale>  2 0.18313824E+03</rscale>
<asrwt>0</asrwt>
<pdfrwt beam="1">  1       21 0.78561020E-02 0.18356744E+03</pdfrwt>
<pdfrwt beam="2">  1       21 0.10998237E+00 0.18356744E+03</pdfrwt>
<totfact> 0.81248084E+04</totfact>
</mgrwt>
</event>
<event>
12    1  0.1410528E-001  0.2621040E+03  0.7546771E-02  0.1106024E+00
         21   -1    0    0  502  503  0.00000000000E+00  0.00000000000E+00  0.26982076013E+03  0.26982076013E+03  0.00000000000E+00 0.  1.
         21   -1    0    0  503  504 -0.00000000000E+00 -0.00000000000E+00 -0.52747436418E+03  0.52747436418E+03  0.00000000000E+00 0. -1.
         -6    2    1    2    0  504 -0.12120081533E+03  0.15358038381E+03 -0.41613438237E+03  0.49179906370E+03  0.17441881477E+03 0.  0.
        -24    2    3    3    0    0 -0.94062305451E+02  0.75097846354E+02 -0.13038919608E+03  0.19419461331E+03  0.78884735866E+02 0.  0.
          6    2    1    2  502    0  0.12120081533E+03 -0.15358038381E+03  0.15848077831E+03  0.30549606060E+03  0.17301766969E+03 0.  0.
         24    2    5    5    0    0  0.14616877828E+03 -0.87083200366E+02  0.97257731591E+02  0.21160449533E+03  0.79803512212E+02 0.  0.
          4    1    6    6  501    0  0.85929127736E+02 -0.66846754458E+01  0.32678728002E+02  0.92175914116E+02  0.00000000000E+00 0. -1.
         -3    1    6    6    0  501  0.60239650541E+02 -0.80398524920E+02  0.64579003589E+02  0.11942858122E+03  0.00000000000E+00 0.  1.
          5    1    5    5  502    0 -0.24967962948E+02 -0.66497183445E+02  0.61223046718E+02  0.93891565273E+02  0.47000000000E+01 0. -1.
         13    1    4    4    0    0 -0.99828240305E+02  0.55292182879E+02 -0.13077181945E+03  0.17356316375E+03  0.00000000000E+00 0. -1.
        -14    1    4    4    0    0  0.57659348535E+01  0.19805663474E+02  0.38262337038E+00  0.20631449562E+02  0.00000000000E+00 0.  1.
         -5    1    3    3    0  504 -0.27138509878E+02  0.78482537457E+02 -0.28574518629E+03  0.29760445039E+03  0.47000000000E+01 0.  1.
<mgrwt>
<rscale>  2 0.26187109E+03</rscale>
<asrwt>0</asrwt>
<pdfrwt beam="1">  1       21 0.41510887E-01 0.26210398E+03</pdfrwt>
<pdfrwt beam="2">  1       21 0.81149901E-01 0.26210398E+03</pdfrwt>
<totfact> 0.71132465E+03</totfact>
</mgrwt>
</event>
<event>
12    1  0.1410528E-001  0.2336831E+03  0.7546771E-02  0.1124127E+00
         21   -1    0    0  502  503  0.00000000000E+00  0.00000000000E+00  0.51578757597E+03  0.51578757597E+03  0.00000000000E+00 0. -1.
         21   -1    0    0  503  504 -0.00000000000E+00 -0.00000000000E+00 -0.33918282256E+03  0.33918282256E+03  0.00000000000E+00 0. -1.
         -6    2    1    2    0  504 -0.14238055579E+03 -0.67815987322E+02 -0.26633061775E+03  0.35431596805E+03  0.17244296583E+03 0.  0.
        -24    2    3    3    0    0 -0.55773496215E+02 -0.92260255080E+02 -0.19631347074E+03  0.24019850283E+03  0.86796914799E+02 0.  0.
          6    2    1    2  502    0  0.14238055579E+03  0.67815987322E+02  0.44293537116E+03  0.50065443047E+03  0.17202291976E+03 0.  0.
         24    2    5    5    0    0  0.41346910943E+02  0.21715958176E+02  0.87669434418E+02  0.12840587656E+03  0.81369463069E+02 0.  0.
          2    1    6    6  501    0  0.32678401626E+01  0.45865983573E+02  0.28819840239E+02  0.54267397393E+02  0.00000000000E+00 0. -1.
         -1    1    6    6    0  501  0.38079070781E+02 -0.24150025398E+02  0.58849594179E+02  0.74138479167E+02  0.00000000000E+00 0.  1.
          5    1    5    5  502    0  0.10103364485E+03  0.46100029147E+02  0.35526593675E+03  0.37224855391E+03  0.47000000000E+01 0. -1.
         11    1    4    4    0    0 -0.77978611872E+02 -0.57155767548E+02 -0.13149684050E+03  0.16321416831E+03  0.00000000000E+00 0. -1.
        -12    1    4    4    0    0  0.22205115658E+02 -0.35104487532E+02 -0.64816630239E+02  0.76984334522E+02  0.00000000000E+00 0.  1.
         -5    1    3    3    0  504 -0.86607059574E+02  0.24444267758E+02 -0.70017147006E+02  0.11411746522E+03  0.47000000000E+01 0.  1.
<mgrwt>
<rscale>  2 0.23360565E+03</rscale>
<asrwt>0</asrwt>
<pdfrwt beam="1">  1       21 0.79351935E-01 0.23368313E+03</pdfrwt>
<pdfrwt beam="2">  1       21 0.52181973E-01 0.23368313E+03</pdfrwt>
<totfact> 0.47358144E+03</totfact>
</mgrwt>
</event>
<event>
12    1  0.1410528E-001  0.1904490E+03  0.7546771E-02  0.1158372E+00
         21   -1    0    0  502  503  0.00000000000E+00  0.00000000000E+00  0.13896301889E+03  0.13896301889E+03  0.00000000000E+00 0. -1.
         21   -1    0    0  503  504 -0.00000000000E+00 -0.00000000000E+00 -0.40250082340E+03  0.40250082340E+03  0.00000000000E+00 0. -1.
         -6    2    1    2    0  504  0.48122658488E+02  0.58761722810E+02 -0.29367595881E+03  0.35002339383E+03  0.17464843863E+03 0.  0.
        -24    2    3    3    0    0  0.52214065148E+02 -0.31095506663E+02 -0.13743878650E+03  0.16968148160E+03  0.78798134666E+02 0.  0.
          6    2    1    2  502    0 -0.48122658488E+02 -0.58761722810E+02  0.30138154295E+02  0.19144044846E+03  0.17312540725E+03 0.  0.
         24    2    5    5    0    0  0.35081221941E+02 -0.59825416261E+02  0.19373103911E+02  0.10740478061E+03  0.79691261618E+02 0.  0.
          2    1    6    6  501    0 -0.51080632388E+01  0.11328814721E+02  0.22414028495E+02  0.25628558805E+02  0.00000000000E+00 0. -1.
         -1    1    6    6    0  501  0.40189285180E+02 -0.71154230982E+02 -0.30409245839E+01  0.81776221802E+02  0.00000000000E+00 0.  1.
          5    1    5    5  502    0 -0.83203880429E+02  0.10636934509E+01  0.10765050384E+02  0.84035667856E+02  0.47000000000E+01 0. -1.
         11    1    4    4    0    0 -0.11230253589E+02 -0.26877775062E+02 -0.17640182923E+02  0.34054506920E+02  0.00000000000E+00 0. -1.
        -12    1    4    4    0    0  0.63444318737E+02 -0.42177316012E+01 -0.11979860358E+03  0.13562697468E+03  0.00000000000E+00 0.  1.
         -5    1    3    3    0  504 -0.40914066593E+01  0.89857229473E+02 -0.15623717231E+03  0.18034191223E+03  0.47000000000E+01 0.  1.
<mgrwt>
<rscale>  2 0.19009908E+03</rscale>
<asrwt>0</asrwt>
<pdfrwt beam="1">  1       21 0.21378926E-01 0.19044896E+03</pdfrwt>
<pdfrwt beam="2">  1       21 0.61923203E-01 0.19044896E+03</pdfrwt>
<totfact> 0.49374851E+04</totfact>
</mgrwt>
</event>
<event>
12    1  0.1410528E-001  0.2269809E+03  0.7546771E-02  0.1129076E+00
         21   -1    0    0  502  503  0.00000000000E+00  0.00000000000E+00  0.10225825313E+04  0.10225825313E+04  0.00000000000E+00 0.  1.
         21   -1    0    0  503  504 -0.00000000000E+00 -0.00000000000E+00 -0.85621676913E+02  0.85621676913E+02  0.00000000000E+00 0. -1.
         -6    2    1    2    0  504  0.54569517889E+02 -0.13363557625E+03  0.11019638056E+03  0.25084790396E+03  0.17304660965E+03 0.  0.
        -24    2    3    3    0    0  0.32912022241E+02 -0.13881791630E+02  0.79204420293E+00  0.87136527259E+02  0.79474786580E+02 0.  0.
          6    2    1    2  502    0 -0.54569517889E+02  0.13363557625E+03  0.82676447379E+03  0.85735630422E+03  0.17516859800E+03 0.  0.
         24    2    5    5    0    0  0.21265504589E+02  0.12549084330E+03  0.54393420606E+03  0.56438473962E+03  0.80408583905E+02 0.  0.
          4    1    6    6  501    0  0.49091133640E+02  0.50274649741E+02  0.24451993363E+03  0.25441595420E+03  0.00000000000E+00 0. -1.
         -3    1    6    6    0  501 -0.27825629051E+02  0.75216193562E+02  0.29941427243E+03  0.30996878543E+03  0.00000000000E+00 0.  1.
          5    1    5    5  502    0 -0.75835022477E+02  0.81447329471E+01  0.28283026774E+03  0.29297156459E+03  0.47000000000E+01 0. -1.
         13    1    4    4    0    0  0.22701593425E+02 -0.28205739336E+02  0.33929296454E+02  0.49619786713E+02  0.00000000000E+00 0. -1.
        -14    1    4    4    0    0  0.10210428816E+02  0.14323947706E+02 -0.33137252251E+02  0.37516740547E+02  0.00000000000E+00 0.  1.
         -5    1    3    3    0  504  0.21657495648E+02 -0.11975378462E+03  0.10940433635E+03  0.16371137670E+03  0.47000000000E+01 0.  1.
<mgrwt>
<rscale>  2 0.22657142E+03</rscale>
<asrwt>0</asrwt>
<pdfrwt beam="1">  1       21 0.15732038E+00 0.22698092E+03</pdfrwt>
<pdfrwt beam="2">  1       21 0.13172566E-01 0.22698092E+03</pdfrwt>
<totfact> 0.12762310E+04</totfact>
</mgrwt>
</event>
<event>
12    1  0.1410528E-001  0.2867831E+03  0.7546771E-02  0.1092113E+00
         21   -1    0    0  502  503  0.00000000000E+00  0.00000000000E+00  0.69653194087E+03  0.69653194087E+03  0.00000000000E+00 0. -1.
         21   -1    0    0  503  504 -0.00000000000E+00 -0.00000000000E+00 -0.14693056453E+03  0.14693056453E+03  0.00000000000E+00 0.  1.
         -6    2    1    2    0  504 -0.15467548830E+03 -0.16839451906E+03  0.87399485874E+02  0.29980528879E+03  0.17309916327E+03 0.  0.
        -24    2    3    3    0    0 -0.87709406560E+02 -0.18983866326E+02  0.57810444867E+02  0.13335529449E+03  0.79926590404E+02 0.  0.
          6    2    1    2  502    0  0.15467548830E+03  0.16839451906E+03  0.46220189047E+03  0.54365721662E+03  0.17219570522E+03 0.  0.
         24    2    5    5    0    0  0.11912772993E+03  0.77821193055E+02  0.38917422966E+03  0.42191034909E+03  0.79399039743E+02 0.  0.
          4    1    6    6  501    0  0.72747135056E+02  0.34223692859E+02  0.31034575687E+03  0.32058991815E+03  0.00000000000E+00 0. -1.
         -3    1    6    6    0  501  0.46380594869E+02  0.43597500196E+02  0.78828472795E+02  0.10132043094E+03  0.00000000000E+00 0.  1.
          5    1    5    5  502    0  0.35547758371E+02  0.90573326003E+02  0.73027660808E+02  0.12174686752E+03  0.47000000000E+01 0. -1.
         13    1    4    4    0    0 -0.45468118995E+02 -0.38453367203E+02  0.62838753818E+02  0.86572052509E+02  0.00000000000E+00 0. -1.
        -14    1    4    4    0    0 -0.42241287566E+02  0.19469500877E+02 -0.50283089510E+01  0.46783241984E+02  0.00000000000E+00 0.  1.
         -5    1    3    3    0  504 -0.66966081736E+02 -0.14941065273E+03  0.29589041007E+02  0.16644999429E+03  0.47000000000E+01 0.  1.
<mgrwt>
<rscale>  2 0.28664689E+03</rscale>
<asrwt>0</asrwt>
<pdfrwt beam="1">  1       21 0.10715876E+00 0.28678309E+03</pdfrwt>
<pdfrwt beam="2">  1       21 0.22604703E-01 0.28678309E+03</pdfrwt>
<totfact> 0.12084455E+04</totfact>
</mgrwt>
</event>
<event>
12    1  0.1410528E-001  0.2218960E+03  0.7546771E-02  0.1132507E+00
         21   -1    0    0  502  503  0.00000000000E+00  0.00000000000E+00  0.20517499012E+04  0.20517499012E+04  0.00000000000E+00 0. -1.
         21   -1    0    0  503  504 -0.00000000000E+00 -0.00000000000E+00 -0.38022591783E+02  0.38022591783E+02  0.00000000000E+00 0.  1.
         -6    2    1    2    0  504  0.61261137598E+02  0.12482087680E+03  0.37210890226E+03  0.43324690281E+03  0.17292965445E+03 0.  0.
        -24    2    3    3    0    0  0.94550700916E+02  0.31929161060E+02  0.23178896106E+03  0.26164025440E+03  0.69066590218E+02 0.  0.
          6    2    1    2  502    0 -0.61261137598E+02 -0.12482087680E+03  0.16416184071E+04  0.16565255901E+04  0.17272190921E+03 0.  0.
         24    2    5    5    0    0 -0.76890703712E+02 -0.96313252106E+02  0.15790553903E+04  0.15858630889E+04  0.79733232471E+02 0.  0.
          2    1    6    6  501    0 -0.49975616198E+02 -0.91356241301E+02  0.14597282319E+04  0.14634377458E+04  0.00000000000E+00 0. -1.
         -1    1    6    6    0  501 -0.26915087515E+02 -0.49570108049E+01  0.11932715842E+03  0.12242534308E+03  0.00000000000E+00 0.  1.
          5    1    5    5  502    0  0.15629566115E+02 -0.28507624695E+02  0.62563016821E+02  0.70662501205E+02  0.47000000000E+01 0. -1.
         11    1    4    4    0    0  0.27795880698E+02  0.30659106921E+02  0.15234472226E+03  0.15786546874E+03  0.00000000000E+00 0. -1.
        -12    1    4    4    0    0  0.66754820218E+02  0.12700541385E+01  0.79444238798E+02  0.10377478566E+03  0.00000000000E+00 0.  1.
         -5    1    3    3    0  504 -0.33289563319E+02  0.92891715741E+02  0.14031994120E+03  0.17160664841E+03  0.47000000000E+01 0.  1.
<mgrwt>
<rscale>  2 0.22185554E+03</rscale>
<asrwt>0</asrwt>
<pdfrwt beam="1">  1       21 0.31565374E+00 0.22189602E+03</pdfrwt>
<pdfrwt beam="2">  1       21 0.58496311E-02 0.22189602E+03</pdfrwt>
<totfact> 0.55275314E+03</totfact>
</mgrwt>
</event>
<event>
12    1  0.1410528E-001  0.1942333E+03  0.7546771E-02  0.1154922E+00
         21   -1    0    0  502  503  0.00000000000E+00  0.00000000000E+00  0.45895215500E+03  0.45895215500E+03  0.00000000000E+00 0. -1.
         21   -1    0    0  503  504 -0.00000000000E+00 -0.00000000000E+00 -0.13171355637E+03  0.13171355637E+03  0.00000000000E+00 0. -1.
         -6    2    1    2    0  504 -0.85103793832E+02 -0.21031756580E+02 -0.17971449343E+02  0.19506290339E+03  0.17332504948E+03 0.  0.
        -24    2    3    3    0    0 -0.26727483885E+02  0.36960352241E+02 -0.53321510814E+02  0.10538238659E+03  0.78624664416E+02 0.  0.
          6    2    1    2  502    0  0.85103793832E+02  0.21031756580E+02  0.34521004798E+03  0.39560280798E+03  0.17218192109E+03 0.  0.
         24    2    5    5    0    0  0.50907418267E+02  0.74589902212E+02  0.27875956723E+03  0.30353965869E+03  0.79209906778E+02 0.  0.
          2    1    6    6  501    0  0.55318164239E+02  0.88810037759E+02  0.25309283780E+03  0.27386731577E+03  0.00000000000E+00 0. -1.
         -1    1    6    6    0  501 -0.44107459725E+01 -0.14220135547E+02  0.25666729424E+02  0.29672342919E+02  0.00000000000E+00 0.  1.
          5    1    5    5  502    0  0.34196375566E+02 -0.53558145632E+02  0.66450480752E+02  0.92063149292E+02  0.47000000000E+01 0. -1.
         11    1    4    4    0    0 -0.52205588081E+02  0.11153955342E+02 -0.40161437994E+02  0.66804006230E+02  0.00000000000E+00 0. -1.
        -12    1    4    4    0    0  0.25478104195E+02  0.25806396898E+02 -0.13160072820E+02  0.38578380356E+02  0.00000000000E+00 0.  1.
         -5    1    3    3    0  504 -0.58376309947E+02 -0.57992108821E+02  0.35350061471E+02  0.89680516806E+02  0.47000000000E+01 0.  1.
<mgrwt>
<rscale>  2 0.19397792E+03</rscale>
<asrwt>0</asrwt>
<pdfrwt beam="1">  1       21 0.70608023E-01 0.19423327E+03</pdfrwt>
<pdfrwt beam="2">  1       21 0.20263624E-01 0.19423327E+03</pdfrwt>
<totfact> 0.40916478E+04</totfact>
</mgrwt>
</event>
<event>
12    1  0.1410528E-001  0.2006535E+03  0.7546771E-02  0.1149460E+00
         21   -1    0    0  502  503  0.00000000000E+00  0.00000000000E+00  0.14231547442E+03  0.14231547442E+03  0.00000000000E+00 0. -1.
         21   -1    0    0  503  504 -0.00000000000E+00 -0.00000000000E+00 -0.30905184847E+03  0.30905184847E+03  0.00000000000E+00 0. -1.
         -6    2    1    2    0  504 -0.16498861980E+02  0.97780806100E+02 -0.15148708637E+03  0.25141630576E+03  0.17443773381E+03 0.  0.
        -24    2    3    3    0    0 -0.34216641617E+02  0.84747133888E+02 -0.18006271823E+03  0.21505075801E+03  0.73968849906E+02 0.  0.
          6    2    1    2  502    0  0.16498861980E+02 -0.97780806100E+02 -0.15249287692E+02  0.19995101713E+03  0.17295828974E+03 0.  0.
         24    2    5    5    0    0  0.25462316902E+02 -0.24954550684E+02 -0.66113770003E+02  0.11054580161E+03  0.81106624191E+02 0.  0.
          2    1    6    6  501    0  0.31569116402E+02  0.22872095162E+02 -0.39393017336E+02  0.55421581197E+02  0.00000000000E+00 0. -1.
         -1    1    6    6    0  501 -0.61067994993E+01 -0.47826645846E+02 -0.26720752667E+02  0.55124220412E+02  0.00000000000E+00 0.  1.
          5    1    5    5  502    0 -0.89634549223E+01 -0.72826255416E+02  0.50864482311E+02  0.89405215524E+02  0.47000000000E+01 0. -1.
         13    1    4    4    0    0 -0.28877343712E+02 -0.39126176704E+00 -0.70562843570E+02  0.76244140485E+02  0.00000000000E+00 0. -1.
        -14    1    4    4    0    0 -0.53392979047E+01  0.85138395655E+02 -0.10949987466E+03  0.13880661752E+03  0.00000000000E+00 0.  1.
         -5    1    3    3    0  504  0.17717779636E+02  0.13033672212E+02  0.28575631866E+02  0.36365547750E+02  0.47000000000E+01 0.  1.
<mgrwt>
<rscale>  2 0.20033151E+03</rscale>
<asrwt>0</asrwt>
<pdfrwt beam="1">  1       21 0.21894689E-01 0.20065349E+03</pdfrwt>
<pdfrwt beam="2">  1       21 0.47546438E-01 0.20065349E+03</pdfrwt>
<totfact> 0.82117365E+04</totfact>
</mgrwt>
</event>
<event>
12    1  0.1410528E-001  0.2356352E+03  0.7546771E-02  0.1122947E+00
         21   -1    0    0  502  503  0.00000000000E+00  0.00000000000E+00  0.80262219173E+03  0.80262219173E+03  0.00000000000E+00 0.  1.
         21   -1    0    0  503  504 -0.00000000000E+00 -0.00000000000E+00 -0.74727892012E+02  0.74727892012E+02  0.00000000000E+00 0. -1.
         -6    2    1    2    0  504  0.14386636979E+03  0.64813644291E+02  0.23967434280E+03  0.33524062219E+03  0.17333246473E+03 0.  0.
        -24    2    3    3    0    0  0.13136002283E+03  0.87258989489E+02  0.25098407772E+03  0.30677656874E+03  0.79052318203E+02 0.  0.
          6    2    1    2  502    0 -0.14386636979E+03 -0.64813644291E+02  0.48821995692E+03  0.54210946155E+03  0.17500171749E+03 0.  0.
         24    2    5    5    0    0 -0.15587617166E+03 -0.71598821262E+02  0.30083790313E+03  0.35416160163E+03  0.74183717948E+02 0.  0.
          4    1    6    6  501    0 -0.11577512102E+03 -0.82384086969E+02  0.20216493127E+03  0.24710660830E+03  0.00000000000E+00 0. -1.
         -3    1    6    6    0  501 -0.40101050636E+02  0.10785265707E+02  0.98672971866E+02  0.10705499332E+03  0.00000000000E+00 0.  1.
          5    1    5    5  502    0  0.12009801871E+02  0.67851769712E+01  0.18738205379E+03  0.18794785992E+03  0.47000000000E+01 0. -1.
         11    1    4    4    0    0  0.86588302532E+02  0.46750345430E+02  0.84578847507E+02  0.12975635005E+03  0.00000000000E+00 0. -1.
        -12    1    4    4    0    0  0.44771720303E+02  0.40508644059E+02  0.16640523021E+03  0.17702021868E+03  0.00000000000E+00 0.  1.
         -5    1    3    3    0  504  0.12506346955E+02 -0.22445345198E+02 -0.11309734918E+02  0.28464053456E+02  0.47000000000E+01 0.  1.
<mgrwt>
<rscale>  2 0.23532531E+03</rscale>
<asrwt>0</asrwt>
<pdfrwt beam="1">  1       21 0.12348033E+00 0.23563519E+03</pdfrwt>
<pdfrwt beam="2">  1       21 0.11496599E-01 0.23563519E+03</pdfrwt>
<totfact> 0.30421376E+04</totfact>
</mgrwt>
</event>
<event>
12    1  0.1410528E-001  0.1750265E+03  0.7546771E-02  0.1172944E+00
         21   -1    0    0  502  503  0.00000000000E+00  0.00000000000E+00  0.15819114722E+04  0.15819114722E+04  0.00000000000E+00 0. -1.
         21   -1    0    0  503  504 -0.00000000000E+00 -0.00000000000E+00 -0.19989723663E+02  0.19989723663E+02  0.00000000000E+00 0. -1.
         -6    2    1    2    0  504  0.13783749300E+02 -0.16286641496E+01  0.63003863224E+03  0.65389828021E+03  0.17447532337E+03 0.  0.
        -24    2    3    3    0    0  0.24186665406E+02 -0.46198754707E+02  0.20286563937E+03  0.22425474253E+03  0.80102448100E+02 0.  0.
          6    2    1    2  502    0 -0.13783749300E+02  0.16286641496E+01  0.93188311626E+03  0.94800291561E+03  0.17352446900E+03 0.  0.
         24    2    5    5    0    0 -0.47753216051E+01  0.67801250529E+02  0.53728465146E+03  0.54776548435E+03  0.82173084895E+02 0.  0.
          4    1    6    6  501    0 -0.25364601105E+02  0.80498103237E+01  0.32973114023E+03  0.33080324556E+03  0.00000000000E+00 0. -1.
         -3    1    6    6    0  501  0.20589279500E+02  0.59751440206E+02  0.20755351122E+03  0.21696223878E+03  0.00000000000E+00 0.  1.
          5    1    5    5  502    0 -0.90084276944E+01 -0.66172586380E+02  0.39459846480E+03  0.40023743126E+03  0.47000000000E+01 0. -1.
         11    1    4    4    0    0  0.40254232131E+02 -0.61128339014E+02  0.14633867109E+03  0.16362177023E+03  0.00000000000E+00 0. -1.
        -12    1    4    4    0    0 -0.16067566725E+02  0.14929584307E+02  0.56526968277E+02  0.60632972306E+02  0.00000000000E+00 0.  1.
         -5    1    3    3    0  504 -0.10402916107E+02  0.44570090557E+02  0.42717299287E+03  0.42964353768E+03  0.47000000000E+01 0.  1.
<mgrwt>
<rscale>  2 0.17478908E+03</rscale>
<asrwt>0</asrwt>
<pdfrwt beam="1">  1       21 0.24337090E+00 0.17502652E+03</pdfrwt>
<pdfrwt beam="2">  1       21 0.30753433E-02 0.17502652E+03</pdfrwt>
<totfact> 0.44803598E+04</totfact>
</mgrwt>
</event>
<event>
12    1  0.1410528E-001  0.1780140E+03  0.7546771E-02  0.1169914E+00
         21   -1    0    0  502  503  0.00000000000E+00  0.00000000000E+00  0.15582972902E+03  0.15582972902E+03  0.00000000000E+00 0. -1.
         21   -1    0    0  503  504 -0.00000000000E+00 -0.00000000000E+00 -0.27103187960E+03  0.27103187960E+03  0.00000000000E+00 0. -1.
         -6    2    1    2    0  504  0.17307477409E+01 -0.41756672573E+02 -0.16497310389E+03  0.24270372198E+03  0.17303859819E+03 0.  0.
        -24    2    3    3    0    0  0.20896676267E+02  0.32161536202E+02 -0.13227211440E+03  0.15950108309E+03  0.80458981902E+02 0.  0.
          6    2    1    2  502    0 -0.17307477409E+01  0.41756672573E+02  0.49770953322E+02  0.18415788664E+03  0.17230892091E+03 0.  0.
         24    2    5    5    0    0  0.49619357648E+01  0.72301282180E+02 -0.18433559755E+02  0.10898002558E+03  0.79276438111E+02 0.  0.
          2    1    6    6  501    0  0.16336234899E+02  0.85104766763E+02 -0.42830880696E+01  0.86764271102E+02  0.00000000000E+00 0. -1.
         -1    1    6    6    0  501 -0.11374299134E+02 -0.12803484583E+02 -0.14150471685E+02  0.22215754481E+02  0.00000000000E+00 0.  1.
          5    1    5    5  502    0 -0.66926835057E+01 -0.30544609607E+02  0.68204513077E+02  0.75177861053E+02  0.47000000000E+01 0. -1.
         13    1    4    4    0    0 -0.26046525102E+02 -0.13685995298E+01 -0.69569318283E+02  0.74297944662E+02  0.00000000000E+00 0. -1.
        -14    1    4    4    0    0  0.46943201369E+02  0.33530135732E+02 -0.62702796122E+02  0.85203138431E+02  0.00000000000E+00 0.  1.
         -5    1    3    3    0  504 -0.19165928526E+02 -0.73918208775E+02 -0.32700989490E+02  0.83202638891E+02  0.47000000000E+01 0.  1.
<mgrwt>
<rscale>  2 0.17783640E+03</rscale>
<asrwt>0</asrwt>
<pdfrwt beam="1">  1       21 0.23973805E-01 0.17801396E+03</pdfrwt>
<pdfrwt beam="2">  1       21 0.41697212E-01 0.17801396E+03</pdfrwt>
<totfact> 0.91360365E+04</totfact>
</mgrwt>
</event>
<event>
12    1  0.1410528E-001  0.2182776E+03  0.7546771E-02  0.1135433E+00
         21   -1    0    0  502  503  0.00000000000E+00  0.00000000000E+00  0.17323463573E+03  0.17323463573E+03  0.00000000000E+00 0.  1.
         21   -1    0    0  503  504 -0.00000000000E+00 -0.00000000000E+00 -0.29078600268E+03  0.29078600268E+03  0.00000000000E+00 0.  1.
         -6    2    1    2    0  504 -0.13303808093E+03 -0.93055146955E+01 -0.11583052655E+03  0.24710692261E+03  0.17279871742E+03 0.  0.
        -24    2    3    3    0    0 -0.11465290987E+03  0.47235222108E+02 -0.43457423070E+02  0.15332619144E+03  0.79018462471E+02 0.  0.
          6    2    1    2  502    0  0.13303808093E+03  0.93055146955E+01 -0.17208404071E+01  0.21691371580E+03  0.17106395070E+03 0.  0.
         24    2    5    5    0    0  0.64395451275E+02 -0.34413587909E+02  0.49149672711E+02  0.12082485254E+03  0.82776116634E+02 0.  0.
          4    1    6    6  501    0  0.18677144020E+02  0.24867448375E+01 -0.21729897134E+02  0.28761224558E+02  0.00000000000E+00 0. -1.
         -3    1    6    6    0  501  0.45718307256E+02 -0.36900332746E+02  0.70879569844E+02  0.92063627978E+02  0.00000000000E+00 0.  1.
          5    1    5    5  502    0  0.68642629652E+02  0.43719102604E+02 -0.50870513118E+02  0.96088863262E+02  0.47000000000E+01 0. -1.
         11    1    4    4    0    0 -0.10099888290E+03  0.68088822093E+02 -0.39734299746E+02  0.12812367703E+03  0.00000000000E+00 0. -1.
        -12    1    4    4    0    0 -0.13654026972E+02 -0.20853599985E+02 -0.37231233240E+01  0.25202514402E+02  0.00000000000E+00 0.  1.
         -5    1    3    3    0  504 -0.18385171059E+02 -0.56540736803E+02 -0.72373103476E+02  0.93780731176E+02  0.47000000000E+01 0.  1.
<mgrwt>
<rscale>  2 0.21793413E+03</rscale>
<asrwt>0</asrwt>
<pdfrwt beam="1">  1       21 0.26651483E-01 0.21827762E+03</pdfrwt>
<pdfrwt beam="2">  1       21 0.44736308E-01 0.21827762E+03</pdfrwt>
<totfact> 0.63536241E+04</totfact>
</mgrwt>
</event>
<event>
12    1  0.1410528E-001  0.1860138E+03  0.7546771E-02  0.1162117E+00
         21   -1    0    0  502  503  0.00000000000E+00  0.00000000000E+00  0.93856314945E+03  0.93856314945E+03  0.00000000000E+00 0.  1.
         21   -1    0    0  503  504 -0.00000000000E+00 -0.00000000000E+00 -0.57403615571E+02  0.57403615571E+02  0.00000000000E+00 0.  1.
         -6    2    1    2    0  504  0.23460346684E+02  0.63316634488E+02  0.14261756801E+03  0.23435966786E+03  0.17327809770E+03 0.  0.
        -24    2    3    3    0    0 -0.11995638682E+02  0.20657470936E+02  0.15045318099E+03  0.17814207307E+03  0.92346153536E+02 0.  0.
          6    2    1    2  502    0 -0.23460346684E+02 -0.63316634488E+02  0.73854196587E+03  0.76160709717E+03  0.17332556371E+03 0.  0.
         24    2    5    5    0    0  0.25676272836E+02 -0.78475629171E+02  0.65760610084E+03  0.66560237465E+03  0.61343637934E+02 0.  0.
          4    1    6    6  501    0  0.26525704405E+02 -0.11124168968E+02  0.10367904346E+03  0.10759509367E+03  0.00000000000E+00 0. -1.
         -3    1    6    6    0  501 -0.84943156927E+00 -0.67351460203E+02  0.55392705738E+03  0.55800728098E+03  0.00000000000E+00 0.  1.
          5    1    5    5  502    0 -0.49136619520E+02  0.15158994682E+02  0.80935865030E+02  0.96004722518E+02  0.47000000000E+01 0. -1.
         13    1    4    4    0    0  0.25641070388E+02  0.43557863219E+02  0.68924398327E+02  0.85471191776E+02  0.00000000000E+00 0. -1.
        -14    1    4    4    0    0 -0.37636709070E+02 -0.22900392283E+02  0.81528782665E+02  0.92670881291E+02  0.00000000000E+00 0.  1.
         -5    1    3    3    0  504  0.35455985366E+02  0.42659163553E+02 -0.78356129800E+01  0.56217594791E+02  0.47000000000E+01 0.  1.
<mgrwt>
<rscale>  2 0.18600275E+03</rscale>
<asrwt>0</asrwt>
<pdfrwt beam="1">  1       21 0.14439432E+00 0.18601380E+03</pdfrwt>
<pdfrwt beam="2">  1       21 0.88313262E-02 0.18601380E+03</pdfrwt>
<totfact> 0.33480409E+04</totfact>
</mgrwt>
</event>
<event>
12    1  0.1410528E-001  0.1922998E+03  0.7546771E-02  0.1156527E+00
         21   -1    0    0  502  503  0.00000000000E+00  0.00000000000E+00  0.28648017659E+03  0.28648017659E+03  0.00000000000E+00 0.  1.
         21   -1    0    0  503  504 -0.00000000000E+00 -0.00000000000E+00 -0.14192572813E+03  0.14192572813E+03  0.00000000000E+00 0.  1.
         -6    2    1    2    0  504 -0.48754204481E+02 -0.67527518767E+02  0.70014456928E+01  0.19242721708E+03  0.17332707632E+03 0.  0.
        -24    2    3    3    0    0 -0.34919925583E+02 -0.50763564371E+02 -0.64328117502E+02  0.11771166298E+03  0.76951856567E+02 0.  0.
          6    2    1    2  502    0  0.48754204481E+02  0.67527518767E+02  0.13755300276E+03  0.23597868764E+03  0.17270835013E+03 0.  0.
         24    2    5    5    0    0 -0.19506392335E+02  0.18822752175E+02  0.15890935094E+02  0.88142927158E+02  0.82352039735E+02 0.  0.
          4    1    6    6  501    0 -0.36136528081E+02  0.10790675967E+02 -0.23640517723E+02  0.44510239584E+02  0.00000000000E+00 0. -1.
         -3    1    6    6    0  501  0.16630135746E+02  0.80320762086E+01  0.39531452817E+02  0.43632687575E+02  0.00000000000E+00 0.  1.
          5    1    5    5  502    0  0.68260596816E+02  0.48704766592E+02  0.12166206767E+03  0.14783576048E+03  0.47000000000E+01 0. -1.
         13    1    4    4    0    0 -0.31807541605E+02  0.36435176820E+01 -0.53200780471E+02  0.62091206839E+02  0.00000000000E+00 0. -1.
        -14    1    4    4    0    0 -0.31123839776E+01 -0.54407082053E+02 -0.11127337031E+02  0.55620456138E+02  0.00000000000E+00 0.  1.
         -5    1    3    3    0  504 -0.13834278899E+02 -0.16763954396E+02  0.71329563195E+02  0.74715554105E+02  0.47000000000E+01 0.  1.
<mgrwt>
<rscale>  2 0.19216028E+03</rscale>
<asrwt>0</asrwt>
<pdfrwt beam="1">  1       21 0.44073873E-01 0.19229980E+03</pdfrwt>
<pdfrwt beam="2">  1       21 0.21834727E-01 0.19229980E+03</pdfrwt>
<totfact> 0.96840389E+04</totfact>
</mgrwt>
</event>
<event>
12    1  0.1410528E-001  0.2053694E+03  0.7546771E-02  0.1145291E+00
         21   -1    0    0  502  503  0.00000000000E+00  0.00000000000E+00  0.95661395330E+02  0.95661395330E+02  0.00000000000E+00 0.  1.
         21   -1    0    0  503  504 -0.00000000000E+00 -0.00000000000E+00 -0.80016027385E+03  0.80016027385E+03  0.00000000000E+00 0. -1.
         -6    2    1    2    0  504 -0.14934549780E+02  0.10948261914E+03 -0.65241349208E+03  0.68397366045E+03  0.17311013508E+03 0.  0.
        -24    2    3    3    0    0  0.21014266740E+02  0.94061188037E+02 -0.25192603021E+03  0.28155294147E+03  0.80723154373E+02 0.  0.
          6    2    1    2  502    0  0.14934549780E+02 -0.10948261914E+03 -0.52085386437E+02  0.21184800873E+03  0.17308150292E+03 0.  0.
         24    2    5    5    0    0 -0.36153672922E+02 -0.71974303388E+02  0.19451821869E+02  0.11615818471E+03  0.81406155092E+02 0.  0.
          2    1    6    6  501    0 -0.60469205766E+02 -0.37566444376E+02  0.20269849054E+02  0.74017763879E+02  0.00000000000E+00 0. -1.
         -1    1    6    6    0  501  0.24315532843E+02 -0.34407859012E+02 -0.81802718503E+00  0.42140420830E+02  0.00000000000E+00 0.  1.
          5    1    5    5  502    0  0.51088222702E+02 -0.37508315750E+02 -0.71537208305E+02  0.95689824022E+02  0.47000000000E+01 0. -1.
         13    1    4    4    0    0  0.33836624516E+02  0.45292008594E+02 -0.20505920941E+03  0.21271004340E+03  0.00000000000E+00 0. -1.
        -14    1    4    4    0    0 -0.12822357776E+02  0.48769179443E+02 -0.46866820806E+02  0.68842898072E+02  0.00000000000E+00 0.  1.
         -5    1    3    3    0  504 -0.35948816520E+02  0.15421431101E+02 -0.40048746187E+03  0.40242071897E+03  0.47000000000E+01 0.  1.
<mgrwt>
<rscale>  2 0.20536340E+03</rscale>
<asrwt>0</asrwt>
<pdfrwt beam="1">  1       21 0.14717138E-01 0.20536943E+03</pdfrwt>
<pdfrwt beam="2">  1       21 0.12310158E+00 0.20536943E+03</pdfrwt>
<totfact> 0.19964511E+04</totfact>
</mgrwt>
</event>
<event>
12    1  0.1410528E-001  0.2617589E+03  0.7546771E-02  0.1106435E+00
         21   -1    0    0  502  503  0.00000000000E+00  0.00000000000E+00  0.17704980473E+03  0.17704980473E+03  0.00000000000E+00 0. -1.
         21   -1    0    0  503  504 -0.00000000000E+00 -0.00000000000E+00 -0.49482500626E+03  0.49482500626E+03  0.00000000000E+00 0. -1.
         -6    2    1    2    0  504 -0.82586370071E+02 -0.17500729470E+03 -0.31869473370E+03  0.41241246929E+03  0.17626584984E+03 0.  0.
        -24    2    3    3    0    0 -0.78263544636E+02 -0.10476858496E+03 -0.10266605500E+03  0.18516229177E+03  0.81505316567E+02 0.  0.
          6    2    1    2  502    0  0.82586370071E+02  0.17500729470E+03  0.91953216943E+00  0.25946234170E+03  0.17283460157E+03 0.  0.
         24    2    5    5    0    0  0.76244163894E+02  0.40659165547E+02 -0.29417175131E+02  0.12150564851E+03  0.80199202966E+02 0.  0.
          4    1    6    6  501    0  0.76579264328E+00 -0.18288584411E+02 -0.16915039066E+02  0.24923428832E+02  0.00000000000E+00 0. -1.
         -3    1    6    6    0  501  0.75478371251E+02  0.58947749958E+02 -0.12502136065E+02  0.96582219678E+02  0.00000000000E+00 0.  1.
          5    1    5    5  502    0  0.63422061771E+01  0.13434812915E+03  0.30336707300E+02  0.13795669319E+03  0.47000000000E+01 0. -1.
         11    1    4    4    0    0 -0.13576376361E+02  0.79209352509E+01 -0.35651686003E+02  0.38962827480E+02  0.00000000000E+00 0. -1.
        -12    1    4    4    0    0 -0.64687168275E+02 -0.11268952022E+03 -0.67014368998E+02  0.14619946429E+03  0.00000000000E+00 0.  1.
         -5    1    3    3    0  504 -0.43228254355E+01 -0.70238709736E+02 -0.21602867870E+03  0.22725017752E+03  0.47000000000E+01 0.  1.
<mgrwt>
<rscale>  2 0.26118244E+03</rscale>
<asrwt>0</asrwt>
<pdfrwt beam="1">  1       21 0.27238432E-01 0.26175888E+03</pdfrwt>
<pdfrwt beam="2">  1       21 0.76126923E-01 0.26175888E+03</pdfrwt>
<totfact> 0.19033018E+04</totfact>
</mgrwt>
</event>
<event>
12    1  0.1410528E-001  0.1917683E+03  0.7546771E-02  0.1156986E+00
         21   -1    0    0  502  503  0.00000000000E+00  0.00000000000E+00  0.46246972643E+03  0.46246972643E+03  0.00000000000E+00 0. -1.
         21   -1    0    0  503  504 -0.00000000000E+00 -0.00000000000E+00 -0.17464008508E+03  0.17464008508E+03  0.00000000000E+00 0. -1.
         -6    2    1    2    0  504 -0.35590079427E+01 -0.82720861390E+02 -0.91521708532E+02  0.21204212203E+03  0.17242456593E+03 0.  0.
        -24    2    3    3    0    0 -0.20062669106E+02 -0.39188372019E+02 -0.12711585298E+03  0.15325027242E+03  0.73409581971E+02 0.  0.
          6    2    1    2  502    0  0.35590079427E+01  0.82720861390E+02  0.37935134989E+03  0.42506768948E+03  0.17297308036E+03 0.  0.
         24    2    5    5    0    0 -0.55347426910E+02  0.88522155834E+02  0.23776769802E+03  0.27153709461E+03  0.79368796064E+02 0.  0.
          4    1    6    6  501    0 -0.24374535197E+02  0.66088257253E+02  0.21672803262E+03  0.22788772638E+03  0.00000000000E+00 0. -1.
         -3    1    6    6    0  501 -0.30972891713E+02  0.22433898581E+02  0.21039665403E+02  0.43649368230E+02  0.00000000000E+00 0.  1.
          5    1    5    5  502    0  0.58906434852E+02 -0.58012944441E+01  0.14158365187E+03  0.15353059487E+03  0.47000000000E+01 0. -1.
         11    1    4    4    0    0  0.27737385486E+02 -0.16191196992E+02 -0.40597226686E+02  0.51765357414E+02  0.00000000000E+00 0. -1.
        -12    1    4    4    0    0 -0.47800054591E+02 -0.22997175027E+02 -0.86518626291E+02  0.10148491500E+03  0.00000000000E+00 0.  1.
         -5    1    3    3    0  504  0.16503661163E+02 -0.43532489371E+02  0.35594144444E+02  0.58791849616E+02  0.47000000000E+01 0.  1.
<mgrwt>
<rscale>  2 0.19164456E+03</rscale>
<asrwt>0</asrwt>
<pdfrwt beam="1">  1       21 0.71149188E-01 0.19176833E+03</pdfrwt>
<pdfrwt beam="2">  1       21 0.26867706E-01 0.19176833E+03</pdfrwt>
<totfact> 0.23595908E+04</totfact>
</mgrwt>
</event>
<event>
12    1  0.1410528E-001  0.1768353E+03  0.7546771E-02  0.1171165E+00
         21   -1    0    0  502  503  0.00000000000E+00  0.00000000000E+00  0.44376905137E+03  0.44376905137E+03  0.00000000000E+00 0. -1.
         21   -1    0    0  503  504 -0.00000000000E+00 -0.00000000000E+00 -0.70492635862E+02  0.70492635862E+02  0.00000000000E+00 0. -1.
         -6    2    1    2    0  504 -0.17009604362E+02 -0.24765030302E+02  0.16668752932E+03  0.24301331483E+03  0.17426446966E+03 0.  0.
        -24    2    3    3    0    0 -0.75203595768E+02 -0.22407337709E+02  0.86480131562E+02  0.14377916745E+03  0.83880666658E+02 0.  0.
          6    2    1    2  502    0  0.17009604362E+02  0.24765030302E+02  0.20658888619E+03  0.27124837241E+03  0.17318798535E+03 0.  0.
         24    2    5    5    0    0 -0.17497198834E+02  0.68081330406E+02  0.79390402446E+02  0.13243711354E+03  0.79344398193E+02 0.  0.
          4    1    6    6  501    0  0.27531328612E+02  0.25592805759E+02  0.89176023106E+01  0.38632750261E+02  0.00000000000E+00 0. -1.
         -3    1    6    6    0  501 -0.45028527447E+02  0.42488524647E+02  0.70472800135E+02  0.93804363276E+02  0.00000000000E+00 0.  1.
          5    1    5    5  502    0  0.34506803197E+02 -0.43316300104E+02  0.12719848375E+03  0.13881125887E+03  0.47000000000E+01 0. -1.
         11    1    4    4    0    0 -0.45787185114E+02  0.25401145346E+02  0.65491639538E+02  0.83850100506E+02  0.00000000000E+00 0. -1.
        -12    1    4    4    0    0 -0.29416410655E+02 -0.47808483055E+02  0.20988492024E+02  0.59929066948E+02  0.00000000000E+00 0.  1.
         -5    1    3    3    0  504  0.58193991406E+02 -0.23576925929E+01  0.80207397753E+02  0.99234147371E+02  0.47000000000E+01 0.  1.
<mgrwt>
<rscale>  2 0.17656956E+03</rscale>
<asrwt>0</asrwt>
<pdfrwt beam="1">  1       21 0.68272160E-01 0.17683534E+03</pdfrwt>
<pdfrwt beam="2">  1       21 0.10845021E-01 0.17683534E+03</pdfrwt>
<totfact> 0.13834740E+05</totfact>
</mgrwt>
</event>
<event>
12    1  0.1410528E-001  0.2161360E+03  0.7546771E-02  0.1136811E+00
         21   -1    0    0  502  503  0.00000000000E+00  0.00000000000E+00  0.21578126258E+03  0.21578126258E+03  0.00000000000E+00 0. -1.
         21   -1    0    0  503  504 -0.00000000000E+00 -0.00000000000E+00 -0.37345988056E+03  0.37345988056E+03  0.00000000000E+00 0. -1.
         -6    2    1    2    0  504 -0.12467552044E+03 -0.40714144661E+02  0.11220508391E+03  0.24352570962E+03  0.17179395629E+03 0.  0.
        -24    2    3    3    0    0 -0.12656075198E+02  0.17743981490E+02  0.16703598610E+02  0.85069620053E+02  0.80515867572E+02 0.  0.
          6    2    1    2  502    0  0.12467552044E+03  0.40714144661E+02 -0.26988370189E+03  0.34571543352E+03  0.17169834436E+03 0.  0.
         24    2    5    5    0    0  0.13551526387E+03  0.38771883937E+02 -0.28407168625E+03  0.32715037725E+03  0.80392789968E+02 0.  0.
          2    1    6    6  501    0  0.10199876996E+03  0.46480817318E+02 -0.14164838378E+03  0.18063355192E+03  0.00000000000E+00 0. -1.
         -1    1    6    6    0  501  0.33516493911E+02 -0.77089333815E+01 -0.14242330247E+03  0.14651682533E+03  0.00000000000E+00 0.  1.
          5    1    5    5  502    0 -0.10839743426E+02  0.19422607244E+01  0.14187984359E+02  0.18565056273E+02  0.47000000000E+01 0. -1.
         11    1    4    4    0    0 -0.38588699373E+02 -0.12966895478E+02 -0.19525025126E+01  0.40755862936E+02  0.00000000000E+00 0. -1.
        -12    1    4    4    0    0  0.25932624174E+02  0.30710876968E+02  0.18656101123E+02  0.44313757117E+02  0.00000000000E+00 0.  1.
         -5    1    3    3    0  504 -0.11201944524E+03 -0.58458126151E+02  0.95501485296E+02  0.15845608956E+03  0.47000000000E+01 0.  1.
<mgrwt>
<rscale>  2 0.21611705E+03</rscale>
<asrwt>0</asrwt>
<pdfrwt beam="1">  1       21 0.33197117E-01 0.21613605E+03</pdfrwt>
<pdfrwt beam="2">  1       21 0.57455366E-01 0.21613605E+03</pdfrwt>
<totfact> 0.24513363E+04</totfact>
</mgrwt>
</event>
<event>
12    1  0.1410528E-001  0.1762821E+03  0.7546771E-02  0.1172417E+00
         21   -1    0    0  502  503  0.00000000000E+00  0.00000000000E+00  0.10929513851E+03  0.10929513851E+03  0.00000000000E+00 0.  1.
         21   -1    0    0  503  504 -0.00000000000E+00 -0.00000000000E+00 -0.27869740300E+03  0.27869740300E+03  0.00000000000E+00 0.  1.
         -6    2    1    2    0  504 -0.25257806504E+02  0.49508718893E+01 -0.94136731108E+02  0.19984270146E+03  0.17439298513E+03 0.  0.
        -24    2    3    3    0    0 -0.11504285985E+02 -0.21138398068E+02  0.19010864913E+02  0.82820148851E+02  0.76932331318E+02 0.  0.
          6    2    1    2  502    0  0.25257806504E+02 -0.49508718893E+01 -0.75265533375E+02  0.18814984005E+03  0.17050804636E+03 0.  0.
         24    2    5    5    0    0 -0.23305795146E+02  0.17584280124E+02 -0.93183191740E+02  0.13149837085E+03  0.88070127275E+02 0.  0.
          2    1    6    6  501    0 -0.38555663843E+02  0.45510427908E+02 -0.70900444478E+02  0.92653177441E+02  0.00000000000E+00 0. -1.
         -1    1    6    6    0  501  0.15249868698E+02 -0.27926147784E+02 -0.22282747262E+02  0.38845193408E+02  0.00000000000E+00 0.  1.
          5    1    5    5  502    0  0.48563601650E+02 -0.22535152014E+02  0.17917658365E+02  0.56651469202E+02  0.47000000000E+01 0. -1.
         13    1    4    4    0    0 -0.10815987162E+01 -0.47452240310E+02 -0.21003702131E+01  0.47511014736E+02  0.00000000000E+00 0. -1.
        -14    1    4    4    0    0 -0.10422687268E+02  0.26313842242E+02  0.21111235127E+02  0.35309134115E+02  0.00000000000E+00 0.  1.
         -5    1    3    3    0  504 -0.13753520519E+02  0.26089269958E+02 -0.11314759602E+03  0.11702255261E+03  0.47000000000E+01 0.  1.
<mgrwt>
<rscale>  2 0.17531356E+03</rscale>
<asrwt>0</asrwt>
<pdfrwt beam="1">  1       21 0.16814637E-01 0.17628211E+03</pdfrwt>
<pdfrwt beam="2">  1       21 0.42876523E-01 0.17628211E+03</pdfrwt>
<totfact> 0.16737801E+05</totfact>
</mgrwt>
</event>
<event>
12    1  0.1410528E-001  0.2148470E+03  0.7546771E-02  0.1138216E+00
         21   -1    0    0  502  503  0.00000000000E+00  0.00000000000E+00  0.76264996413E+02  0.76264996413E+02  0.00000000000E+00 0. -1.
         21   -1    0    0  503  504 -0.00000000000E+00 -0.00000000000E+00 -0.91977602030E+03  0.91977602030E+03  0.00000000000E+00 0. -1.
         -6    2    1    2    0  504  0.91724947312E+02 -0.83601495118E+02 -0.71444053701E+03  0.74540497885E+03  0.17262857708E+03 0.  0.
        -24    2    3    3    0    0  0.30482778879E+02  0.12318135565E+02 -0.19965545963E+03  0.21816978973E+03  0.81577069827E+02 0.  0.
          6    2    1    2  502    0 -0.91724947312E+02  0.83601495118E+02 -0.12907048687E+03  0.25063603786E+03  0.17537547419E+03 0.  0.
         24    2    5    5    0    0 -0.92539059488E+01 -0.70710753438E+01 -0.12353221580E+02  0.81319772502E+02  0.79527784041E+02 0.  0.
          2    1    6    6  501    0 -0.18207610476E+02  0.30399847225E+02  0.99473365978E+01  0.36805125946E+02  0.00000000000E+00 0. -1.
         -1    1    6    6    0  501  0.89537045267E+01 -0.37470922569E+02 -0.22300558178E+02  0.44514646555E+02  0.00000000000E+00 0.  1.
          5    1    5    5  502    0 -0.82471041363E+02  0.90672570462E+02 -0.11671726529E+03  0.16931626536E+03  0.47000000000E+01 0. -1.
         11    1    4    4    0    0  0.27458075129E+02 -0.48179735937E+01 -0.19880282371E+03  0.20074790528E+03  0.00000000000E+00 0. -1.
        -12    1    4    4    0    0  0.30247037498E+01  0.17136109159E+02 -0.85263591667E+00  0.17421884453E+02  0.00000000000E+00 0.  1.
         -5    1    3    3    0  504  0.61242168433E+02 -0.95919630683E+02 -0.51478507738E+03  0.52723518912E+03  0.47000000000E+01 0.  1.
<mgrwt>
<rscale>  2 0.21428572E+03</rscale>
<asrwt>0</asrwt>
<pdfrwt beam="1">  1       21 0.11733076E-01 0.21484700E+03</pdfrwt>
<pdfrwt beam="2">  1       21 0.14150401E+00 0.21484700E+03</pdfrwt>
<totfact> 0.20962029E+04</totfact>
</mgrwt>
</event>
<event>
12    1  0.1410528E-001  0.2061562E+03  0.7546771E-02  0.1144857E+00
         21   -1    0    0  502  503  0.00000000000E+00  0.00000000000E+00  0.60078918040E+03  0.60078918040E+03  0.00000000000E+00 0.  1.
         21   -1    0    0  503  504 -0.00000000000E+00 -0.00000000000E+00 -0.75676322311E+02  0.75676322311E+02  0.00000000000E+00 0.  1.
         -6    2    1    2    0  504  0.10774684031E+03  0.21662831258E+02  0.17374018083E+03  0.26960348958E+03  0.17441826539E+03 0.  0.
        -24    2    3    3    0    0  0.67250375371E+02  0.81531360287E+02  0.10448052728E+03  0.16938775204E+03  0.81277636911E+02 0.  0.
          6    2    1    2  502    0 -0.10774684031E+03 -0.21662831258E+02  0.35137267726E+03  0.40686201313E+03  0.17319145346E+03 0.  0.
         24    2    5    5    0    0 -0.39338351157E+02  0.24966606560E+02  0.10147998443E+03  0.14357039954E+03  0.90240983315E+02 0.  0.
          4    1    6    6  501    0  0.17804907173E+02  0.29327736938E+02  0.10204421858E+02  0.35794707692E+02  0.00000000000E+00 0. -1.
         -3    1    6    6    0  501 -0.57143258329E+02 -0.43611303776E+01  0.91275562575E+02  0.10777569185E+03  0.00000000000E+00 0.  1.
          5    1    5    5  502    0 -0.68408489155E+02 -0.46629437818E+02  0.24989269282E+03  0.26329161359E+03  0.47000000000E+01 0. -1.
         11    1    4    4    0    0 -0.39160260920E+01  0.46100070576E+02  0.12727283559E+02  0.47984742515E+02  0.00000000000E+00 0. -1.
        -12    1    4    4    0    0  0.71166401463E+02  0.35431289711E+02  0.91753243722E+02  0.12140300952E+03  0.00000000000E+00 0.  1.
         -5    1    3    3    0  504  0.40496464940E+02 -0.59868529029E+02  0.69259653551E+02  0.10021573754E+03  0.47000000000E+01 0.  1.
<mgrwt>
<rscale>  2 0.20589651E+03</rscale>
<asrwt>0</asrwt>
<pdfrwt beam="1">  1       21 0.92429101E-01 0.20615623E+03</pdfrwt>
<pdfrwt beam="2">  1       21 0.11642512E-01 0.20615623E+03</pdfrwt>
<totfact> 0.60775791E+04</totfact>
</mgrwt>
</event>
<event>
12    1  0.1410528E-001  0.2439142E+03  0.7546771E-02  0.1117264E+00
         21   -1    0    0  502  503  0.00000000000E+00  0.00000000000E+00  0.17464388569E+03  0.17464388569E+03  0.00000000000E+00 0.  1.
         21   -1    0    0  503  504 -0.00000000000E+00 -0.00000000000E+00 -0.37633570502E+03  0.37633570502E+03  0.00000000000E+00 0. -1.
         -6    2    1    2    0  504  0.10752915826E+03 -0.13458272404E+03 -0.15439663010E+02  0.24408544366E+03  0.17223324629E+03 0.  0.
        -24    2    3    3    0    0 -0.57106923685E+01 -0.23807225983E+02  0.76912663449E+01  0.83924260372E+02  0.79904504783E+02 0.  0.
          6    2    1    2  502    0 -0.10752915826E+03  0.13458272404E+03 -0.18625215633E+03  0.30689414705E+03  0.17268214231E+03 0.  0.
         24    2    5    5    0    0 -0.11779119232E+03  0.87391004775E+02 -0.19475179293E+03  0.25763258463E+03  0.83272655242E+02 0.  0.
          2    1    6    6  501    0 -0.16454159548E+02 -0.12248238091E+02 -0.60216990550E+01  0.21378015864E+02  0.00000000000E+00 0. -1.
         -1    1    6    6    0  501 -0.10133703277E+03  0.99639242866E+02 -0.18873009387E+03  0.23625456877E+03  0.00000000000E+00 0.  1.
          5    1    5    5  502    0  0.10262034055E+02  0.47191719262E+02  0.84996366016E+01  0.49261562421E+02  0.47000000000E+01 0. -1.
         11    1    4    4    0    0 -0.18251601017E+02 -0.50003748433E+02 -0.21072736983E+01  0.53272285473E+02  0.00000000000E+00 0. -1.
        -12    1    4    4    0    0  0.12540908649E+02  0.26196522450E+02  0.97985400432E+01  0.30651974899E+02  0.00000000000E+00 0.  1.
         -5    1    3    3    0  504  0.11323985063E+03 -0.11077549805E+03 -0.23130929354E+02  0.16016118329E+03  0.47000000000E+01 0.  1.
<mgrwt>
<rscale>  2 0.24383479E+03</rscale>
<asrwt>0</asrwt>
<pdfrwt beam="1">  1       21 0.26868291E-01 0.24391423E+03</pdfrwt>
<pdfrwt beam="2">  1       21 0.57897800E-01 0.24391423E+03</pdfrwt>
<totfact> 0.35985543E+04</totfact>
</mgrwt>
</event>
<event>
12    1  0.1410528E-001  0.1879685E+03  0.7546771E-02  0.1160711E+00
         21   -1    0    0  502  503  0.00000000000E+00  0.00000000000E+00  0.72762656346E+02  0.72762656346E+02  0.00000000000E+00 0.  1.
         21   -1    0    0  503  504 -0.00000000000E+00 -0.00000000000E+00 -0.92563672269E+03  0.92563672269E+03  0.00000000000E+00 0.  1.
         -6    2    1    2    0  504 -0.41315631962E+02 -0.57264195339E+02 -0.79431341083E+02  0.20244348164E+03  0.17230164190E+03 0.  0.
        -24    2    3    3    0    0 -0.35034529633E+02  0.35996516568E+02 -0.25332488361E+02  0.94342656032E+02  0.75733970640E+02 0.  0.
          6    2    1    2  502    0  0.41315631962E+02  0.57264195339E+02 -0.77344272526E+03  0.79595589739E+03  0.17420095242E+03 0.  0.
         24    2    5    5    0    0 -0.16623807319E+02 -0.26326031650E+02 -0.34260481509E+03  0.35325091717E+03  0.80241761249E+02 0.  0.
          2    1    6    6  501    0 -0.43822482001E+02  0.28379453833E+01 -0.21944169551E+03  0.22379258609E+03  0.00000000000E+00 0. -1.
         -1    1    6    6    0  501  0.27198674682E+02 -0.29163977033E+02 -0.12316311959E+03  0.12945833108E+03  0.00000000000E+00 0.  1.
          5    1    5    5  502    0  0.57939439281E+02  0.83590226989E+02 -0.43083791017E+03  0.44270498022E+03  0.47000000000E+01 0. -1.
         13    1    4    4    0    0  0.21177161605E+02  0.13610374257E+01 -0.18156743401E+02  0.27928335565E+02  0.00000000000E+00 0. -1.
        -14    1    4    4    0    0 -0.56211691238E+02  0.34635479143E+02 -0.71757449603E+01  0.66414320466E+02  0.00000000000E+00 0.  1.
         -5    1    3    3    0  504 -0.62811023285E+01 -0.93260711907E+02 -0.54098852721E+02  0.10810082561E+03  0.47000000000E+01 0.  1.
<mgrwt>
<rscale>  2 0.18752720E+03</rscale>
<asrwt>0</asrwt>
<pdfrwt beam="1">  1       21 0.11194255E-01 0.18796846E+03</pdfrwt>
<pdfrwt beam="2">  1       21 0.14240564E+00 0.18796846E+03</pdfrwt>
<totfact> 0.22813649E+04</totfact>
</mgrwt>
</event>
<event>
12    1  0.1410528E-001  0.2094901E+03  0.7546771E-02  0.1142156E+00
         21   -1    0    0  502  503  0.00000000000E+00  0.00000000000E+00  0.38557923659E+03  0.38557923659E+03  0.00000000000E+00 0.  1.
         21   -1    0    0  503  504 -0.00000000000E+00 -0.00000000000E+00 -0.26664282119E+03  0.26664282119E+03  0.00000000000E+00 0.  1.
         -6    2    1    2    0  504  0.60631745786E+02 -0.10207586098E+03 -0.18788248612E+03  0.28070633429E+03  0.17146582030E+03 0.  0.
        -24    2    3    3    0    0  0.10174791069E+03 -0.57372851998E+02 -0.98891292100E+02  0.17286190634E+03  0.80358381844E+02 0.  0.
          6    2    1    2  502    0 -0.60631745786E+02  0.10207586098E+03  0.30681890151E+03  0.37151572349E+03  0.17259897011E+03 0.  0.
         24    2    5    5    0    0 -0.66667788193E+02 -0.22722277030E+01  0.12872703601E+03  0.16496364778E+03  0.78693063793E+02 0.  0.
          2    1    6    6  501    0 -0.75203781976E+02 -0.11195322216E+02  0.64935177567E+02  0.99987605976E+02  0.00000000000E+00 0. -1.
         -1    1    6    6    0  501  0.85359937831E+01  0.89230945131E+01  0.63791858442E+02  0.64976041808E+02  0.00000000000E+00 0.  1.
          5    1    5    5  502    0  0.60360424068E+01  0.10434808868E+03  0.17809186550E+03  0.20655207570E+03  0.47000000000E+01 0. -1.
         11    1    4    4    0    0  0.37461126942E+02  0.18481915508E+02 -0.22306105182E+02  0.47354826164E+02  0.00000000000E+00 0. -1.
        -12    1    4    4    0    0  0.64286783750E+02 -0.75854767506E+02 -0.76585186917E+02  0.12550708017E+03  0.00000000000E+00 0.  1.
         -5    1    3    3    0  504 -0.41116164905E+02 -0.44703008979E+02 -0.88991194018E+02  0.10784442796E+03  0.47000000000E+01 0.  1.
<mgrwt>
<rscale>  2 0.20925654E+03</rscale>
<asrwt>0</asrwt>
<pdfrwt beam="1">  1       21 0.59319883E-01 0.20949008E+03</pdfrwt>
<pdfrwt beam="2">  1       21 0.41021973E-01 0.20949008E+03</pdfrwt>
<totfact> 0.15037764E+04</totfact>
</mgrwt>
</event>
<event>
12    1  0.1410528E-001  0.2685707E+03  0.7546771E-02  0.1102107E+00
         21   -1    0    0  502  503  0.00000000000E+00  0.00000000000E+00  0.12958670151E+03  0.12958670151E+03  0.00000000000E+00 0.  1.
         21   -1    0    0  503  504 -0.00000000000E+00 -0.00000000000E+00 -0.56274837109E+03  0.56274837109E+03  0.00000000000E+00 0.  1.
         -6    2    1    2    0  504  0.19321158191E+03  0.68651735895E+02 -0.25302599511E+03  0.36898834092E+03  0.17345450501E+03 0.  0.
        -24    2    3    3    0    0  0.11157086895E+03 -0.18561657518E+02 -0.18611943147E+03  0.23198483636E+03  0.79899484366E+02 0.  0.
          6    2    1    2  502    0 -0.19321158191E+03 -0.68651735895E+02 -0.18013567447E+03  0.32334673168E+03  0.17337955891E+03 0.  0.
         24    2    5    5    0    0 -0.17605064409E+03 -0.40144347261E+02 -0.72867498216E+02  0.21093801036E+03  0.81115806208E+02 0.  0.
          2    1    6    6  501    0 -0.89659598567E+02  0.11224783326E+02 -0.62556808894E+02  0.10990083582E+03  0.00000000000E+00 0. -1.
         -1    1    6    6    0  501 -0.86391045521E+02 -0.51369130586E+02 -0.10310689321E+02  0.10103717453E+03  0.00000000000E+00 0.  1.
          5    1    5    5  502    0 -0.17160937824E+02 -0.28507388634E+02 -0.10726817625E+03  0.11240872133E+03  0.47000000000E+01 0. -1.
         11    1    4    4    0    0 -0.41794468264E+01  0.16899134471E+02 -0.24365877505E+02  0.29945692649E+02  0.00000000000E+00 0. -1.
        -12    1    4    4    0    0  0.11575031578E+03 -0.35460791989E+02 -0.16175355396E+03  0.20203914371E+03  0.00000000000E+00 0.  1.
         -5    1    3    3    0  504  0.81640712961E+02  0.87213393413E+02 -0.66906563637E+02  0.13700350456E+03  0.47000000000E+01 0.  1.
<mgrwt>
<rscale>  2 0.26855864E+03</rscale>
<asrwt>0</asrwt>
<pdfrwt beam="1">  1       21 0.19936416E-01 0.26857074E+03</pdfrwt>
<pdfrwt beam="2">  1       21 0.86576672E-01 0.26857074E+03</pdfrwt>
<totfact> 0.25665109E+04</totfact>
</mgrwt>
</event>
<event>
12    1  0.1410528E-001  0.2243423E+03  0.7546771E-02  0.1131035E+00
         21   -1    0    0  502  503  0.00000000000E+00  0.00000000000E+00  0.16876072904E+03  0.16876072904E+03  0.00000000000E+00 0. -1.
         21   -1    0    0  503  504 -0.00000000000E+00 -0.00000000000E+00 -0.45241995708E+03  0.45241995708E+03  0.00000000000E+00 0. -1.
         -6    2    1    2    0  504 -0.11314614167E+03 -0.88499485078E+02 -0.32502964002E+03  0.39493509801E+03  0.17232311659E+03 0.  0.
        -24    2    3    3    0    0 -0.80658419497E+02 -0.58577488738E+02 -0.32673235193E+03  0.35048549526E+03  0.78415239374E+02 0.  0.
          6    2    1    2  502    0  0.11314614167E+03  0.88499485078E+02  0.41370411988E+02  0.22624558811E+03  0.16982740332E+03 0.  0.
         24    2    5    5    0    0  0.41025402128E+01  0.78196706770E+02  0.40702487912E+02  0.11661351989E+03  0.76226404304E+02 0.  0.
          4    1    6    6  501    0 -0.48786523595E+00  0.70327406930E+02  0.61805830042E+02  0.93627681832E+02  0.00000000000E+00 0. -1.
         -3    1    6    6    0  501  0.45904054487E+01  0.78692998404E+01 -0.21103342131E+02  0.22985838059E+02  0.00000000000E+00 0.  1.
          5    1    5    5  502    0  0.10904360146E+03  0.10302778308E+02  0.66792407692E+00  0.10963206822E+03  0.47000000000E+01 0. -1.
         13    1    4    4    0    0 -0.55216597000E+02 -0.60054173075E+02 -0.14010237752E+03  0.16212357162E+03  0.00000000000E+00 0. -1.
        -14    1    4    4    0    0 -0.25441822497E+02  0.14766843363E+01 -0.18662997441E+03  0.18836192364E+03  0.00000000000E+00 0.  1.
         -5    1    3    3    0  504 -0.32487722174E+02 -0.29921996340E+02  0.17027119027E+01  0.44449602752E+02  0.47000000000E+01 0.  1.
<mgrwt>
<rscale>  2 0.22386294E+03</rscale>
<asrwt>0</asrwt>
<pdfrwt beam="1">  1       21 0.25963189E-01 0.22434229E+03</pdfrwt>
<pdfrwt beam="2">  1       21 0.69603071E-01 0.22434229E+03</pdfrwt>
<totfact> 0.25979391E+04</totfact>
</mgrwt>
</event>
<event>
12    1  0.1410528E-001  0.1785812E+03  0.7546771E-02  0.1169352E+00
         21   -1    0    0  502  503  0.00000000000E+00  0.00000000000E+00  0.11405447601E+04  0.11405447601E+04  0.00000000000E+00 0. -1.
         21   -1    0    0  503  504 -0.00000000000E+00 -0.00000000000E+00 -0.42255752345E+02  0.42255752345E+02  0.00000000000E+00 0. -1.
         -6    2    1    2    0  504  0.14884011243E+02 -0.37662813149E+02  0.20318430051E+03  0.27005537502E+03  0.17322247059E+03 0.  0.
        -24    2    3    3    0    0  0.97931639067E+01  0.41309987341E+02  0.60698636558E+02  0.10700055486E+03  0.77216404650E+02 0.  0.
          6    2    1    2  502    0 -0.14884011243E+02  0.37662813149E+02  0.89510470722E+03  0.91274513741E+03  0.17392880061E+03 0.  0.
         24    2    5    5    0    0  0.14567214686E+02  0.74975832539E+02  0.78422146600E+03  0.79201063816E+03  0.80274304804E+02 0.  0.
          2    1    6    6  501    0  0.32378766095E+02  0.78389291679E+02  0.72830369437E+03  0.73322543381E+03  0.00000000000E+00 0. -1.
         -1    1    6    6    0  501 -0.17811551409E+02 -0.34134591396E+01  0.55917771629E+02  0.58785204353E+02  0.00000000000E+00 0.  1.
          5    1    5    5  502    0 -0.29451225929E+02 -0.37313019390E+02  0.11088324122E+03  0.12073449925E+03  0.47000000000E+01 0. -1.
         13    1    4    4    0    0 -0.16501780820E+02  0.10530278532E+02 -0.12590037087E+02  0.23274547687E+02  0.00000000000E+00 0. -1.
        -14    1    4    4    0    0  0.26294944726E+02  0.30779708809E+02  0.73288673646E+02  0.83726007174E+02  0.00000000000E+00 0.  1.
         -5    1    3    3    0  504  0.50908473364E+01 -0.78972800490E+02  0.14248566395E+03  0.16305482015E+03  0.47000000000E+01 0.  1.
<mgrwt>
<rscale>  2 0.17840900E+03</rscale>
<asrwt>0</asrwt>
<pdfrwt beam="1">  1       21 0.17546840E+00 0.17858121E+03</pdfrwt>
<pdfrwt beam="2">  1       21 0.65008858E-02 0.17858121E+03</pdfrwt>
<totfact> 0.33899137E+04</totfact>
</mgrwt>
</event>
<event>
12    1  0.1410528E-001  0.1802916E+03  0.7546771E-02  0.1168815E+00
         21   -1    0    0  502  503  0.00000000000E+00  0.00000000000E+00  0.14908159885E+04  0.14908159885E+04  0.00000000000E+00 0. -1.
         21   -1    0    0  503  504 -0.00000000000E+00 -0.00000000000E+00 -0.11665249938E+03  0.11665249938E+03  0.00000000000E+00 0. -1.
         -6    2    1    2    0  504 -0.41253674728E+02 -0.10103040372E+02 -0.41907900185E+02  0.17996604478E+03  0.16978683127E+03 0.  0.
        -24    2    3    3    0    0 -0.92627546921E+02 -0.85323378077E+01 -0.23963924699E+02  0.12532340477E+03  0.80492377653E+02 0.  0.
          6    2    1    2  502    0  0.41253674728E+02  0.10103040372E+02  0.14160713893E+04  0.14275024431E+04  0.17521731747E+03 0.  0.
         24    2    5    5    0    0  0.52418622270E+02  0.51259667383E+02  0.12809609522E+04  0.12857440422E+04  0.83075361155E+02 0.  0.
          4    1    6    6  501    0  0.10422737348E+02  0.47176576683E+02  0.10396489604E+04  0.10407709756E+04  0.00000000000E+00 0. -1.
         -3    1    6    6    0  501  0.41995884923E+02  0.40830907002E+01  0.24131199179E+03  0.24497306661E+03  0.00000000000E+00 0.  1.
          5    1    5    5  502    0 -0.11164947542E+02 -0.41156627011E+02  0.13511043718E+03  0.14175840093E+03  0.47000000000E+01 0. -1.
         13    1    4    4    0    0 -0.78824818347E+02 -0.30170494497E+02 -0.41685064505E+02  0.94134240999E+02  0.00000000000E+00 0. -1.
        -14    1    4    4    0    0 -0.13802728574E+02  0.21638156689E+02  0.17721139807E+02  0.31189163776E+02  0.00000000000E+00 0.  1.
         -5    1    3    3    0  504  0.51373872193E+02 -0.15707025643E+01 -0.17943975486E+02  0.54642640006E+02  0.47000000000E+01 0.  1.
<mgrwt>
<rscale>  2 0.17895860E+03</rscale>
<asrwt>0</asrwt>
<pdfrwt beam="1">  1       21 0.22935629E+00 0.18029156E+03</pdfrwt>
<pdfrwt beam="2">  1       21 0.17946539E-01 0.18029156E+03</pdfrwt>
<totfact> 0.25253465E+03</totfact>
</mgrwt>
</event>
<event>
12    1  0.1410528E-001  0.1898333E+03  0.7546771E-02  0.1158798E+00
         21   -1    0    0  502  503  0.00000000000E+00  0.00000000000E+00  0.17860699667E+03  0.17860699667E+03  0.00000000000E+00 0. -1.
         21   -1    0    0  503  504 -0.00000000000E+00 -0.00000000000E+00 -0.28599081409E+03  0.28599081409E+03  0.00000000000E+00 0. -1.
         -6    2    1    2    0  504  0.46993162029E+02 -0.59367446208E+02  0.73107902387E+02  0.20265517603E+03  0.17318055328E+03 0.  0.
        -24    2    3    3    0    0  0.90589120191E+02 -0.65152994884E+02  0.80797869039E+02  0.15776301939E+03  0.76873748478E+02 0.  0.
          6    2    1    2  502    0 -0.46993162029E+02  0.59367446208E+02 -0.18049171981E+03  0.26194263473E+03  0.17407995871E+03 0.  0.
         24    2    5    5    0    0 -0.56909922115E+02  0.76198036851E+02 -0.19245481886E+03  0.23855852365E+03  0.10405014104E+03 0.  0.
          4    1    6    6  501    0 -0.29028792610E+02  0.29763670835E+02 -0.17759294421E+03  0.18239462913E+03  0.00000000000E+00 0. -1.
         -3    1    6    6    0  501 -0.27881129504E+02  0.46434366016E+02 -0.14861874648E+02  0.56163894521E+02  0.00000000000E+00 0.  1.
          5    1    5    5  502    0  0.99167600858E+01 -0.16830590643E+02  0.11963099051E+02  0.23384111078E+02  0.47000000000E+01 0. -1.
         13    1    4    4    0    0  0.54694175531E+02 -0.27726448525E+02  0.86024449901E+02  0.10564286424E+03  0.00000000000E+00 0. -1.
        -14    1    4    4    0    0  0.35894944660E+02 -0.37426546358E+02 -0.52265808624E+01  0.52120155142E+02  0.00000000000E+00 0.  1.
         -5    1    3    3    0  504 -0.43595958162E+02  0.57855486759E+01 -0.76899666521E+01  0.44892156650E+02  0.47000000000E+01 0.  1.
<mgrwt>
<rscale>  2 0.18962686E+03</rscale>
<asrwt>0</asrwt>
<pdfrwt beam="1">  1       21 0.27478000E-01 0.18983330E+03</pdfrwt>
<pdfrwt beam="2">  1       21 0.43998586E-01 0.18983330E+03</pdfrwt>
<totfact> 0.62777285E+04</totfact>
</mgrwt>
</event>
<event>
12    1  0.1410528E-001  0.1997567E+03  0.7546771E-02  0.1150630E+00
         21   -1    0    0  502  503  0.00000000000E+00  0.00000000000E+00  0.28817469364E+03  0.28817469364E+03  0.00000000000E+00 0.  1.
         21   -1    0    0  503  504 -0.00000000000E+00 -0.00000000000E+00 -0.31537558860E+03  0.31537558860E+03  0.00000000000E+00 0.  1.
         -6    2    1    2    0  504  0.30797449994E+02  0.95113562436E+02 -0.24107850537E+03  0.31308396164E+03  0.17293827973E+03 0.  0.
        -24    2    3    3    0    0 -0.22830079254E+01  0.10286942221E+03 -0.94280239793E+02  0.16233154595E+03  0.82918255202E+02 0.  0.
          6    2    1    2  502    0 -0.30797449994E+02 -0.95113562436E+02  0.21387761041E+03  0.29046632060E+03  0.16920986521E+03 0.  0.
         24    2    5    5    0    0 -0.66176920667E+02 -0.11579366247E+03  0.16150346159E+03  0.22379912516E+03  0.78836052805E+02 0.  0.
          4    1    6    6  501    0 -0.49861469851E+02 -0.13940398803E+02  0.54595045102E+02  0.75240413636E+02  0.00000000000E+00 0. -1.
         -3    1    6    6    0  501 -0.16315450816E+02 -0.10185326367E+03  0.10690841648E+03  0.14855871153E+03  0.00000000000E+00 0.  1.
          5    1    5    5  502    0  0.35379470673E+02  0.20680100038E+02  0.52374148824E+02  0.66667195440E+02  0.47000000000E+01 0. -1.
         13    1    4    4    0    0 -0.87390424487E+01  0.84786783660E+01  0.13990814295E+02  0.18547283747E+02  0.00000000000E+00 0. -1.
        -14    1    4    4    0    0  0.64560345233E+01  0.94390743842E+02 -0.10827105409E+03  0.14378426221E+03  0.00000000000E+00 0.  1.
         -5    1    3    3    0  504  0.33080457919E+02 -0.77558597717E+01 -0.14679826558E+03  0.15075241568E+03  0.47000000000E+01 0.  1.
<mgrwt>
<rscale>  2 0.19894700E+03</rscale>
<asrwt>0</asrwt>
<pdfrwt beam="1">  1       21 0.44334569E-01 0.19975666E+03</pdfrwt>
<pdfrwt beam="2">  1       21 0.48519321E-01 0.19975666E+03</pdfrwt>
<totfact> 0.19733308E+04</totfact>
</mgrwt>
</event>
<event>
12    1  0.1410528E-001  0.2506066E+03  0.7546771E-02  0.1113164E+00
         21   -1    0    0  502  503  0.00000000000E+00  0.00000000000E+00  0.88056040570E+03  0.88056040570E+03  0.00000000000E+00 0.  1.
         21   -1    0    0  503  504 -0.00000000000E+00 -0.00000000000E+00 -0.20553154758E+03  0.20553154758E+03  0.00000000000E+00 0.  1.
         -6    2    1    2    0  504 -0.66350715489E+02 -0.16694958348E+03 -0.10166138595E+03  0.27044168843E+03  0.17472575248E+03 0.  0.
        -24    2    3    3    0    0 -0.49286233295E+02 -0.79201886371E+02  0.13220793704E+02  0.12480220168E+03  0.81845760792E+02 0.  0.
          6    2    1    2  502    0  0.66350715489E+02  0.16694958348E+03  0.77669024407E+03  0.81565026485E+03  0.17251967553E+03 0.  0.
         24    2    5    5    0    0  0.38326139009E+02  0.13349484226E+03  0.74029071561E+03  0.75862735482E+03  0.90528194591E+02 0.  0.
          2    1    6    6  501    0  0.12663202914E+02  0.10498215198E+03  0.32955562293E+03  0.34610477828E+03  0.00000000000E+00 0. -1.
         -1    1    6    6    0  501  0.25662936096E+02  0.28512690290E+02  0.41073509268E+03  0.41252257654E+03  0.00000000000E+00 0.  1.
          5    1    5    5  502    0  0.28024576480E+02  0.33454741214E+02  0.36399528463E+02  0.57022910035E+02  0.47000000000E+01 0. -1.
         13    1    4    4    0    0 -0.31453786305E+02 -0.91946309760E+02 -0.34900049209E+01  0.97240139273E+02  0.00000000000E+00 0. -1.
        -14    1    4    4    0    0 -0.17832446990E+02  0.12744423389E+02  0.16710798625E+02  0.27562062402E+02  0.00000000000E+00 0.  1.
         -5    1    3    3    0  504 -0.17064482194E+02 -0.87747697108E+02 -0.11488217965E+03  0.14563948676E+03  0.47000000000E+01 0.  1.
<mgrwt>
<rscale>  2 0.25022245E+03</rscale>
<asrwt>0</asrwt>
<pdfrwt beam="1">  1       21 0.13547083E+00 0.25060660E+03</pdfrwt>
<pdfrwt beam="2">  1       21 0.31620238E-01 0.25060660E+03</pdfrwt>
<totfact> 0.35791107E+03</totfact>
</mgrwt>
</event>
<event>
12    1  0.1410528E-001  0.1830960E+03  0.7546771E-02  0.1165385E+00
         21   -1    0    0  502  503  0.00000000000E+00  0.00000000000E+00  0.13724043360E+03  0.13724043360E+03  0.00000000000E+00 0. -1.
         21   -1    0    0  503  504 -0.00000000000E+00 -0.00000000000E+00 -0.77917926043E+03  0.77917926043E+03  0.00000000000E+00 0. -1.
         -6    2    1    2    0  504  0.11976377036E+02  0.55063641175E+02 -0.70232232437E+03  0.72579666827E+03  0.17420883496E+03 0.  0.
        -24    2    3    3    0    0  0.67860874247E+02  0.45280082970E+02 -0.32987432011E+03  0.34902299494E+03  0.79652995929E+02 0.  0.
          6    2    1    2  502    0 -0.11976377036E+02 -0.55063641175E+02  0.60383497540E+02  0.19062302576E+03  0.17180085270E+03 0.  0.
         24    2    5    5    0    0  0.58865793179E+02 -0.27437764868E+02  0.21373364123E+02  0.10503282403E+03  0.79731178859E+02 0.  0.
          2    1    6    6  501    0  0.76723681199E+02 -0.31305739935E+02  0.24684459414E+02  0.86463258938E+02  0.00000000000E+00 0. -1.
         -1    1    6    6    0  501 -0.17857888021E+02  0.38679750665E+01 -0.33110952909E+01  0.18569565092E+02  0.00000000000E+00 0.  1.
          5    1    5    5  502    0 -0.70842170215E+02 -0.27625876306E+02  0.39010133418E+02  0.85590201727E+02  0.47000000000E+01 0. -1.
         11    1    4    4    0    0  0.70865404752E+02  0.13291368910E+02 -0.28404475466E+03  0.29305287702E+03  0.00000000000E+00 0. -1.
        -12    1    4    4    0    0 -0.30045305045E+01  0.31988714060E+02 -0.45829565449E+02  0.55970117921E+02  0.00000000000E+00 0.  1.
         -5    1    3    3    0  504 -0.55884497211E+02  0.97835582043E+01 -0.37244800426E+03  0.37677367333E+03  0.47000000000E+01 0.  1.
<mgrwt>
<rscale>  2 0.18252093E+03</rscale>
<asrwt>0</asrwt>
<pdfrwt beam="1">  1       21 0.21113912E-01 0.18309603E+03</pdfrwt>
<pdfrwt beam="2">  1       21 0.11987374E+00 0.18309603E+03</pdfrwt>
<totfact> 0.11117709E+04</totfact>
</mgrwt>
</event>
<event>
12    1  0.1410528E-001  0.2480295E+03  0.7546771E-02  0.1114706E+00
         21   -1    0    0  502  503  0.00000000000E+00  0.00000000000E+00  0.80193215337E+03  0.80193215337E+03  0.00000000000E+00 0. -1.
         21   -1    0    0  503  504 -0.00000000000E+00 -0.00000000000E+00 -0.13057994559E+03  0.13057994559E+03  0.00000000000E+00 0.  1.
         -6    2    1    2    0  504 -0.17474708731E+03  0.26305576723E+02  0.35779045680E+02  0.25059678719E+03  0.17404046010E+03 0.  0.
        -24    2    3    3    0    0 -0.12136541561E+03  0.67835428339E+02  0.49182617843E+02  0.18148761852E+03  0.10577152894E+03 0.  0.
          6    2    1    2  502    0  0.17474708731E+03 -0.26305576723E+02  0.63557316211E+03  0.68191531177E+03  0.17270414050E+03 0.  0.
         24    2    5    5    0    0  0.16811658693E+03 -0.64593580173E+02  0.43753099498E+03  0.48004227072E+03  0.81065977498E+02 0.  0.
          2    1    6    6  501    0  0.58304452699E+02 -0.39046115809E+02  0.26349088534E+03  0.27267463215E+03  0.00000000000E+00 0. -1.
         -1    1    6    6    0  501  0.10981213423E+03 -0.25547464364E+02  0.17404010965E+03  0.20736763857E+03  0.00000000000E+00 0.  1.
          5    1    5    5  502    0  0.66305003823E+01  0.38288003450E+02  0.19804216712E+03  0.20187304105E+03  0.47000000000E+01 0. -1.
         11    1    4    4    0    0 -0.12000619263E+02  0.11291849112E+02  0.55810481337E+02  0.58192186298E+02  0.00000000000E+00 0. -1.
        -12    1    4    4    0    0 -0.10936479635E+03  0.56543579226E+02 -0.66278634935E+01  0.12329543222E+03  0.00000000000E+00 0.  1.
         -5    1    3    3    0  504 -0.53381671695E+02 -0.41529851616E+02 -0.13403572164E+02  0.69109168675E+02  0.47000000000E+01 0.  1.
<mgrwt>
<rscale>  2 0.24779516E+03</rscale>
<asrwt>0</asrwt>
<pdfrwt beam="1">  1       21 0.12337417E+00 0.24802945E+03</pdfrwt>
<pdfrwt beam="2">  1       21 0.20089223E-01 0.24802945E+03</pdfrwt>
<totfact> 0.10884766E+04</totfact>
</mgrwt>
</event>
<event>
12    1  0.1410528E-001  0.2013285E+03  0.7546771E-02  0.1148674E+00
         21   -1    0    0  502  503  0.00000000000E+00  0.00000000000E+00  0.42266577952E+03  0.42266577952E+03  0.00000000000E+00 0.  1.
         21   -1    0    0  503  504 -0.00000000000E+00 -0.00000000000E+00 -0.30177505981E+03  0.30177505981E+03  0.00000000000E+00 0.  1.
         -6    2    1    2    0  504 -0.92353301177E+02 -0.43730910792E+02 -0.23883127838E+03  0.31221144619E+03  0.17318799843E+03 0.  0.
        -24    2    3    3    0    0  0.24102241903E+02 -0.23087895180E+02 -0.94711002797E+02  0.12571541019E+03  0.75632144885E+02 0.  0.
          6    2    1    2  502    0  0.92353301177E+02  0.43730910792E+02  0.35972199809E+03  0.41222939313E+03  0.17346939746E+03 0.  0.
         24    2    5    5    0    0 -0.49497627639E+00 -0.11560431025E+02  0.22370641403E+03  0.23844716097E+03  0.81722703893E+02 0.  0.
          2    1    6    6  501    0 -0.19424780189E+02 -0.37057102642E+02  0.70467966587E+02  0.81952945381E+02  0.00000000000E+00 0. -1.
         -1    1    6    6    0  501  0.18929803912E+02  0.25496671617E+02  0.15323844744E+03  0.15649421559E+03  0.00000000000E+00 0.  1.
          5    1    5    5  502    0  0.92848277453E+02  0.55291341817E+02  0.13601558407E+03  0.17378223216E+03  0.47000000000E+01 0. -1.
         11    1    4    4    0    0  0.17157893147E+02 -0.50743681776E+02 -0.68740663156E+02  0.87146963852E+02  0.00000000000E+00 0. -1.
        -12    1    4    4    0    0  0.69443487562E+01  0.27655786596E+02 -0.25970339641E+02  0.38568446339E+02  0.00000000000E+00 0.  1.
         -5    1    3    3    0  504 -0.11645554308E+03 -0.20643015612E+02 -0.14412027559E+03  0.18649603600E+03  0.47000000000E+01 0.  1.
<mgrwt>
<rscale>  2 0.20126785E+03</rscale>
<asrwt>0</asrwt>
<pdfrwt beam="1">  1       21 0.65025504E-01 0.20132848E+03</pdfrwt>
<pdfrwt beam="2">  1       21 0.46426932E-01 0.20132848E+03</pdfrwt>
<totfact> 0.96186683E+03</totfact>
</mgrwt>
</event>
<event>
12    1  0.1410528E-001  0.1907661E+03  0.7546771E-02  0.1158075E+00
         21   -1    0    0  502  503  0.00000000000E+00  0.00000000000E+00  0.21583110086E+03  0.21583110086E+03  0.00000000000E+00 0. -1.
         21   -1    0    0  503  504 -0.00000000000E+00 -0.00000000000E+00 -0.17562304056E+03  0.17562304056E+03  0.00000000000E+00 0. -1.
         -6    2    1    2    0  504  0.12285545126E+02  0.80927381511E+02 -0.22118679531E+02  0.19204406870E+03  0.17231225331E+03 0.  0.
        -24    2    3    3    0    0  0.69878278149E+02  0.23769176030E+02 -0.44462044035E+01  0.10886721057E+03  0.79902148389E+02 0.  0.
          6    2    1    2  502    0 -0.12285545126E+02 -0.80927381511E+02  0.62326739834E+02  0.19941007272E+03  0.17082031176E+03 0.  0.
         24    2    5    5    0    0 -0.57289550048E+02 -0.11967945288E+02  0.60865606138E+02  0.11691771420E+03  0.80869064691E+02 0.  0.
          2    1    6    6  501    0 -0.30234198488E+02 -0.44681219018E+02  0.18738115442E+02  0.57110726326E+02  0.00000000000E+00 0. -1.
         -1    1    6    6    0  501 -0.27055351560E+02  0.32713273730E+02  0.42127490697E+02  0.59806987874E+02  0.00000000000E+00 0.  1.
          5    1    5    5  502    0  0.45004004923E+02 -0.68959436223E+02  0.14611336958E+01  0.82492358525E+02  0.47000000000E+01 0. -1.
         13    1    4    4    0    0  0.63813101107E+02  0.29250473831E+02 -0.34146715511E+02  0.78062156468E+02  0.00000000000E+00 0. -1.
        -14    1    4    4    0    0  0.60651770418E+01 -0.54812978007E+01  0.29700511107E+02  0.30805054101E+02  0.00000000000E+00 0.  1.
         -5    1    3    3    0  504 -0.57592733023E+02  0.57158205481E+02 -0.17672475128E+02  0.83176858128E+02  0.47000000000E+01 0.  1.
<mgrwt>
<rscale>  2 0.19042853E+03</rscale>
<asrwt>0</asrwt>
<pdfrwt beam="1">  1       21 0.33204785E-01 0.19076606E+03</pdfrwt>
<pdfrwt beam="2">  1       21 0.27018929E-01 0.19076606E+03</pdfrwt>
<totfact> 0.11406666E+05</totfact>
</mgrwt>
</event>
<event>
12    1  0.1410528E-001  0.2502751E+03  0.7546771E-02  0.1113136E+00
         21   -1    0    0  502  503  0.00000000000E+00  0.00000000000E+00  0.16302759325E+03  0.16302759325E+03  0.00000000000E+00 0.  1.
         21   -1    0    0  503  504 -0.00000000000E+00 -0.00000000000E+00 -0.40619447868E+03  0.40619447868E+03  0.00000000000E+00 0. -1.
         -6    2    1    2    0  504 -0.80389660052E+02 -0.16273633284E+03 -0.55300323075E+02  0.25628204411E+03  0.17226940800E+03 0.  0.
        -24    2    3    3    0    0 -0.12326714121E+03 -0.11845649285E+03 -0.52848115130E+02  0.19441698173E+03  0.76015200541E+02 0.  0.
          6    2    1    2  502    0  0.80389660052E+02  0.16273633284E+03 -0.18786656236E+03  0.31294002782E+03  0.17231367993E+03 0.  0.
         24    2    5    5    0    0 -0.39431474083E+01  0.10644341970E+03 -0.47443715171E+02  0.13967266074E+03  0.76888204808E+02 0.  0.
          4    1    6    6  501    0 -0.79750323467E+01  0.37847221520E+02 -0.58443515920E+02  0.70083221037E+02  0.00000000000E+00 0. -1.
         -3    1    6    6    0  501  0.40318849384E+01  0.68596198184E+02  0.10999800749E+02  0.69589439702E+02  0.00000000000E+00 0.  1.
          5    1    5    5  502    0  0.84332807461E+02  0.56292913134E+02 -0.14042284718E+03  0.17326736708E+03  0.47000000000E+01 0. -1.
         11    1    4    4    0    0 -0.70461800140E+01 -0.12458468458E+02 -0.32874510616E+02  0.35855202375E+02  0.00000000000E+00 0. -1.
        -12    1    4    4    0    0 -0.11622096119E+03 -0.10599802440E+03 -0.19973604514E+02  0.15856177936E+03  0.00000000000E+00 0.  1.
         -5    1    3    3    0  504  0.42877481154E+02 -0.44279839985E+02 -0.24522079456E+01  0.61865062378E+02  0.47000000000E+01 0.  1.
<mgrwt>
<rscale>  2 0.25026746E+03</rscale>
<asrwt>0</asrwt>
<pdfrwt beam="1">  1       21 0.25081168E-01 0.25027508E+03</pdfrwt>
<pdfrwt beam="2">  1       21 0.62491458E-01 0.25027508E+03</pdfrwt>
<totfact> 0.34744124E+04</totfact>
</mgrwt>
</event>
<event>
12    1  0.1410528E-001  0.2759246E+03  0.7546771E-02  0.1098253E+00
         21   -1    0    0  502  503  0.00000000000E+00  0.00000000000E+00  0.34374748959E+03  0.34374748959E+03  0.00000000000E+00 0.  1.
         21   -1    0    0  503  504 -0.00000000000E+00 -0.00000000000E+00 -0.23472832523E+03  0.23472832523E+03  0.00000000000E+00 0. -1.
         -6    2    1    2    0  504  0.19815690740E+03  0.80045513002E+02 -0.18544210201E+02  0.27654701572E+03  0.17453057059E+03 0.  0.
        -24    2    3    3    0    0  0.10745927780E+03  0.11221870242E+03 -0.34449227569E+02  0.17889337416E+03  0.81704078711E+02 0.  0.
          6    2    1    2  502    0 -0.19815690740E+03 -0.80045513002E+02  0.12756337457E+03  0.30192879910E+03  0.17092437244E+03 0.  0.
         24    2    5    5    0    0 -0.24331616882E+02 -0.40776969545E+02  0.58645325978E+02  0.11080308772E+03  0.81137298229E+02 0.  0.
          4    1    6    6  501    0 -0.48771055998E+02 -0.47911127170E+02  0.39595882186E+02  0.79005859884E+02  0.00000000000E+00 0. -1.
         -3    1    6    6    0  501  0.24439439116E+02  0.71341576252E+01  0.19049443792E+02  0.31797227837E+02  0.00000000000E+00 0.  1.
          5    1    5    5  502    0 -0.17382529052E+03 -0.39268543457E+02  0.68918048593E+02  0.19112571138E+03  0.47000000000E+01 0. -1.
         13    1    4    4    0    0  0.41810197573E+02  0.50021306106E+02 -0.55981682067E+02  0.85931207443E+02  0.00000000000E+00 0. -1.
        -14    1    4    4    0    0  0.65649080224E+02  0.62197396319E+02  0.21532454497E+02  0.92962166712E+02  0.00000000000E+00 0.  1.
         -5    1    3    3    0  504  0.90697629604E+02 -0.32173189422E+02  0.15905017368E+02  0.97653641564E+02  0.47000000000E+01 0.  1.
<mgrwt>
<rscale>  2 0.27535611E+03</rscale>
<asrwt>0</asrwt>
<pdfrwt beam="1">  1       21 0.52884229E-01 0.27592456E+03</pdfrwt>
<pdfrwt beam="2">  1       21 0.36112050E-01 0.27592456E+03</pdfrwt>
<totfact> 0.24038039E+04</totfact>
</mgrwt>
</event>
<event>
12    1  0.1410528E-001  0.2916093E+03  0.7546771E-02  0.1089711E+00
         21   -1    0    0  502  503  0.00000000000E+00  0.00000000000E+00  0.13860630776E+03  0.13860630776E+03  0.00000000000E+00 0.  1.
         21   -1    0    0  503  504 -0.00000000000E+00 -0.00000000000E+00 -0.85115355964E+03  0.85115355964E+03  0.00000000000E+00 0.  1.
         -6    2    1    2    0  504 -0.19778247646E+03 -0.12402728994E+03 -0.62020862766E+03  0.68534277082E+03  0.17474351216E+03 0.  0.
        -24    2    3    3    0    0 -0.80916435975E+02  0.77518657127E+01 -0.30742730629E+03  0.32634741948E+03  0.73372532433E+02 0.  0.
          6    2    1    2  502    0  0.19778247646E+03  0.12402728994E+03 -0.92338624221E+02  0.30441709659E+03  0.17217046938E+03 0.  0.
         24    2    5    5    0    0  0.13041249654E+03  0.11877902776E+02 -0.84375042858E+02  0.17326181510E+03  0.75841973106E+02 0.  0.
          2    1    6    6  501    0  0.11052984498E+03 -0.21157754848E+02 -0.66990121109E+02  0.13096630692E+03  0.00000000000E+00 0. -1.
         -1    1    6    6    0  501  0.19882651558E+02  0.33035657623E+02 -0.17384921750E+02  0.42295508175E+02  0.00000000000E+00 0.  1.
          5    1    5    5  502    0  0.67369979917E+02  0.11214938716E+03 -0.79635813627E+01  0.13115528149E+03  0.47000000000E+01 0. -1.
         11    1    4    4    0    0 -0.84408179767E+01  0.45752735891E+01  0.86004651433E+00  0.96395132936E+01  0.00000000000E+00 0. -1.
        -12    1    4    4    0    0 -0.72475617998E+02  0.31765921235E+01 -0.30828735281E+03  0.31670790619E+03  0.00000000000E+00 0.  1.
         -5    1    3    3    0  504 -0.11686604048E+03 -0.13177915565E+03 -0.31278132137E+03  0.35899535133E+03  0.47000000000E+01 0.  1.
<mgrwt>
<rscale>  2 0.29122488E+03</rscale>
<asrwt>0</asrwt>
<pdfrwt beam="1">  1       21 0.21324047E-01 0.29160928E+03</pdfrwt>
<pdfrwt beam="2">  1       21 0.13094670E+00 0.29160928E+03</pdfrwt>
<totfact> 0.81645181E+03</totfact>
</mgrwt>
</event>
<event>
12    1  0.1410528E-001  0.2129079E+03  0.7546771E-02  0.1139639E+00
         21   -1    0    0  502  503  0.00000000000E+00  0.00000000000E+00  0.16743562062E+03  0.16743562062E+03  0.00000000000E+00 0.  1.
         21   -1    0    0  503  504 -0.00000000000E+00 -0.00000000000E+00 -0.26842935846E+03  0.26842935846E+03  0.00000000000E+00 0.  1.
         -6    2    1    2    0  504 -0.96774945821E+01  0.12119074045E+03 -0.49788012277E+02  0.21865179350E+03  0.17478246812E+03 0.  0.
        -24    2    3    3    0    0 -0.61436312443E+02  0.27063260525E+02 -0.30624031229E+02  0.10943500966E+03  0.80816764927E+02 0.  0.
          6    2    1    2  502    0  0.96774945821E+01 -0.12119074045E+03 -0.51205725563E+02  0.21721318557E+03  0.17256503755E+03 0.  0.
         24    2    5    5    0    0 -0.27907959894E+02 -0.12101506115E+03  0.86098032411E+01  0.14641286963E+03  0.77065559307E+02 0.  0.
          2    1    6    6  501    0  0.14956018981E+02 -0.90338335341E+02  0.16720731605E+02  0.93082115368E+02  0.00000000000E+00 0. -1.
         -1    1    6    6    0  501 -0.42863978875E+02 -0.30676725807E+02 -0.81109283639E+01  0.53330754262E+02  0.00000000000E+00 0.  1.
          5    1    5    5  502    0  0.37585454476E+02 -0.17567930200E+00 -0.59815528804E+02  0.70800315942E+02  0.47000000000E+01 0. -1.
         11    1    4    4    0    0 -0.56160686394E+01 -0.17913645056E+02 -0.32715129335E+02  0.37718942105E+02  0.00000000000E+00 0. -1.
        -12    1    4    4    0    0 -0.55820243804E+02  0.44976905581E+02  0.20910981059E+01  0.71716067553E+02  0.00000000000E+00 0.  1.
         -5    1    3    3    0  504  0.51758817861E+02  0.94127479925E+02 -0.19163981049E+02  0.10921678384E+03  0.47000000000E+01 0.  1.
<mgrwt>
<rscale>  2 0.21245227E+03</rscale>
<asrwt>0</asrwt>
<pdfrwt beam="1">  1       21 0.25759326E-01 0.21290787E+03</pdfrwt>
<pdfrwt beam="2">  1       21 0.41296824E-01 0.21290787E+03</pdfrwt>
<totfact> 0.80081703E+04</totfact>
</mgrwt>
</event>
<event>
12    1  0.1410528E-001  0.2193579E+03  0.7546771E-02  0.1134420E+00
         21   -1    0    0  502  503  0.00000000000E+00  0.00000000000E+00  0.13282289526E+04  0.13282289526E+04  0.00000000000E+00 0.  1.
         21   -1    0    0  503  504 -0.00000000000E+00 -0.00000000000E+00 -0.40571488570E+02  0.40571488570E+02  0.00000000000E+00 0. -1.
         -6    2    1    2    0  504 -0.95220233072E+02  0.96276557049E+02  0.41816246002E+03  0.47206220751E+03  0.17218250948E+03 0.  0.
        -24    2    3    3    0    0 -0.79282134857E+02  0.11545459451E+02  0.13916893189E+03  0.18001279284E+03  0.81348997783E+02 0.  0.
          6    2    1    2  502    0  0.95220233072E+02 -0.96276557049E+02  0.86949500405E+03  0.89673823370E+03  0.17257412749E+03 0.  0.
         24    2    5    5    0    0  0.11082831862E+03 -0.11996441907E+03  0.81787028871E+03  0.83764569292E+03  0.77872457641E+02 0.  0.
          2    1    6    6  501    0  0.85733694899E+02 -0.72705269454E+02  0.37304836100E+03  0.38961699435E+03  0.00000000000E+00 0. -1.
         -1    1    6    6    0  501  0.25094623719E+02 -0.47259149616E+02  0.44482192772E+03  0.44802869857E+03  0.00000000000E+00 0.  1.
          5    1    5    5  502    0 -0.15608085546E+02  0.23687862022E+02  0.51624715336E+02  0.59092540774E+02  0.47000000000E+01 0. -1.
         11    1    4    4    0    0  0.82170508065E+01  0.24092277690E+02  0.37032456948E+02  0.44937296713E+02  0.00000000000E+00 0. -1.
        -12    1    4    4    0    0 -0.87499185663E+02 -0.12546818240E+02  0.10213647494E+03  0.13507549613E+03  0.00000000000E+00 0.  1.
         -5    1    3    3    0  504 -0.15938098215E+02  0.84731097598E+02  0.27899352812E+03  0.29204941467E+03  0.47000000000E+01 0.  1.
<mgrwt>
<rscale>  2 0.21928089E+03</rscale>
<asrwt>0</asrwt>
<pdfrwt beam="1">  1       21 0.20434288E+00 0.21935792E+03</pdfrwt>
<pdfrwt beam="2">  1       21 0.62417685E-02 0.21935792E+03</pdfrwt>
<totfact> 0.22765214E+04</totfact>
</mgrwt>
</event>
<event>
12    1  0.1410528E-001  0.2416824E+03  0.7546771E-02  0.1118763E+00
         21   -1    0    0  502  503  0.00000000000E+00  0.00000000000E+00  0.56768867784E+03  0.56768867784E+03  0.00000000000E+00 0.  1.
         21   -1    0    0  503  504 -0.00000000000E+00 -0.00000000000E+00 -0.10834802604E+03  0.10834802604E+03  0.00000000000E+00 0. -1.
         -6    2    1    2    0  504  0.89223237227E+02 -0.14276295162E+03  0.15206551210E+03  0.28510400312E+03  0.17267983731E+03 0.  0.
        -24    2    3    3    0    0  0.32040941824E+02 -0.12347165529E+03  0.37546988966E+02  0.15557195627E+03  0.80752619671E+02 0.  0.
          6    2    1    2  502    0 -0.89223237227E+02  0.14276295162E+03  0.30727513970E+03  0.39093270075E+03  0.17340218749E+03 0.  0.
         24    2    5    5    0    0 -0.10937829774E+03  0.94367558086E+02  0.29247918536E+03  0.33625774447E+03  0.81586449932E+02 0.  0.
          2    1    6    6  501    0 -0.41590999367E+02  0.67980911703E+02  0.85566274716E+02  0.11693076136E+03  0.00000000000E+00 0. -1.
         -1    1    6    6    0  501 -0.67787298376E+02  0.26386646383E+02  0.20691291064E+03  0.21932698311E+03  0.00000000000E+00 0.  1.
          5    1    5    5  502    0  0.20155060517E+02  0.48395393531E+02  0.14795954336E+02  0.54674956280E+02  0.47000000000E+01 0. -1.
         11    1    4    4    0    0  0.47923668613E+01 -0.52005316844E+02 -0.23925861137E+02  0.57445335679E+02  0.00000000000E+00 0. -1.
        -12    1    4    4    0    0  0.27248574963E+02 -0.71466338450E+02  0.61472850104E+02  0.98126620592E+02  0.00000000000E+00 0.  1.
         -5    1    3    3    0  504  0.57182295402E+02 -0.19291296323E+02  0.11451852313E+03  0.12953204685E+03  0.47000000000E+01 0.  1.
<mgrwt>
<rscale>  2 0.24155282E+03</rscale>
<asrwt>0</asrwt>
<pdfrwt beam="1">  1       21 0.87336718E-01 0.24168236E+03</pdfrwt>
<pdfrwt beam="2">  1       21 0.16668927E-01 0.24168236E+03</pdfrwt>
<totfact> 0.35531048E+04</totfact>
</mgrwt>
</event>
<event>
12    1  0.1410528E-001  0.2831818E+03  0.7546771E-02  0.1093968E+00
         21   -1    0    0  502  503  0.00000000000E+00  0.00000000000E+00  0.33228984471E+03  0.33228984471E+03  0.00000000000E+00 0.  1.
         21   -1    0    0  503  504 -0.00000000000E+00 -0.00000000000E+00 -0.28628483601E+03  0.28628483601E+03  0.00000000000E+00 0. -1.
         -6    2    1    2    0  504 -0.19133055200E+03 -0.11672343018E+03 -0.99593380040E+02  0.30015545501E+03  0.17303963865E+03 0.  0.
        -24    2    3    3    0    0 -0.98905702722E+02 -0.27068573980E+02 -0.11152729665E+03  0.17075354479E+03  0.78761598702E+02 0.  0.
          6    2    1    2  502    0  0.19133055200E+03  0.11672343018E+03  0.14559838874E+03  0.31841922570E+03  0.17309007253E+03 0.  0.
         24    2    5    5    0    0  0.18509305794E+03  0.84072445915E+02  0.60420718065E+02  0.22686422208E+03  0.80554924311E+02 0.  0.
          4    1    6    6  501    0  0.17280349906E+02 -0.89824852794E+01 -0.10700735895E+02  0.22221639979E+02  0.00000000000E+00 0. -1.
         -3    1    6    6    0  501  0.16781270803E+03  0.93054931195E+02  0.71121453960E+02  0.20464258210E+03  0.00000000000E+00 0.  1.
          5    1    5    5  502    0  0.62374940656E+01  0.32650984265E+02  0.85177670673E+02  0.91555003615E+02  0.47000000000E+01 0. -1.
         13    1    4    4    0    0 -0.97690633998E+02  0.39372731197E+01 -0.78009861977E+02  0.12507797830E+03  0.00000000000E+00 0. -1.
        -14    1    4    4    0    0 -0.12150687242E+01 -0.31005847100E+02 -0.33517434675E+02  0.45675566483E+02  0.00000000000E+00 0.  1.
         -5    1    3    3    0  504 -0.92424849282E+02 -0.89654856200E+02  0.11933916611E+02  0.12940191023E+03  0.47000000000E+01 0.  1.
<mgrwt>
<rscale>  2 0.28317406E+03</rscale>
<asrwt>0</asrwt>
<pdfrwt beam="1">  1       21 0.51121514E-01 0.28318177E+03</pdfrwt>
<pdfrwt beam="2">  1       21 0.44043821E-01 0.28318177E+03</pdfrwt>
<totfact> 0.17178972E+04</totfact>
</mgrwt>
</event>
<event>
12    1  0.1410528E-001  0.1904168E+03  0.7546771E-02  0.1158495E+00
         21   -1    0    0  502  503  0.00000000000E+00  0.00000000000E+00  0.94594632741E+03  0.94594632741E+03  0.00000000000E+00 0. -1.
         21   -1    0    0  503  504 -0.00000000000E+00 -0.00000000000E+00 -0.47106808228E+02  0.47106808228E+02  0.00000000000E+00 0. -1.
         -6    2    1    2    0  504 -0.71039393907E+02  0.19106116001E+02  0.23244245241E+03  0.30047969368E+03  0.17563289406E+03 0.  0.
        -24    2    3    3    0    0 -0.59957471758E+02  0.50858126917E-01  0.47492021695E+02  0.11416097837E+03  0.84748662835E+02 0.  0.
          6    2    1    2  502    0  0.71039393907E+02 -0.19106116001E+02  0.66639706678E+03  0.69257344196E+03  0.17367003988E+03 0.  0.
         24    2    5    5    0    0  0.96946601618E+02  0.26807828288E+02  0.54636890294E+03  0.56139370342E+03  0.80787430416E+02 0.  0.
          4    1    6    6  501    0  0.75403687237E+02 -0.19187520720E+02  0.30823242628E+03  0.31790109407E+03  0.00000000000E+00 0. -1.
         -3    1    6    6    0  501  0.21542914381E+02  0.45995349009E+02  0.23813647666E+03  0.24349260935E+03  0.00000000000E+00 0.  1.
          5    1    5    5  502    0 -0.25907207711E+02 -0.45913944289E+02  0.12002816383E+03  0.13117973854E+03  0.47000000000E+01 0. -1.
         11    1    4    4    0    0 -0.49696305138E+01 -0.65078183247E+01 -0.23060286943E+02  0.24470916629E+02  0.00000000000E+00 0. -1.
        -12    1    4    4    0    0 -0.54987841244E+02  0.65586764516E+01  0.70552308638E+02  0.89690061744E+02  0.00000000000E+00 0.  1.
         -5    1    3    3    0  504 -0.11081922149E+02  0.19055257874E+02  0.18495043072E+03  0.18631871531E+03  0.47000000000E+01 0.  1.
<mgrwt>
<rscale>  2 0.18996293E+03</rscale>
<asrwt>0</asrwt>
<pdfrwt beam="1">  1       21 0.14553019E+00 0.19041679E+03</pdfrwt>
<pdfrwt beam="2">  1       21 0.72472019E-02 0.19041679E+03</pdfrwt>
<totfact> 0.46153395E+04</totfact>
</mgrwt>
</event>
<event>
12    1  0.1410528E-001  0.2477188E+03  0.7546771E-02  0.1114811E+00
         21   -1    0    0  502  503  0.00000000000E+00  0.00000000000E+00  0.13089207815E+04  0.13089207815E+04  0.00000000000E+00 0.  1.
         21   -1    0    0  503  504 -0.00000000000E+00 -0.00000000000E+00 -0.34167180462E+03  0.34167180462E+03  0.00000000000E+00 0.  1.
         -6    2    1    2    0  504  0.17685820682E+03  0.44844078032E+00 -0.28300193642E+03  0.37610464886E+03  0.17345196585E+03 0.  0.
        -24    2    3    3    0    0  0.19166883591E+02 -0.23909784545E+02 -0.73623423490E+02  0.11281521071E+03  0.79798596843E+02 0.  0.
          6    2    1    2  502    0 -0.17685820682E+03 -0.44844078032E+00  0.12502509133E+04  0.12744879373E+04  0.17295412573E+03 0.  0.
         24    2    5    5    0    0 -0.17703818033E+03 -0.24128641002E+02  0.81163532239E+03  0.83520840114E+03  0.83044976745E+02 0.  0.
          4    1    6    6  501    0 -0.16758697485E+03 -0.72500637484E+00  0.63343960700E+03  0.65523404634E+03  0.00000000000E+00 0. -1.
         -3    1    6    6    0  501 -0.94512054877E+01 -0.23403634627E+02  0.17819571539E+03  0.17997435479E+03  0.00000000000E+00 0.  1.
          5    1    5    5  502    0  0.17997350991E+00  0.23680200222E+02  0.43861559094E+03  0.43927953616E+03  0.47000000000E+01 0. -1.
         13    1    4    4    0    0 -0.26514995235E+02 -0.28335393204E+02 -0.41353476341E+02  0.56710223821E+02  0.00000000000E+00 0. -1.
        -14    1    4    4    0    0  0.45681878826E+02  0.44256086589E+01 -0.32269947149E+02  0.56104986892E+02  0.00000000000E+00 0.  1.
         -5    1    3    3    0  504  0.15769132323E+03  0.24358225326E+02 -0.20937851293E+03  0.26328943815E+03  0.47000000000E+01 0.  1.
<mgrwt>
<rscale>  2 0.24763169E+03</rscale>
<asrwt>0</asrwt>
<pdfrwt beam="1">  1       21 0.20137243E+00 0.24771881E+03</pdfrwt>
<pdfrwt beam="2">  1       21 0.52564894E-01 0.24771881E+03</pdfrwt>
<totfact> 0.42490163E+02</totfact>
</mgrwt>
</event>
<event>
12    1  0.1410528E-001  0.2012386E+03  0.7546771E-02  0.1149379E+00
         21   -1    0    0  502  503  0.00000000000E+00  0.00000000000E+00  0.58014304639E+02  0.58014304639E+02  0.00000000000E+00 0.  1.
         21   -1    0    0  503  504 -0.00000000000E+00 -0.00000000000E+00 -0.71900457989E+03  0.71900457989E+03  0.00000000000E+00 0.  1.
         -6    2    1    2    0  504 -0.76973966223E+01  0.10013402965E+03 -0.25095425209E+03  0.32167530256E+03  0.17438718365E+03 0.  0.
        -24    2    3    3    0    0 -0.12515367971E+02  0.81248165663E+01 -0.36403573859E+02  0.88130892065E+02  0.78861821351E+02 0.  0.
          6    2    1    2  502    0  0.76973966223E+01 -0.10013402965E+03 -0.41003602316E+03  0.45534358197E+03  0.17065217124E+03 0.  0.
         24    2    5    5    0    0 -0.34415620076E+02 -0.31454864738E+01 -0.13971247961E+03  0.16503823949E+03  0.80769514929E+02 0.  0.
          4    1    6    6  501    0  0.23840827627E+01  0.31979680790E+02 -0.82314680717E+02  0.88340763499E+02  0.00000000000E+00 0. -1.
         -3    1    6    6    0  501 -0.36799702839E+02 -0.35125167264E+02 -0.57397798898E+02  0.76697475987E+02  0.00000000000E+00 0.  1.
          5    1    5    5  502    0  0.42113016698E+02 -0.96988543178E+02 -0.27032354354E+03  0.29030534249E+03  0.47000000000E+01 0. -1.
         11    1    4    4    0    0 -0.18317805662E+02 -0.20327534523E+02 -0.49279025817E+02  0.56366417746E+02  0.00000000000E+00 0. -1.
        -12    1    4    4    0    0  0.58024376910E+01  0.28452351089E+02  0.12875451958E+02  0.31764474319E+02  0.00000000000E+00 0.  1.
         -5    1    3    3    0  504  0.48179713484E+01  0.92009213086E+02 -0.21455067823E+03  0.23354441049E+03  0.47000000000E+01 0.  1.
<mgrwt>
<rscale>  2 0.20042671E+03</rscale>
<asrwt>0</asrwt>
<pdfrwt beam="1">  1       21 0.89252787E-02 0.20123857E+03</pdfrwt>
<pdfrwt beam="2">  1       21 0.11061608E+00 0.20123857E+03</pdfrwt>
<totfact> 0.63596088E+04</totfact>
</mgrwt>
</event>
<event>
12    1  0.1410528E-001  0.1872041E+03  0.7546771E-02  0.1161110E+00
         21   -1    0    0  502  503  0.00000000000E+00  0.00000000000E+00  0.54743344844E+02  0.54743344844E+02  0.00000000000E+00 0. -1.
         21   -1    0    0  503  504 -0.00000000000E+00 -0.00000000000E+00 -0.66897877731E+03  0.66897877731E+03  0.00000000000E+00 0. -1.
         -6    2    1    2    0  504 -0.39681687809E+01  0.71060001347E+02 -0.22973166559E+03  0.29606744749E+03  0.17266738294E+03 0.  0.
        -24    2    3    3    0    0 -0.78434227683E+00  0.86884798045E+02 -0.24436076620E+03  0.27378154328E+03  0.87718675664E+02 0.  0.
          6    2    1    2  502    0  0.39681687809E+01 -0.71060001347E+02 -0.38450376687E+03  0.42765467466E+03  0.17314763605E+03 0.  0.
         24    2    5    5    0    0 -0.18373548161E+02 -0.78279203466E+02 -0.13171718239E+03  0.17373654517E+03  0.79810713702E+02 0.  0.
          4    1    6    6  501    0  0.15646619328E+02 -0.76878290629E+02 -0.10090312843E+03  0.12781443421E+03  0.00000000000E+00 0. -1.
         -3    1    6    6    0  501 -0.34020167489E+02 -0.14009128369E+01 -0.30814053964E+02  0.45922110954E+02  0.00000000000E+00 0.  1.
          5    1    5    5  502    0  0.22341716942E+02  0.72192021189E+01 -0.25278658448E+03  0.25391812949E+03  0.47000000000E+01 0. -1.
         11    1    4    4    0    0  0.32961940377E+02  0.81727641107E+02 -0.19223932721E+03  0.21147542590E+03  0.00000000000E+00 0. -1.
        -12    1    4    4    0    0 -0.33746282654E+02  0.51571569380E+01 -0.52121438991E+02  0.62306117382E+02  0.00000000000E+00 0.  1.
         -5    1    3    3    0  504 -0.31838265040E+01 -0.15824796697E+02  0.14629100607E+02  0.22285904206E+02  0.47000000000E+01 0.  1.
<mgrwt>
<rscale>  2 0.18709297E+03</rscale>
<asrwt>0</asrwt>
<pdfrwt beam="1">  1       21 0.84220528E-02 0.18720410E+03</pdfrwt>
<pdfrwt beam="2">  1       21 0.10291981E+00 0.18720410E+03</pdfrwt>
<totfact> 0.84294947E+04</totfact>
</mgrwt>
</event>
<event>
12    1  0.1410528E-001  0.2408010E+03  0.7546771E-02  0.1119356E+00
         21   -1    0    0  502  503  0.00000000000E+00  0.00000000000E+00  0.84493161625E+02  0.84493161625E+02  0.00000000000E+00 0.  1.
         21   -1    0    0  503  504 -0.00000000000E+00 -0.00000000000E+00 -0.79835623831E+03  0.79835623831E+03  0.00000000000E+00 0.  1.
         -6    2    1    2    0  504  0.10936137783E+02  0.16696263079E+03 -0.18995376993E+03  0.30625069435E+03  0.17236859890E+03 0.  0.
        -24    2    3    3    0    0 -0.17299215282E+02  0.34913860469E+02 -0.12943594969E+03  0.15820134625E+03  0.82193432707E+02 0.  0.
          6    2    1    2  502    0 -0.10936137783E+02 -0.16696263079E+03 -0.52390930676E+03  0.57659870559E+03  0.17317328430E+03 0.  0.
         24    2    5    5    0    0  0.44942344293E+02 -0.12700636988E+03 -0.25802379452E+03  0.30194236912E+03  0.80265082269E+02 0.  0.
          4    1    6    6  501    0  0.32338861280E+02 -0.55168666648E+01 -0.37273186848E+02  0.49654085677E+02  0.00000000000E+00 0. -1.
         -3    1    6    6    0  501  0.12603483013E+02 -0.12148950322E+03 -0.22075060767E+03  0.25228828344E+03  0.00000000000E+00 0.  1.
          5    1    5    5  502    0 -0.55878482076E+02 -0.39956260905E+02 -0.26588551224E+03  0.27465633647E+03  0.47000000000E+01 0. -1.
         13    1    4    4    0    0 -0.60778986120E+01  0.55382730979E+02 -0.12129579528E+03  0.13347980258E+03  0.00000000000E+00 0. -1.
        -14    1    4    4    0    0 -0.11221316670E+02 -0.20468870510E+02 -0.81401544079E+01  0.24721543673E+02  0.00000000000E+00 0.  1.
         -5    1    3    3    0  504  0.28235353065E+02  0.13204877032E+03 -0.60517820238E+02  0.14804934810E+03  0.47000000000E+01 0.  1.
<mgrwt>
<rscale>  2 0.24065633E+03</rscale>
<asrwt>0</asrwt>
<pdfrwt beam="1">  1       21 0.12998948E-01 0.24080097E+03</pdfrwt>
<pdfrwt beam="2">  1       21 0.12282403E+00 0.24080097E+03</pdfrwt>
<totfact> 0.24650913E+04</totfact>
</mgrwt>
</event>
<event>
12    1  0.1410528E-001  0.1927224E+03  0.7546771E-02  0.1157796E+00
         21   -1    0    0  502  503  0.00000000000E+00  0.00000000000E+00  0.10477273157E+03  0.10477273157E+03  0.00000000000E+00 0. -1.
         21   -1    0    0  503  504 -0.00000000000E+00 -0.00000000000E+00 -0.36891370546E+03  0.36891370546E+03  0.00000000000E+00 0. -1.
         -6    2    1    2    0  504 -0.85119238797E+02  0.17750941158E+02 -0.19551946993E+03  0.26911165263E+03  0.16319570378E+03 0.  0.
        -24    2    3    3    0    0 -0.20717731341E+02  0.60331833722E+02 -0.83100695893E+02  0.13265375681E+03  0.81376526017E+02 0.  0.
          6    2    1    2  502    0  0.85119238797E+02 -0.17750941158E+02 -0.68621503949E+02  0.20457478440E+03  0.17199288032E+03 0.  0.
         24    2    5    5    0    0  0.72835362387E+02  0.27495340289E+02  0.11056402630E+02  0.11200708808E+03  0.79764403023E+02 0.  0.
          2    1    6    6  501    0  0.81987679191E+02  0.11614660855E+02  0.27631564245E+02  0.87294806423E+02  0.00000000000E+00 0. -1.
         -1    1    6    6    0  501 -0.91523168042E+01  0.15880679434E+02 -0.16575161615E+02  0.24712281658E+02  0.00000000000E+00 0.  1.
          5    1    5    5  502    0  0.12283876410E+02 -0.45246281447E+02 -0.79677906579E+02  0.92567696316E+02  0.47000000000E+01 0. -1.
         13    1    4    4    0    0 -0.47826323984E+02  0.23968549103E+02 -0.64068988731E+02  0.83466663579E+02  0.00000000000E+00 0. -1.
        -14    1    4    4    0    0  0.27108592643E+02  0.36363284619E+02 -0.19031707162E+02  0.49187093234E+02  0.00000000000E+00 0.  1.
         -5    1    3    3    0  504 -0.64401507456E+02 -0.42580892564E+02 -0.11241877404E+03  0.13645789582E+03  0.47000000000E+01 0.  1.
<mgrwt>
<rscale>  2 0.19073996E+03</rscale>
<asrwt>0</asrwt>
<pdfrwt beam="1">  1       21 0.16118882E-01 0.19272242E+03</pdfrwt>
<pdfrwt beam="2">  1       21 0.56755955E-01 0.19272242E+03</pdfrwt>
<totfact> 0.10038109E+05</totfact>
</mgrwt>
</event>
<event>
12    1  0.1410528E-001  0.1940851E+03  0.7546771E-02  0.1156977E+00
         21   -1    0    0  502  503  0.00000000000E+00  0.00000000000E+00  0.22495351586E+03  0.22495351586E+03  0.00000000000E+00 0. -1.
         21   -1    0    0  503  504 -0.00000000000E+00 -0.00000000000E+00 -0.27711234680E+03  0.27711234680E+03  0.00000000000E+00 0. -1.
         -6    2    1    2    0  504  0.81976779571E+02  0.37308128887E+02 -0.18933636446E+03  0.26439657627E+03  0.16107514324E+03 0.  0.
        -24    2    3    3    0    0  0.93259513027E+02 -0.14658504561E+02 -0.16108328588E+03  0.20399659684E+03  0.82186239760E+02 0.  0.
          6    2    1    2  502    0 -0.81976779571E+02 -0.37308128887E+02  0.13717753351E+03  0.23766928639E+03  0.17192127595E+03 0.  0.
         24    2    5    5    0    0 -0.90785048260E+02 -0.52328767293E+02  0.16101402570E+03  0.20777825872E+03  0.79158470472E+02 0.  0.
          2    1    6    6  501    0 -0.10368410201E+03 -0.43833518998E+02  0.15414897381E+03  0.19087607635E+03  0.00000000000E+00 0. -1.
         -1    1    6    6    0  501  0.12899053745E+02 -0.84952482955E+01  0.68650518897E+01  0.16902182361E+02  0.00000000000E+00 0.  1.
          5    1    5    5  502    0  0.88082686894E+01  0.15020638406E+02 -0.23836492195E+02  0.29891027677E+02  0.47000000000E+01 0. -1.
         13    1    4    4    0    0  0.34291687575E+02 -0.38896646815E+02 -0.11238362231E+03  0.12376973594E+03  0.00000000000E+00 0. -1.
        -14    1    4    4    0    0  0.58967825452E+02  0.24238142254E+02 -0.48699663573E+02  0.80226860905E+02  0.00000000000E+00 0.  1.
         -5    1    3    3    0  504 -0.11282733456E+02  0.51966633448E+02 -0.28253078571E+02  0.60399979428E+02  0.47000000000E+01 0.  1.
<mgrwt>
<rscale>  2 0.19165509E+03</rscale>
<asrwt>0</asrwt>
<pdfrwt beam="1">  1       21 0.34608233E-01 0.19408507E+03</pdfrwt>
<pdfrwt beam="2">  1       21 0.42632669E-01 0.19408507E+03</pdfrwt>
<totfact> 0.42561821E+04</totfact>
</mgrwt>
</event>
<event>
12    1  0.1410528E-001  0.1946387E+03  0.7546771E-02  0.1154532E+00
         21   -1    0    0  502  503  0.00000000000E+00  0.00000000000E+00  0.14768775993E+03  0.14768775993E+03  0.00000000000E+00 0. -1.
         21   -1    0    0  503  504 -0.00000000000E+00 -0.00000000000E+00 -0.31533124367E+03  0.31533124367E+03  0.00000000000E+00 0. -1.
         -6    2    1    2    0  504  0.36400781074E+02 -0.80906967341E+02 -0.18491623479E+03  0.26847392969E+03  0.17324342067E+03 0.  0.
        -24    2    3    3    0    0  0.36688120258E+02 -0.14131464289E+02 -0.18491560163E+03  0.20153260932E+03  0.69827619489E+02 0.  0.
          6    2    1    2  502    0 -0.36400781074E+02  0.80906967341E+02  0.17272751047E+02  0.19454507392E+03  0.17227444277E+03 0.  0.
         24    2    5    5    0    0 -0.42686152456E+02  0.86602185321E+01  0.60824958091E+02  0.10982209389E+03  0.80399687704E+02 0.  0.
          2    1    6    6  501    0 -0.47330018623E+02  0.81450775211E+01 -0.78801106702E+00  0.48032217439E+02  0.00000000000E+00 0. -1.
         -1    1    6    6    0  501  0.46438661664E+01  0.51514101107E+00  0.61612969158E+02  0.61789876450E+02  0.00000000000E+00 0.  1.
          5    1    5    5  502    0  0.62853713828E+01  0.72246748809E+02 -0.43552207044E+02  0.84722980030E+02  0.47000000000E+01 0. -1.
         11    1    4    4    0    0  0.14811947756E+02 -0.83708251309E+01 -0.18945798738E+01  0.17118818376E+02  0.00000000000E+00 0. -1.
        -12    1    4    4    0    0  0.21876172501E+02 -0.57606391585E+01 -0.18302102175E+03  0.18441379095E+03  0.00000000000E+00 0.  1.
         -5    1    3    3    0  504 -0.28733918424E+00 -0.66775503051E+02 -0.63315919818E-03  0.66941320363E+02  0.47000000000E+01 0.  1.
<mgrwt>
<rscale>  2 0.19442289E+03</rscale>
<asrwt>0</asrwt>
<pdfrwt beam="1">  1       21 0.22721194E-01 0.19463873E+03</pdfrwt>
<pdfrwt beam="2">  1       21 0.48512499E-01 0.19463873E+03</pdfrwt>
<totfact> 0.73635251E+04</totfact>
</mgrwt>
</event>
<event>
12    1  0.1410528E-001  0.2103759E+03  0.7546771E-02  0.1141830E+00
         21   -1    0    0  502  503  0.00000000000E+00  0.00000000000E+00  0.46680252888E+03  0.46680252888E+03  0.00000000000E+00 0.  1.
         21   -1    0    0  503  504 -0.00000000000E+00 -0.00000000000E+00 -0.10397672949E+03  0.10397672949E+03  0.00000000000E+00 0.  1.
         -6    2    1    2    0  504 -0.44120901660E+02 -0.10917177639E+03  0.92111874488E+02  0.22965757649E+03  0.17433552219E+03 0.  0.
        -24    2    3    3    0    0  0.24815872045E+02 -0.92139639229E+01  0.17607154165E+02  0.87120260706E+02  0.81112288287E+02 0.  0.
          6    2    1    2  502    0  0.44120901660E+02  0.10917177639E+03  0.27071392490E+03  0.34112168187E+03  0.17091764679E+03 0.  0.
         24    2    5    5    0    0  0.49251649749E+02 -0.83140287573E+00  0.98547734175E+02  0.13669489485E+03  0.80916142596E+02 0.  0.
          2    1    6    6  501    0  0.64609518260E+02 -0.19071714381E+02  0.87465043045E+02  0.11040042524E+03  0.00000000000E+00 0. -1.
         -1    1    6    6    0  501 -0.15357868511E+02  0.18240311506E+02  0.11082691129E+02  0.26294469603E+02  0.00000000000E+00 0.  1.
          5    1    5    5  502    0 -0.51307480888E+01  0.11000317926E+03  0.17216619073E+03  0.20442678703E+03  0.47000000000E+01 0. -1.
         13    1    4    4    0    0 -0.54621891494E+01  0.32248817634E+02 -0.40623633952E+00  0.32710652348E+02  0.00000000000E+00 0. -1.
        -14    1    4    4    0    0  0.30278061194E+02 -0.41462781557E+02  0.18013390504E+02  0.54409608357E+02  0.00000000000E+00 0.  1.
         -5    1    3    3    0  504 -0.68936773705E+02 -0.99957812462E+02  0.74504720324E+02  0.14253731579E+03  0.47000000000E+01 0.  1.
<mgrwt>
<rscale>  2 0.20966640E+03</rscale>
<asrwt>0</asrwt>
<pdfrwt beam="1">  1       21 0.71815773E-01 0.21037587E+03</pdfrwt>
<pdfrwt beam="2">  1       21 0.15996420E-01 0.21037587E+03</pdfrwt>
<totfact> 0.60572978E+04</totfact>
</mgrwt>
</event>
<event>
12    1  0.1410528E-001  0.1920500E+03  0.7546771E-02  0.1157071E+00
         21   -1    0    0  502  503  0.00000000000E+00  0.00000000000E+00  0.92323907011E+02  0.92323907011E+02  0.00000000000E+00 0. -1.
         21   -1    0    0  503  504 -0.00000000000E+00 -0.00000000000E+00 -0.51556870003E+03  0.51556870003E+03  0.00000000000E+00 0. -1.
         -6    2    1    2    0  504  0.35175194456E+02 -0.72917894847E+02 -0.35923234963E+03  0.40734637280E+03  0.17415186683E+03 0.  0.
        -24    2    3    3    0    0  0.54103980469E+02  0.17285410243E+02 -0.21161423177E+03  0.23325405847E+03  0.80005291041E+02 0.  0.
          6    2    1    2  502    0 -0.35175194456E+02  0.72917894847E+02 -0.64012443389E+02  0.20054623424E+03  0.17195024125E+03 0.  0.
         24    2    5    5    0    0 -0.13603953747E+02  0.31636598717E+02  0.32124793967E+02  0.93616714263E+02  0.80908249678E+02 0.  0.
          4    1    6    6  501    0 -0.41568002561E+02  0.40325024026E+02  0.26962044444E+02  0.63882378167E+02  0.00000000000E+00 0. -1.
         -3    1    6    6    0  501  0.27964048814E+02 -0.86884253093E+01  0.51627495233E+01  0.29734336096E+02  0.00000000000E+00 0.  1.
          5    1    5    5  502    0 -0.21571240709E+02  0.41281296130E+02 -0.96137237356E+02  0.10692951998E+03  0.47000000000E+01 0. -1.
         11    1    4    4    0    0  0.48827929327E+02 -0.25156700003E+02 -0.12956387984E+03  0.14072606438E+03  0.00000000000E+00 0. -1.
        -12    1    4    4    0    0  0.52760511418E+01  0.42442110246E+02 -0.82050351932E+02  0.92527994087E+02  0.00000000000E+00 0.  1.
         -5    1    3    3    0  504 -0.18928786013E+02 -0.90203305090E+02 -0.14761811785E+03  0.17409231433E+03  0.47000000000E+01 0.  1.
<mgrwt>
<rscale>  2 0.19154946E+03</rscale>
<asrwt>0</asrwt>
<pdfrwt beam="1">  1       21 0.14203678E-01 0.19204996E+03</pdfrwt>
<pdfrwt beam="2">  1       21 0.79318261E-01 0.19204996E+03</pdfrwt>
<totfact> 0.60756537E+04</totfact>
</mgrwt>
</event>
<event>
12    1  0.1410528E-001  0.1879906E+03  0.7546771E-02  0.1160534E+00
         21   -1    0    0  502  503  0.00000000000E+00  0.00000000000E+00  0.10500096562E+04  0.10500096562E+04  0.00000000000E+00 0. -1.
         21   -1    0    0  503  504 -0.00000000000E+00 -0.00000000000E+00 -0.47873653943E+02  0.47873653943E+02  0.00000000000E+00 0. -1.
         -6    2    1    2    0  504 -0.56663973211E+02 -0.47859624215E+02  0.19889383098E+03  0.27293576199E+03  0.17156288841E+03 0.  0.
        -24    2    3    3    0    0 -0.57156831887E+02 -0.45322197789E+01  0.35551951826E+02  0.10387906626E+03  0.78990345493E+02 0.  0.
          6    2    1    2  502    0  0.56663973211E+02  0.47859624215E+02  0.80324217124E+03  0.82494754812E+03  0.17274004167E+03 0.  0.
         24    2    5    5    0    0  0.71649676577E+02 -0.18022807096E+02  0.35055569133E+03  0.36722251586E+03  0.80651011789E+02 0.  0.
          4    1    6    6  501    0  0.53681333020E+02  0.20353787085E+02  0.27173306333E+03  0.27773156081E+03  0.00000000000E+00 0. -1.
         -3    1    6    6    0  501  0.17968343557E+02 -0.38376594181E+02  0.78822628000E+02  0.89490955051E+02  0.00000000000E+00 0.  1.
          5    1    5    5  502    0 -0.14985703366E+02  0.65882431311E+02  0.45268647991E+03  0.45772503226E+03  0.47000000000E+01 0. -1.
         11    1    4    4    0    0 -0.46293241388E+02  0.40590352133E+01  0.59933008967E+02  0.75838680954E+02  0.00000000000E+00 0. -1.
        -12    1    4    4    0    0 -0.10863590499E+02 -0.85912549922E+01 -0.24381057141E+02  0.28040385307E+02  0.00000000000E+00 0.  1.
         -5    1    3    3    0  504  0.49285867624E+00 -0.43327404436E+02  0.16334187915E+03  0.16905669573E+03  0.47000000000E+01 0.  1.
<mgrwt>
<rscale>  2 0.18771976E+03</rscale>
<asrwt>0</asrwt>
<pdfrwt beam="1">  1       21 0.16153993E+00 0.18799062E+03</pdfrwt>
<pdfrwt beam="2">  1       21 0.73651783E-02 0.18799062E+03</pdfrwt>
<totfact> 0.34075346E+04</totfact>
</mgrwt>
</event>
<event>
12    1  0.1410528E-001  0.1963807E+03  0.7546771E-02  0.1152971E+00
         21   -1    0    0  502  503  0.00000000000E+00  0.00000000000E+00  0.42337802405E+02  0.42337802405E+02  0.00000000000E+00 0.  1.
         21   -1    0    0  503  504 -0.00000000000E+00 -0.00000000000E+00 -0.17506345268E+04  0.17506345268E+04  0.00000000000E+00 0.  1.
         -6    2    1    2    0  504  0.64789507331E+02 -0.67963351501E+02 -0.14754242861E+04  0.14883496871E+04  0.17173022424E+03 0.  0.
        -24    2    3    3    0    0  0.79638036275E+02  0.99690763613E+01 -0.99262863402E+03  0.99905665250E+03  0.79755818081E+02 0.  0.
          6    2    1    2  502    0 -0.64789507331E+02  0.67963351501E+02 -0.23287243836E+03  0.30462264208E+03  0.17247806851E+03 0.  0.
         24    2    5    5    0    0 -0.88885482474E+02 -0.41347260295E+01 -0.13955672740E+03  0.18417074001E+03  0.80777820959E+02 0.  0.
          4    1    6    6  501    0 -0.48692506735E+02  0.30806086923E+02 -0.10761399255E+03  0.12206861429E+03  0.00000000000E+00 0. -1.
         -3    1    6    6    0  501 -0.40192975739E+02 -0.34940812952E+02 -0.31942734854E+02  0.62102125716E+02  0.00000000000E+00 0.  1.
          5    1    5    5  502    0  0.24095975143E+02  0.72098077531E+02 -0.93315710956E+02  0.12045190207E+03  0.47000000000E+01 0. -1.
         13    1    4    4    0    0 -0.16296732420E+02  0.51263385385E+01 -0.15408160155E+03  0.15502581324E+03  0.00000000000E+00 0. -1.
        -14    1    4    4    0    0  0.95934768695E+02  0.48427378228E+01 -0.83854703248E+03  0.84403083926E+03  0.00000000000E+00 0.  1.
         -5    1    3    3    0  504 -0.14848528944E+02 -0.77932427862E+02 -0.48279565204E+03  0.48929303465E+03  0.47000000000E+01 0.  1.
<mgrwt>
<rscale>  2 0.19621638E+03</rscale>
<asrwt>0</asrwt>
<pdfrwt beam="1">  1       21 0.65135099E-02 0.19638071E+03</pdfrwt>
<pdfrwt beam="2">  1       21 0.26932831E+00 0.19638071E+03</pdfrwt>
<totfact> 0.87511822E+03</totfact>
</mgrwt>
</event>
<event>
12    1  0.1410528E-001  0.2084155E+03  0.7546771E-02  0.1145372E+00
         21   -1    0    0  502  503  0.00000000000E+00  0.00000000000E+00  0.49357083393E+02  0.49357083393E+02  0.00000000000E+00 0. -1.
         21   -1    0    0  503  504 -0.00000000000E+00 -0.00000000000E+00 -0.95048489786E+03  0.95048489786E+03  0.00000000000E+00 0. -1.
         -6    2    1    2    0  504  0.10968664367E+03 -0.36040241339E+02 -0.64132747715E+03  0.67434261510E+03  0.17351360409E+03 0.  0.
        -24    2    3    3    0    0  0.98426206142E+02 -0.46696284815E+01 -0.24050787443E+03  0.27211213798E+03  0.80569563032E+02 0.  0.
          6    2    1    2  502    0 -0.10968664367E+03  0.36040241339E+02 -0.25980033732E+03  0.32549936615E+03  0.15850414284E+03 0.  0.
         24    2    5    5    0    0 -0.97096703910E+02 -0.21797539648E+02 -0.13744014027E+03  0.18949266295E+03  0.84349122761E+02 0.  0.
          4    1    6    6  501    0 -0.89418000201E+02 -0.46037759577E+02 -0.86897718723E+02  0.13291451232E+03  0.00000000000E+00 0. -1.
         -3    1    6    6    0  501 -0.76787037090E+01  0.24240219929E+02 -0.50542421548E+02  0.56578150630E+02  0.00000000000E+00 0.  1.
          5    1    5    5  502    0 -0.12589939756E+02  0.57837780988E+02 -0.12236019705E+03  0.13600670320E+03  0.47000000000E+01 0. -1.
         11    1    4    4    0    0  0.38577849565E+02  0.23615970231E+02 -0.16777744000E+03  0.17376775852E+03  0.00000000000E+00 0. -1.
        -12    1    4    4    0    0  0.59848356577E+02 -0.28285598712E+02 -0.72730434429E+02  0.98344379461E+02  0.00000000000E+00 0.  1.
         -5    1    3    3    0  504  0.11260437524E+02 -0.31370612858E+02 -0.40081960272E+03  0.40223047712E+03  0.47000000000E+01 0.  1.
<mgrwt>
<rscale>  2 0.20526490E+03</rscale>
<asrwt>0</asrwt>
<pdfrwt beam="1">  1       21 0.75933974E-02 0.20841552E+03</pdfrwt>
<pdfrwt beam="2">  1       21 0.14622845E+00 0.20841552E+03</pdfrwt>
<totfact> 0.41603935E+04</totfact>
</mgrwt>
</event>
<event>
12    1  0.1410528E-001  0.1790214E+03  0.7546771E-02  0.1169309E+00
         21   -1    0    0  502  503  0.00000000000E+00  0.00000000000E+00  0.19549641516E+02  0.19549641516E+02  0.00000000000E+00 0. -1.
         21   -1    0    0  503  504 -0.00000000000E+00 -0.00000000000E+00 -0.28814558584E+04  0.28814558584E+04  0.00000000000E+00 0. -1.
         -6    2    1    2    0  504  0.12174156800E+02  0.30603942673E+02 -0.23962804251E+04  0.24029582901E+04  0.17596549862E+03 0.  0.
        -24    2    3    3    0    0  0.48090438810E+02 -0.38171904466E+02 -0.15273569998E+04  0.15305649696E+04  0.77717031057E+02 0.  0.
          6    2    1    2  502    0 -0.12174156800E+02 -0.30603942673E+02 -0.46562579177E+03  0.49804720983E+03  0.17366298932E+03 0.  0.
         24    2    5    5    0    0  0.30851771594E+02 -0.72930987466E+02 -0.35303154610E+03  0.37020995629E+03  0.78443472966E+02 0.  0.
          4    1    6    6  501    0  0.43965007834E+02 -0.73392020167E+01 -0.14063614927E+03  0.14753071640E+03  0.00000000000E+00 0. -1.
         -3    1    6    6    0  501 -0.13113236240E+02 -0.65591785449E+02 -0.21239539683E+03  0.22267923989E+03  0.00000000000E+00 0.  1.
          5    1    5    5  502    0 -0.43025928394E+02  0.42327044793E+02 -0.11259424567E+03  0.12783725354E+03  0.47000000000E+01 0. -1.
         13    1    4    4    0    0  0.61884980936E+01 -0.17046425304E+02 -0.11699482983E+04  0.11700888423E+04  0.00000000000E+00 0. -1.
        -14    1    4    4    0    0  0.41901940717E+02 -0.21125479162E+02 -0.35740870151E+03  0.36047612739E+03  0.00000000000E+00 0.  1.
         -5    1    3    3    0  504 -0.35916282010E+02  0.68775847139E+02 -0.86892342532E+03  0.87239332044E+03  0.47000000000E+01 0.  1.
<mgrwt>
<rscale>  2 0.17845304E+03</rscale>
<asrwt>0</asrwt>
<pdfrwt beam="1">  1       21 0.30076376E-02 0.17902142E+03</pdfrwt>
<pdfrwt beam="2">  1       21 0.44330084E+00 0.17902142E+03</pdfrwt>
<totfact> 0.29642680E+03</totfact>
</mgrwt>
</event>
<event>
12    1  0.1410528E-001  0.2277083E+03  0.7546771E-02  0.1128687E+00
         21   -1    0    0  502  503  0.00000000000E+00  0.00000000000E+00  0.99281150395E+02  0.99281150395E+02  0.00000000000E+00 0.  1.
         21   -1    0    0  503  504 -0.00000000000E+00 -0.00000000000E+00 -0.51687031920E+03  0.51687031920E+03  0.00000000000E+00 0. -1.
         -6    2    1    2    0  504 -0.14918313725E+03 -0.11478233743E+02 -0.20585051297E+03  0.30521040062E+03  0.16849806132E+03 0.  0.
        -24    2    3    3    0    0 -0.14941473158E+03  0.29891002637E+02 -0.11842959021E+03  0.20838078175E+03  0.78605014553E+02 0.  0.
          6    2    1    2  502    0  0.14918313725E+03  0.11478233743E+02 -0.21173865583E+03  0.31094106897E+03  0.17165002683E+03 0.  0.
         24    2    5    5    0    0  0.48084024072E+02 -0.32152473920E+02 -0.38755877371E+02  0.10583182740E+03  0.79702589101E+02 0.  0.
          4    1    6    6  501    0  0.69178791072E+02 -0.19908669026E+02 -0.38066124581E+02  0.81431505434E+02  0.00000000000E+00 0. -1.
         -3    1    6    6    0  501 -0.21094767000E+02 -0.12243804894E+02 -0.68975279073E+00  0.24400321964E+02  0.00000000000E+00 0.  1.
          5    1    5    5  502    0  0.10109911317E+03  0.43630707663E+02 -0.17298277846E+03  0.20510924158E+03  0.47000000000E+01 0. -1.
         11    1    4    4    0    0 -0.14107784163E+02  0.54176612377E+01 -0.54844121655E+02  0.56888120968E+02  0.00000000000E+00 0. -1.
        -12    1    4    4    0    0 -0.13530694742E+03  0.24473341400E+02 -0.63585468554E+02  0.15149266078E+03  0.00000000000E+00 0.  1.
         -5    1    3    3    0  504  0.23159433141E+00 -0.41369236381E+02 -0.87420922761E+02  0.96829618873E+02  0.47000000000E+01 0.  1.
<mgrwt>
<rscale>  2 0.22711440E+03</rscale>
<asrwt>0</asrwt>
<pdfrwt beam="1">  1       21 0.15274024E-01 0.22770834E+03</pdfrwt>
<pdfrwt beam="2">  1       21 0.79518508E-01 0.22770834E+03</pdfrwt>
<totfact> 0.52048508E+04</totfact>
</mgrwt>
</event>
<event>
12    1  0.1410528E-001  0.1799937E+03  0.7546771E-02  0.1167981E+00
         21   -1    0    0  502  503  0.00000000000E+00  0.00000000000E+00  0.25374030081E+03  0.25374030081E+03  0.00000000000E+00 0. -1.
         21   -1    0    0  503  504 -0.00000000000E+00 -0.00000000000E+00 -0.13550566180E+03  0.13550566180E+03  0.00000000000E+00 0. -1.
         -6    2    1    2    0  504 -0.18418308451E+02 -0.44467471006E+02  0.10746938970E+03  0.20963634114E+03  0.17343914132E+03 0.  0.
        -24    2    3    3    0    0 -0.72245224303E+02  0.11657230645E+01  0.58591060349E+02  0.12366596048E+03  0.81483900766E+02 0.  0.
          6    2    1    2  502    0  0.18418308451E+02  0.44467471006E+02  0.10765249319E+02  0.17960962147E+03  0.17270534290E+03 0.  0.
         24    2    5    5    0    0  0.22720236904E+02 -0.12791643961E+02  0.60532648162E+02  0.10347817709E+03  0.79772779319E+02 0.  0.
          2    1    6    6  501    0  0.39932462482E+02  0.51185770499E+01  0.24813643518E+01  0.40335574372E+02  0.00000000000E+00 0. -1.
         -1    1    6    6    0  501 -0.17212225578E+02 -0.17910221011E+02  0.58051283810E+02  0.63142602718E+02  0.00000000000E+00 0.  1.
          5    1    5    5  502    0 -0.43019284532E+01  0.57259114967E+02 -0.49767398843E+02  0.76131444376E+02  0.47000000000E+01 0. -1.
         11    1    4    4    0    0 -0.18101796814E+02  0.38664556749E+02  0.27937411079E+02  0.51020799036E+02  0.00000000000E+00 0. -1.
        -12    1    4    4    0    0 -0.54143427488E+02 -0.37498833684E+02  0.30653649270E+02  0.72645161445E+02  0.00000000000E+00 0.  1.
         -5    1    3    3    0  504  0.53826915852E+02 -0.45633194071E+02  0.48878329350E+02  0.85970380663E+02  0.47000000000E+01 0.  1.
<mgrwt>
<rscale>  2 0.17981668E+03</rscale>
<asrwt>0</asrwt>
<pdfrwt beam="1">  1       21 0.39036969E-01 0.17999368E+03</pdfrwt>
<pdfrwt beam="2">  1       21 0.20847025E-01 0.17999368E+03</pdfrwt>
<totfact> 0.13571187E+05</totfact>
</mgrwt>
</event>
<event>
12    1  0.1410528E-001  0.2093143E+03  0.7546771E-02  0.1142312E+00
         21   -1    0    0  502  503  0.00000000000E+00  0.00000000000E+00  0.54464134046E+03  0.54464134046E+03  0.00000000000E+00 0.  1.
         21   -1    0    0  503  504 -0.00000000000E+00 -0.00000000000E+00 -0.86473912168E+02  0.86473912168E+02  0.00000000000E+00 0. -1.
         -6    2    1    2    0  504  0.99402743266E+02  0.59633322182E+02  0.31454462062E+03  0.37726496066E+03  0.17307077656E+03 0.  0.
        -24    2    3    3    0    0  0.36303202715E+02  0.70409676497E+02  0.93886329975E+02  0.14746101583E+03  0.81576118817E+02 0.  0.
          6    2    1    2  502    0 -0.99402743266E+02 -0.59633322182E+02  0.14362280767E+03  0.25385029196E+03  0.17428545942E+03 0.  0.
         24    2    5    5    0    0 -0.10190836557E+02 -0.76630315450E+02  0.59993965523E+02  0.13030461087E+03  0.86046251041E+02 0.  0.
          2    1    6    6  501    0 -0.40867271600E+02 -0.31120213733E+02  0.34168062812E+01  0.51480832899E+02  0.00000000000E+00 0. -1.
         -1    1    6    6    0  501  0.30676435043E+02 -0.45510101717E+02  0.56577159242E+02  0.78823777968E+02  0.00000000000E+00 0.  1.
          5    1    5    5  502    0 -0.89211906709E+02  0.16996993268E+02  0.83628842144E+02  0.12354568109E+03  0.47000000000E+01 0. -1.
         11    1    4    4    0    0  0.52043522769E+02  0.54823526218E+02  0.32650844630E+02  0.82342121325E+02  0.00000000000E+00 0. -1.
        -12    1    4    4    0    0 -0.15740320054E+02  0.15586150279E+02  0.61235485345E+02  0.65118894503E+02  0.00000000000E+00 0.  1.
         -5    1    3    3    0  504  0.63099540551E+02 -0.10776354315E+02  0.22065829065E+03  0.22980394483E+03  0.47000000000E+01 0.  1.
<mgrwt>
<rscale>  2 0.20906122E+03</rscale>
<asrwt>0</asrwt>
<pdfrwt beam="1">  1       21 0.83790973E-01 0.20931426E+03</pdfrwt>
<pdfrwt beam="2">  1       21 0.13303679E-01 0.20931426E+03</pdfrwt>
<totfact> 0.59891916E+04</totfact>
</mgrwt>
</event>
<event>
12    1  0.1410528E-001  0.2204475E+03  0.7546771E-02  0.1135080E+00
         21   -1    0    0  502  503  0.00000000000E+00  0.00000000000E+00  0.56877520990E+03  0.56877520990E+03  0.00000000000E+00 0.  1.
         21   -1    0    0  503  504 -0.00000000000E+00 -0.00000000000E+00 -0.83157988623E+02  0.83157988623E+02  0.00000000000E+00 0. -1.
         -6    2    1    2    0  504 -0.12254443948E+03 -0.57511724125E+01  0.20604720923E+03  0.29590441195E+03  0.17336018272E+03 0.  0.
        -24    2    3    3    0    0 -0.60172423898E+02  0.55002587659E+02  0.70786589683E+02  0.13497333077E+03  0.81000330211E+02 0.  0.
          6    2    1    2  502    0  0.12254443948E+03  0.57511724125E+01  0.27957001205E+03  0.35602878657E+03  0.18315810001E+03 0.  0.
         24    2    5    5    0    0  0.80992715473E+02 -0.68430868095E+02  0.15407306022E+03  0.20436766492E+03  0.82371299076E+02 0.  0.
          2    1    6    6  501    0  0.95197570441E+02 -0.47517904122E+02  0.10677028110E+03  0.15073294781E+03  0.00000000000E+00 0. -1.
         -1    1    6    6    0  501 -0.14204854968E+02 -0.20912963973E+02  0.47302779120E+02  0.53634717109E+02  0.00000000000E+00 0.  1.
          5    1    5    5  502    0  0.41551724004E+02  0.74182040508E+02  0.12549695183E+03  0.15166112165E+03  0.47000000000E+01 0. -1.
         13    1    4    4    0    0 -0.55520580324E+01 -0.63301847301E+00 -0.16804405202E+02  0.17709152859E+02  0.00000000000E+00 0. -1.
        -14    1    4    4    0    0 -0.54620365866E+02  0.55635606132E+02  0.87590994886E+02  0.11726417791E+03  0.00000000000E+00 0.  1.
         -5    1    3    3    0  504 -0.62372015578E+02 -0.60753760071E+02  0.13526061954E+03  0.16093108118E+03  0.47000000000E+01 0.  1.
<mgrwt>
<rscale>  2 0.21840156E+03</rscale>
<asrwt>0</asrwt>
<pdfrwt beam="1">  1       21 0.87503876E-01 0.22044751E+03</pdfrwt>
<pdfrwt beam="2">  1       21 0.12793537E-01 0.22044751E+03</pdfrwt>
<totfact> 0.57882878E+04</totfact>
</mgrwt>
</event>
<event>
12    1  0.1410528E-001  0.1744000E+03  0.7546771E-02  0.1173344E+00
         21   -1    0    0  502  503  0.00000000000E+00  0.00000000000E+00  0.11625372871E+03  0.11625372871E+03  0.00000000000E+00 0.  1.
         21   -1    0    0  503  504 -0.00000000000E+00 -0.00000000000E+00 -0.90899265614E+03  0.90899265614E+03  0.00000000000E+00 0.  1.
         -6    2    1    2    0  504  0.64604104203E+01 -0.12837226365E+01 -0.82898116448E+03  0.84712040230E+03  0.17424069581E+03 0.  0.
        -24    2    3    3    0    0  0.64251689997E+02  0.10027877887E+02 -0.27625535345E+03  0.29124658884E+03  0.65411904130E+02 0.  0.
          6    2    1    2  502    0 -0.64604104203E+01  0.12837226365E+01  0.36242237050E+02  0.17812598255E+03  0.17427558941E+03 0.  0.
         24    2    5    5    0    0  0.26137959051E+01  0.55044233286E+02 -0.22320348185E+02  0.97974874539E+02  0.77872835769E+02 0.  0.
          2    1    6    6  501    0  0.37473042630E+02  0.24447802208E+02 -0.25472561346E+02  0.51485680905E+02  0.00000000000E+00 0. -1.
         -1    1    6    6    0  501 -0.34859246725E+02  0.30596431078E+02  0.31522131605E+01  0.46489193634E+02  0.00000000000E+00 0.  1.
          5    1    5    5  502    0 -0.90742063253E+01 -0.53760510650E+02  0.58562585235E+02  0.80151108009E+02  0.47000000000E+01 0. -1.
         13    1    4    4    0    0  0.13998545725E+02  0.29771982710E+02 -0.60811974519E+02  0.69140628301E+02  0.00000000000E+00 0. -1.
        -14    1    4    4    0    0  0.50253144271E+02 -0.19744104823E+02 -0.21544337893E+03  0.22210596054E+03  0.00000000000E+00 0.  1.
         -5    1    3    3    0  504 -0.57791279577E+02 -0.11311600523E+02 -0.55272581104E+03  0.55587381346E+03  0.47000000000E+01 0.  1.
<mgrwt>
<rscale>  2 0.17439130E+03</rscale>
<asrwt>0</asrwt>
<pdfrwt beam="1">  1       21 0.17885190E-01 0.17440002E+03</pdfrwt>
<pdfrwt beam="2">  1       21 0.13984502E+00 0.17440002E+03</pdfrwt>
<totfact> 0.10337132E+04</totfact>
</mgrwt>
</event>
<event>
12    1  0.1410528E-001  0.1843643E+03  0.7546771E-02  0.1163889E+00
         21   -1    0    0  502  503  0.00000000000E+00  0.00000000000E+00  0.12466811298E+03  0.12466811298E+03  0.00000000000E+00 0.  1.
         21   -1    0    0  503  504 -0.00000000000E+00 -0.00000000000E+00 -0.27520757368E+03  0.27520757368E+03  0.00000000000E+00 0.  1.
         -6    2    1    2    0  504 -0.53287439704E+02 -0.30769600599E+02 -0.50665475601E+02  0.19019732543E+03  0.17268964251E+03 0.  0.
        -24    2    3    3    0    0 -0.45634855950E+02 -0.55488793577E+02 -0.90194397393E+02  0.14271863339E+03  0.84095378625E+02 0.  0.
          6    2    1    2  502    0  0.53287439704E+02  0.30769600599E+02 -0.99873985097E+02  0.20967836123E+03  0.17379264287E+03 0.  0.
         24    2    5    5    0    0 -0.11687799757E+02  0.69942644275E+02 -0.62796739612E+02  0.12510223441E+03  0.81722459569E+02 0.  0.
          2    1    6    6  501    0  0.45610932312E+01  0.72781991743E+02 -0.14882149543E+02  0.74427819185E+02  0.00000000000E+00 0. -1.
         -1    1    6    6    0  501 -0.16248892988E+02 -0.28393474678E+01 -0.47914590069E+02  0.50674415229E+02  0.00000000000E+00 0.  1.
          5    1    5    5  502    0  0.64975239461E+02 -0.39173043676E+02 -0.37077245485E+02  0.84576126813E+02  0.47000000000E+01 0. -1.
         13    1    4    4    0    0 -0.83239043421E+01 -0.58221511266E+02 -0.18167583991E+02  0.61555607914E+02  0.00000000000E+00 0. -1.
        -14    1    4    4    0    0 -0.37310951608E+02  0.27327176894E+01 -0.72026813402E+02  0.81163025478E+02  0.00000000000E+00 0.  1.
         -5    1    3    3    0  504 -0.76525837542E+01  0.24719192978E+02  0.39528921792E+02  0.47478692038E+02  0.47000000000E+01 0.  1.
<mgrwt>
<rscale>  2 0.18410392E+03</rscale>
<asrwt>0</asrwt>
<pdfrwt beam="1">  1       21 0.19179710E-01 0.18436432E+03</pdfrwt>
<pdfrwt beam="2">  1       21 0.42339626E-01 0.18436432E+03</pdfrwt>
<totfact> 0.13433380E+05</totfact>
</mgrwt>
</event>
<event>
12    1  0.1410528E-001  0.1931985E+03  0.7546771E-02  0.1155683E+00
         21   -1    0    0  502  503  0.00000000000E+00  0.00000000000E+00  0.29886677697E+02  0.29886677697E+02  0.00000000000E+00 0.  1.
         21   -1    0    0  503  504 -0.00000000000E+00 -0.00000000000E+00 -0.12678190792E+04  0.12678190792E+04  0.00000000000E+00 0.  1.
         -6    2    1    2    0  504  0.75221381747E+02 -0.38787978727E+02 -0.70324092554E+03  0.72929654644E+03  0.17367466633E+03 0.  0.
        -24    2    3    3    0    0  0.71956525388E+02 -0.67319166281E+02 -0.32818225633E+03  0.35311071031E+03  0.85287564585E+02 0.  0.
          6    2    1    2  502    0 -0.75221381747E+02  0.38787978727E+02 -0.53469147597E+03  0.56840921047E+03  0.17329539089E+03 0.  0.
         24    2    5    5    0    0  0.23224742382E+02 -0.28322850353E+01 -0.22615362033E+03  0.24184898007E+03  0.82450340676E+02 0.  0.
          2    1    6    6  501    0  0.35673528596E+02 -0.19141505577E+02 -0.21443013971E+03  0.21821842886E+03  0.00000000000E+00 0. -1.
         -1    1    6    6    0  501 -0.12448786213E+02  0.16309220541E+02 -0.11723480619E+02  0.23630551214E+02  0.00000000000E+00 0.  1.
          5    1    5    5  502    0 -0.98446124130E+02  0.41620263763E+02 -0.30853785564E+03  0.32656023040E+03  0.47000000000E+01 0. -1.
         11    1    4    4    0    0 -0.18829948262E+02 -0.20321831553E+02 -0.81681789247E+02  0.86252295528E+02  0.00000000000E+00 0. -1.
        -12    1    4    4    0    0  0.90786473649E+02 -0.46997334728E+02 -0.24650046708E+03  0.26685841478E+03  0.00000000000E+00 0.  1.
         -5    1    3    3    0  504  0.32648563597E+01  0.28531187554E+02 -0.37505866921E+03  0.37618583613E+03  0.47000000000E+01 0.  1.
<mgrwt>
<rscale>  2 0.19311321E+03</rscale>
<asrwt>0</asrwt>
<pdfrwt beam="1">  1       21 0.45979500E-02 0.19319848E+03</pdfrwt>
<pdfrwt beam="2">  1       21 0.19504910E+00 0.19319848E+03</pdfrwt>
<totfact> 0.44787928E+04</totfact>
</mgrwt>
</event>
<event>
12    1  0.1410528E-001  0.1743823E+03  0.7546771E-02  0.1173711E+00
         21   -1    0    0  502  503  0.00000000000E+00  0.00000000000E+00  0.59227190663E+03  0.59227190663E+03  0.00000000000E+00 0.  1.
         21   -1    0    0  503  504 -0.00000000000E+00 -0.00000000000E+00 -0.51955140561E+02  0.51955140561E+02  0.00000000000E+00 0.  1.
         -6    2    1    2    0  504  0.31456021752E+01 -0.10612960931E+02  0.22595845057E+03  0.28542322208E+03  0.17403064260E+03 0.  0.
        -24    2    3    3    0    0 -0.24701615558E+02  0.33654026619E+02  0.53675499494E+02  0.10531620124E+03  0.80421885577E+02 0.  0.
          6    2    1    2  502    0 -0.31456021752E+01  0.10612960931E+02  0.31435831550E+03  0.35880382511E+03  0.17261664068E+03 0.  0.
         24    2    5    5    0    0 -0.48057964167E+02  0.94839884439E+00  0.29341030151E+03  0.30809452311E+03  0.80759908094E+02 0.  0.
          4    1    6    6  501    0  0.13605836018E+02 -0.20724179406E+02  0.12521607861E+03  0.12764668711E+03  0.00000000000E+00 0. -1.
         -3    1    6    6    0  501 -0.61663800185E+02  0.21672578250E+02  0.16819422290E+03  0.18044783600E+03  0.00000000000E+00 0.  1.
          5    1    5    5  502    0  0.44912361992E+02  0.96645620864E+01  0.20948013991E+02  0.50709302008E+02  0.47000000000E+01 0. -1.
         13    1    4    4    0    0  0.16745987651E+02  0.13313116024E+02 -0.12385829753E+02  0.24719950230E+02  0.00000000000E+00 0. -1.
        -14    1    4    4    0    0 -0.41447603210E+02  0.20340910595E+02  0.66061329247E+02  0.80596251014E+02  0.00000000000E+00 0.  1.
         -5    1    3    3    0  504  0.27847217734E+02 -0.44266987550E+02  0.17228295107E+03  0.18010702083E+03  0.47000000000E+01 0.  1.
<mgrwt>
<rscale>  2 0.17402846E+03</rscale>
<asrwt>0</asrwt>
<pdfrwt beam="1">  1       21 0.91118750E-01 0.17438232E+03</pdfrwt>
<pdfrwt beam="2">  1       21 0.79930990E-02 0.17438232E+03</pdfrwt>
<totfact> 0.12355380E+05</totfact>
</mgrwt>
</event>
<event>
12    1  0.1410528E-001  0.1765211E+03  0.7546771E-02  0.1171437E+00
         21   -1    0    0  502  503  0.00000000000E+00  0.00000000000E+00  0.30242953008E+03  0.30242953008E+03  0.00000000000E+00 0. -1.
         21   -1    0    0  503  504 -0.00000000000E+00 -0.00000000000E+00 -0.10513240589E+03  0.10513240589E+03  0.00000000000E+00 0. -1.
         -6    2    1    2    0  504 -0.30673571819E+02  0.52425410247E+01  0.66687675777E+02  0.18869799877E+03  0.17375654346E+03 0.  0.
        -24    2    3    3    0    0  0.32656717739E+02  0.25507534309E+02 -0.42345382538E+01  0.91366369934E+02  0.81319042792E+02 0.  0.
          6    2    1    2  502    0  0.30673571819E+02 -0.52425410247E+01  0.13060944842E+03  0.21886393720E+03  0.17284166958E+03 0.  0.
         24    2    5    5    0    0  0.24815664598E+02 -0.34413787969E+02  0.59496958506E+01  0.90616439618E+02  0.79848695897E+02 0.  0.
          2    1    6    6  501    0 -0.25332954253E+02 -0.24704964442E+02 -0.10573091593E+02  0.36930801577E+02  0.00000000000E+00 0. -1.
         -1    1    6    6    0  501  0.50148618851E+02 -0.97088235266E+01  0.16522787443E+02  0.53685638041E+02  0.00000000000E+00 0.  1.
          5    1    5    5  502    0  0.58579072211E+01  0.29171246944E+02  0.12465975257E+03  0.12824749758E+03  0.47000000000E+01 0. -1.
         13    1    4    4    0    0  0.95615275052E+01 -0.27797002407E+02 -0.13830268046E+02  0.32486496660E+02  0.00000000000E+00 0. -1.
        -14    1    4    4    0    0  0.23095190234E+02  0.53304536716E+02  0.95957297925E+01  0.58879873273E+02  0.00000000000E+00 0.  1.
         -5    1    3    3    0  504 -0.63330289559E+02 -0.20264993284E+02  0.70922214031E+02  0.97331628834E+02  0.47000000000E+01 0.  1.
<mgrwt>
<rscale>  2 0.17629552E+03</rscale>
<asrwt>0</asrwt>
<pdfrwt beam="1">  1       21 0.46527620E-01 0.17652107E+03</pdfrwt>
<pdfrwt beam="2">  1       21 0.16174216E-01 0.17652107E+03</pdfrwt>
<totfact> 0.15201975E+05</totfact>
</mgrwt>
</event>
<event>
12    1  0.1410528E-001  0.2056531E+03  0.7546771E-02  0.1145570E+00
         21   -1    0    0  502  503  0.00000000000E+00  0.00000000000E+00  0.73114766858E+02  0.73114766858E+02  0.00000000000E+00 0.  1.
         21   -1    0    0  503  504 -0.00000000000E+00 -0.00000000000E+00 -0.77584277614E+03  0.77584277614E+03  0.00000000000E+00 0.  1.
         -6    2    1    2    0  504  0.10438724845E+03 -0.41276376726E+01 -0.57085169338E+03  0.60676588307E+03  0.17714244547E+03 0.  0.
        -24    2    3    3    0    0  0.17765901993E+02 -0.54753560795E+02 -0.35632745985E+03  0.36989254450E+03  0.80855773679E+02 0.  0.
          6    2    1    2  502    0 -0.10438724845E+03  0.41276376726E+01 -0.13187631590E+03  0.24219165993E+03  0.17421739986E+03 0.  0.
         24    2    5    5    0    0 -0.70246415277E+02 -0.46254126921E+02 -0.13756865058E+03  0.18088577630E+03  0.81978822452E+02 0.  0.
          2    1    6    6  501    0 -0.15557666982E+02 -0.31567660912E+02 -0.11442083137E+03  0.11971083856E+03  0.00000000000E+00 0. -1.
         -1    1    6    6    0  501 -0.54688748295E+02 -0.14686466009E+02 -0.23147819209E+02  0.61174937745E+02  0.00000000000E+00 0.  1.
          5    1    5    5  502    0 -0.34140833169E+02  0.50381764594E+02  0.56923346781E+01  0.61305883626E+02  0.47000000000E+01 0. -1.
         13    1    4    4    0    0  0.29218610087E+02 -0.66353229129E+02 -0.33651292050E+03  0.34423454773E+03  0.00000000000E+00 0. -1.
        -14    1    4    4    0    0 -0.11452708095E+02  0.11599668334E+02 -0.19814539355E+02  0.25657996766E+02  0.00000000000E+00 0.  1.
         -5    1    3    3    0  504  0.86621346454E+02  0.50625923123E+02 -0.21452423353E+03  0.23687333857E+03  0.47000000000E+01 0.  1.
<mgrwt>
<rscale>  2 0.20502163E+03</rscale>
<asrwt>0</asrwt>
<pdfrwt beam="1">  1       21 0.11248426E-01 0.20565306E+03</pdfrwt>
<pdfrwt beam="2">  1       21 0.11936043E+00 0.20565306E+03</pdfrwt>
<totfact> 0.34985883E+04</totfact>
</mgrwt>
</event>
<event>
12    1  0.1410528E-001  0.1974223E+03  0.7546771E-02  0.1152272E+00
         21   -1    0    0  502  503  0.00000000000E+00  0.00000000000E+00  0.10391230787E+03  0.10391230787E+03  0.00000000000E+00 0.  1.
         21   -1    0    0  503  504 -0.00000000000E+00 -0.00000000000E+00 -0.41091253989E+03  0.41091253989E+03  0.00000000000E+00 0. -1.
         -6    2    1    2    0  504 -0.93932491492E+02 -0.10477129939E+02 -0.23317527952E+03  0.30552624574E+03  0.17332770305E+03 0.  0.
        -24    2    3    3    0    0 -0.12064227446E+02  0.47354905996E+02 -0.13931317968E+03  0.16812485992E+03  0.80434904016E+02 0.  0.
          6    2    1    2  502    0  0.93932491492E+02  0.10477129939E+02 -0.73824952500E+02  0.20929860203E+03  0.17153045791E+03 0.  0.
         24    2    5    5    0    0  0.41171463013E+02  0.70446614685E+02 -0.29815022865E+02  0.11798031726E+03  0.79828596283E+02 0.  0.
          4    1    6    6  501    0 -0.98043027139E+01  0.50982776102E+02 -0.35835832871E+02  0.63083870588E+02  0.00000000000E+00 0. -1.
         -3    1    6    6    0  501  0.50975765727E+02  0.19463838584E+02  0.60208100064E+01  0.54896446670E+02  0.00000000000E+00 0.  1.
          5    1    5    5  502    0  0.52761028479E+02 -0.59969484746E+02 -0.44009929635E+02  0.91318284770E+02  0.47000000000E+01 0. -1.
         11    1    4    4    0    0  0.31221726551E+02  0.38701076136E+02 -0.79870688700E+02  0.94084517410E+02  0.00000000000E+00 0. -1.
        -12    1    4    4    0    0 -0.43285953997E+02  0.86538298603E+01 -0.59442490979E+02  0.74040342507E+02  0.00000000000E+00 0.  1.
         -5    1    3    3    0  504 -0.81868264046E+02 -0.57832035935E+02 -0.93862099843E+02  0.13740138582E+03  0.47000000000E+01 0.  1.
<mgrwt>
<rscale>  2 0.19702714E+03</rscale>
<asrwt>0</asrwt>
<pdfrwt beam="1">  1       21 0.15986509E-01 0.19742233E+03</pdfrwt>
<pdfrwt beam="2">  1       21 0.63217314E-01 0.19742233E+03</pdfrwt>
<totfact> 0.80683290E+04</totfact>
</mgrwt>
</event>
<event>
12    1  0.1410528E-001  0.2898111E+03  0.7546771E-02  0.1090550E+00
         21   -1    0    0  502  503  0.00000000000E+00  0.00000000000E+00  0.14333097827E+03  0.14333097827E+03  0.00000000000E+00 0. -1.
         21   -1    0    0  503  504 -0.00000000000E+00 -0.00000000000E+00 -0.71361994523E+03  0.71361994523E+03  0.00000000000E+00 0.  1.
         -6    2    1    2    0  504 -0.23169927136E+03 -0.56941102853E+01 -0.46778646314E+03  0.55028595842E+03  0.17399277481E+03 0.  0.
        -24    2    3    3    0    0 -0.19322267137E+03  0.56000381014E+02 -0.33874201316E+03  0.40209277680E+03  0.80382873024E+02 0.  0.
          6    2    1    2  502    0  0.23169927136E+03  0.56941102853E+01 -0.10250250382E+03  0.30666496508E+03  0.17268370587E+03 0.  0.
         24    2    5    5    0    0  0.19459281832E+03  0.48948904809E+02 -0.11949302803E+03  0.24701067756E+03  0.80457012458E+02 0.  0.
          2    1    6    6  501    0  0.66407736368E+02  0.12012149010E+02 -0.86279752220E+02  0.10953754980E+03  0.00000000000E+00 0. -1.
         -1    1    6    6    0  501  0.12818508195E+03  0.36936755800E+02 -0.33213275815E+02  0.13747312775E+03  0.00000000000E+00 0.  1.
          5    1    5    5  502    0  0.37106453044E+02 -0.43254794524E+02  0.16990524214E+02  0.59654287523E+02  0.47000000000E+01 0. -1.
         11    1    4    4    0    0 -0.41015586495E+02  0.23879694149E+02 -0.29370956274E+02  0.55813718750E+02  0.00000000000E+00 0. -1.
        -12    1    4    4    0    0 -0.15220708488E+03  0.32120686865E+02 -0.30937105688E+03  0.34627905805E+03  0.00000000000E+00 0.  1.
         -5    1    3    3    0  504 -0.38476599992E+02 -0.61694491300E+02 -0.12904444999E+03  0.14819318161E+03  0.47000000000E+01 0.  1.
<mgrwt>
<rscale>  2 0.28961487E+03</rscale>
<asrwt>0</asrwt>
<pdfrwt beam="1">  1       21 0.22050920E-01 0.28981108E+03</pdfrwt>
<pdfrwt beam="2">  1       21 0.10978768E+00 0.28981108E+03</pdfrwt>
<totfact> 0.11923585E+04</totfact>
</mgrwt>
</event>
<event>
12    1  0.1410528E-001  0.1969718E+03  0.7546771E-02  0.1152412E+00
         21   -1    0    0  502  503  0.00000000000E+00  0.00000000000E+00  0.74151636407E+02  0.74151636407E+02  0.00000000000E+00 0. -1.
         21   -1    0    0  503  504 -0.00000000000E+00 -0.00000000000E+00 -0.59971186758E+03  0.59971186758E+03  0.00000000000E+00 0.  1.
         -6    2    1    2    0  504 -0.60266895505E+02  0.74065439294E+02 -0.38424887366E+03  0.43179286913E+03  0.17227912505E+03 0.  0.
        -24    2    3    3    0    0 -0.46236040475E+02  0.19999687900E+02 -0.85736329941E+02  0.12806305642E+03  0.80694914302E+02 0.  0.
          6    2    1    2  502    0  0.60266895505E+02 -0.74065439294E+02 -0.14131135751E+03  0.24207063486E+03  0.17178912802E+03 0.  0.
         24    2    5    5    0    0 -0.20259416681E+02 -0.72859526493E+02 -0.52740780992E+02  0.12226755391E+03  0.80304484273E+02 0.  0.
          2    1    6    6  501    0 -0.17695003299E+02 -0.70971317510E+02 -0.38204529525E+01  0.73243681718E+02  0.00000000000E+00 0. -1.
         -1    1    6    6    0  501 -0.25644133814E+01 -0.18882089831E+01 -0.48920328040E+02  0.49023872192E+02  0.00000000000E+00 0.  1.
          5    1    5    5  502    0  0.80526312185E+02 -0.12059128015E+01 -0.88570576518E+02  0.11980308095E+03  0.47000000000E+01 0. -1.
         11    1    4    4    0    0 -0.60357159933E+02 -0.96316843951E+01 -0.45847799496E+02  0.76405345481E+02  0.00000000000E+00 0. -1.
        -12    1    4    4    0    0  0.14121119458E+02  0.29631372295E+02 -0.39888530446E+02  0.51657710944E+02  0.00000000000E+00 0.  1.
         -5    1    3    3    0  504 -0.14030855029E+02  0.54065751394E+02 -0.29851254372E+03  0.30372981270E+03  0.47000000000E+01 0.  1.
<mgrwt>
<rscale>  2 0.19686459E+03</rscale>
<asrwt>0</asrwt>
<pdfrwt beam="1">  1       21 0.11407944E-01 0.19697179E+03</pdfrwt>
<pdfrwt beam="2">  1       21 0.92263365E-01 0.19697179E+03</pdfrwt>
<totfact> 0.63570226E+04</totfact>
</mgrwt>
</event>
<event>
12    1  0.1410528E-001  0.1958122E+03  0.7546771E-02  0.1154476E+00
         21   -1    0    0  502  503  0.00000000000E+00  0.00000000000E+00  0.42938255226E+03  0.42938255226E+03  0.00000000000E+00 0. -1.
         21   -1    0    0  503  504 -0.00000000000E+00 -0.00000000000E+00 -0.93094693089E+02  0.93094693089E+02  0.00000000000E+00 0. -1.
         -6    2    1    2    0  504 -0.50024698915E+02  0.64085191890E+02  0.23756156192E+03  0.30786018693E+03  0.17813763407E+03 0.  0.
        -24    2    3    3    0    0 -0.76128789818E+02 -0.15038483986E+02  0.11936591952E+03  0.16317335433E+03  0.79721842554E+02 0.  0.
          6    2    1    2  502    0  0.50024698915E+02 -0.64085191890E+02  0.98726297251E+02  0.21461705842E+03  0.17234911567E+03 0.  0.
         24    2    5    5    0    0  0.76337285863E+02 -0.45032592857E+02  0.12382136371E+03  0.17329870750E+03  0.82736910014E+02 0.  0.
          2    1    6    6  501    0  0.90566541159E+02 -0.51042156178E+02  0.11670034120E+03  0.15629001798E+03  0.00000000000E+00 0. -1.
         -1    1    6    6    0  501 -0.14229255296E+02  0.60095633212E+01  0.71210225081E+01  0.17008689519E+02  0.00000000000E+00 0.  1.
          5    1    5    5  502    0 -0.26312586948E+02 -0.19052599033E+02 -0.25095066458E+02  0.41318350915E+02  0.47000000000E+01 0. -1.
         11    1    4    4    0    0 -0.17829632774E+02  0.13818762401E+02 -0.47420489575E+01  0.23050835722E+02  0.00000000000E+00 0. -1.
        -12    1    4    4    0    0 -0.58299157044E+02 -0.28857246387E+02  0.12410796848E+03  0.14012251861E+03  0.00000000000E+00 0.  1.
         -5    1    3    3    0  504  0.26104090903E+02  0.79123675876E+02  0.11819564240E+03  0.14468683260E+03  0.47000000000E+01 0.  1.
<mgrwt>
<rscale>  2 0.19448602E+03</rscale>
<asrwt>0</asrwt>
<pdfrwt beam="1">  1       21 0.66058853E-01 0.19581215E+03</pdfrwt>
<pdfrwt beam="2">  1       21 0.14322261E-01 0.19581215E+03</pdfrwt>
<totfact> 0.89658050E+04</totfact>
</mgrwt>
</event>
<event>
12    1  0.1410528E-001  0.2348838E+03  0.7546771E-02  0.1123386E+00
         21   -1    0    0  502  503  0.00000000000E+00  0.00000000000E+00  0.97086907232E+03  0.97086907232E+03  0.00000000000E+00 0. -1.
         21   -1    0    0  503  504 -0.00000000000E+00 -0.00000000000E+00 -0.59113952017E+02  0.59113952017E+02  0.00000000000E+00 0.  1.
         -6    2    1    2    0  504  0.13586011527E+03  0.79453422125E+02  0.35112023565E+03  0.42244028716E+03  0.17435469344E+03 0.  0.
        -24    2    3    3    0    0  0.37764271747E+02  0.99099372728E+02  0.23516195759E+03  0.26921767087E+03  0.77007675693E+02 0.  0.
          6    2    1    2  502    0 -0.13586011527E+03 -0.79453422125E+02  0.56063488465E+03  0.60754273717E+03  0.17327979223E+03 0.  0.
         24    2    5    5    0    0 -0.12319280962E+03 -0.11878894068E+03  0.41861429343E+03  0.45955732579E+03  0.81656158690E+02 0.  0.
          4    1    6    6  501    0 -0.11247796694E+03 -0.12114664746E+03  0.41686643240E+03  0.44844779596E+03  0.00000000000E+00 0. -1.
         -3    1    6    6    0  501 -0.10714842677E+02  0.23577067850E+01  0.17478610331E+01  0.11109529831E+02  0.00000000000E+00 0.  1.
          5    1    5    5  502    0 -0.12667305652E+02  0.39335518551E+02  0.14202059122E+03  0.14798541139E+03  0.47000000000E+01 0. -1.
         11    1    4    4    0    0  0.19332452247E+02  0.30383771107E+02  0.16647783488E+03  0.17032846727E+03  0.00000000000E+00 0. -1.
        -12    1    4    4    0    0  0.18431819500E+02  0.68715601621E+02  0.68684122712E+02  0.98889203602E+02  0.00000000000E+00 0.  1.
         -5    1    3    3    0  504  0.98095843527E+02 -0.19645950604E+02  0.11595827806E+03  0.15322261629E+03  0.47000000000E+01 0.  1.
<mgrwt>
<rscale>  2 0.23468430E+03</rscale>
<asrwt>0</asrwt>
<pdfrwt beam="1">  1       21 0.14936446E+00 0.23488375E+03</pdfrwt>
<pdfrwt beam="2">  1       21 0.90944549E-02 0.23488375E+03</pdfrwt>
<totfact> 0.28269335E+04</totfact>
</mgrwt>
</event>
<event>
12    1  0.1410528E-001  0.2027048E+03  0.7546771E-02  0.1152020E+00
         21   -1    0    0  502  503  0.00000000000E+00  0.00000000000E+00  0.37586094125E+03  0.37586094125E+03  0.00000000000E+00 0. -1.
         21   -1    0    0  503  504 -0.00000000000E+00 -0.00000000000E+00 -0.15513161910E+03  0.15513161910E+03  0.00000000000E+00 0. -1.
         -6    2    1    2    0  504  0.10024844655E+01 -0.57611780825E+02  0.26694162889E+03  0.32308680189E+03  0.17264740384E+03 0.  0.
        -24    2    3    3    0    0 -0.44412664343E+02 -0.87468037103E+02  0.19686533970E+03  0.23427966204E+03  0.80671282403E+02 0.  0.
          6    2    1    2  502    0 -0.10024844655E+01  0.57611780825E+02 -0.46212306742E+02  0.20790575846E+03  0.19434275094E+03 0.  0.
         24    2    5    5    0    0  0.16159617442E+02  0.59312010408E+02  0.47892553556E+02  0.11211826839E+03  0.80608694359E+02 0.  0.
          4    1    6    6  501    0  0.19934198046E+02  0.61648121841E+02  0.77853846404E+00  0.64795596304E+02  0.00000000000E+00 0. -1.
         -3    1    6    6    0  501 -0.37745806035E+01 -0.23361114325E+01  0.47114015092E+02  0.47322672087E+02  0.00000000000E+00 0.  1.
          5    1    5    5  502    0 -0.17162101908E+02 -0.17002295829E+01 -0.94104860298E+02  0.95787490071E+02  0.47000000000E+01 0. -1.
         11    1    4    4    0    0 -0.25284811425E+02 -0.71516675202E+02  0.19508086333E+03  0.20930957875E+03  0.00000000000E+00 0. -1.
        -12    1    4    4    0    0 -0.19127852918E+02 -0.15951361900E+02  0.17844763713E+01  0.24970083293E+02  0.00000000000E+00 0.  1.
         -5    1    3    3    0  504  0.45415148808E+02  0.29856256277E+02  0.70076289190E+02  0.88807139841E+02  0.47000000000E+01 0.  1.
<mgrwt>
<rscale>  2 0.19732002E+03</rscale>
<asrwt>0</asrwt>
<pdfrwt beam="1">  1       21 0.57824760E-01 0.20270478E+03</pdfrwt>
<pdfrwt beam="2">  1       21 0.23866403E-01 0.20270478E+03</pdfrwt>
<totfact> 0.46169090E+04</totfact>
</mgrwt>
</event>
<event>
12    1  0.1410528E-001  0.1925435E+03  0.7546771E-02  0.1156553E+00
         21   -1    0    0  502  503  0.00000000000E+00  0.00000000000E+00  0.39007495476E+03  0.39007495476E+03  0.00000000000E+00 0. -1.
         21   -1    0    0  503  504 -0.00000000000E+00 -0.00000000000E+00 -0.94836089153E+02  0.94836089153E+02  0.00000000000E+00 0. -1.
         -6    2    1    2    0  504 -0.39725055444E+02 -0.73906747663E+02  0.12889885978E+03  0.23170655801E+03  0.17329952566E+03 0.  0.
        -24    2    3    3    0    0  0.29982870821E+02  0.64159012415E+01  0.37475705535E+02  0.91381200210E+02  0.77498122010E+02 0.  0.
          6    2    1    2  502    0  0.39725055444E+02  0.73906747663E+02  0.16634000583E+03  0.25320448590E+03  0.17147369116E+03 0.  0.
         24    2    5    5    0    0  0.79363683436E+02  0.82957207615E+02  0.91238439677E+02  0.16767398319E+03  0.81299564707E+02 0.  0.
          2    1    6    6  501    0 -0.13562672618E+01 -0.17954498230E+00  0.41584112226E+02  0.41606611096E+02  0.00000000000E+00 0. -1.
         -1    1    6    6    0  501  0.80719950698E+02  0.83136752597E+02  0.49654327452E+02  0.12606737210E+03  0.00000000000E+00 0.  1.
          5    1    5    5  502    0 -0.39638627992E+02 -0.90504599515E+01  0.75101566150E+02  0.85530502703E+02  0.47000000000E+01 0. -1.
         11    1    4    4    0    0  0.39760040761E+02  0.32286592944E+02  0.37909244446E+02  0.63721234606E+02  0.00000000000E+00 0. -1.
        -12    1    4    4    0    0 -0.97771699403E+01 -0.25870691703E+02 -0.43353891157E+00  0.27659965604E+02  0.00000000000E+00 0.  1.
         -5    1    3    3    0  504 -0.69707926265E+02 -0.80322648904E+02  0.91423154241E+02  0.14032535780E+03  0.47000000000E+01 0.  1.
<mgrwt>
<rscale>  2 0.19213179E+03</rscale>
<asrwt>0</asrwt>
<pdfrwt beam="1">  1       21 0.60011530E-01 0.19254354E+03</pdfrwt>
<pdfrwt beam="2">  1       21 0.14590168E-01 0.19254354E+03</pdfrwt>
<totfact> 0.10686805E+05</totfact>
</mgrwt>
</event>
<event>
12    1  0.1410528E-001  0.2953702E+03  0.7546771E-02  0.1087587E+00
         21   -1    0    0  502  503  0.00000000000E+00  0.00000000000E+00  0.13022231085E+04  0.13022231085E+04  0.00000000000E+00 0.  1.
         21   -1    0    0  503  504 -0.00000000000E+00 -0.00000000000E+00 -0.31664850329E+03  0.31664850329E+03  0.00000000000E+00 0. -1.
         -6    2    1    2    0  504 -0.20420415909E+03  0.12516476962E+03 -0.22596927193E+03  0.37184228413E+03  0.17273972984E+03 0.  0.
        -24    2    3    3    0    0 -0.12290642374E+03  0.14723950419E+03 -0.13791104808E+03  0.24988755291E+03  0.81479269282E+02 0.  0.
          6    2    1    2  502    0  0.20420415909E+03 -0.12516476962E+03  0.12115438771E+04  0.12470293276E+04  0.17285259510E+03 0.  0.
         24    2    5    5    0    0  0.15208968851E+02 -0.15956145611E+02  0.25029792076E+03  0.26130036685E+03  0.71714163624E+02 0.  0.
          2    1    6    6  501    0 -0.14046000780E+02 -0.36468468584E+02  0.14061776570E+03  0.14594723488E+03  0.00000000000E+00 0. -1.
         -1    1    6    6    0  501  0.29254969631E+02  0.20512322973E+02  0.10968015506E+03  0.11535313197E+03  0.00000000000E+00 0.  1.
          5    1    5    5  502    0  0.18899519024E+03 -0.10920862401E+03  0.96124595635E+03  0.98572896076E+03  0.47000000000E+01 0. -1.
         13    1    4    4    0    0  0.95302255507E+01  0.12269698658E+02  0.50991651191E+00  0.15544475516E+02  0.00000000000E+00 0. -1.
        -14    1    4    4    0    0 -0.13243664929E+03  0.13496980554E+03 -0.13842096460E+03  0.23434307739E+03  0.00000000000E+00 0.  1.
         -5    1    3    3    0  504 -0.81297735347E+02 -0.22074734578E+02 -0.88058223850E+02  0.12195473122E+03  0.47000000000E+01 0.  1.
<mgrwt>
<rscale>  2 0.29535373E+03</rscale>
<asrwt>0</asrwt>
<pdfrwt beam="1">  1       21 0.20034201E+00 0.29537024E+03</pdfrwt>
<pdfrwt beam="2">  1       21 0.48715155E-01 0.29537024E+03</pdfrwt>
<totfact> 0.48585478E+02</totfact>
</mgrwt>
</event>
<event>
12    1  0.1410528E-001  0.2227499E+03  0.7546771E-02  0.1131876E+00
         21   -1    0    0  502  503  0.00000000000E+00  0.00000000000E+00  0.69807535054E+03  0.69807535054E+03  0.00000000000E+00 0. -1.
         21   -1    0    0  503  504 -0.00000000000E+00 -0.00000000000E+00 -0.11162722177E+03  0.11162722177E+03  0.00000000000E+00 0.  1.
         -6    2    1    2    0  504 -0.80769851926E+02 -0.11792553419E+03  0.49017923608E+02  0.22793908690E+03  0.17065541277E+03 0.  0.
        -24    2    3    3    0    0 -0.45860197692E+02 -0.11881528700E+03  0.88133094574E+02  0.17529345823E+03  0.82098258082E+02 0.  0.
          6    2    1    2  502    0  0.80769851926E+02  0.11792553419E+03  0.53743020517E+03  0.58176348541E+03  0.17084298912E+03 0.  0.
         24    2    5    5    0    0  0.10760899808E+03  0.11400153038E+03  0.34725502174E+03  0.38960618535E+03  0.81430240979E+02 0.  0.
          4    1    6    6  501    0  0.75968527141E+02  0.50612328867E+02  0.26889502629E+03  0.28396718140E+03  0.00000000000E+00 0. -1.
         -3    1    6    6    0  501  0.31640470935E+02  0.63389201510E+02  0.78359995453E+02  0.10563900395E+03  0.00000000000E+00 0.  1.
          5    1    5    5  502    0 -0.26839146150E+02  0.39240038154E+01  0.19017518343E+03  0.19215730006E+03  0.47000000000E+01 0. -1.
         13    1    4    4    0    0 -0.41465503894E+02 -0.11878028436E+03  0.47585601208E+02  0.13450848824E+03  0.00000000000E+00 0. -1.
        -14    1    4    4    0    0 -0.43946937971E+01 -0.35002643337E-01  0.40547493367E+02  0.40784969990E+02  0.00000000000E+00 0.  1.
         -5    1    3    3    0  504 -0.34909654234E+02  0.88975280863E+00 -0.39115170967E+02  0.52645628675E+02  0.47000000000E+01 0.  1.
<mgrwt>
<rscale>  2 0.22271395E+03</rscale>
<asrwt>0</asrwt>
<pdfrwt beam="1">  1       21 0.10739621E+00 0.22274992E+03</pdfrwt>
<pdfrwt beam="2">  1       21 0.17173419E-01 0.22274992E+03</pdfrwt>
<totfact> 0.20809728E+04</totfact>
</mgrwt>
</event>
<event>
12    1  0.1410528E-001  0.1836533E+03  0.7546771E-02  0.1165071E+00
         21   -1    0    0  502  503  0.00000000000E+00  0.00000000000E+00  0.40649566011E+03  0.40649566011E+03  0.00000000000E+00 0. -1.
         21   -1    0    0  503  504 -0.00000000000E+00 -0.00000000000E+00 -0.92291163700E+02  0.92291163700E+02  0.00000000000E+00 0. -1.
         -6    2    1    2    0  504 -0.38946840575E+02  0.39347058012E+02  0.24099743141E+03  0.30108044408E+03  0.17176910227E+03 0.  0.
        -24    2    3    3    0    0 -0.57738781876E+02  0.80752753793E+02  0.20706879432E+03  0.24415232172E+03  0.82934289891E+02 0.  0.
          6    2    1    2  502    0  0.38946840575E+02 -0.39347058012E+02  0.73207065006E+02  0.19770637974E+03  0.17510993934E+03 0.  0.
         24    2    5    5    0    0 -0.31985056890E+02  0.21094990889E+02  0.32846342986E+02  0.96041964944E+02  0.81713733716E+02 0.  0.
          4    1    6    6  501    0 -0.39815721581E+01 -0.12565164792E+02  0.47946664225E+02  0.49725435075E+02  0.00000000000E+00 0. -1.
         -3    1    6    6    0  501 -0.28003484732E+02  0.33660155681E+02 -0.15100321239E+02  0.46316529869E+02  0.00000000000E+00 0.  1.
          5    1    5    5  502    0  0.70931897465E+02 -0.60442048901E+02  0.40360722020E+02  0.10166441479E+03  0.47000000000E+01 0. -1.
         13    1    4    4    0    0 -0.63226974406E+02  0.19201683039E+02  0.12533872566E+03  0.14169033515E+03  0.00000000000E+00 0. -1.
        -14    1    4    4    0    0  0.54881925296E+01  0.61551070754E+02  0.81730068662E+02  0.10246198657E+03  0.00000000000E+00 0.  1.
         -5    1    3    3    0  504  0.18791941302E+02 -0.41405695781E+02  0.33928637087E+02  0.56928122361E+02  0.47000000000E+01 0.  1.
<mgrwt>
<rscale>  2 0.18285243E+03</rscale>
<asrwt>0</asrwt>
<pdfrwt beam="1">  1       21 0.62537793E-01 0.18365331E+03</pdfrwt>
<pdfrwt beam="2">  1       21 0.14198641E-01 0.18365331E+03</pdfrwt>
<totfact> 0.10307125E+05</totfact>
</mgrwt>
</event>
<event>
12    1  0.1410528E-001  0.1846300E+03  0.7546771E-02  0.1165989E+00
         21   -1    0    0  502  503  0.00000000000E+00  0.00000000000E+00  0.26531314139E+03  0.26531314139E+03  0.00000000000E+00 0. -1.
         21   -1    0    0  503  504 -0.00000000000E+00 -0.00000000000E+00 -0.55862373345E+03  0.55862373345E+03  0.00000000000E+00 0. -1.
         -6    2    1    2    0  504  0.35782426420E+02 -0.55366713023E+02 -0.51024794299E+03  0.53906842570E+03  0.16092218401E+03 0.  0.
        -24    2    3    3    0    0  0.77437336447E+02 -0.66448204711E+02 -0.38610366321E+03  0.40757004856E+03  0.81396564752E+02 0.  0.
          6    2    1    2  502    0 -0.35782426420E+02  0.55366713023E+02  0.21693735093E+03  0.28486844915E+03  0.17245974643E+03 0.  0.
         24    2    5    5    0    0  0.82865018339E+01  0.11811667831E+02  0.20607622152E+03  0.22178781400E+03  0.80710865145E+02 0.  0.
          2    1    6    6  501    0  0.19921783678E+01  0.42494726566E+02  0.68057053989E+02  0.80259162456E+02  0.00000000000E+00 0. -1.
         -1    1    6    6    0  501  0.62943234661E+01 -0.30683058735E+02  0.13801916753E+03  0.14152865154E+03  0.00000000000E+00 0.  1.
          5    1    5    5  502    0 -0.44068928254E+02  0.43555045192E+02  0.10861129414E+02  0.63080635153E+02  0.47000000000E+01 0. -1.
         11    1    4    4    0    0  0.28482639454E+02 -0.81738611469E+00 -0.27015072677E+02  0.39265035618E+02  0.00000000000E+00 0. -1.
        -12    1    4    4    0    0  0.48954696994E+02 -0.65630818597E+02 -0.35908859054E+03  0.36830501295E+03  0.00000000000E+00 0.  1.
         -5    1    3    3    0  504 -0.41654910028E+02  0.11081491688E+02 -0.12414427978E+03  0.13149837713E+03  0.47000000000E+01 0.  1.
<mgrwt>
<rscale>  2 0.18188739E+03</rscale>
<asrwt>0</asrwt>
<pdfrwt beam="1">  1       21 0.40817407E-01 0.18462995E+03</pdfrwt>
<pdfrwt beam="2">  1       21 0.85942111E-01 0.18462995E+03</pdfrwt>
<totfact> 0.67962531E+03</totfact>
</mgrwt>
</event>
<event>
12    1  0.1410528E-001  0.2306471E+03  0.7546771E-02  0.1126278E+00
         21   -1    0    0  502  503  0.00000000000E+00  0.00000000000E+00  0.91844431453E+03  0.91844431453E+03  0.00000000000E+00 0. -1.
         21   -1    0    0  503  504 -0.00000000000E+00 -0.00000000000E+00 -0.80749700923E+02  0.80749700923E+02  0.00000000000E+00 0.  1.
         -6    2    1    2    0  504  0.13461764173E+03  0.72114804201E+02  0.15209789644E+03  0.27584006750E+03  0.17213807913E+03 0.  0.
        -24    2    3    3    0    0  0.14305392447E+03  0.35778004628E+02  0.63443264501E+02  0.17954226049E+03  0.80410724228E+02 0.  0.
          6    2    1    2  502    0 -0.13461764173E+03 -0.72114804201E+02  0.68559671717E+03  0.72335394796E+03  0.17284565653E+03 0.  0.
         24    2    5    5    0    0 -0.67700396617E+02 -0.61602657566E+02  0.20953899862E+03  0.24247822148E+03  0.80689930167E+02 0.  0.
          4    1    6    6  501    0 -0.56136860130E+02 -0.76621542701E+02  0.19966232379E+03  0.22110461644E+03  0.00000000000E+00 0. -1.
         -3    1    6    6    0  501 -0.11563536487E+02  0.15018885135E+02  0.98766748309E+01  0.21373605043E+02  0.00000000000E+00 0.  1.
          5    1    5    5  502    0 -0.66917245109E+02 -0.10512146635E+02  0.47605771855E+03  0.48087572648E+03  0.47000000000E+01 0. -1.
         13    1    4    4    0    0  0.10586211133E+03  0.11946799435E+02  0.79088003476E+02  0.13268166763E+03  0.00000000000E+00 0. -1.
        -14    1    4    4    0    0  0.37191813144E+02  0.23831205193E+02 -0.15644738975E+02  0.46860592863E+02  0.00000000000E+00 0.  1.
         -5    1    3    3    0  504 -0.84362827428E+01  0.36336799573E+02  0.88654631938E+02  0.96297807004E+02  0.47000000000E+01 0.  1.
<mgrwt>
<rscale>  2 0.23051452E+03</rscale>
<asrwt>0</asrwt>
<pdfrwt beam="1">  1       21 0.14129912E+00 0.23064708E+03</pdfrwt>
<pdfrwt beam="2">  1       21 0.12423032E-01 0.23064708E+03</pdfrwt>
<totfact> 0.18809174E+04</totfact>
</mgrwt>
</event>
<event>
12    1  0.1410528E-001  0.2076809E+03  0.7546771E-02  0.1143466E+00
         21   -1    0    0  502  503  0.00000000000E+00  0.00000000000E+00  0.78604086541E+02  0.78604086541E+02  0.00000000000E+00 0.  1.
         21   -1    0    0  503  504 -0.00000000000E+00 -0.00000000000E+00 -0.56505895320E+03  0.56505895320E+03  0.00000000000E+00 0.  1.
         -6    2    1    2    0  504  0.18779173129E+02 -0.11297622922E+03 -0.29919093806E+03  0.36420678419E+03  0.17324860322E+03 0.  0.
        -24    2    3    3    0    0  0.93617270170E+01 -0.14685176426E+03 -0.21257909234E+03  0.27061222246E+03  0.79925101458E+02 0.  0.
          6    2    1    2  502    0 -0.18779173129E+02  0.11297622922E+03 -0.18726392860E+03  0.27945625556E+03  0.17295009136E+03 0.  0.
         24    2    5    5    0    0  0.80980468707E+01  0.11205147128E+03 -0.20517180605E+03  0.24680626004E+03  0.78719434839E+02 0.  0.
          2    1    6    6  501    0  0.58243013927E+01  0.10835517530E+01 -0.77120676620E+02  0.77347885126E+02  0.00000000000E+00 0. -1.
         -1    1    6    6    0  501  0.22737454780E+01  0.11096791953E+03 -0.12805112943E+03  0.16945837492E+03  0.00000000000E+00 0.  1.
          5    1    5    5  502    0 -0.26877220000E+02  0.92475793958E+00  0.17907877448E+02  0.32649995511E+02  0.47000000000E+01 0. -1.
         13    1    4    4    0    0 -0.11556634316E+02 -0.23876442149E+01  0.10804391669E+01  0.11850062886E+02  0.00000000000E+00 0. -1.
        -14    1    4    4    0    0  0.20918361333E+02 -0.14446412005E+03 -0.21365953150E+03  0.25876215957E+03  0.00000000000E+00 0.  1.
         -5    1    3    3    0  504  0.94174461123E+01  0.33875535046E+02 -0.86611845726E+02  0.93594561733E+02  0.47000000000E+01 0.  1.
<mgrwt>
<rscale>  2 0.20761865E+03</rscale>
<asrwt>0</asrwt>
<pdfrwt beam="1">  1       21 0.12092936E-01 0.20768092E+03</pdfrwt>
<pdfrwt beam="2">  1       21 0.86932152E-01 0.20768092E+03</pdfrwt>
<totfact> 0.65404960E+04</totfact>
</mgrwt>
</event>
<event>
12    1  0.1410528E-001  0.1892164E+03  0.7546771E-02  0.1159733E+00
         21   -1    0    0  502  503  0.00000000000E+00  0.00000000000E+00  0.16831913118E+04  0.16831913118E+04  0.00000000000E+00 0. -1.
         21   -1    0    0  503  504 -0.00000000000E+00 -0.00000000000E+00 -0.37773115895E+02  0.37773115895E+02  0.00000000000E+00 0. -1.
         -6    2    1    2    0  504 -0.63335784034E+02 -0.39988622698E+02  0.25222082499E+03  0.31530650399E+03  0.17375941821E+03 0.  0.
        -24    2    3    3    0    0 -0.78366450088E+02 -0.42576643313E+02  0.84597188204E+02  0.14692481739E+03  0.80474509371E+02 0.  0.
          6    2    1    2  502    0  0.63335784034E+02  0.39988622698E+02  0.13931973709E+04  0.14056579237E+04  0.17106949659E+03 0.  0.
         24    2    5    5    0    0 -0.63258558791E+01  0.31887700741E+02  0.35130139708E+03  0.36139374290E+03  0.78332138408E+02 0.  0.
          4    1    6    6  501    0 -0.29620564618E+02 -0.52251173714E+01  0.63352754955E+02  0.70130244975E+02  0.00000000000E+00 0. -1.
         -3    1    6    6    0  501  0.23294708739E+02  0.37112818112E+02  0.28794864212E+03  0.29126349792E+03  0.00000000000E+00 0.  1.
          5    1    5    5  502    0  0.69661639913E+02  0.81009219569E+01  0.10418959739E+04  0.10442641808E+04  0.47000000000E+01 0. -1.
         13    1    4    4    0    0 -0.88648608802E+02 -0.24030596837E+02  0.85794941792E+02  0.12568539081E+03  0.00000000000E+00 0. -1.
        -14    1    4    4    0    0  0.10282158714E+02 -0.18546046476E+02 -0.11977535882E+01  0.21239426578E+02  0.00000000000E+00 0.  1.
         -5    1    3    3    0  504  0.15030666054E+02  0.25880206154E+01  0.16762363679E+03  0.16838168660E+03  0.47000000000E+01 0.  1.
<mgrwt>
<rscale>  2 0.18859658E+03</rscale>
<asrwt>0</asrwt>
<pdfrwt beam="1">  1       21 0.25895245E+00 0.18921640E+03</pdfrwt>
<pdfrwt beam="2">  1       21 0.58112499E-02 0.18921640E+03</pdfrwt>
<totfact> 0.12313419E+04</totfact>
</mgrwt>
</event>
<event>
12    1  0.1410528E-001  0.2730860E+03  0.7546771E-02  0.1099838E+00
         21   -1    0    0  502  503  0.00000000000E+00  0.00000000000E+00  0.13898008193E+03  0.13898008193E+03  0.00000000000E+00 0. -1.
         21   -1    0    0  503  504 -0.00000000000E+00 -0.00000000000E+00 -0.88208121349E+03  0.88208121349E+03  0.00000000000E+00 0. -1.
         -6    2    1    2    0  504 -0.16480817343E+03 -0.12774754152E+03 -0.69395446150E+03  0.74575383560E+03  0.17633723453E+03 0.  0.
        -24    2    3    3    0    0 -0.40334513144E+02 -0.10660145330E+03 -0.45214055933E+03  0.47292256460E+03  0.78955201980E+02 0.  0.
          6    2    1    2  502    0  0.16480817343E+03  0.12774754152E+03 -0.49146670061E+02  0.27530745982E+03  0.17290932265E+03 0.  0.
         24    2    5    5    0    0  0.52284433481E+02  0.37205587057E+02  0.33441968292E+02  0.10886704779E+03  0.81337267960E+02 0.  0.
          2    1    6    6  501    0  0.36624460530E+02 -0.19311952561E+02  0.27968137918E+02  0.49965181471E+02  0.00000000000E+00 0. -1.
         -1    1    6    6    0  501  0.15659972951E+02  0.56517539618E+02  0.54738303735E+01  0.58901866322E+02  0.00000000000E+00 0.  1.
          5    1    5    5  502    0  0.11252373995E+03  0.90541954458E+02 -0.82588638352E+02  0.16644041203E+03  0.47000000000E+01 0. -1.
         11    1    4    4    0    0 -0.12979715992E+02 -0.20249303718E+02 -0.25309520256E+03  0.25423549887E+03  0.00000000000E+00 0. -1.
        -12    1    4    4    0    0 -0.27354797152E+02 -0.86352149580E+02 -0.19904535678E+03  0.21868706573E+03  0.00000000000E+00 0.  1.
         -5    1    3    3    0  504 -0.12447366029E+03 -0.21146088218E+02 -0.24181390217E+03  0.27283127100E+03  0.47000000000E+01 0.  1.
<mgrwt>
<rscale>  2 0.27253417E+03</rscale>
<asrwt>0</asrwt>
<pdfrwt beam="1">  1       21 0.21381551E-01 0.27308605E+03</pdfrwt>
<pdfrwt beam="2">  1       21 0.13570480E+00 0.27308605E+03</pdfrwt>
<totfact> 0.74844477E+03</totfact>
</mgrwt>
</event>
<event>
12    1  0.1410528E-001  0.2245237E+03  0.7546771E-02  0.1131070E+00
         21   -1    0    0  502  503  0.00000000000E+00  0.00000000000E+00  0.53775442417E+03  0.53775442417E+03  0.00000000000E+00 0.  1.
         21   -1    0    0  503  504 -0.00000000000E+00 -0.00000000000E+00 -0.94929594511E+02  0.94929594511E+02  0.00000000000E+00 0.  1.
         -6    2    1    2    0  504 -0.11401024222E+03  0.82227789955E+02  0.17017309681E+03  0.27948455416E+03  0.17144383443E+03 0.  0.
        -24    2    3    3    0    0 -0.13073757239E+03  0.95602188817E+02  0.17994360479E+03  0.25547974327E+03  0.81597224064E+02 0.  0.
          6    2    1    2  502    0  0.11401024222E+03 -0.82227789955E+02  0.27265173285E+03  0.35319946452E+03  0.17507469704E+03 0.  0.
         24    2    5    5    0    0  0.40161037773E+02 -0.64707819700E+02  0.25147065939E+03  0.27426035997E+03  0.78620872735E+02 0.  0.
          2    1    6    6  501    0  0.33293857141E+01 -0.67980187930E+02  0.12301178738E+03  0.14058552769E+03  0.00000000000E+00 0. -1.
         -1    1    6    6    0  501  0.36831652058E+02  0.32723682297E+01  0.12845887201E+03  0.13367483229E+03  0.00000000000E+00 0.  1.
          5    1    5    5  502    0  0.73849204443E+02 -0.17519970255E+02  0.21181073451E+02  0.78939104550E+02  0.47000000000E+01 0. -1.
         11    1    4    4    0    0 -0.42543690649E+02  0.73866860945E+02  0.56690883552E+02  0.10237253068E+03  0.00000000000E+00 0. -1.
        -12    1    4    4    0    0 -0.88193881738E+02  0.21735327873E+02  0.12325272124E+03  0.15310721259E+03  0.00000000000E+00 0.  1.
         -5    1    3    3    0  504  0.16727330172E+02 -0.13374398862E+02 -0.97705079813E+01  0.24004810889E+02  0.47000000000E+01 0.  1.
<mgrwt>
<rscale>  2 0.22381547E+03</rscale>
<asrwt>0</asrwt>
<pdfrwt beam="1">  1       21 0.82731448E-01 0.22452371E+03</pdfrwt>
<pdfrwt beam="2">  1       21 0.14604553E-01 0.22452371E+03</pdfrwt>
<totfact> 0.51693108E+04</totfact>
</mgrwt>
</event>
<event>
12    1  0.1410528E-001  0.2802156E+03  0.7546771E-02  0.1095628E+00
         21   -1    0    0  502  503  0.00000000000E+00  0.00000000000E+00  0.40861781678E+03  0.40861781678E+03  0.00000000000E+00 0. -1.
         21   -1    0    0  503  504 -0.00000000000E+00 -0.00000000000E+00 -0.24109654400E+03  0.24109654400E+03  0.00000000000E+00 0. -1.
         -6    2    1    2    0  504  0.21863032251E+03  0.12663519293E+02  0.23058970986E+03  0.36289446442E+03  0.17481760602E+03 0.  0.
        -24    2    3    3    0    0  0.23662314473E+03 -0.58588960842E+01  0.22395055131E+03  0.33582067730E+03  0.81220924548E+02 0.  0.
          6    2    1    2  502    0 -0.21863032251E+03 -0.12663519293E+02 -0.63068437079E+02  0.28681989636E+03  0.17415063179E+03 0.  0.
         24    2    5    5    0    0 -0.26670846391E+02 -0.20963029670E+02 -0.14499596180E+02  0.88581795455E+02  0.80533927860E+02 0.  0.
          4    1    6    6  501    0 -0.35952386917E+02 -0.47154389235E+02 -0.13291716057E+02  0.60768250468E+02  0.00000000000E+00 0. -1.
         -3    1    6    6    0  501  0.92815405256E+01  0.26191359565E+02 -0.12078801228E+01  0.27813544988E+02  0.00000000000E+00 0.  1.
          5    1    5    5  502    0 -0.19195947612E+03  0.82995103779E+01 -0.48568840899E+02  0.19823810091E+03  0.47000000000E+01 0. -1.
         13    1    4    4    0    0  0.13654001274E+03  0.36686678377E+02  0.13149627985E+03  0.19308122401E+03  0.00000000000E+00 0. -1.
        -14    1    4    4    0    0  0.10008313199E+03 -0.42545574461E+02  0.92454271453E+02  0.14273945329E+03  0.00000000000E+00 0.  1.
         -5    1    3    3    0  504 -0.17992822223E+02  0.18522415377E+02  0.66391585547E+01  0.27073787125E+02  0.47000000000E+01 0.  1.
<mgrwt>
<rscale>  2 0.28011163E+03</rscale>
<asrwt>0</asrwt>
<pdfrwt beam="1">  1       21 0.62864280E-01 0.28021559E+03</pdfrwt>
<pdfrwt beam="2">  1       21 0.37091776E-01 0.28021559E+03</pdfrwt>
<totfact> 0.15669974E+04</totfact>
</mgrwt>
</event>
<event>
12    1  0.1410528E-001  0.2186703E+03  0.7546771E-02  0.1134941E+00
         21   -1    0    0  502  503  0.00000000000E+00  0.00000000000E+00  0.26516664606E+03  0.26516664606E+03  0.00000000000E+00 0.  1.
         21   -1    0    0  503  504 -0.00000000000E+00 -0.00000000000E+00 -0.18749921169E+03  0.18749921169E+03  0.00000000000E+00 0.  1.
         -6    2    1    2    0  504 -0.33564063432E+02 -0.12803305472E+03  0.83963427497E+02  0.23423615673E+03  0.17406237534E+03 0.  0.
        -24    2    3    3    0    0 -0.52393428962E+02 -0.63631728237E+01  0.52597781612E+02  0.10709844042E+03  0.76928459901E+02 0.  0.
          6    2    1    2  502    0  0.33564063432E+02  0.12803305472E+03 -0.62959931354E+01  0.21842970102E+03  0.17364586175E+03 0.  0.
         24    2    5    5    0    0 -0.44778208452E+00  0.10545473077E+03  0.56299330531E+02  0.14355079282E+03  0.79475246153E+02 0.  0.
          2    1    6    6  501    0 -0.22120360643E+02  0.10792142540E+03  0.45206820135E+02  0.11907980938E+03  0.00000000000E+00 0. -1.
         -1    1    6    6    0  501  0.21672578558E+02 -0.24666946289E+01  0.11092510397E+02  0.24470983443E+02  0.00000000000E+00 0.  1.
          5    1    5    5  502    0  0.34011845516E+02  0.22578323952E+02 -0.62595323666E+02  0.74878908197E+02  0.47000000000E+01 0. -1.
         11    1    4    4    0    0  0.19314214226E+02 -0.93757817761E+01  0.10617119109E+02  0.23951354309E+02  0.00000000000E+00 0. -1.
        -12    1    4    4    0    0 -0.71707643188E+02  0.30126089524E+01  0.41980662503E+02  0.83147086109E+02  0.00000000000E+00 0.  1.
         -5    1    3    3    0  504  0.18829365530E+02 -0.12166988190E+03  0.31365645885E+02  0.12713771631E+03  0.47000000000E+01 0.  1.
<mgrwt>
<rscale>  2 0.21858745E+03</rscale>
<asrwt>0</asrwt>
<pdfrwt beam="1">  1       21 0.40794869E-01 0.21867035E+03</pdfrwt>
<pdfrwt beam="2">  1       21 0.28846032E-01 0.21867035E+03</pdfrwt>
<totfact> 0.65810382E+04</totfact>
</mgrwt>
</event>
<event>
12    1  0.1410528E-001  0.2954554E+03  0.7546771E-02  0.1087746E+00
         21   -1    0    0  502  503  0.00000000000E+00  0.00000000000E+00  0.96011130852E+03  0.96011130852E+03  0.00000000000E+00 0.  1.
         21   -1    0    0  503  504 -0.00000000000E+00 -0.00000000000E+00 -0.10345123532E+03  0.10345123532E+03  0.00000000000E+00 0.  1.
         -6    2    1    2    0  504 -0.10016949959E+03  0.21424946094E+03  0.61606955867E+03  0.68254066975E+03  0.17430807375E+03 0.  0.
        -24    2    3    3    0    0 -0.75263364114E+01  0.32865077569E+02  0.14624870076E+03  0.17045007352E+03  0.80794715332E+02 0.  0.
          6    2    1    2  502    0  0.10016949959E+03 -0.21424946094E+03  0.24059051454E+03  0.38102187409E+03  0.17707939657E+03 0.  0.
         24    2    5    5    0    0  0.59579273616E+02 -0.22559123241E+03  0.22872969215E+03  0.33698812190E+03  0.82478047049E+02 0.  0.
          4    1    6    6  501    0 -0.22839437204E+00 -0.13548333704E+03  0.97409259810E+02  0.16686626584E+03  0.00000000000E+00 0. -1.
         -3    1    6    6    0  501  0.59807667988E+02 -0.90107895369E+02  0.13132043234E+03  0.17012185605E+03  0.00000000000E+00 0.  1.
          5    1    5    5  502    0  0.40590225978E+02  0.11341771467E+02  0.11860822391E+02  0.44033752199E+02  0.47000000000E+01 0. -1.
         11    1    4    4    0    0 -0.14952987528E+02  0.22670057204E+02  0.15351157833E+03  0.15589524691E+03  0.00000000000E+00 0. -1.
        -12    1    4    4    0    0  0.74266511170E+01  0.10195020365E+02 -0.72628775655E+01  0.14554826608E+02  0.00000000000E+00 0.  1.
         -5    1    3    3    0  504 -0.92643163183E+02  0.18138438337E+03  0.46982085791E+03  0.51209059622E+03  0.47000000000E+01 0.  1.
<mgrwt>
<rscale>  2 0.29504135E+03</rscale>
<asrwt>0</asrwt>
<pdfrwt beam="1">  1       21 0.14770943E+00 0.29545537E+03</pdfrwt>
<pdfrwt beam="2">  1       21 0.15915575E-01 0.29545537E+03</pdfrwt>
<totfact> 0.10283527E+04</totfact>
</mgrwt>
</event>
<event>
12    1  0.1410528E-001  0.2832009E+03  0.7546771E-02  0.1094155E+00
         21   -1    0    0  502  503  0.00000000000E+00  0.00000000000E+00  0.10500514872E+04  0.10500514872E+04  0.00000000000E+00 0. -1.
         21   -1    0    0  503  504 -0.00000000000E+00 -0.00000000000E+00 -0.76182726277E+02  0.76182726277E+02  0.00000000000E+00 0.  1.
         -6    2    1    2    0  504  0.54150804823E+02 -0.21774455196E+03  0.45649260211E+03  0.53641997868E+03  0.17034053591E+03 0.  0.
        -24    2    3    3    0    0  0.27792621020E+02 -0.21120805801E+03  0.29563590947E+03  0.37321935008E+03  0.80689644676E+02 0.  0.
          6    2    1    2  502    0 -0.54150804823E+02  0.21774455196E+03  0.51737615883E+03  0.58981423482E+03  0.17279393015E+03 0.  0.
         24    2    5    5    0    0 -0.19445742996E+02  0.21087026832E+03  0.50208291713E+03  0.55098550404E+03  0.81568149475E+02 0.  0.
          4    1    6    6  501    0  0.23900518302E+02  0.14560573558E+03  0.35221388073E+03  0.38187286207E+03  0.00000000000E+00 0. -1.
         -3    1    6    6    0  501 -0.43346261299E+02  0.65264532742E+02  0.14986903640E+03  0.16911264197E+03  0.00000000000E+00 0.  1.
          5    1    5    5  502    0 -0.34705061827E+02  0.68742836395E+01  0.15293241701E+02  0.38828730776E+02  0.47000000000E+01 0. -1.
         11    1    4    4    0    0  0.46617033576E+02 -0.79104390698E+02  0.14844265476E+03  0.17454476274E+03  0.00000000000E+00 0. -1.
        -12    1    4    4    0    0 -0.18824412556E+02 -0.13210366731E+03  0.14719325471E+03  0.19867458734E+03  0.00000000000E+00 0.  1.
         -5    1    3    3    0  504  0.26358183803E+02 -0.65364939533E+01  0.16085669264E+03  0.16320062860E+03  0.47000000000E+01 0.  1.
<mgrwt>
<rscale>  2 0.28282759E+03</rscale>
<asrwt>0</asrwt>
<pdfrwt beam="1">  1       21 0.16154637E+00 0.28320089E+03</pdfrwt>
<pdfrwt beam="2">  1       21 0.11720420E-01 0.28320089E+03</pdfrwt>
<totfact> 0.14192747E+04</totfact>
</mgrwt>
</event>
<event>
12    1  0.1410528E-001  0.3504709E+03  0.7546771E-02  0.1062631E+00
         21   -1    0    0  502  503  0.00000000000E+00  0.00000000000E+00  0.20671586348E+03  0.20671586348E+03  0.00000000000E+00 0. -1.
         21   -1    0    0  503  504 -0.00000000000E+00 -0.00000000000E+00 -0.59603803747E+03  0.59603803747E+03  0.00000000000E+00 0. -1.
         -6    2    1    2    0  504 -0.32324212169E+02 -0.30303001656E+03 -0.15739626730E+03  0.38419196354E+03  0.17308331593E+03 0.  0.
        -24    2    3    3    0    0 -0.38767535122E+02 -0.30027874103E+03 -0.18058692991E+03  0.35951438748E+03  0.70489087517E+02 0.  0.
          6    2    1    2  502    0  0.32324212169E+02  0.30303001656E+03 -0.23192590668E+03  0.41856193742E+03  0.16891543337E+03 0.  0.
         24    2    5    5    0    0  0.80187893270E+02  0.15944320464E+03 -0.14722143790E+03  0.24505389277E+03  0.80777625921E+02 0.  0.
          4    1    6    6  501    0  0.34658991175E+02  0.74275943189E+02 -0.11889966184E+03  0.14441361083E+03  0.00000000000E+00 0. -1.
         -3    1    6    6    0  501  0.45528902095E+02  0.85167261456E+02 -0.28321776052E+02  0.10064028194E+03  0.00000000000E+00 0.  1.
          5    1    5    5  502    0 -0.47863681100E+02  0.14358681192E+03 -0.84704468785E+02  0.17350804465E+03  0.47000000000E+01 0. -1.
         11    1    4    4    0    0  0.14776124004E+02 -0.14929619109E+03 -0.75762388274E+02  0.16807030074E+03  0.00000000000E+00 0. -1.
        -12    1    4    4    0    0 -0.53543659126E+02 -0.15098254994E+03 -0.10482454163E+03  0.19144408674E+03  0.00000000000E+00 0.  1.
         -5    1    3    3    0  504  0.64433229529E+01 -0.27512755329E+01  0.23190662606E+02  0.24677576053E+02  0.47000000000E+01 0.  1.
<mgrwt>
<rscale>  2 0.34995995E+03</rscale>
<asrwt>0</asrwt>
<pdfrwt beam="1">  1       21 0.31802441E-01 0.35047094E+03</pdfrwt>
<pdfrwt beam="2">  1       21 0.91698159E-01 0.35047094E+03</pdfrwt>
<totfact> 0.87916561E+03</totfact>
</mgrwt>
</event>
<event>
12    1  0.1410528E-001  0.2051836E+03  0.7546771E-02  0.1146526E+00
         21   -1    0    0  502  503  0.00000000000E+00  0.00000000000E+00  0.62124980578E+02  0.62124980578E+02  0.00000000000E+00 0. -1.
         21   -1    0    0  503  504 -0.00000000000E+00 -0.00000000000E+00 -0.10189584241E+04  0.10189584241E+04  0.00000000000E+00 0. -1.
         -6    2    1    2    0  504 -0.33683774365E+02 -0.10624883901E+03 -0.16181372950E+03  0.26131207457E+03  0.17226986044E+03 0.  0.
        -24    2    3    3    0    0  0.99413863089E+01 -0.18957233210E+02 -0.13592157266E+02  0.83788263315E+02  0.79859366873E+02 0.  0.
          6    2    1    2  502    0  0.33683774365E+02  0.10624883901E+03 -0.79501971400E+03  0.81977133009E+03  0.16596769427E+03 0.  0.
         24    2    5    5    0    0  0.10639234855E+02  0.13730840456E+03 -0.66196326829E+03  0.68112842490E+03  0.82302924397E+02 0.  0.
          4    1    6    6  501    0  0.31394137188E+02  0.13317220599E+03 -0.60705208628E+03  0.62228021322E+03  0.00000000000E+00 0. -1.
         -3    1    6    6    0  501 -0.20754902333E+02  0.41361985710E+01 -0.54911182002E+02  0.58848211684E+02  0.00000000000E+00 0.  1.
          5    1    5    5  502    0  0.23044539510E+02 -0.31059565554E+02 -0.13305644572E+03  0.13864290519E+03  0.47000000000E+01 0. -1.
         13    1    4    4    0    0 -0.66441601993E+01  0.18887043440E+02 -0.32638879461E+02  0.38290491341E+02  0.00000000000E+00 0. -1.
        -14    1    4    4    0    0  0.16585546508E+02 -0.37844276650E+02  0.19046722195E+02  0.45497771973E+02  0.00000000000E+00 0.  1.
         -5    1    3    3    0  504 -0.43625160674E+02 -0.87291605795E+02 -0.14822157223E+03  0.17752381125E+03  0.47000000000E+01 0.  1.
<mgrwt>
<rscale>  2 0.20385530E+03</rscale>
<asrwt>0</asrwt>
<pdfrwt beam="1">  1       21 0.95576903E-02 0.20518362E+03</pdfrwt>
<pdfrwt beam="2">  1       21 0.15676282E+00 0.20518362E+03</pdfrwt>
<totfact> 0.23176280E+04</totfact>
</mgrwt>
</event>
<event>
12    1  0.1410528E-001  0.1768291E+03  0.7546771E-02  0.1173231E+00
         21   -1    0    0  502  503  0.00000000000E+00  0.00000000000E+00  0.40739623917E+04  0.40739623917E+04  0.00000000000E+00 0. -1.
         21   -1    0    0  503  504 -0.00000000000E+00 -0.00000000000E+00 -0.90758360565E+01  0.90758360565E+01  0.00000000000E+00 0. -1.
         -6    2    1    2    0  504  0.12244438310E+02  0.18505835562E+02  0.10825364182E+04  0.10954504266E+04  0.16623521945E+03 0.  0.
        -24    2    3    3    0    0 -0.24180660519E+02  0.28736593967E+02  0.32884901639E+03  0.34079935101E+03  0.81191291969E+02 0.  0.
          6    2    1    2  502    0 -0.12244438310E+02 -0.18505835562E+02  0.29823501375E+04  0.29875878012E+04  0.17543128312E+03 0.  0.
         24    2    5    5    0    0  0.41921018925E+02  0.14573111000E+02  0.10187459222E+04  0.10229525379E+04  0.81356581974E+02 0.  0.
          2    1    6    6  501    0  0.56482924822E+02  0.21191259338E+02  0.96482468240E+03  0.96670887967E+03  0.00000000000E+00 0. -1.
         -1    1    6    6    0  501 -0.14561905897E+02 -0.66181483382E+01  0.53921239820E+02  0.56243658260E+02  0.00000000000E+00 0.  1.
          5    1    5    5  502    0 -0.54165457235E+02 -0.33078946562E+02  0.19636042153E+04  0.19646352633E+04  0.47000000000E+01 0. -1.
         13    1    4    4    0    0  0.85522352336E+01  0.47053740914E+02  0.23330286810E+03  0.23815420115E+03  0.00000000000E+00 0. -1.
        -14    1    4    4    0    0 -0.32732895753E+02 -0.18317146947E+02  0.95546148289E+02  0.10264514986E+03  0.00000000000E+00 0.  1.
         -5    1    3    3    0  504  0.36425098829E+02 -0.10230758405E+02  0.75368740178E+03  0.75465107556E+03  0.47000000000E+01 0.  1.
<mgrwt>
<rscale>  2 0.17450377E+03</rscale>
<asrwt>0</asrwt>
<pdfrwt beam="1">  1       21 0.62676198E+00 0.17682909E+03</pdfrwt>
<pdfrwt beam="2">  1       21 0.13962857E-02 0.17682909E+03</pdfrwt>
<totfact> 0.47219143E+02</totfact>
</mgrwt>
</event>
<event>
12    1  0.1410528E-001  0.1790440E+03  0.7546771E-02  0.1169329E+00
         21   -1    0    0  502  503  0.00000000000E+00  0.00000000000E+00  0.84709191202E+03  0.84709191202E+03  0.00000000000E+00 0.  1.
         21   -1    0    0  503  504 -0.00000000000E+00 -0.00000000000E+00 -0.44590073758E+02  0.44590073758E+02  0.00000000000E+00 0.  1.
         -6    2    1    2    0  504  0.10289289965E+02 -0.41250797007E+02  0.22365966070E+03  0.28649674343E+03  0.17392309343E+03 0.  0.
        -24    2    3    3    0    0  0.23629416722E+01  0.44825483785E+02  0.10482227469E+03  0.13947168629E+03  0.80310239169E+02 0.  0.
          6    2    1    2  502    0 -0.10289289965E+02  0.41250797007E+02  0.57884217755E+03  0.60518524234E+03  0.17141590736E+03 0.  0.
         24    2    5    5    0    0  0.21369650166E+02  0.83923267607E+02  0.45706976544E+03  0.47224225234E+03  0.81241600366E+02 0.  0.
          2    1    6    6  501    0 -0.13814953843E+02  0.39560124447E+02  0.33580807366E+03  0.33841235014E+03  0.00000000000E+00 0. -1.
         -1    1    6    6    0  501  0.35184604009E+02  0.44363143160E+02  0.12126169178E+03  0.13382990220E+03  0.00000000000E+00 0.  1.
          5    1    5    5  502    0 -0.31658940131E+02 -0.42672470600E+02  0.12177241212E+03  0.13294299000E+03  0.47000000000E+01 0. -1.
         11    1    4    4    0    0  0.33205499704E+02  0.96128105934E+00  0.18983776748E+02  0.38261116705E+02  0.00000000000E+00 0. -1.
        -12    1    4    4    0    0 -0.30842558032E+02  0.43864202725E+02  0.85838497943E+02  0.10121056959E+03  0.00000000000E+00 0.  1.
         -5    1    3    3    0  504  0.79263482930E+01 -0.86076280792E+02  0.11883738601E+03  0.14702505714E+03  0.47000000000E+01 0.  1.
<mgrwt>
<rscale>  2 0.17843221E+03</rscale>
<asrwt>0</asrwt>
<pdfrwt beam="1">  1       21 0.13032182E+00 0.17904396E+03</pdfrwt>
<pdfrwt beam="2">  1       21 0.68600120E-02 0.17904396E+03</pdfrwt>
<totfact> 0.67739655E+04</totfact>
</mgrwt>
</event>
<event>
12    1  0.1410528E-001  0.2005232E+03  0.7546771E-02  0.1150038E+00
         21   -1    0    0  502  503  0.00000000000E+00  0.00000000000E+00  0.21968818073E+03  0.21968818073E+03  0.00000000000E+00 0.  1.
         21   -1    0    0  503  504 -0.00000000000E+00 -0.00000000000E+00 -0.26121677518E+03  0.26121677518E+03  0.00000000000E+00 0.  1.
         -6    2    1    2    0  504  0.65922480809E+02 -0.76761444489E+02 -0.15482584785E+03  0.25058818036E+03  0.16907187862E+03 0.  0.
        -24    2    3    3    0    0  0.10681882754E+03 -0.66636759524E+02 -0.91927188131E+02  0.17473732792E+03  0.78941790048E+02 0.  0.
          6    2    1    2  502    0 -0.65922480809E+02  0.76761444489E+02  0.11329725341E+03  0.23031677555E+03  0.17312266355E+03 0.  0.
         24    2    5    5    0    0 -0.62924018314E+02  0.11881342120E+03  0.84389149981E+02  0.17898327804E+03  0.82688717770E+02 0.  0.
          4    1    6    6  501    0 -0.66498588801E+02  0.77866613350E+02  0.22746061070E+02  0.10489354166E+03  0.00000000000E+00 0. -1.
         -3    1    6    6    0  501  0.35745704866E+01  0.40946807852E+02  0.61643088912E+02  0.74089736388E+02  0.00000000000E+00 0.  1.
          5    1    5    5  502    0 -0.29984624947E+01 -0.42051976713E+02  0.28908103424E+02  0.51333497508E+02  0.47000000000E+01 0. -1.
         13    1    4    4    0    0  0.17589912920E+02 -0.55420539332E+01  0.14157856123E+02  0.23250038459E+02  0.00000000000E+00 0. -1.
        -14    1    4    4    0    0  0.89228914615E+02 -0.61094705591E+02 -0.10608504425E+03  0.15148728946E+03  0.00000000000E+00 0.  1.
         -5    1    3    3    0  504 -0.40896346726E+02 -0.10124684965E+02 -0.62898659724E+02  0.75850852442E+02  0.47000000000E+01 0.  1.
<mgrwt>
<rscale>  2 0.19964578E+03</rscale>
<asrwt>0</asrwt>
<pdfrwt beam="1">  1       21 0.33798182E-01 0.20052319E+03</pdfrwt>
<pdfrwt beam="2">  1       21 0.40187196E-01 0.20052319E+03</pdfrwt>
<totfact> 0.50128256E+04</totfact>
</mgrwt>
</event>
<event>
12    1  0.1410528E-001  0.2109228E+03  0.7546771E-02  0.1141179E+00
         21   -1    0    0  502  503  0.00000000000E+00  0.00000000000E+00  0.48953627825E+02  0.48953627825E+02  0.00000000000E+00 0.  1.
         21   -1    0    0  503  504 -0.00000000000E+00 -0.00000000000E+00 -0.98722396619E+03  0.98722396619E+03  0.00000000000E+00 0.  1.
         -6    2    1    2    0  504 -0.20322200129E+02 -0.11697429537E+03 -0.62369901120E+03  0.65839873251E+03  0.17433432481E+03 0.  0.
        -24    2    3    3    0    0  0.35502673375E+02 -0.11563742962E+02 -0.31831761659E+03  0.33051508358E+03  0.80746241252E+02 0.  0.
          6    2    1    2  502    0  0.20322200129E+02  0.11697429537E+03 -0.31457132717E+03  0.37777886151E+03  0.17223754158E+03 0.  0.
         24    2    5    5    0    0 -0.11758315759E+02  0.62721373046E+02 -0.29010180840E+03  0.31000433511E+03  0.88720910292E+02 0.  0.
          2    1    6    6  501    0 -0.19552902834E+00  0.22466988360E+02 -0.25316888030E+03  0.25416389545E+03  0.00000000000E+00 0. -1.
         -1    1    6    6    0  501 -0.11562786730E+02  0.40254384686E+02 -0.36932928102E+02  0.55840439662E+02  0.00000000000E+00 0.  1.
          5    1    5    5  502    0  0.32080515888E+02  0.54252922323E+02 -0.24469518773E+02  0.67774526403E+02  0.47000000000E+01 0. -1.
         13    1    4    4    0    0 -0.15870823201E+02 -0.15565128871E+01 -0.12530317674E+02  0.20280893039E+02  0.00000000000E+00 0. -1.
        -14    1    4    4    0    0  0.51373496576E+02 -0.10007230075E+02 -0.30578729892E+03  0.31023419055E+03  0.00000000000E+00 0.  1.
         -5    1    3    3    0  504 -0.55824873505E+02 -0.10541055241E+03 -0.30538139461E+03  0.32788364892E+03  0.47000000000E+01 0.  1.
<mgrwt>
<rscale>  2 0.21048905E+03</rscale>
<asrwt>0</asrwt>
<pdfrwt beam="1">  1       21 0.75313279E-02 0.21092282E+03</pdfrwt>
<pdfrwt beam="2">  1       21 0.15188060E+00 0.21092282E+03</pdfrwt>
<totfact> 0.38132242E+04</totfact>
</mgrwt>
</event>
<event>
12    1  0.1410528E-001  0.2533452E+03  0.7546771E-02  0.1111265E+00
         21   -1    0    0  502  503  0.00000000000E+00  0.00000000000E+00  0.50297423202E+03  0.50297423202E+03  0.00000000000E+00 0.  1.
         21   -1    0    0  503  504 -0.00000000000E+00 -0.00000000000E+00 -0.31990488770E+03  0.31990488770E+03  0.00000000000E+00 0.  1.
         -6    2    1    2    0  504  0.17442412657E+03  0.61932942509E+02 -0.22763549170E+03  0.34032110640E+03  0.17245600331E+03 0.  0.
        -24    2    3    3    0    0  0.30421830669E+02  0.61176465473E+02 -0.81715509496E+02  0.13525534941E+03  0.83357887101E+02 0.  0.
          6    2    1    2  502    0 -0.17442412657E+03 -0.61932942509E+02  0.41070483602E+03  0.48255801332E+03  0.17298644048E+03 0.  0.
         24    2    5    5    0    0 -0.15003926716E+03 -0.10457293314E+03  0.29509475850E+03  0.35685769433E+03  0.82578553341E+02 0.  0.
          2    1    6    6  501    0 -0.34373811759E+02 -0.49098116186E+02  0.15858153151E+03  0.16952960238E+03  0.00000000000E+00 0. -1.
         -1    1    6    6    0  501 -0.11566545540E+03 -0.55474816956E+02  0.13651322699E+03  0.18732809195E+03  0.00000000000E+00 0.  1.
          5    1    5    5  502    0 -0.24384859413E+02  0.42639990633E+02  0.11561007752E+03  0.12570031899E+03  0.47000000000E+01 0. -1.
         11    1    4    4    0    0 -0.10039652601E+02 -0.15055392909E+02 -0.28012109662E+01  0.18311369770E+02  0.00000000000E+00 0. -1.
        -12    1    4    4    0    0  0.40461483269E+02  0.76231858382E+02 -0.78914298530E+02  0.11694397964E+03  0.00000000000E+00 0.  1.
         -5    1    3    3    0  504  0.14400229590E+03  0.75647703597E+00 -0.14591998221E+03  0.20506575699E+03  0.47000000000E+01 0.  1.
<mgrwt>
<rscale>  2 0.25325465E+03</rscale>
<asrwt>0</asrwt>
<pdfrwt beam="1">  1       21 0.77380650E-01 0.25334517E+03</pdfrwt>
<pdfrwt beam="2">  1       21 0.49216137E-01 0.25334517E+03</pdfrwt>
<totfact> 0.55998368E+03</totfact>
</mgrwt>
</event>
<event>
12    1  0.1410528E-001  0.1998073E+03  0.7546771E-02  0.1149917E+00
         21   -1    0    0  502  503  0.00000000000E+00  0.00000000000E+00  0.57374883536E+02  0.57374883536E+02  0.00000000000E+00 0. -1.
         21   -1    0    0  503  504 -0.00000000000E+00 -0.00000000000E+00 -0.16916733605E+04  0.16916733605E+04  0.00000000000E+00 0. -1.
         -6    2    1    2    0  504 -0.32577671299E+02  0.93922997245E+02 -0.14882772561E+04  0.15016298319E+04  0.17332087886E+03 0.  0.
        -24    2    3    3    0    0 -0.81848945821E+02  0.69045151093E+02 -0.12501345638E+04  0.12571291211E+04  0.77914803359E+02 0.  0.
          6    2    1    2  502    0  0.32577671299E+02 -0.93922997245E+02 -0.14602122088E+03  0.24741841212E+03  0.17323636925E+03 0.  0.
         24    2    5    5    0    0 -0.11105934782E+02 -0.66641115351E+02 -0.15815369242E+03  0.19429736747E+03  0.90412922401E+02 0.  0.
          4    1    6    6  501    0  0.33285438562E+02 -0.41168972808E+02 -0.42725504215E+02  0.68031415190E+02  0.00000000000E+00 0. -1.
         -3    1    6    6    0  501 -0.44391373344E+02 -0.25472142544E+02 -0.11542818820E+03  0.12626595228E+03  0.00000000000E+00 0.  1.
          5    1    5    5  502    0  0.43683606081E+02 -0.27281881893E+02  0.12132471533E+02  0.53121044656E+02  0.47000000000E+01 0. -1.
         11    1    4    4    0    0 -0.61800112639E+02  0.20335971221E+01 -0.64895478395E+03  0.65189393390E+03  0.00000000000E+00 0. -1.
        -12    1    4    4    0    0 -0.20048833182E+02  0.67011553971E+02 -0.60117977989E+03  0.60523518720E+03  0.00000000000E+00 0.  1.
         -5    1    3    3    0  504  0.49271274522E+02  0.24877846151E+02 -0.23814269226E+03  0.24450071084E+03  0.47000000000E+01 0.  1.
<mgrwt>
<rscale>  2 0.19978898E+03</rscale>
<asrwt>0</asrwt>
<pdfrwt beam="1">  1       21 0.88269037E-02 0.19980731E+03</pdfrwt>
<pdfrwt beam="2">  1       21 0.26025748E+00 0.19980731E+03</pdfrwt>
<totfact> 0.58094203E+03</totfact>
</mgrwt>
</event>
<event>
12    1  0.1410528E-001  0.1897742E+03  0.7546771E-02  0.1158727E+00
         21   -1    0    0  502  503  0.00000000000E+00  0.00000000000E+00  0.29779761979E+03  0.29779761979E+03  0.00000000000E+00 0.  1.
         21   -1    0    0  503  504 -0.00000000000E+00 -0.00000000000E+00 -0.17690031704E+03  0.17690031704E+03  0.00000000000E+00 0. -1.
         -6    2    1    2    0  504 -0.75276935547E+01  0.76528162387E+02 -0.73228678215E+02  0.20341258048E+03  0.17349643448E+03 0.  0.
        -24    2    3    3    0    0  0.74624378341E+01  0.11404258346E+03 -0.81947664733E+02  0.16181755009E+03  0.80050614875E+02 0.  0.
          6    2    1    2  502    0  0.75276935547E+01 -0.76528162387E+02  0.19412598097E+03  0.27128535634E+03  0.17319821670E+03 0.  0.
         24    2    5    5    0    0  0.28373815793E+01  0.10153792122E+02  0.15772970499E+03  0.17703813267E+03  0.79703766253E+02 0.  0.
          2    1    6    6  501    0 -0.15573642023E+02 -0.22807492008E+02  0.12189662279E+03  0.12498602588E+03  0.00000000000E+00 0. -1.
         -1    1    6    6    0  501  0.18411023602E+02  0.32961284130E+02  0.35833082203E+02  0.52052106795E+02  0.00000000000E+00 0.  1.
          5    1    5    5  502    0  0.46903119754E+01 -0.86681954509E+02  0.36396275973E+02  0.94247223665E+02  0.47000000000E+01 0. -1.
         13    1    4    4    0    0  0.19309679721E+02  0.30243046460E+01 -0.36240952690E+02  0.41175439298E+02  0.00000000000E+00 0. -1.
        -14    1    4    4    0    0 -0.11847241887E+02  0.11101827881E+03 -0.45706712043E+02  0.12064211079E+03  0.00000000000E+00 0.  1.
         -5    1    3    3    0  504 -0.14990131389E+02 -0.37514421071E+02  0.87189865181E+01  0.41595030391E+02  0.47000000000E+01 0.  1.
<mgrwt>
<rscale>  2 0.18970599E+03</rscale>
<asrwt>0</asrwt>
<pdfrwt beam="1">  1       21 0.45815018E-01 0.18977418E+03</pdfrwt>
<pdfrwt beam="2">  1       21 0.27215433E-01 0.18977418E+03</pdfrwt>
<totfact> 0.58857038E+04</totfact>
</mgrwt>
</event>
<event>
12    1  0.1410528E-001  0.1772096E+03  0.7546771E-02  0.1170705E+00
         21   -1    0    0  502  503  0.00000000000E+00  0.00000000000E+00  0.43489726274E+03  0.43489726274E+03  0.00000000000E+00 0.  1.
         21   -1    0    0  503  504 -0.00000000000E+00 -0.00000000000E+00 -0.85284174566E+02  0.85284174566E+02  0.00000000000E+00 0.  1.
         -6    2    1    2    0  504 -0.33434923898E+02  0.18768850320E+02  0.27804385490E+03  0.32971446336E+03  0.17301178636E+03 0.  0.
        -24    2    3    3    0    0 -0.83190094153E+02 -0.14559113289E+02  0.10642283561E+03  0.14788433828E+03  0.58407174413E+02 0.  0.
          6    2    1    2  502    0  0.33434923898E+02 -0.18768850320E+02  0.71569233274E+02  0.19046697395E+03  0.17229436768E+03 0.  0.
         24    2    5    5    0    0  0.58494803306E+02 -0.65108271031E+02  0.26919357859E+02  0.12124962900E+03  0.79473843078E+02 0.  0.
          4    1    6    6  501    0  0.58137593542E+02 -0.78458264299E+02  0.37095803222E+02  0.10445945451E+03  0.00000000000E+00 0. -1.
         -3    1    6    6    0  501  0.35720976461E+00  0.13349993268E+02 -0.10176445362E+02  0.16790174487E+02  0.00000000000E+00 0.  1.
          5    1    5    5  502    0 -0.25059879408E+02  0.46339420711E+02  0.44649875415E+02  0.69217344954E+02  0.47000000000E+01 0. -1.
         13    1    4    4    0    0 -0.28144638626E+02 -0.32888235676E+02  0.33724076568E+02  0.54873218146E+02  0.00000000000E+00 0. -1.
        -14    1    4    4    0    0 -0.55045455526E+02  0.18329122386E+02  0.72698759043E+02  0.93011120131E+02  0.00000000000E+00 0.  1.
         -5    1    3    3    0  504  0.49755170254E+02  0.33327963609E+02  0.17162101929E+03  0.18183012508E+03  0.47000000000E+01 0.  1.
<mgrwt>
<rscale>  2 0.17703425E+03</rscale>
<asrwt>0</asrwt>
<pdfrwt beam="1">  1       21 0.66907270E-01 0.17720960E+03</pdfrwt>
<pdfrwt beam="2">  1       21 0.13120642E-01 0.17720960E+03</pdfrwt>
<totfact> 0.10290392E+05</totfact>
</mgrwt>
</event>
<event>
12    1  0.1410528E-001  0.2668370E+03  0.7546771E-02  0.1103174E+00
         21   -1    0    0  502  503  0.00000000000E+00  0.00000000000E+00  0.16046325852E+04  0.16046325852E+04  0.00000000000E+00 0.  1.
         21   -1    0    0  503  504 -0.00000000000E+00 -0.00000000000E+00 -0.66291279686E+03  0.66291279686E+03  0.00000000000E+00 0. -1.
         -6    2    1    2    0  504 -0.19513262001E+03 -0.54807679625E+02 -0.62435317477E+03  0.67898369102E+03  0.17355501919E+03 0.  0.
        -24    2    3    3    0    0 -0.13554003084E+03 -0.67857175614E+02 -0.26795846495E+03  0.31737500028E+03  0.77132714341E+02 0.  0.
          6    2    1    2  502    0  0.19513262001E+03  0.54807679625E+02  0.15660729632E+04  0.15885616911E+04  0.17280943054E+03 0.  0.
         24    2    5    5    0    0  0.35221553816E+02  0.37973226311E+02  0.81422702011E+03  0.81969931068E+03  0.79112552005E+02 0.  0.
          4    1    6    6  501    0 -0.91507353432E+01  0.45842638161E+02  0.31609350455E+03  0.31953151183E+03  0.00000000000E+00 0. -1.
         -3    1    6    6    0  501  0.44372289160E+02 -0.78694118500E+01  0.49813351556E+03  0.50016779885E+03  0.00000000000E+00 0.  1.
          5    1    5    5  502    0  0.15991106620E+03  0.16834453315E+02  0.75184594306E+03  0.76886238040E+03  0.47000000000E+01 0. -1.
         13    1    4    4    0    0 -0.72557095319E+02 -0.73738300662E+01 -0.17625168577E+03  0.19074475664E+03  0.00000000000E+00 0. -1.
        -14    1    4    4    0    0 -0.62982935524E+02 -0.60483345547E+02 -0.91706779187E+02  0.12663024364E+03  0.00000000000E+00 0.  1.
         -5    1    3    3    0  504 -0.59592589169E+02  0.13049495988E+02 -0.35639470982E+03  0.36160869074E+03  0.47000000000E+01 0.  1.
<mgrwt>
<rscale>  2 0.26671580E+03</rscale>
<asrwt>0</asrwt>
<pdfrwt beam="1">  1       21 0.24686655E+00 0.26683696E+03</pdfrwt>
<pdfrwt beam="2">  1       21 0.10198658E+00 0.26683696E+03</pdfrwt>
<totfact> 0.49063950E+01</totfact>
</mgrwt>
</event>
<event>
12    1  0.1410528E-001  0.4082975E+03  0.7546771E-02  0.1041136E+00
         21   -1    0    0  502  503  0.00000000000E+00  0.00000000000E+00  0.17230904929E+04  0.17230904929E+04  0.00000000000E+00 0. -1.
         21   -1    0    0  503  504 -0.00000000000E+00 -0.00000000000E+00 -0.96460175004E+02  0.96460175004E+02  0.00000000000E+00 0.  1.
         -6    2    1    2    0  504  0.21491198148E+03  0.29783758145E+03  0.76479994703E+03  0.86589536999E+03  0.17309375520E+03 0.  0.
        -24    2    3    3    0    0  0.47090656098E+02  0.47699819443E+02  0.17514004843E+03  0.20373694238E+03  0.79636062572E+02 0.  0.
          6    2    1    2  502    0 -0.21491198148E+03 -0.29783758145E+03  0.86183037090E+03  0.95365529795E+03  0.17836046196E+03 0.  0.
         24    2    5    5    0    0 -0.71581083262E+02 -0.91038786137E+02  0.44561151292E+03  0.46727096857E+03  0.79753530070E+02 0.  0.
          4    1    6    6  501    0 -0.75700098836E+02 -0.10192389389E+03  0.38036023876E+03  0.40098989555E+03  0.00000000000E+00 0. -1.
         -3    1    6    6    0  501  0.41190155741E+01  0.10885107754E+02  0.65251274162E+02  0.66281073014E+02  0.00000000000E+00 0.  1.
          5    1    5    5  502    0 -0.14333089822E+03 -0.20679879531E+03  0.41621885799E+03  0.48638432938E+03  0.47000000000E+01 0. -1.
         13    1    4    4    0    0  0.31779780495E+02 -0.47614187016E+00  0.13776379934E+02  0.34640580300E+02  0.00000000000E+00 0. -1.
        -14    1    4    4    0    0  0.15310875602E+02  0.48175961313E+02  0.16136366850E+03  0.16909636209E+03  0.00000000000E+00 0.  1.
         -5    1    3    3    0  504  0.16782132538E+03  0.25013776200E+03  0.58965989860E+03  0.66215842761E+03  0.47000000000E+01 0.  1.
<mgrwt>
<rscale>  2 0.40772803E+03</rscale>
<asrwt>0</asrwt>
<pdfrwt beam="1">  1       21 0.26509082E+00 0.40829749E+03</pdfrwt>
<pdfrwt beam="2">  1       21 0.14840028E-01 0.40829749E+03</pdfrwt>
<totfact> 0.18317759E+03</totfact>
</mgrwt>
</event>
<event>
12    1  0.1410528E-001  0.2295839E+03  0.7546771E-02  0.1126935E+00
         21   -1    0    0  502  503  0.00000000000E+00  0.00000000000E+00  0.31962134701E+03  0.31962134701E+03  0.00000000000E+00 0. -1.
         21   -1    0    0  503  504 -0.00000000000E+00 -0.00000000000E+00 -0.16828572952E+03  0.16828572952E+03  0.00000000000E+00 0.  1.
         -6    2    1    2    0  504  0.14382979715E+03 -0.45202456523E+02  0.41084695863E+02  0.23323108598E+03  0.17314304666E+03 0.  0.
        -24    2    3    3    0    0  0.15853070453E+03 -0.37825358624E+02  0.73730486041E+02  0.19637493497E+03  0.81019679565E+02 0.  0.
          6    2    1    2  502    0 -0.14382979715E+03  0.45202456523E+02  0.11025092163E+03  0.25467599056E+03  0.17313093837E+03 0.  0.
         24    2    5    5    0    0 -0.82697236044E+02  0.67485843819E+02  0.91623449080E+01  0.13436501965E+03  0.81097706352E+02 0.  0.
          4    1    6    6  501    0 -0.79792130246E+02  0.82547273707E+02  0.18673478173E+02  0.11631653035E+03  0.00000000000E+00 0. -1.
         -3    1    6    6    0  501 -0.29051057983E+01 -0.15061429888E+02 -0.95111332652E+01  0.18048489298E+02  0.00000000000E+00 0.  1.
          5    1    5    5  502    0 -0.61132561110E+02 -0.22283387296E+02  0.10108857672E+03  0.12031097091E+03  0.47000000000E+01 0. -1.
         13    1    4    4    0    0  0.12408203643E+03  0.66582742710E+01  0.62135114359E+02  0.13892968300E+03  0.00000000000E+00 0. -1.
        -14    1    4    4    0    0  0.34448668101E+02 -0.44483632895E+02  0.11595371682E+02  0.57445251970E+02  0.00000000000E+00 0.  1.
         -5    1    3    3    0  504 -0.14700907377E+02 -0.73770978990E+01 -0.32645790177E+02  0.36856151012E+02  0.47000000000E+01 0.  1.
<mgrwt>
<rscale>  2 0.22958166E+03</rscale>
<asrwt>0</asrwt>
<pdfrwt beam="1">  1       21 0.49172515E-01 0.22958394E+03</pdfrwt>
<pdfrwt beam="2">  1       21 0.25890112E-01 0.22958394E+03</pdfrwt>
<totfact> 0.54959507E+04</totfact>
</mgrwt>
</event>
<event>
12    1  0.1410528E-001  0.2104299E+03  0.7546771E-02  0.1141397E+00
         21   -1    0    0  502  503  0.00000000000E+00  0.00000000000E+00  0.27980883751E+03  0.27980883751E+03  0.00000000000E+00 0.  1.
         21   -1    0    0  503  504 -0.00000000000E+00 -0.00000000000E+00 -0.15788915523E+03  0.15788915523E+03  0.00000000000E+00 0.  1.
         -6    2    1    2    0  504 -0.10805576364E+03  0.50285645094E+02  0.51508539911E+02  0.21580053650E+03  0.17237182981E+03 0.  0.
        -24    2    3    3    0    0 -0.37990720392E+02 -0.47792283379E+01  0.82070183802E+02  0.12147474655E+03  0.80959638844E+02 0.  0.
          6    2    1    2  502    0  0.10805576364E+03 -0.50285645094E+02  0.70411142369E+02  0.22189745624E+03  0.17342450218E+03 0.  0.
         24    2    5    5    0    0  0.48235166709E+02 -0.66344675930E+02 -0.19336332905E+02  0.11275032798E+03  0.74903239974E+02 0.  0.
          2    1    6    6  501    0  0.94114698639E+01 -0.53329850249E+02  0.18271667084E+02  0.57153324581E+02  0.00000000000E+00 0. -1.
         -1    1    6    6    0  501  0.38823696845E+02 -0.13014825680E+02 -0.37607999989E+02  0.55597003403E+02  0.00000000000E+00 0.  1.
          5    1    5    5  502    0  0.59820596932E+02  0.16059030836E+02  0.89747475275E+02  0.10914712826E+03  0.47000000000E+01 0. -1.
         11    1    4    4    0    0  0.39744560451E+01 -0.23666623862E+02 -0.35612165321E+01  0.24260825399E+02  0.00000000000E+00 0. -1.
        -12    1    4    4    0    0 -0.41965176437E+02  0.18887395524E+02  0.85631400334E+02  0.97213921155E+02  0.00000000000E+00 0.  1.
         -5    1    3    3    0  504 -0.70065043249E+02  0.55064873432E+02 -0.30561643891E+02  0.94325789946E+02  0.47000000000E+01 0.  1.
<mgrwt>
<rscale>  2 0.21021291E+03</rscale>
<asrwt>0</asrwt>
<pdfrwt beam="1">  1       21 0.43047513E-01 0.21042992E+03</pdfrwt>
<pdfrwt beam="2">  1       21 0.24290639E-01 0.21042992E+03</pdfrwt>
<totfact> 0.82409866E+04</totfact>
</mgrwt>
</event>
<event>
12    1  0.1410528E-001  0.1873656E+03  0.7546771E-02  0.1160935E+00
         21   -1    0    0  502  503  0.00000000000E+00  0.00000000000E+00  0.21136269087E+04  0.21136269087E+04  0.00000000000E+00 0.  1.
         21   -1    0    0  503  504 -0.00000000000E+00 -0.00000000000E+00 -0.17156595575E+02  0.17156595575E+02  0.00000000000E+00 0.  1.
         -6    2    1    2    0  504  0.38763677904E+02  0.60210355275E+02  0.85381601023E+03  0.87413250530E+03  0.17314141012E+03 0.  0.
        -24    2    3    3    0    0 -0.12508941835E+02  0.44492892604E+02  0.76221225144E+03  0.76788158158E+03  0.80861090564E+02 0.  0.
          6    2    1    2  502    0 -0.38763677904E+02 -0.60210355275E+02  0.12426543029E+04  0.12566509989E+04  0.17278341095E+03 0.  0.
         24    2    5    5    0    0 -0.35195845012E+02  0.31981699385E+02  0.50715934990E+03  0.51537708182E+03  0.78366789309E+02 0.  0.
          2    1    6    6  501    0 -0.24714395430E+02  0.40092414783E+00  0.39909411554E+02  0.46943830396E+02  0.00000000000E+00 0. -1.
         -1    1    6    6    0  501 -0.10481449582E+02  0.31580775237E+02  0.46724993835E+03  0.46843325142E+03  0.00000000000E+00 0.  1.
          5    1    5    5  502    0 -0.35678328926E+01 -0.92192054660E+02  0.73549495295E+03  0.74127391711E+03  0.47000000000E+01 0. -1.
         13    1    4    4    0    0 -0.10681658793E+02 -0.23065476053E+02  0.19035212782E+03  0.19204178343E+03  0.00000000000E+00 0. -1.
        -14    1    4    4    0    0 -0.18272830420E+01  0.67558368657E+02  0.57186012362E+03  0.57583979814E+03  0.00000000000E+00 0.  1.
         -5    1    3    3    0  504  0.51272619740E+02  0.15717462671E+02  0.91603758790E+02  0.10625092372E+03  0.47000000000E+01 0.  1.
<mgrwt>
<rscale>  2 0.18728282E+03</rscale>
<asrwt>0</asrwt>
<pdfrwt beam="1">  1       21 0.32517316E+00 0.18736557E+03</pdfrwt>
<pdfrwt beam="2">  1       21 0.26394779E-02 0.18736557E+03</pdfrwt>
<totfact> 0.19202159E+04</totfact>
</mgrwt>
</event>
<event>
12    1  0.1410528E-001  0.2036130E+03  0.7546771E-02  0.1147248E+00
         21   -1    0    0  502  503  0.00000000000E+00  0.00000000000E+00  0.18915745062E+04  0.18915745062E+04  0.00000000000E+00 0.  1.
         21   -1    0    0  503  504 -0.00000000000E+00 -0.00000000000E+00 -0.28017640376E+02  0.28017640376E+02  0.00000000000E+00 0.  1.
         -6    2    1    2    0  504 -0.98695287705E+02  0.43182476786E+02  0.46965813922E+03  0.51090058601E+03  0.16980917210E+03 0.  0.
        -24    2    3    3    0    0  0.10506593934E+01  0.14058635664E+02  0.32857616762E+03  0.33561891328E+03  0.66925390547E+02 0.  0.
          6    2    1    2  502    0  0.98695287705E+02 -0.43182476786E+02  0.13938987266E+04  0.14086915605E+04  0.17277953199E+03 0.  0.
         24    2    5    5    0    0  0.90565137428E+02 -0.47570129203E+01  0.13143276018E+04  0.13198306044E+04  0.79190317234E+02 0.  0.
          4    1    6    6  501    0  0.18843978876E+02  0.33811304711E+02  0.46473534656E+03  0.46634455310E+03  0.00000000000E+00 0. -1.
         -3    1    6    6    0  501  0.71721158552E+02 -0.38568317632E+02  0.84959225521E+03  0.85348605133E+03  0.00000000000E+00 0.  1.
          5    1    5    5  502    0  0.81301502775E+01 -0.38425463866E+02  0.79571124799E+02  0.88860956098E+02  0.47000000000E+01 0. -1.
         13    1    4    4    0    0 -0.19097099985E+01 -0.27486585714E+01  0.31135836834E+03  0.31137635693E+03  0.00000000000E+00 0. -1.
        -14    1    4    4    0    0  0.29603693919E+01  0.16807294236E+02  0.17217799279E+02  0.24242556352E+02  0.00000000000E+00 0.  1.
         -5    1    3    3    0  504 -0.99745947099E+02  0.29123841122E+02  0.14108197160E+03  0.17528167273E+03  0.47000000000E+01 0.  1.
<mgrwt>
<rscale>  2 0.20298146E+03</rscale>
<asrwt>0</asrwt>
<pdfrwt beam="1">  1       21 0.29101136E+00 0.20361300E+03</pdfrwt>
<pdfrwt beam="2">  1       21 0.43104077E-02 0.20361300E+03</pdfrwt>
<totfact> 0.13145295E+04</totfact>
</mgrwt>
</event>
<event>
12    1  0.1410528E-001  0.1822527E+03  0.7546771E-02  0.1166062E+00
         21   -1    0    0  502  503  0.00000000000E+00  0.00000000000E+00  0.46012913140E+03  0.46012913140E+03  0.00000000000E+00 0.  1.
         21   -1    0    0  503  504 -0.00000000000E+00 -0.00000000000E+00 -0.52585075417E+03  0.52585075417E+03  0.00000000000E+00 0.  1.
         -6    2    1    2    0  504  0.41919121270E+02 -0.21851516980E+02 -0.49109177532E+03  0.52321016459E+03  0.17419254581E+03 0.  0.
        -24    2    3    3    0    0  0.38444142529E+02 -0.78207241805E+02 -0.37594377635E+03  0.39487780364E+03  0.83668584720E+02 0.  0.
          6    2    1    2  502    0 -0.41919121270E+02  0.21851516980E+02  0.42537015255E+03  0.46276972098E+03  0.17601518815E+03 0.  0.
         24    2    5    5    0    0 -0.10985458637E+02 -0.51822265263E+02  0.28353743225E+03  0.29990987872E+03  0.82135451487E+02 0.  0.
          4    1    6    6  501    0 -0.39898888248E+02 -0.55021909588E+02  0.18155160659E+03  0.19385643573E+03  0.00000000000E+00 0. -1.
         -3    1    6    6    0  501  0.28913429610E+02  0.31996443247E+01  0.10198582566E+03  0.10605344300E+03  0.00000000000E+00 0.  1.
          5    1    5    5  502    0 -0.30933662632E+02  0.73673782243E+02  0.14183272030E+03  0.16285984226E+03  0.47000000000E+01 0. -1.
         11    1    4    4    0    0  0.42946977003E+02 -0.58377391123E+02 -0.13627372238E+03  0.15434665542E+03  0.00000000000E+00 0. -1.
        -12    1    4    4    0    0 -0.45028344739E+01 -0.19829850682E+02 -0.23967005396E+03  0.24053114822E+03  0.00000000000E+00 0.  1.
         -5    1    3    3    0  504  0.34749787405E+01  0.56355724824E+02 -0.11514799898E+03  0.12833236094E+03  0.47000000000E+01 0.  1.
<mgrwt>
<rscale>  2 0.18181119E+03</rscale>
<asrwt>0</asrwt>
<pdfrwt beam="1">  1       21 0.70789097E-01 0.18225270E+03</pdfrwt>
<pdfrwt beam="2">  1       21 0.80900116E-01 0.18225270E+03</pdfrwt>
<totfact> 0.24466334E+03</totfact>
</mgrwt>
</event>
<event>
12    1  0.1410528E-001  0.1793320E+03  0.7546771E-02  0.1169485E+00
         21   -1    0    0  502  503  0.00000000000E+00  0.00000000000E+00  0.56720279324E+03  0.56720279324E+03  0.00000000000E+00 0. -1.
         21   -1    0    0  503  504 -0.00000000000E+00 -0.00000000000E+00 -0.65553958290E+02  0.65553958290E+02  0.00000000000E+00 0.  1.
         -6    2    1    2    0  504 -0.22088368061E+02  0.36553014507E+02  0.12869885567E+03  0.22073369528E+03  0.17417218466E+03 0.  0.
        -24    2    3    3    0    0  0.41456738000E+02  0.40477318646E+02  0.11922949720E+03  0.15619580395E+03  0.82609816125E+02 0.  0.
          6    2    1    2  502    0  0.22088368061E+02 -0.36553014507E+02  0.37294997927E+03  0.41202305624E+03  0.16984490856E+03 0.  0.
         24    2    5    5    0    0 -0.55621208273E+01 -0.77928632848E+02  0.17468707389E+03  0.20755603939E+03  0.80374913368E+02 0.  0.
          2    1    6    6  501    0 -0.34784146323E+02 -0.54701852320E+02  0.65458555911E+02  0.92125197555E+02  0.00000000000E+00 0. -1.
         -1    1    6    6    0  501  0.29222025496E+02 -0.23226780528E+02  0.10922851798E+03  0.11543084184E+03  0.00000000000E+00 0.  1.
          5    1    5    5  502    0  0.27650488889E+02  0.41375618341E+02  0.19826290539E+03  0.20446701685E+03  0.47000000000E+01 0. -1.
         13    1    4    4    0    0  0.46607054754E+02  0.36980571201E+02  0.13044273223E+03  0.14337045229E+03  0.00000000000E+00 0. -1.
        -14    1    4    4    0    0 -0.51503167546E+01  0.34967474446E+01 -0.11213235031E+02  0.12825351661E+02  0.00000000000E+00 0.  1.
         -5    1    3    3    0  504 -0.63545106061E+02 -0.39243041384E+01  0.94693584754E+01  0.64537891329E+02  0.47000000000E+01 0.  1.
<mgrwt>
<rscale>  2 0.17827272E+03</rscale>
<asrwt>0</asrwt>
<pdfrwt beam="1">  1       21 0.87261965E-01 0.17933201E+03</pdfrwt>
<pdfrwt beam="2">  1       21 0.10085225E-01 0.17933201E+03</pdfrwt>
<totfact> 0.90682472E+04</totfact>
</mgrwt>
</event>
<event>
12    1  0.1410528E-001  0.2402478E+03  0.7546771E-02  0.1119922E+00
         21   -1    0    0  502  503  0.00000000000E+00  0.00000000000E+00  0.14854341038E+03  0.14854341038E+03  0.00000000000E+00 0. -1.
         21   -1    0    0  503  504 -0.00000000000E+00 -0.00000000000E+00 -0.38595967502E+03  0.38595967502E+03  0.00000000000E+00 0. -1.
         -6    2    1    2    0  504 -0.14300661116E+00 -0.16377515659E+03 -0.12572131495E+03  0.27115464470E+03  0.17577448604E+03 0.  0.
        -24    2    3    3    0    0 -0.42801464110E+01 -0.18966477304E+03 -0.86649796539E+02  0.22386763045E+03  0.81347912935E+02 0.  0.
          6    2    1    2  502    0  0.14300661116E+00  0.16377515659E+03 -0.11169494968E+03  0.26334844070E+03  0.17336180972E+03 0.  0.
         24    2    5    5    0    0 -0.16907017538E+02  0.69183260290E+02  0.81582169277E+01  0.10964352304E+03  0.82963696242E+02 0.  0.
          2    1    6    6  501    0  0.31241555031E+02  0.16524714342E+02  0.14083300436E+02  0.38045240122E+02  0.00000000000E+00 0. -1.
         -1    1    6    6    0  501 -0.48148572569E+02  0.52658545948E+02 -0.59250835078E+01  0.71598282915E+02  0.00000000000E+00 0.  1.
          5    1    5    5  502    0  0.17050024149E+02  0.94591896298E+02 -0.11985316661E+03  0.15370491766E+03  0.47000000000E+01 0. -1.
         11    1    4    4    0    0 -0.10928232659E+02 -0.86100859482E+02 -0.82901819256E+02  0.12002289743E+03  0.00000000000E+00 0. -1.
        -12    1    4    4    0    0  0.66480862482E+01 -0.10356391355E+03 -0.37479772827E+01  0.10384473301E+03  0.00000000000E+00 0.  1.
         -5    1    3    3    0  504  0.41371397998E+01  0.25889616447E+02 -0.39071518415E+02  0.47287014250E+02  0.47000000000E+01 0.  1.
<mgrwt>
<rscale>  2 0.23980668E+03</rscale>
<asrwt>0</asrwt>
<pdfrwt beam="1">  1       21 0.22852833E-01 0.24024777E+03</pdfrwt>
<pdfrwt beam="2">  1       21 0.59378411E-01 0.24024777E+03</pdfrwt>
<totfact> 0.46562912E+04</totfact>
</mgrwt>
</event>
<event>
12    1  0.1410528E-001  0.1741609E+03  0.7546771E-02  0.1173662E+00
         21   -1    0    0  502  503  0.00000000000E+00  0.00000000000E+00  0.18382530838E+04  0.18382530838E+04  0.00000000000E+00 0.  1.
         21   -1    0    0  503  504 -0.00000000000E+00 -0.00000000000E+00 -0.17765581720E+02  0.17765581720E+02  0.00000000000E+00 0.  1.
         -6    2    1    2    0  504  0.24307770177E+02 -0.72327920187E+01  0.65868969668E+03  0.68123946297E+03  0.17196484647E+03 0.  0.
        -24    2    3    3    0    0  0.17304669558E+02  0.25953118009E+01  0.66261947396E+03  0.66770549856E+03  0.80373368187E+02 0.  0.
          6    2    1    2  502    0 -0.24307770177E+02  0.72327920187E+01  0.11617978054E+04  0.11747792026E+04  0.17230453604E+03 0.  0.
         24    2    5    5    0    0  0.47244753818E+02 -0.50369683033E+00  0.81646270508E+03  0.82199309389E+03  0.82637625472E+02 0.  0.
          4    1    6    6  501    0  0.34291745708E+02 -0.75819374128E+01  0.11203179002E+03  0.11740754479E+03  0.00000000000E+00 0. -1.
         -3    1    6    6    0  501  0.12953008110E+02  0.70782405824E+01  0.70443091506E+03  0.70458554910E+03  0.00000000000E+00 0.  1.
          5    1    5    5  502    0 -0.71552523995E+02  0.77364888490E+01  0.34533510032E+03  0.35278610866E+03  0.47000000000E+01 0. -1.
         11    1    4    4    0    0 -0.31320351991E+02 -0.76339053498E+01  0.29047112082E+03  0.29225453460E+03  0.00000000000E+00 0. -1.
        -12    1    4    4    0    0  0.48625021550E+02  0.10229217151E+02  0.37214835313E+03  0.37545096397E+03  0.00000000000E+00 0.  1.
         -5    1    3    3    0  504  0.70031006191E+01 -0.98281038196E+01 -0.39297772802E+01  0.13533964402E+02  0.47000000000E+01 0.  1.
<mgrwt>
<rscale>  2 0.17407687E+03</rscale>
<asrwt>0</asrwt>
<pdfrwt beam="1">  1       21 0.28280802E+00 0.17416094E+03</pdfrwt>
<pdfrwt beam="2">  1       21 0.27331679E-02 0.17416094E+03</pdfrwt>
<totfact> 0.32193114E+04</totfact>
</mgrwt>
</event>
<event>
12    1  0.1410528E-001  0.1777392E+03  0.7546771E-02  0.1170259E+00
         21   -1    0    0  502  503  0.00000000000E+00  0.00000000000E+00  0.28255054678E+02  0.28255054678E+02  0.00000000000E+00 0. -1.
         21   -1    0    0  503  504 -0.00000000000E+00 -0.00000000000E+00 -0.11399191374E+04  0.11399191374E+04  0.00000000000E+00 0. -1.
         -6    2    1    2    0  504  0.14849172733E+02  0.37231665693E+02 -0.64617785741E+03  0.66990853637E+03  0.17211893804E+03 0.  0.
        -24    2    3    3    0    0  0.54232268620E+02  0.62397631741E+02 -0.32157805344E+03  0.34192762713E+03  0.81654481405E+02 0.  0.
          6    2    1    2  502    0 -0.14849172733E+02 -0.37231665693E+02 -0.46548622530E+03  0.49826565569E+03  0.17316045403E+03 0.  0.
         24    2    5    5    0    0 -0.27369380951E+02  0.40831320571E+02 -0.20024380646E+03  0.22145124821E+03  0.80788573178E+02 0.  0.
          4    1    6    6  501    0 -0.37513265880E+02  0.50230420047E+02 -0.86281123450E+02  0.10665257840E+03  0.00000000000E+00 0. -1.
         -3    1    6    6    0  501  0.10143884929E+02 -0.93990994760E+01 -0.11396268301E+03  0.11479866982E+03  0.00000000000E+00 0.  1.
          5    1    5    5  502    0  0.12520208218E+02 -0.78062986264E+02 -0.26524241884E+03  0.27681440748E+03  0.47000000000E+01 0. -1.
         13    1    4    4    0    0  0.48358250729E+02  0.77397116205E+02 -0.30673300125E+03  0.32002182436E+03  0.00000000000E+00 0. -1.
        -14    1    4    4    0    0  0.58740178911E+01 -0.14999484465E+02 -0.14845052184E+02  0.21905802764E+02  0.00000000000E+00 0.  1.
         -5    1    3    3    0  504 -0.39383095887E+02 -0.25165966048E+02 -0.32459980397E+03  0.32798090924E+03  0.47000000000E+01 0.  1.
<mgrwt>
<rscale>  2 0.17748506E+03</rscale>
<asrwt>0</asrwt>
<pdfrwt beam="1">  1       21 0.43469319E-02 0.17773924E+03</pdfrwt>
<pdfrwt beam="2">  1       21 0.17537216E+00 0.17773924E+03</pdfrwt>
<totfact> 0.67279029E+04</totfact>
</mgrwt>
</event>
<event>
12    1  0.1410528E-001  0.2391361E+03  0.7546771E-02  0.1120403E+00
         21   -1    0    0  502  503  0.00000000000E+00  0.00000000000E+00  0.13975477399E+04  0.13975477399E+04  0.00000000000E+00 0. -1.
         21   -1    0    0  503  504 -0.00000000000E+00 -0.00000000000E+00 -0.41010968986E+02  0.41010968986E+02  0.00000000000E+00 0.  1.
         -6    2    1    2    0  504  0.12813585610E+03 -0.10200649791E+03  0.63808759279E+03  0.68135643954E+03  0.17397326920E+03 0.  0.
        -24    2    3    3    0    0  0.37346038658E+01 -0.14651662276E+02  0.24238285111E+03  0.25743324903E+03  0.85403821458E+02 0.  0.
          6    2    1    2  502    0 -0.12813585610E+03  0.10200649791E+03  0.71844917815E+03  0.75720226937E+03  0.17424675585E+03 0.  0.
         24    2    5    5    0    0 -0.68055493378E+02  0.11054313449E+03  0.32769124633E+03  0.36173245330E+03  0.81347895383E+02 0.  0.
          4    1    6    6  501    0 -0.36172122900E+02 -0.17946293380E+01  0.85739789623E+02  0.93074995000E+02  0.00000000000E+00 0. -1.
         -3    1    6    6    0  501 -0.31883370479E+02  0.11233776383E+03  0.24195145671E+03  0.26865745830E+03  0.00000000000E+00 0.  1.
          5    1    5    5  502    0 -0.60080362717E+02 -0.85366365759E+01  0.39075793182E+03  0.39546981607E+03  0.47000000000E+01 0. -1.
         11    1    4    4    0    0 -0.15876382821E+02 -0.22689296462E+02  0.20286465223E+02  0.34327895022E+02  0.00000000000E+00 0. -1.
        -12    1    4    4    0    0  0.19610986687E+02  0.80376341858E+01  0.22209638589E+03  0.22310535401E+03  0.00000000000E+00 0.  1.
         -5    1    3    3    0  504  0.12440125223E+03 -0.87354835638E+02  0.39570474168E+03  0.42392319051E+03  0.47000000000E+01 0.  1.
<mgrwt>
<rscale>  2 0.23908624E+03</rscale>
<asrwt>0</asrwt>
<pdfrwt beam="1">  1       21 0.21500731E+00 0.23913606E+03</pdfrwt>
<pdfrwt beam="2">  1       21 0.63093809E-02 0.23913606E+03</pdfrwt>
<totfact> 0.18876393E+04</totfact>
</mgrwt>
</event>
<event>
12    1  0.1410528E-001  0.2169548E+03  0.7546771E-02  0.1136289E+00
         21   -1    0    0  502  503  0.00000000000E+00  0.00000000000E+00  0.14653684580E+03  0.14653684580E+03  0.00000000000E+00 0. -1.
         21   -1    0    0  503  504 -0.00000000000E+00 -0.00000000000E+00 -0.12980984960E+04  0.12980984960E+04  0.00000000000E+00 0. -1.
         -6    2    1    2    0  504 -0.68736750672E+02  0.11043718723E+03 -0.12024780930E+04  0.12217859428E+04  0.17287629321E+03 0.  0.
        -24    2    3    3    0    0 -0.38405862164E+02  0.14424619982E+03 -0.87790604882E+03  0.89401755816E+03  0.79160516260E+02 0.  0.
          6    2    1    2  502    0  0.68736750672E+02 -0.11043718723E+03  0.50916442736E+02  0.22284939903E+03  0.17363253523E+03 0.  0.
         24    2    5    5    0    0 -0.16190497429E+02 -0.43480767173E+02 -0.16727290570E+02  0.95203152265E+02  0.81431742155E+02 0.  0.
          2    1    6    6  501    0 -0.36678679223E+02 -0.32403759661E+02  0.19044808300E+02  0.52516986518E+02  0.00000000000E+00 0. -1.
         -1    1    6    6    0  501  0.20488181794E+02 -0.11077007512E+02 -0.35772098870E+02  0.42686165747E+02  0.00000000000E+00 0.  1.
          5    1    5    5  502    0  0.84927248101E+02 -0.66956420055E+02  0.67643733306E+02  0.12764624676E+03  0.47000000000E+01 0. -1.
         13    1    4    4    0    0 -0.24007994294E+02  0.70003720275E+02 -0.22761622017E+03  0.23934504033E+03  0.00000000000E+00 0. -1.
        -14    1    4    4    0    0 -0.14397867870E+02  0.74242479547E+02 -0.65028982864E+03  0.65467251783E+03  0.00000000000E+00 0.  1.
         -5    1    3    3    0  504 -0.30330888508E+02 -0.33809012594E+02 -0.32457204416E+03  0.32776838466E+03  0.47000000000E+01 0.  1.
<mgrwt>
<rscale>  2 0.21680342E+03</rscale>
<asrwt>0</asrwt>
<pdfrwt beam="1">  1       21 0.22544130E-01 0.21695477E+03</pdfrwt>
<pdfrwt beam="2">  1       21 0.19970747E+00 0.21695477E+03</pdfrwt>
<totfact> 0.24275194E+03</totfact>
</mgrwt>
</event>
<event>
12    1  0.1410528E-001  0.2055186E+03  0.7546771E-02  0.1146726E+00
         21   -1    0    0  502  503  0.00000000000E+00  0.00000000000E+00  0.77395380364E+02  0.77395380364E+02  0.00000000000E+00 0. -1.
         21   -1    0    0  503  504 -0.00000000000E+00 -0.00000000000E+00 -0.53128218020E+03  0.53128218020E+03  0.00000000000E+00 0. -1.
         -6    2    1    2    0  504  0.10975115500E+03 -0.21164777091E+02 -0.20067441027E+03  0.28724228776E+03  0.17246637100E+03 0.  0.
        -24    2    3    3    0    0  0.55842747784E+01  0.39319038989E+02 -0.52943160269E+02  0.96570729391E+02  0.70326073429E+02 0.  0.
          6    2    1    2  502    0 -0.10975115500E+03  0.21164777091E+02 -0.25321238957E+03  0.32143527281E+03  0.16343456355E+03 0.  0.
         24    2    5    5    0    0 -0.14422639993E+02  0.18701317382E+02 -0.18700155620E+03  0.20524767079E+03  0.81235906636E+02 0.  0.
          4    1    6    6  501    0 -0.48212987131E+02  0.13333529177E+02 -0.12021975933E+03  0.13021161877E+03  0.00000000000E+00 0. -1.
         -3    1    6    6    0  501  0.33790347138E+02  0.53677882048E+01 -0.66781796870E+02  0.75036052022E+02  0.00000000000E+00 0.  1.
          5    1    5    5  502    0 -0.95328515009E+02  0.24634597093E+01 -0.66210833363E+02  0.11618760202E+03  0.47000000000E+01 0. -1.
         11    1    4    4    0    0  0.28499336092E+02 -0.61945237879E+01 -0.25241932325E+02  0.38571225417E+02  0.00000000000E+00 0. -1.
        -12    1    4    4    0    0 -0.22915061313E+02  0.45513562777E+02 -0.27701227943E+02  0.57999503974E+02  0.00000000000E+00 0.  1.
         -5    1    3    3    0  504  0.10416688022E+03 -0.60483816080E+02 -0.14773125001E+03  0.19067155837E+03  0.47000000000E+01 0.  1.
<mgrwt>
<rscale>  2 0.20361271E+03</rscale>
<asrwt>0</asrwt>
<pdfrwt beam="1">  1       21 0.11906982E-01 0.20551864E+03</pdfrwt>
<pdfrwt beam="2">  1       21 0.81735719E-01 0.20551864E+03</pdfrwt>
<totfact> 0.77508072E+04</totfact>
</mgrwt>
</event>
<event>
12    1  0.1410528E-001  0.2075057E+03  0.7546771E-02  0.1143689E+00
         21   -1    0    0  502  503  0.00000000000E+00  0.00000000000E+00  0.14016556093E+03  0.14016556093E+03  0.00000000000E+00 0.  1.
         21   -1    0    0  503  504 -0.00000000000E+00 -0.00000000000E+00 -0.32660712108E+03  0.32660712108E+03  0.00000000000E+00 0.  1.
         -6    2    1    2    0  504  0.11310696497E+03  0.11005656219E+01 -0.15138713407E+03  0.25632689046E+03  0.17317913742E+03 0.  0.
        -24    2    3    3    0    0  0.12547597646E+03  0.45738763379E+02 -0.13854902837E+03  0.20803125813E+03  0.79024780630E+02 0.  0.
          6    2    1    2  502    0 -0.11310696497E+03 -0.11005656219E+01 -0.35054426085E+02  0.21044579155E+03  0.17396615080E+03 0.  0.
         24    2    5    5    0    0 -0.35676423341E+02 -0.24455630392E+02  0.40920094583E+02  0.99382000787E+02  0.79570364454E+02 0.  0.
          2    1    6    6  501    0 -0.22959432042E+02 -0.32507892040E+02 -0.14190823473E+02  0.42252550638E+02  0.00000000000E+00 0. -1.
         -1    1    6    6    0  501 -0.12716991300E+02  0.80522616483E+01  0.55110918056E+02  0.57129450149E+02  0.00000000000E+00 0.  1.
          5    1    5    5  502    0 -0.77430541633E+02  0.23355064770E+02 -0.75974520668E+02  0.11106379076E+03  0.47000000000E+01 0. -1.
         13    1    4    4    0    0  0.54954538316E+01  0.10329015751E+02  0.88744130985E+01  0.14684814846E+02  0.00000000000E+00 0. -1.
        -14    1    4    4    0    0  0.11998052263E+03  0.35409747628E+02 -0.14742344146E+03  0.19334644328E+03  0.00000000000E+00 0.  1.
         -5    1    3    3    0  504 -0.12369011482E+02 -0.44638197757E+02 -0.12838105706E+02  0.48295632330E+02  0.47000000000E+01 0.  1.
<mgrwt>
<rscale>  2 0.20734067E+03</rscale>
<asrwt>0</asrwt>
<pdfrwt beam="1">  1       21 0.21563933E-01 0.20750571E+03</pdfrwt>
<pdfrwt beam="2">  1       21 0.50247249E-01 0.20750571E+03</pdfrwt>
<totfact> 0.75107298E+04</totfact>
</mgrwt>
</event>
<event>
12    1  0.1410528E-001  0.2033135E+03  0.7546771E-02  0.1147806E+00
         21   -1    0    0  502  503  0.00000000000E+00  0.00000000000E+00  0.21781174385E+03  0.21781174385E+03  0.00000000000E+00 0. -1.
         21   -1    0    0  503  504 -0.00000000000E+00 -0.00000000000E+00 -0.18915159581E+03  0.18915159581E+03  0.00000000000E+00 0. -1.
         -6    2    1    2    0  504 -0.50857073705E+02 -0.85616152739E+02 -0.11767458105E+02  0.19966942493E+03  0.17266394709E+03 0.  0.
        -24    2    3    3    0    0 -0.77722673088E+02 -0.11421014477E+03  0.57354583872E+01  0.15645115453E+03  0.73207220889E+02 0.  0.
          6    2    1    2  502    0  0.50857073705E+02  0.85616152739E+02  0.40427606148E+02  0.20729391473E+03  0.17725633470E+03 0.  0.
         24    2    5    5    0    0 -0.18064710963E+02  0.36589615948E+02  0.68021041720E+02  0.11820238091E+03  0.87634507813E+02 0.  0.
          2    1    6    6  501    0 -0.14396940816E+01 -0.27238573919E+02  0.65751188239E+01  0.28057883308E+02  0.00000000000E+00 0. -1.
         -1    1    6    6    0  501 -0.16625016881E+02  0.63828189867E+02  0.61445922896E+02  0.90144497606E+02  0.00000000000E+00 0.  1.
          5    1    5    5  502    0  0.68921784668E+02  0.49026536790E+02 -0.27593435572E+02  0.89091533818E+02  0.47000000000E+01 0. -1.
         11    1    4    4    0    0 -0.48815039768E+02 -0.12289120330E+02  0.39818250811E+01  0.50495400949E+02  0.00000000000E+00 0. -1.
        -12    1    4    4    0    0 -0.28907633320E+02 -0.10192102444E+03  0.17536333060E+01  0.10595575358E+03  0.00000000000E+00 0.  1.
         -5    1    3    3    0  504  0.26865599383E+02  0.28593992030E+02 -0.17502916492E+02  0.43218270397E+02  0.47000000000E+01 0.  1.
<mgrwt>
<rscale>  2 0.20230828E+03</rscale>
<asrwt>0</asrwt>
<pdfrwt beam="1">  1       21 0.33509499E-01 0.20331349E+03</pdfrwt>
<pdfrwt beam="2">  1       21 0.29100246E-01 0.20331349E+03</pdfrwt>
<totfact> 0.96561724E+04</totfact>
</mgrwt>
</event>
<event>
12    1  0.1410528E-001  0.1912712E+03  0.7546771E-02  0.1158867E+00
         21   -1    0    0  502  503  0.00000000000E+00  0.00000000000E+00  0.12387615079E+04  0.12387615079E+04  0.00000000000E+00 0. -1.
         21   -1    0    0  503  504 -0.00000000000E+00 -0.00000000000E+00 -0.35543133784E+02  0.35543133784E+02  0.00000000000E+00 0. -1.
         -6    2    1    2    0  504 -0.69387083817E+02 -0.45121542143E+02  0.30919467761E+03  0.36004918438E+03  0.16487433259E+03 0.  0.
        -24    2    3    3    0    0 -0.88274938793E+02 -0.49875806108E+02  0.14475111060E+03  0.19438950063E+03  0.80958835713E+02 0.  0.
          6    2    1    2  502    0  0.69387083817E+02  0.45121542143E+02  0.89402369651E+03  0.91425545730E+03  0.17243593107E+03 0.  0.
         24    2    5    5    0    0  0.94500526631E+02  0.59474249992E+02  0.85062883192E+03  0.86189240253E+03  0.82592783580E+02 0.  0.
          2    1    6    6  501    0  0.97143562433E+02  0.28830323366E+02  0.51617653937E+03  0.52602878159E+03  0.00000000000E+00 0. -1.
         -1    1    6    6    0  501 -0.26430358019E+01  0.30643926626E+02  0.33445229255E+03  0.33586362094E+03  0.00000000000E+00 0.  1.
          5    1    5    5  502    0 -0.25113442814E+02 -0.14352707849E+02  0.43394864587E+02  0.52363054772E+02  0.47000000000E+01 0. -1.
         11    1    4    4    0    0 -0.64564140736E+02 -0.14965543979E+02  0.13600174411E+03  0.15129101156E+03  0.00000000000E+00 0. -1.
        -12    1    4    4    0    0 -0.23710798058E+02 -0.34910262129E+02  0.87493664895E+01  0.43098489074E+02  0.00000000000E+00 0.  1.
         -5    1    3    3    0  504  0.18887854976E+02  0.47542639647E+01  0.16444356701E+03  0.16565968375E+03  0.47000000000E+01 0.  1.
<mgrwt>
<rscale>  2 0.18955115E+03</rscale>
<asrwt>0</asrwt>
<pdfrwt beam="1">  1       21 0.19057866E+00 0.19127120E+03</pdfrwt>
<pdfrwt beam="2">  1       21 0.54681754E-02 0.19127120E+03</pdfrwt>
<totfact> 0.35753859E+04</totfact>
</mgrwt>
</event>
<event>
12    1  0.1410528E-001  0.2175847E+03  0.7546771E-02  0.1135749E+00
         21   -1    0    0  502  503  0.00000000000E+00  0.00000000000E+00  0.17477655178E+03  0.17477655178E+03  0.00000000000E+00 0. -1.
         21   -1    0    0  503  504 -0.00000000000E+00 -0.00000000000E+00 -0.33302783771E+03  0.33302783771E+03  0.00000000000E+00 0. -1.
         -6    2    1    2    0  504  0.13093256131E+03  0.25323856124E+01 -0.18907321092E+03  0.28804748005E+03  0.17341546380E+03 0.  0.
        -24    2    3    3    0    0  0.46735995297E+01  0.16110674350E+02 -0.11532532532E+03  0.14112390813E+03  0.79590391536E+02 0.  0.
          6    2    1    2  502    0 -0.13093256131E+03 -0.25323856124E+01  0.30821924982E+02  0.21975690945E+03  0.17376236532E+03 0.  0.
         24    2    5    5    0    0 -0.12051763181E+03 -0.22807672016E+02  0.79007483470E+02  0.16624526546E+03  0.79690754567E+02 0.  0.
          4    1    6    6  501    0 -0.10890667176E+03 -0.42487195892E+02  0.44975718828E+02  0.12525430234E+03  0.00000000000E+00 0. -1.
         -3    1    6    6    0  501 -0.11610960048E+02  0.19679523876E+02  0.34031764642E+02  0.40990963125E+02  0.00000000000E+00 0.  1.
          5    1    5    5  502    0 -0.10414929496E+02  0.20275286403E+02 -0.48185558488E+02  0.53511643985E+02  0.47000000000E+01 0. -1.
         13    1    4    4    0    0  0.13762814344E+02 -0.24924456791E+02 -0.14633316908E+02  0.32012147205E+02  0.00000000000E+00 0. -1.
        -14    1    4    4    0    0 -0.90892148147E+01  0.41035131141E+02 -0.10069200841E+03  0.10911176093E+03  0.00000000000E+00 0.  1.
         -5    1    3    3    0  504  0.12625896178E+03 -0.13578288738E+02 -0.73747885596E+02  0.14692357191E+03  0.47000000000E+01 0.  1.
<mgrwt>
<rscale>  2 0.21751545E+03</rscale>
<asrwt>0</asrwt>
<pdfrwt beam="1">  1       21 0.26888700E-01 0.21758471E+03</pdfrwt>
<pdfrwt beam="2">  1       21 0.51235052E-01 0.21758471E+03</pdfrwt>
<totfact> 0.47130257E+04</totfact>
</mgrwt>
</event>
<event>
12    1  0.1410528E-001  0.1970906E+03  0.7546771E-02  0.1152423E+00
         21   -1    0    0  502  503  0.00000000000E+00  0.00000000000E+00  0.12076249642E+03  0.12076249642E+03  0.00000000000E+00 0.  1.
         21   -1    0    0  503  504 -0.00000000000E+00 -0.00000000000E+00 -0.44425380952E+03  0.44425380952E+03  0.00000000000E+00 0.  1.
         -6    2    1    2    0  504 -0.90216818532E+02  0.31711369061E+02 -0.31080697132E+03  0.36751794754E+03  0.17124188468E+03 0.  0.
        -24    2    3    3    0    0  0.32489918199E+00  0.58458971324E+02 -0.14318373946E+03  0.17507867210E+03  0.82057304917E+02 0.  0.
          6    2    1    2  502    0  0.90216818532E+02 -0.31711369061E+02 -0.12684341779E+02  0.19749835839E+03  0.17233694835E+03 0.  0.
         24    2    5    5    0    0  0.33623885319E+02  0.22808881907E+02  0.44278280874E+02  0.10032815599E+03  0.80339043868E+02 0.  0.
          4    1    6    6  501    0  0.33433634489E+02 -0.23219673167E+02  0.74562591172E+01  0.41383051327E+02  0.00000000000E+00 0. -1.
         -3    1    6    6    0  501  0.19025082991E+00  0.46028555074E+02  0.36822021757E+02  0.58945104664E+02  0.00000000000E+00 0.  1.
          5    1    5    5  502    0  0.56592933213E+02 -0.54520250968E+02 -0.56962622652E+02  0.97170202401E+02  0.47000000000E+01 0. -1.
         13    1    4    4    0    0  0.74106076327E+01 -0.19704249384E+02 -0.20131696014E+02  0.29128332147E+02  0.00000000000E+00 0. -1.
        -14    1    4    4    0    0 -0.70857084507E+01  0.78163220708E+02 -0.12305204345E+03  0.14595033995E+03  0.00000000000E+00 0.  1.
         -5    1    3    3    0  504 -0.90541717714E+02 -0.26747602263E+02 -0.16762323186E+03  0.19243927544E+03  0.47000000000E+01 0.  1.
<mgrwt>
<rscale>  2 0.19685097E+03</rscale>
<asrwt>0</asrwt>
<pdfrwt beam="1">  1       21 0.18578846E-01 0.19709061E+03</pdfrwt>
<pdfrwt beam="2">  1       21 0.68346739E-01 0.19709061E+03</pdfrwt>
<totfact> 0.51598192E+04</totfact>
</mgrwt>
</event>
<event>
12    1  0.1410528E-001  0.1852364E+03  0.7546771E-02  0.1162856E+00
         21   -1    0    0  502  503  0.00000000000E+00  0.00000000000E+00  0.72336682586E+03  0.72336682586E+03  0.00000000000E+00 0.  1.
         21   -1    0    0  503  504 -0.00000000000E+00 -0.00000000000E+00 -0.10333057226E+03  0.10333057226E+03  0.00000000000E+00 0.  1.
         -6    2    1    2    0  504 -0.39106638311E+02 -0.54230850732E+02  0.59684180852E+01  0.18533255002E+03  0.17274900217E+03 0.  0.
        -24    2    3    3    0    0 -0.27031228446E+02 -0.54213520786E+02  0.67118180015E+02  0.12282495682E+03  0.83134389885E+02 0.  0.
          6    2    1    2  502    0  0.39106638311E+02  0.54230850732E+02  0.61406783552E+03  0.64136484811E+03  0.17262458527E+03 0.  0.
         24    2    5    5    0    0 -0.37457055823E+02  0.35206609572E+02  0.44419583128E+03  0.45400821269E+03  0.78555612629E+02 0.  0.
          4    1    6    6  501    0 -0.49663967604E+02  0.35555490535E+01  0.15430862271E+03  0.16214284643E+03  0.00000000000E+00 0. -1.
         -3    1    6    6    0  501  0.12206911781E+02  0.31651060518E+02  0.28988720857E+03  0.29186536626E+03  0.00000000000E+00 0.  1.
          5    1    5    5  502    0  0.76563694134E+02  0.19024241161E+02  0.16987200424E+03  0.18735663542E+03  0.47000000000E+01 0. -1.
         13    1    4    4    0    0  0.60154827613E+01  0.68110785171E+01  0.50704414978E+02  0.51512275446E+02  0.00000000000E+00 0. -1.
        -14    1    4    4    0    0 -0.33046711207E+02 -0.61024599303E+02  0.16413765037E+02  0.71312681372E+02  0.00000000000E+00 0.  1.
         -5    1    3    3    0  504 -0.12075409865E+02 -0.17329946068E-01 -0.61149761930E+02  0.62507593201E+02  0.47000000000E+01 0.  1.
<mgrwt>
<rscale>  2 0.18520741E+03</rscale>
<asrwt>0</asrwt>
<pdfrwt beam="1">  1       21 0.11128720E+00 0.18523642E+03</pdfrwt>
<pdfrwt beam="2">  1       21 0.15897012E-01 0.18523642E+03</pdfrwt>
<totfact> 0.22504339E+04</totfact>
</mgrwt>
</event>
<event>
12    1  0.1410528E-001  0.1832866E+03  0.7546771E-02  0.1165265E+00
         21   -1    0    0  502  503  0.00000000000E+00  0.00000000000E+00  0.73405214135E+02  0.73405214135E+02  0.00000000000E+00 0. -1.
         21   -1    0    0  503  504 -0.00000000000E+00 -0.00000000000E+00 -0.57477843187E+03  0.57477843187E+03  0.00000000000E+00 0. -1.
         -6    2    1    2    0  504  0.15563864028E+02  0.59048682034E+02 -0.39950778374E+03  0.43849205927E+03  0.17011712454E+03 0.  0.
        -24    2    3    3    0    0 -0.46000945630E+00  0.10289540004E+03 -0.27641147024E+03  0.30675712996E+03  0.84314654401E+02 0.  0.
          6    2    1    2  502    0 -0.15563864028E+02 -0.59048682034E+02 -0.10186543399E+03  0.20969158673E+03  0.17281497097E+03 0.  0.
         24    2    5    5    0    0 -0.13980817057E+02 -0.10004523438E+03 -0.10605946153E+03  0.16818371749E+03  0.82659792417E+02 0.  0.
          2    1    6    6  501    0 -0.45596293500E+02 -0.82149441739E+02 -0.71802336111E+02  0.11825027793E+03  0.00000000000E+00 0. -1.
         -1    1    6    6    0  501  0.31615476443E+02 -0.17895792638E+02 -0.34257125417E+02  0.49933439563E+02  0.00000000000E+00 0.  1.
          5    1    5    5  502    0 -0.15830469708E+01  0.40996552343E+02  0.41940275363E+01  0.41507869239E+02  0.47000000000E+01 0. -1.
         11    1    4    4    0    0 -0.96139784825E+01  0.73886515989E+00 -0.11573062595E+03  0.11613161622E+03  0.00000000000E+00 0. -1.
        -12    1    4    4    0    0  0.91539690262E+01  0.10215653488E+03 -0.16068084429E+03  0.19062551374E+03  0.00000000000E+00 0.  1.
         -5    1    3    3    0  504  0.16023873485E+02 -0.43846718009E+02 -0.12309631350E+03  0.13173492931E+03  0.47000000000E+01 0.  1.
<mgrwt>
<rscale>  2 0.18264795E+03</rscale>
<asrwt>0</asrwt>
<pdfrwt beam="1">  1       21 0.11293110E-01 0.18328665E+03</pdfrwt>
<pdfrwt beam="2">  1       21 0.88427448E-01 0.18328665E+03</pdfrwt>
<totfact> 0.71859805E+04</totfact>
</mgrwt>
</event>
<event>
12    1  0.1410528E-001  0.1825041E+03  0.7546771E-02  0.1165594E+00
         21   -1    0    0  502  503  0.00000000000E+00  0.00000000000E+00  0.22438979473E+03  0.22438979473E+03  0.00000000000E+00 0.  1.
         21   -1    0    0  503  504 -0.00000000000E+00 -0.00000000000E+00 -0.18399607470E+03  0.18399607470E+03  0.00000000000E+00 0.  1.
         -6    2    1    2    0  504 -0.60251357682E+02  0.15473606667E+01 -0.70430439431E+02  0.19486832815E+03  0.17140769554E+03 0.  0.
        -24    2    3    3    0    0 -0.26136008435E+02  0.75085427842E+01  0.28910696864E+02  0.89558575012E+02  0.80283502747E+02 0.  0.
          6    2    1    2  502    0  0.60251357682E+02 -0.15473606667E+01  0.11082415946E+03  0.21351754128E+03  0.17226469657E+03 0.  0.
         24    2    5    5    0    0  0.12576419577E+02 -0.59716194964E+01 -0.31669820722E+01  0.89789839701E+02  0.88647385575E+02 0.  0.
          4    1    6    6  501    0 -0.78447765592E+01  0.48542133035E+01 -0.42868767282E+02  0.43850143835E+02  0.00000000000E+00 0. -1.
         -3    1    6    6    0  501  0.20421196136E+02 -0.10825832800E+02  0.39701785210E+02  0.45939695866E+02  0.00000000000E+00 0.  1.
          5    1    5    5  502    0  0.47674938105E+02  0.44242588297E+01  0.11399114153E+03  0.12372770158E+03  0.47000000000E+01 0. -1.
         13    1    4    4    0    0 -0.11163339020E+02  0.32301554848E+02  0.44937305807E+02  0.56456815681E+02  0.00000000000E+00 0. -1.
        -14    1    4    4    0    0 -0.14972669415E+02 -0.24793012064E+02 -0.16026608943E+02  0.33101759331E+02  0.00000000000E+00 0.  1.
         -5    1    3    3    0  504 -0.34115349247E+02 -0.59611821175E+01 -0.99341136295E+02  0.10530975314E+03  0.47000000000E+01 0.  1.
<mgrwt>
<rscale>  2 0.18230159E+03</rscale>
<asrwt>0</asrwt>
<pdfrwt beam="1">  1       21 0.34521507E-01 0.18250410E+03</pdfrwt>
<pdfrwt beam="2">  1       21 0.28307089E-01 0.18250410E+03</pdfrwt>
<totfact> 0.96843593E+04</totfact>
</mgrwt>
</event>
<event>
12    1  0.1410528E-001  0.3012630E+03  0.7546771E-02  0.1084620E+00
         21   -1    0    0  502  503  0.00000000000E+00  0.00000000000E+00  0.82185796951E+03  0.82185796951E+03  0.00000000000E+00 0.  1.
         21   -1    0    0  503  504 -0.00000000000E+00 -0.00000000000E+00 -0.11040522983E+03  0.11040522983E+03  0.00000000000E+00 0.  1.
         -6    2    1    2    0  504 -0.24342321402E+03 -0.40599337028E+02  0.35700657093E+03  0.46708422772E+03  0.17265809223E+03 0.  0.
        -24    2    3    3    0    0 -0.18903476461E+03  0.34140426280E+02  0.25091631022E+03  0.32629584373E+03  0.81303579061E+02 0.  0.
          6    2    1    2  502    0  0.24342321402E+03  0.40599337028E+02  0.35444616875E+03  0.46517897162E+03  0.17278953038E+03 0.  0.
         24    2    5    5    0    0  0.53833665868E+02 -0.53389837462E+01  0.63131534857E+02  0.11454977717E+03  0.78800332665E+02 0.  0.
          4    1    6    6  501    0 -0.18040805646E+01 -0.18625975622E+02 -0.10384127587E+02  0.21401209786E+02  0.00000000000E+00 0. -1.
         -3    1    6    6    0  501  0.55637746433E+02  0.13286991875E+02  0.73515662444E+02  0.93148567385E+02  0.00000000000E+00 0.  1.
          5    1    5    5  502    0  0.18958954815E+03  0.45938320774E+02  0.29131463389E+03  0.35062919445E+03  0.47000000000E+01 0. -1.
         13    1    4    4    0    0 -0.92039824247E+01 -0.28363130554E+01  0.62447508004E+02  0.63185830849E+02  0.00000000000E+00 0. -1.
        -14    1    4    4    0    0 -0.17983078218E+03  0.36976739335E+02  0.18846880221E+03  0.26311001288E+03  0.00000000000E+00 0.  1.
         -5    1    3    3    0  504 -0.54388449412E+02 -0.74739763308E+02  0.10609026071E+03  0.14078838399E+03  0.47000000000E+01 0.  1.
<mgrwt>
<rscale>  2 0.30124415E+03</rscale>
<asrwt>0</asrwt>
<pdfrwt beam="1">  1       21 0.12643968E+00 0.30126299E+03</pdfrwt>
<pdfrwt beam="2">  1       21 0.16985420E-01 0.30126299E+03</pdfrwt>
<totfact> 0.13623237E+04</totfact>
</mgrwt>
</event>
<event>
12    1  0.1410528E-001  0.2519830E+03  0.7546771E-02  0.1112073E+00
         21   -1    0    0  502  503  0.00000000000E+00  0.00000000000E+00  0.55071722865E+02  0.55071722865E+02  0.00000000000E+00 0.  1.
         21   -1    0    0  503  504 -0.00000000000E+00 -0.00000000000E+00 -0.13766386807E+04  0.13766386807E+04  0.00000000000E+00 0.  1.
         -6    2    1    2    0  504 -0.65948948693E+02 -0.16996470767E+03 -0.94971994923E+03  0.98257997678E+03  0.17394873708E+03 0.  0.
        -24    2    3    3    0    0  0.15320364716E+02 -0.96690240813E+02 -0.33261904406E+03  0.35583484042E+03  0.79995555774E+02 0.  0.
          6    2    1    2  502    0  0.65948948693E+02  0.16996470767E+03 -0.37184700862E+03  0.44913042679E+03  0.17381218819E+03 0.  0.
         24    2    5    5    0    0  0.28531159357E+01  0.15913391575E+03 -0.21553716320E+03  0.28015336344E+03  0.81840667830E+02 0.  0.
          2    1    6    6  501    0  0.37613041548E+02  0.40992781229E+02 -0.61249433962E+02  0.82744438895E+02  0.00000000000E+00 0. -1.
         -1    1    6    6    0  501 -0.34759925612E+02  0.11814113453E+03 -0.15428772924E+03  0.19740892454E+03  0.00000000000E+00 0.  1.
          5    1    5    5  502    0  0.63095832757E+02  0.10830791914E+02 -0.15630984541E+03  0.16897706335E+03  0.47000000000E+01 0. -1.
         11    1    4    4    0    0 -0.16386049841E+01 -0.14243360068E+00  0.44799942412E+01  0.47723853602E+01  0.00000000000E+00 0. -1.
        -12    1    4    4    0    0  0.16958969700E+02 -0.96547807213E+02 -0.33709903830E+03  0.35106245506E+03  0.00000000000E+00 0.  1.
         -5    1    3    3    0  504 -0.81269313409E+02 -0.73274466855E+02 -0.61710090517E+03  0.62674513636E+03  0.47000000000E+01 0.  1.
<mgrwt>
<rscale>  2 0.25195943E+03</rscale>
<asrwt>0</asrwt>
<pdfrwt beam="1">  1       21 0.84725732E-02 0.25198299E+03</pdfrwt>
<pdfrwt beam="2">  1       21 0.21179056E+00 0.25198299E+03</pdfrwt>
<totfact> 0.11738606E+04</totfact>
</mgrwt>
</event>
<event>
12    1  0.1410528E-001  0.2262809E+03  0.7546771E-02  0.1129389E+00
         21   -1    0    0  502  503  0.00000000000E+00  0.00000000000E+00  0.72797797008E+03  0.72797797008E+03  0.00000000000E+00 0.  1.
         21   -1    0    0  503  504 -0.00000000000E+00 -0.00000000000E+00 -0.98355744405E+02  0.98355744405E+02  0.00000000000E+00 0.  1.
         -6    2    1    2    0  504 -0.51804313999E+02  0.13642529471E+03  0.93295626383E+02  0.24422610983E+03  0.17218237666E+03 0.  0.
        -24    2    3    3    0    0 -0.12326769120E+02  0.15418670832E+03  0.46903128733E+02  0.18059987152E+03  0.80566245094E+02 0.  0.
          6    2    1    2  502    0  0.51804313999E+02 -0.13642529471E+03  0.53632659929E+03  0.58210760466E+03  0.17293783365E+03 0.  0.
         24    2    5    5    0    0 -0.22801010778E+02 -0.12163034337E+03  0.32225408528E+03  0.35487649692E+03  0.82315284503E+02 0.  0.
          4    1    6    6  501    0 -0.28257641328E+02 -0.19729831512E+02  0.31336905857E+02  0.46580706452E+02  0.00000000000E+00 0. -1.
         -3    1    6    6    0  501  0.54566305505E+01 -0.10190051186E+03  0.29091717942E+03  0.30829579046E+03  0.00000000000E+00 0.  1.
          5    1    5    5  502    0  0.74605324776E+02 -0.14794951340E+02  0.21407251401E+03  0.22723110774E+03  0.47000000000E+01 0. -1.
         11    1    4    4    0    0 -0.85472980675E+01  0.62369454643E+01  0.29792946769E+02  0.31616063483E+02  0.00000000000E+00 0. -1.
        -12    1    4    4    0    0 -0.37794710523E+01  0.14794976285E+03  0.17110181965E+02  0.14898380804E+03  0.00000000000E+00 0.  1.
         -5    1    3    3    0  504 -0.39477544879E+02 -0.17761413605E+02  0.46392497650E+02  0.63626238307E+02  0.47000000000E+01 0.  1.
<mgrwt>
<rscale>  2 0.22613654E+03</rscale>
<asrwt>0</asrwt>
<pdfrwt beam="1">  1       21 0.11199661E+00 0.22628089E+03</pdfrwt>
<pdfrwt beam="2">  1       21 0.15131653E-01 0.22628089E+03</pdfrwt>
<totfact> 0.23669525E+04</totfact>
</mgrwt>
</event>
<event>
12    1  0.1410528E-001  0.3298378E+03  0.7546771E-02  0.1071226E+00
         21   -1    0    0  502  503  0.00000000000E+00  0.00000000000E+00  0.13197661605E+04  0.13197661605E+04  0.00000000000E+00 0. -1.
         21   -1    0    0  503  504 -0.00000000000E+00 -0.00000000000E+00 -0.97432961660E+02  0.97432961660E+02  0.00000000000E+00 0. -1.
         -6    2    1    2    0  504 -0.25446051481E+03  0.12112864890E+03  0.33266179186E+03  0.46835342421E+03  0.17108114749E+03 0.  0.
        -24    2    3    3    0    0 -0.19201903602E+03  0.97608097775E+02  0.32835796214E+03  0.40132531407E+03  0.82730922111E+02 0.  0.
          6    2    1    2  502    0  0.25446051481E+03 -0.12112864890E+03  0.88967140703E+03  0.94884569800E+03  0.17137865371E+03 0.  0.
         24    2    5    5    0    0  0.49749880277E+02 -0.51579054812E+02  0.36231204178E+03  0.37886887387E+03  0.84475786391E+02 0.  0.
          4    1    6    6  501    0  0.72353056647E+02 -0.49488504458E+02  0.27365345976E+03  0.28735047054E+03  0.00000000000E+00 0. -1.
         -3    1    6    6    0  501 -0.22603176370E+02 -0.20905503540E+01  0.88658582022E+02  0.91518403335E+02  0.00000000000E+00 0.  1.
          5    1    5    5  502    0  0.20471063453E+03 -0.69549594085E+02  0.52735936525E+03  0.56997682413E+03  0.47000000000E+01 0. -1.
         11    1    4    4    0    0 -0.11715629461E+03  0.69551450550E+02  0.26972106196E+03  0.30217950445E+03  0.00000000000E+00 0. -1.
        -12    1    4    4    0    0 -0.74862741411E+02  0.28056647224E+02  0.58636900171E+02  0.99145809628E+02  0.00000000000E+00 0.  1.
         -5    1    3    3    0  504 -0.62441478784E+02  0.23520551122E+02  0.43038297219E+01  0.67028110134E+02  0.47000000000E+01 0.  1.
<mgrwt>
<rscale>  2 0.32979913E+03</rscale>
<asrwt>0</asrwt>
<pdfrwt beam="1">  1       21 0.20304094E+00 0.32983776E+03</pdfrwt>
<pdfrwt beam="2">  1       21 0.14989687E-01 0.32983776E+03</pdfrwt>
<totfact> 0.45689819E+03</totfact>
</mgrwt>
</event>
<event>
12    1  0.1410528E-001  0.2564044E+03  0.7546771E-02  0.1109548E+00
         21   -1    0    0  502  503  0.00000000000E+00  0.00000000000E+00  0.20949286241E+04  0.20949286241E+04  0.00000000000E+00 0.  1.
         21   -1    0    0  503  504 -0.00000000000E+00 -0.00000000000E+00 -0.49938880998E+02  0.49938880998E+02  0.00000000000E+00 0.  1.
         -6    2    1    2    0  504 -0.96098047357E+02 -0.16052249541E+03  0.36744507293E+03  0.44806148429E+03  0.17533084681E+03 0.  0.
        -24    2    3    3    0    0 -0.82611458610E+02 -0.15498941805E+03  0.38121143839E+03  0.42746765417E+03  0.80994208437E+02 0.  0.
          6    2    1    2  502    0  0.96098047357E+02  0.16052249541E+03  0.16775446701E+04  0.16968060208E+04  0.17318269428E+03 0.  0.
         24    2    5    5    0    0  0.90994548225E+02  0.15000732240E+03  0.96645242767E+03  0.98560219495E+03  0.81235381266E+02 0.  0.
          4    1    6    6  501    0  0.39474342774E+02  0.32211768269E+02  0.13550036059E+03  0.14476245878E+03  0.00000000000E+00 0. -1.
         -3    1    6    6    0  501  0.51520205451E+02  0.11779555413E+03  0.83095206708E+03  0.84083973617E+03  0.00000000000E+00 0.  1.
          5    1    5    5  502    0  0.51034991314E+01  0.10515173010E+02  0.71109224246E+03  0.71120382581E+03  0.47000000000E+01 0. -1.
         11    1    4    4    0    0 -0.47070554627E+02 -0.29301431438E+02  0.17309490147E+03  0.18175823479E+03  0.00000000000E+00 0. -1.
        -12    1    4    4    0    0 -0.35540903984E+02 -0.12568798661E+03  0.20811653692E+03  0.24570941938E+03  0.00000000000E+00 0.  1.
         -5    1    3    3    0  504 -0.13486588746E+02 -0.55330773600E+01 -0.13766365459E+02  0.20593830120E+02  0.47000000000E+01 0.  1.
<mgrwt>
<rscale>  2 0.25603758E+03</rscale>
<asrwt>0</asrwt>
<pdfrwt beam="1">  1       21 0.32229664E+00 0.25640439E+03</pdfrwt>
<pdfrwt beam="2">  1       21 0.76829064E-02 0.25640439E+03</pdfrwt>
<totfact> 0.30468444E+03</totfact>
</mgrwt>
</event>
<event>
12    1  0.1410528E-001  0.2230500E+03  0.7546771E-02  0.1131718E+00
         21   -1    0    0  502  503  0.00000000000E+00  0.00000000000E+00  0.74717119512E+02  0.74717119512E+02  0.00000000000E+00 0. -1.
         21   -1    0    0  503  504 -0.00000000000E+00 -0.00000000000E+00 -0.10082829481E+04  0.10082829481E+04  0.00000000000E+00 0.  1.
         -6    2    1    2    0  504 -0.84952611138E+02 -0.11092854036E+03 -0.15022349976E+03  0.26852079001E+03  0.17324614738E+03 0.  0.
        -24    2    3    3    0    0 -0.11791987059E+03 -0.11540615162E+03 -0.14629421474E+03  0.23469153522E+03  0.80339552670E+02 0.  0.
          6    2    1    2  502    0  0.84952611138E+02  0.11092854036E+03 -0.78334232887E+03  0.81447927765E+03  0.17386547189E+03 0.  0.
         24    2    5    5    0    0  0.74816490828E+02  0.84628855532E+02 -0.77091307659E+03  0.78331855447E+03  0.80755406210E+02 0.  0.
          2    1    6    6  501    0  0.59878861701E+02  0.13752200831E+02 -0.45969899305E+03  0.46378633585E+03  0.00000000000E+00 0. -1.
         -1    1    6    6    0  501  0.14937629127E+02  0.70876654701E+02 -0.31121408354E+03  0.31953221862E+03  0.00000000000E+00 0.  1.
          5    1    5    5  502    0  0.10136120310E+02  0.26299684824E+02 -0.12429252281E+02  0.31160723179E+02  0.47000000000E+01 0. -1.
         11    1    4    4    0    0 -0.47337894209E+02 -0.81753616067E+02 -0.39652816134E+02  0.10245426197E+03  0.00000000000E+00 0. -1.
        -12    1    4    4    0    0 -0.70581976384E+02 -0.33652535558E+02 -0.10664139861E+03  0.13223727325E+03  0.00000000000E+00 0.  1.
         -5    1    3    3    0  504  0.32967259455E+02  0.44776112686E+01 -0.39292850190E+01  0.33829254787E+02  0.47000000000E+01 0.  1.
<mgrwt>
<rscale>  2 0.22292927E+03</rscale>
<asrwt>0</asrwt>
<pdfrwt beam="1">  1       21 0.11494942E-01 0.22304997E+03</pdfrwt>
<pdfrwt beam="2">  1       21 0.15512045E+00 0.22304997E+03</pdfrwt>
<totfact> 0.16980018E+04</totfact>
</mgrwt>
</event>
<event>
12    1  0.1410528E-001  0.1789682E+03  0.7546771E-02  0.1168948E+00
         21   -1    0    0  502  503  0.00000000000E+00  0.00000000000E+00  0.49295518435E+03  0.49295518435E+03  0.00000000000E+00 0. -1.
         21   -1    0    0  503  504 -0.00000000000E+00 -0.00000000000E+00 -0.38780679684E+03  0.38780679684E+03  0.00000000000E+00 0. -1.
         -6    2    1    2    0  504  0.40170238211E+02  0.24387310108E+02 -0.34934264479E+03  0.39251736803E+03  0.17268819243E+03 0.  0.
        -24    2    3    3    0    0  0.61240538945E+02  0.34382588378E+02 -0.35258731041E+03  0.36850734896E+03  0.80915318567E+02 0.  0.
          6    2    1    2  502    0 -0.40170238211E+02 -0.24387310108E+02  0.45449103230E+03  0.48824461317E+03  0.17208229110E+03 0.  0.
         24    2    5    5    0    0  0.21531308714E+02  0.34747693259E+02  0.18944865482E+03  0.20972427033E+03  0.80140360043E+02 0.  0.
          2    1    6    6  501    0 -0.59333900396E+01  0.51927809260E+02  0.14900587054E+03  0.15790646582E+03  0.00000000000E+00 0. -1.
         -1    1    6    6    0  501  0.27464698754E+02 -0.17180116001E+02  0.40442784284E+02  0.51817804509E+02  0.00000000000E+00 0.  1.
          5    1    5    5  502    0 -0.61701546925E+02 -0.59135003367E+02  0.26504237748E+03  0.27852034284E+03  0.47000000000E+01 0. -1.
         13    1    4    4    0    0  0.50632581425E+02  0.60487939834E+02 -0.25325938657E+03  0.26525980859E+03  0.00000000000E+00 0. -1.
        -14    1    4    4    0    0  0.10607957520E+02 -0.26105351456E+02 -0.99327923843E+02  0.10324754037E+03  0.00000000000E+00 0.  1.
         -5    1    3    3    0  504 -0.21070300735E+02 -0.99952782698E+01  0.32446656242E+01  0.24010019070E+02  0.47000000000E+01 0.  1.
<mgrwt>
<rscale>  2 0.17882183E+03</rscale>
<asrwt>0</asrwt>
<pdfrwt beam="1">  1       21 0.75839259E-01 0.17896816E+03</pdfrwt>
<pdfrwt beam="2">  1       21 0.59662584E-01 0.17896816E+03</pdfrwt>
<totfact> 0.41136601E+03</totfact>
</mgrwt>
</event>
<event>
12    1  0.1410528E-001  0.1984222E+03  0.7546771E-02  0.1151417E+00
         21   -1    0    0  502  503  0.00000000000E+00  0.00000000000E+00  0.93875040381E+03  0.93875040381E+03  0.00000000000E+00 0.  1.
         21   -1    0    0  503  504 -0.00000000000E+00 -0.00000000000E+00 -0.11206701909E+03  0.11206701909E+03  0.00000000000E+00 0.  1.
         -6    2    1    2    0  504 -0.26510718564E+02 -0.91971492571E+02 -0.26558460809E+01  0.19843998731E+03  0.17380967004E+03 0.  0.
        -24    2    3    3    0    0 -0.16109771158E+01  0.37389490320E+01 -0.43711958501E+02  0.91257058987E+02  0.80003378128E+02 0.  0.
          6    2    1    2  502    0  0.26510718564E+02  0.91971492571E+02  0.82933923080E+03  0.85237743559E+03  0.17199464906E+03 0.  0.
         24    2    5    5    0    0  0.69146204508E+02  0.10442830904E+03  0.69848740536E+03  0.71411230202E+03  0.79907791383E+02 0.  0.
          2    1    6    6  501    0  0.57034475282E+02  0.55428012185E+02  0.23954206875E+03  0.25239968028E+03  0.00000000000E+00 0. -1.
         -1    1    6    6    0  501  0.12111729226E+02  0.49000296858E+02  0.45894533660E+03  0.46171262173E+03  0.00000000000E+00 0.  1.
          5    1    5    5  502    0 -0.42635485944E+02 -0.12456816472E+02  0.13085182545E+03  0.13826513357E+03  0.47000000000E+01 0. -1.
         11    1    4    4    0    0 -0.53170572774E+01  0.37739012525E+02 -0.32106565537E+01  0.38246731624E+02  0.00000000000E+00 0. -1.
        -12    1    4    4    0    0  0.37060801617E+01 -0.34000063493E+02 -0.40501301947E+02  0.53010327363E+02  0.00000000000E+00 0.  1.
         -5    1    3    3    0  504 -0.24899741449E+02 -0.95710441603E+02  0.41056112420E+02  0.10718292832E+03  0.47000000000E+01 0.  1.
<mgrwt>
<rscale>  2 0.19802403E+03</rscale>
<asrwt>0</asrwt>
<pdfrwt beam="1">  1       21 0.14442313E+00 0.19842221E+03</pdfrwt>
<pdfrwt beam="2">  1       21 0.17241080E-01 0.19842221E+03</pdfrwt>
<totfact> 0.99906193E+03</totfact>
</mgrwt>
</event>
<event>
12    1  0.1410528E-001  0.2260866E+03  0.7546771E-02  0.1129435E+00
         21   -1    0    0  502  503  0.00000000000E+00  0.00000000000E+00  0.92716090279E+03  0.92716090279E+03  0.00000000000E+00 0.  1.
         21   -1    0    0  503  504 -0.00000000000E+00 -0.00000000000E+00 -0.13538235583E+03  0.13538235583E+03  0.00000000000E+00 0. -1.
         -6    2    1    2    0  504  0.62714446942E+02 -0.13148337659E+03 -0.13202641205E+02  0.22641536390E+03  0.17282542377E+03 0.  0.
        -24    2    3    3    0    0  0.23006135085E+02  0.17376723195E+01  0.10447884162E+02  0.85326614334E+02  0.81481108692E+02 0.  0.
          6    2    1    2  502    0 -0.62714446942E+02  0.13148337659E+03  0.80498118816E+03  0.83612789472E+03  0.17289928532E+03 0.  0.
         24    2    5    5    0    0 -0.48618228507E+02  0.13465954844E+03  0.80434673029E+03  0.82091987123E+03  0.80242422229E+02 0.  0.
          2    1    6    6  501    0  0.40419868648E+01  0.48061782581E+02  0.44333488838E+03  0.44595077739E+03  0.00000000000E+00 0. -1.
         -1    1    6    6    0  501 -0.52660215372E+02  0.86597765857E+02  0.36101184191E+03  0.37496909384E+03  0.00000000000E+00 0.  1.
          5    1    5    5  502    0 -0.14096218435E+02 -0.31761718448E+01  0.63445787292E+00  0.15208023492E+02  0.47000000000E+01 0. -1.
         13    1    4    4    0    0  0.20676719052E+02 -0.27176892389E+02 -0.22908835028E+02  0.41120857397E+02  0.00000000000E+00 0. -1.
        -14    1    4    4    0    0  0.23294160322E+01  0.28914564708E+02  0.33356719190E+02  0.44205756938E+02  0.00000000000E+00 0.  1.
         -5    1    3    3    0  504  0.39708311857E+02 -0.13322104891E+03 -0.23650525367E+02  0.14108874957E+03  0.47000000000E+01 0.  1.
<mgrwt>
<rscale>  2 0.22607246E+03</rscale>
<asrwt>0</asrwt>
<pdfrwt beam="1">  1       21 0.14264013E+00 0.22608658E+03</pdfrwt>
<pdfrwt beam="2">  1       21 0.20828055E-01 0.22608658E+03</pdfrwt>
<totfact> 0.71132016E+03</totfact>
</mgrwt>
</event>
<event>
12    1  0.1410528E-001  0.1955941E+03  0.7546771E-02  0.1153686E+00
         21   -1    0    0  502  503  0.00000000000E+00  0.00000000000E+00  0.10951578368E+03  0.10951578368E+03  0.00000000000E+00 0.  1.
         21   -1    0    0  503  504 -0.00000000000E+00 -0.00000000000E+00 -0.45584629919E+03  0.45584629919E+03  0.00000000000E+00 0.  1.
         -6    2    1    2    0  504 -0.37107869413E+02  0.83591226320E+02 -0.31045775135E+03  0.36650555925E+03  0.17198204122E+03 0.  0.
        -24    2    3    3    0    0 -0.15045710243E+02  0.93054376163E+02 -0.10584358979E+03  0.16043436965E+03  0.75172010396E+02 0.  0.
          6    2    1    2  502    0  0.37107869413E+02 -0.83591226320E+02 -0.35872764156E+02  0.19885652362E+03  0.17289469248E+03 0.  0.
         24    2    5    5    0    0  0.83537834804E+02 -0.90597071981E+02 -0.16811520509E+02  0.14796207825E+03  0.80148300566E+02 0.  0.
          4    1    6    6  501    0  0.39445728853E+02 -0.86044672792E+02 -0.33774686615E+02  0.10050065023E+03  0.00000000000E+00 0. -1.
         -3    1    6    6    0  501  0.44092105951E+02 -0.45523991889E+01  0.16963166106E+02  0.47461428022E+02  0.00000000000E+00 0.  1.
          5    1    5    5  502    0 -0.46429965391E+02  0.70058456606E+01 -0.19061243648E+02  0.50894445365E+02  0.47000000000E+01 0. -1.
         11    1    4    4    0    0 -0.43640012033E+02  0.73609447021E+02 -0.81245766602E+02  0.11799862682E+03  0.00000000000E+00 0. -1.
        -12    1    4    4    0    0  0.28594301790E+02  0.19444929141E+02 -0.24597823185E+02  0.42435742831E+02  0.00000000000E+00 0.  1.
         -5    1    3    3    0  504 -0.22062159170E+02 -0.94631498427E+01 -0.20461416156E+03  0.20607118960E+03  0.47000000000E+01 0.  1.
<mgrwt>
<rscale>  2 0.19539225E+03</rscale>
<asrwt>0</asrwt>
<pdfrwt beam="1">  1       21 0.16848582E-01 0.19559413E+03</pdfrwt>
<pdfrwt beam="2">  1       21 0.70130198E-01 0.19559413E+03</pdfrwt>
<totfact> 0.58444020E+04</totfact>
</mgrwt>
</event>
<event>
12    1  0.1410528E-001  0.2402563E+03  0.7546771E-02  0.1119718E+00
         21   -1    0    0  502  503  0.00000000000E+00  0.00000000000E+00  0.41460433514E+03  0.41460433514E+03  0.00000000000E+00 0.  1.
         21   -1    0    0  503  504 -0.00000000000E+00 -0.00000000000E+00 -0.18350082917E+04  0.18350082917E+04  0.00000000000E+00 0.  1.
         -6    2    1    2    0  504 -0.24711351313E+02 -0.16433985081E+03 -0.17915380874E+04  0.18074999316E+04  0.17271087595E+03 0.  0.
        -24    2    3    3    0    0 -0.51394644995E+02 -0.84866655287E+02 -0.62068482200E+03  0.63363986921E+03  0.80037971479E+02 0.  0.
          6    2    1    2  502    0  0.24711351313E+02  0.16433985081E+03  0.37113413076E+03  0.44211269532E+03  0.17350750674E+03 0.  0.
         24    2    5    5    0    0  0.62352767297E+02  0.82543350713E+02  0.30017142159E+03  0.32737238105E+03  0.79803014957E+02 0.  0.
          4    1    6    6  501    0  0.51350504606E+02  0.90323445589E+01  0.16589952512E+03  0.17389971250E+03  0.00000000000E+00 0. -1.
         -3    1    6    6    0  501  0.11002262691E+02  0.73511006154E+02  0.13427189648E+03  0.15347266855E+03  0.00000000000E+00 0.  1.
          5    1    5    5  502    0 -0.37641415984E+02  0.81796500098E+02  0.70962709168E+02  0.11474031427E+03  0.47000000000E+01 0. -1.
         11    1    4    4    0    0 -0.60127059809E+02 -0.94959596099E+02 -0.58098137270E+03  0.59175327937E+03  0.00000000000E+00 0. -1.
        -12    1    4    4    0    0  0.87324148148E+01  0.10092940812E+02 -0.39703449297E+02  0.41886589845E+02  0.00000000000E+00 0.  1.
         -5    1    3    3    0  504  0.26683293682E+02 -0.79473195524E+02 -0.11708532654E+04  0.11738600623E+04  0.47000000000E+01 0.  1.
<mgrwt>
<rscale>  2 0.24011251E+03</rscale>
<asrwt>0</asrwt>
<pdfrwt beam="1">  1       21 0.63785282E-01 0.24025631E+03</pdfrwt>
<pdfrwt beam="2">  1       21 0.28230897E+00 0.24025631E+03</pdfrwt>
<totfact> 0.91452445E+01</totfact>
</mgrwt>
</event>
<event>
12    1  0.1410528E-001  0.2264872E+03  0.7546771E-02  0.1129181E+00
         21   -1    0    0  502  503  0.00000000000E+00  0.00000000000E+00  0.13671469223E+03  0.13671469223E+03  0.00000000000E+00 0.  1.
         21   -1    0    0  503  504 -0.00000000000E+00 -0.00000000000E+00 -0.89088373352E+03  0.89088373352E+03  0.00000000000E+00 0. -1.
         -6    2    1    2    0  504 -0.11198066660E+03 -0.92337122248E+02 -0.76805778401E+03  0.80068576142E+03  0.17354859582E+03 0.  0.
        -24    2    3    3    0    0 -0.10842672050E+03 -0.10205213407E+03 -0.77063589903E+03  0.78903463853E+03  0.80777349120E+02 0.  0.
          6    2    1    2  502    0  0.11198066660E+03  0.92337122248E+02  0.13888742725E+02  0.22691266433E+03  0.17386962421E+03 0.  0.
         24    2    5    5    0    0  0.53012604285E+02  0.10416540256E+03 -0.37547900954E+02  0.14763493164E+03  0.82008907266E+02 0.  0.
          2    1    6    6  501    0 -0.10981536187E+02  0.38926866192E+02  0.13893348308E+02  0.42765876300E+02  0.00000000000E+00 0. -1.
         -1    1    6    6    0  501  0.63994140472E+02  0.65238536364E+02 -0.51441249262E+02  0.10486905534E+03  0.00000000000E+00 0.  1.
          5    1    5    5  502    0  0.58968062316E+02 -0.11828280307E+02  0.51436643679E+02  0.79277732695E+02  0.47000000000E+01 0. -1.
         11    1    4    4    0    0 -0.42982192122E+02  0.40267079017E+01 -0.15451255880E+03  0.16043009082E+03  0.00000000000E+00 0. -1.
        -12    1    4    4    0    0 -0.65444528380E+02 -0.10607884197E+03 -0.61612334024E+03  0.62860454770E+03  0.00000000000E+00 0.  1.
         -5    1    3    3    0  504 -0.35539460988E+01  0.97150118175E+01  0.25781150194E+01  0.11651122888E+02  0.47000000000E+01 0.  1.
<mgrwt>
<rscale>  2 0.22642560E+03</rscale>
<asrwt>0</asrwt>
<pdfrwt beam="1">  1       21 0.21033030E-01 0.22648722E+03</pdfrwt>
<pdfrwt beam="2">  1       21 0.13705903E+00 0.22648722E+03</pdfrwt>
<totfact> 0.77443775E+03</totfact>
</mgrwt>
</event>
<event>
12    1  0.1410528E-001  0.2458074E+03  0.7546771E-02  0.1116062E+00
         21   -1    0    0  502  503  0.00000000000E+00  0.00000000000E+00  0.37246941646E+03  0.37246941646E+03  0.00000000000E+00 0. -1.
         21   -1    0    0  503  504 -0.00000000000E+00 -0.00000000000E+00 -0.59881216193E+03  0.59881216193E+03  0.00000000000E+00 0. -1.
         -6    2    1    2    0  504 -0.13324250162E+03  0.11228619433E+03 -0.52796902398E+03  0.58218047032E+03  0.17268774148E+03 0.  0.
        -24    2    3    3    0    0 -0.15692158484E+03  0.60078968887E+02 -0.43264814559E+03  0.47085009159E+03  0.79256069630E+02 0.  0.
          6    2    1    2  502    0  0.13324250162E+03 -0.11228619433E+03  0.30162627852E+03  0.38910110806E+03  0.17337677679E+03 0.  0.
         24    2    5    5    0    0  0.31589503747E+02  0.20344773718E+02  0.11722286742E+03  0.14020150243E+03  0.67107779521E+02 0.  0.
          4    1    6    6  501    0  0.13438169753E+01  0.11898398763E+02 -0.57494851167E+01  0.13282857987E+02  0.00000000000E+00 0. -1.
         -3    1    6    6    0  501  0.30245686772E+02  0.84463749548E+01  0.12297235254E+03  0.12691864444E+03  0.00000000000E+00 0.  1.
          5    1    5    5  502    0  0.10165299787E+03 -0.13263096805E+03  0.18440341109E+03  0.24889960563E+03  0.47000000000E+01 0. -1.
         13    1    4    4    0    0 -0.72140830310E+02  0.11438601520E+02 -0.28173177413E+03  0.29104627391E+03  0.00000000000E+00 0. -1.
        -14    1    4    4    0    0 -0.84780754529E+02  0.48640367367E+02 -0.15091637146E+03  0.17980381768E+03  0.00000000000E+00 0.  1.
         -5    1    3    3    0  504  0.23679083218E+02  0.52207225442E+02 -0.95320878392E+02  0.11133037873E+03  0.47000000000E+01 0.  1.
<mgrwt>
<rscale>  2 0.24568590E+03</rscale>
<asrwt>0</asrwt>
<pdfrwt beam="1">  1       21 0.57302987E-01 0.24580736E+03</pdfrwt>
<pdfrwt beam="2">  1       21 0.92124948E-01 0.24580736E+03</pdfrwt>
<totfact> 0.27291736E+03</totfact>
</mgrwt>
</event>
<event>
12    1  0.1410528E-001  0.1778286E+03  0.7546771E-02  0.1170251E+00
         21   -1    0    0  502  503  0.00000000000E+00  0.00000000000E+00  0.35968416615E+03  0.35968416615E+03  0.00000000000E+00 0.  1.
         21   -1    0    0  503  504 -0.00000000000E+00 -0.00000000000E+00 -0.29330787012E+03  0.29330787012E+03  0.00000000000E+00 0.  1.
         -6    2    1    2    0  504 -0.14940040601E+02  0.29289433138E+02 -0.24050139950E+03  0.29831338093E+03  0.17340378997E+03 0.  0.
        -24    2    3    3    0    0  0.31342232003E+02 -0.38537543046E+02 -0.13600025432E+03  0.16532794264E+03  0.79810912220E+02 0.  0.
          6    2    1    2  502    0  0.14940040601E+02 -0.29289433138E+02  0.30687769554E+03  0.35467865534E+03  0.17476256128E+03 0.  0.
         24    2    5    5    0    0 -0.11503499087E+02 -0.78795773452E+02  0.14836523669E+03  0.18645728888E+03  0.80081038413E+02 0.  0.
          4    1    6    6  501    0 -0.44920797867E+02 -0.34976272109E+02  0.63662083232E+02  0.85405377659E+02  0.00000000000E+00 0. -1.
         -3    1    6    6    0  501  0.33417298780E+02 -0.43819501343E+02  0.84703153460E+02  0.10105191122E+03  0.00000000000E+00 0.  1.
          5    1    5    5  502    0  0.26443539688E+02  0.49506340314E+02  0.15851245885E+03  0.16822136646E+03  0.47000000000E+01 0. -1.
         11    1    4    4    0    0  0.24596382997E+02  0.13639676713E+02 -0.11905540631E+02  0.30541197342E+02  0.00000000000E+00 0. -1.
        -12    1    4    4    0    0  0.67458490059E+01 -0.52177219759E+02 -0.12409471369E+03  0.13478674530E+03  0.00000000000E+00 0.  1.
         -5    1    3    3    0  504 -0.46282272604E+02  0.67826976184E+02 -0.10450114518E+03  0.13298543830E+03  0.47000000000E+01 0.  1.
<mgrwt>
<rscale>  2 0.17749391E+03</rscale>
<asrwt>0</asrwt>
<pdfrwt beam="1">  1       21 0.55336026E-01 0.17782865E+03</pdfrwt>
<pdfrwt beam="2">  1       21 0.45124288E-01 0.17782865E+03</pdfrwt>
<totfact> 0.14647873E+04</totfact>
</mgrwt>
</event>
<event>
12    1  0.1410528E-001  0.1895614E+03  0.7546771E-02  0.1160161E+00
         21   -1    0    0  502  503  0.00000000000E+00  0.00000000000E+00  0.51108030541E+03  0.51108030541E+03  0.00000000000E+00 0. -1.
         21   -1    0    0  503  504 -0.00000000000E+00 -0.00000000000E+00 -0.17360497830E+03  0.17360497830E+03  0.00000000000E+00 0.  1.
         -6    2    1    2    0  504  0.72648113786E+02 -0.22267157581E+02 -0.98984813269E+02  0.20883764145E+03  0.16745624051E+03 0.  0.
        -24    2    3    3    0    0  0.71692060966E+02 -0.20015848365E+01 -0.65248157936E+00  0.10832423473E+03  0.81178544890E+02 0.  0.
          6    2    1    2  502    0 -0.72648113786E+02  0.22267157581E+02  0.43646014038E+03  0.47584764226E+03  0.17366620211E+03 0.  0.
         24    2    5    5    0    0 -0.33801413771E+02  0.11842574589E+02  0.42496160664E+03  0.43375198558E+03  0.79155768788E+02 0.  0.
          2    1    6    6  501    0 -0.31773834635E+02  0.32188923657E+02  0.39437627471E+03  0.39696139539E+03  0.00000000000E+00 0. -1.
         -1    1    6    6    0  501 -0.20275791358E+01 -0.20346349069E+02  0.30585331927E+02  0.36790590192E+02  0.00000000000E+00 0.  1.
          5    1    5    5  502    0 -0.38846700015E+02  0.10424582992E+02  0.11498533741E+02  0.42095656674E+02  0.47000000000E+01 0. -1.
         11    1    4    4    0    0  0.75233067798E+01  0.33946453165E+02 -0.30259281826E+00  0.34771445035E+02  0.00000000000E+00 0. -1.
        -12    1    4    4    0    0  0.64168754186E+02 -0.35948038002E+02 -0.34988876110E+00  0.73552789696E+02  0.00000000000E+00 0.  1.
         -5    1    3    3    0  504  0.95605282062E+00 -0.20265572745E+02 -0.98332331689E+02  0.10051340672E+03  0.47000000000E+01 0.  1.
<mgrwt>
<rscale>  2 0.18812711E+03</rscale>
<asrwt>0</asrwt>
<pdfrwt beam="1">  1       21 0.78627739E-01 0.18956140E+03</pdfrwt>
<pdfrwt beam="2">  1       21 0.26708458E-01 0.18956140E+03</pdfrwt>
<totfact> 0.19121033E+04</totfact>
</mgrwt>
</event>
<event>
12    1  0.1410528E-001  0.1827472E+03  0.7546771E-02  0.1165352E+00
         21   -1    0    0  502  503  0.00000000000E+00  0.00000000000E+00  0.74952049156E+02  0.74952049156E+02  0.00000000000E+00 0.  1.
         21   -1    0    0  503  504 -0.00000000000E+00 -0.00000000000E+00 -0.44511150749E+03  0.44511150749E+03  0.00000000000E+00 0.  1.
         -6    2    1    2    0  504 -0.51689811712E+02  0.20939315171E+02 -0.19925662641E+03  0.26985497932E+03  0.17322879420E+03 0.  0.
        -24    2    3    3    0    0  0.20014775283E+02 -0.65161773309E+01 -0.49265462613E+02  0.10128810511E+03  0.85960122344E+02 0.  0.
          6    2    1    2  502    0  0.51689811712E+02 -0.20939315171E+02 -0.17090283192E+03  0.25020857732E+03  0.17402948788E+03 0.  0.
         24    2    5    5    0    0  0.68360623858E+02 -0.18445813371E+02 -0.35781293895E+02  0.11395861010E+03  0.81809784857E+02 0.  0.
          2    1    6    6  501    0  0.50178523947E+02  0.27626478044E+02 -0.10093690710E+02  0.58163469177E+02  0.00000000000E+00 0. -1.
         -1    1    6    6    0  501  0.18182099911E+02 -0.46072291415E+02 -0.25687603185E+02  0.55795140924E+02  0.00000000000E+00 0.  1.
          5    1    5    5  502    0 -0.16670812146E+02 -0.24935018000E+01 -0.13512153803E+03  0.13624996722E+03  0.47000000000E+01 0. -1.
         13    1    4    4    0    0 -0.13339337448E+02 -0.37115861038E+02 -0.37721704890E+02  0.54575196600E+02  0.00000000000E+00 0. -1.
        -14    1    4    4    0    0  0.33354112731E+02  0.30599683707E+02 -0.11543757722E+02  0.46712908509E+02  0.00000000000E+00 0.  1.
         -5    1    3    3    0  504 -0.71704586995E+02  0.27455492502E+02 -0.14999116379E+03  0.16856687421E+03  0.47000000000E+01 0.  1.
<mgrwt>
<rscale>  2 0.18255636E+03</rscale>
<asrwt>0</asrwt>
<pdfrwt beam="1">  1       21 0.11531085E-01 0.18274724E+03</pdfrwt>
<pdfrwt beam="2">  1       21 0.68478693E-01 0.18274724E+03</pdfrwt>
<totfact> 0.12297854E+05</totfact>
</mgrwt>
</event>
<event>
12    1  0.1410528E-001  0.1939308E+03  0.7546771E-02  0.1156181E+00
         21   -1    0    0  502  503  0.00000000000E+00  0.00000000000E+00  0.83418088074E+02  0.83418088074E+02  0.00000000000E+00 0. -1.
         21   -1    0    0  503  504 -0.00000000000E+00 -0.00000000000E+00 -0.54135100807E+03  0.54135100807E+03  0.00000000000E+00 0. -1.
         -6    2    1    2    0  504  0.30017191936E+02 -0.68605664673E+02 -0.36793856082E+03  0.41591820699E+03  0.17888935501E+03 0.  0.
        -24    2    3    3    0    0  0.29959984513E+01 -0.11390269478E+03 -0.24016206165E+03  0.27760374798E+03  0.80020154654E+02 0.  0.
          6    2    1    2  502    0 -0.30017191936E+02  0.68605664673E+02 -0.89994359177E+02  0.20885088915E+03  0.17295068713E+03 0.  0.
         24    2    5    5    0    0  0.43097580404E+02  0.62781901297E+02 -0.76634545410E+02  0.13414974606E+03  0.79525670394E+02 0.  0.
          4    1    6    6  501    0  0.32182219202E+02  0.36623681623E+02  0.37656556420E+01  0.48899585384E+02  0.00000000000E+00 0. -1.
         -3    1    6    6    0  501  0.10915361202E+02  0.26158219674E+02 -0.80400201052E+02  0.85250160679E+02  0.00000000000E+00 0.  1.
          5    1    5    5  502    0 -0.73114772340E+02  0.58237633761E+01 -0.13359813768E+02  0.74701143085E+02  0.47000000000E+01 0. -1.
         13    1    4    4    0    0  0.40577699424E+02 -0.44012436246E+02 -0.10116978490E+03  0.11755411355E+03  0.00000000000E+00 0. -1.
        -14    1    4    4    0    0 -0.37581700972E+02 -0.69890258532E+02 -0.13899227675E+03  0.16004963443E+03  0.00000000000E+00 0.  1.
         -5    1    3    3    0  504  0.27021193485E+02  0.45297030105E+02 -0.12777649916E+03  0.13831445901E+03  0.47000000000E+01 0.  1.
<mgrwt>
<rscale>  2 0.19255014E+03</rscale>
<asrwt>0</asrwt>
<pdfrwt beam="1">  1       21 0.12833553E-01 0.19393084E+03</pdfrwt>
<pdfrwt beam="2">  1       21 0.83284766E-01 0.19393084E+03</pdfrwt>
<totfact> 0.65271571E+04</totfact>
</mgrwt>
</event>
<event>
12    1  0.1410528E-001  0.2960338E+03  0.7546771E-02  0.1087524E+00
         21   -1    0    0  502  503  0.00000000000E+00  0.00000000000E+00  0.69289653172E+02  0.69289653172E+02  0.00000000000E+00 0.  1.
         21   -1    0    0  503  504 -0.00000000000E+00 -0.00000000000E+00 -0.13370856983E+04  0.13370856983E+04  0.00000000000E+00 0. -1.
         -6    2    1    2    0  504  0.14238757168E+03 -0.19034724890E+03 -0.45775194337E+03  0.54393261024E+03  0.17268337235E+03 0.  0.
        -24    2    3    3    0    0  0.86139572331E+02 -0.20243877380E+03 -0.35251914144E+03  0.42390730038E+03  0.83822259381E+02 0.  0.
          6    2    1    2  502    0 -0.14238757168E+03  0.19034724890E+03 -0.81004410172E+03  0.86244274119E+03  0.17643621901E+03 0.  0.
         24    2    5    5    0    0 -0.66837140067E+02  0.15434005930E+03 -0.70066289904E+03  0.72463590929E+03  0.76685368532E+02 0.  0.
          2    1    6    6  501    0 -0.42148542995E+02  0.51632717346E+02 -0.40981351956E+03  0.41519821530E+03  0.00000000000E+00 0. -1.
         -1    1    6    6    0  501 -0.24688597072E+02  0.10270734196E+03 -0.29084937948E+03  0.30943769399E+03  0.00000000000E+00 0.  1.
          5    1    5    5  502    0 -0.75550431615E+02  0.36007189596E+02 -0.10938120267E+03  0.13780683190E+03  0.47000000000E+01 0. -1.
         13    1    4    4    0    0 -0.46629028264E+01  0.54571546891E+01 -0.21038453715E+02  0.22229254031E+02  0.00000000000E+00 0. -1.
        -14    1    4    4    0    0  0.90802475157E+02 -0.20789592849E+03 -0.33148068773E+03  0.40167804634E+03  0.00000000000E+00 0.  1.
         -5    1    3    3    0  504  0.56247999351E+02  0.12091524905E+02 -0.10523280193E+03  0.12002530986E+03  0.47000000000E+01 0.  1.
<mgrwt>
<rscale>  2 0.29547696E+03</rscale>
<asrwt>0</asrwt>
<pdfrwt beam="1">  1       21 0.10659947E-01 0.29603384E+03</pdfrwt>
<pdfrwt beam="2">  1       21 0.20570548E+00 0.29603384E+03</pdfrwt>
<totfact> 0.83115696E+03</totfact>
</mgrwt>
</event>
<event>
12    1  0.1410528E-001  0.1746141E+03  0.7546771E-02  0.1173487E+00
         21   -1    0    0  502  503  0.00000000000E+00  0.00000000000E+00  0.56675879289E+03  0.56675879289E+03  0.00000000000E+00 0. -1.
         21   -1    0    0  503  504 -0.00000000000E+00 -0.00000000000E+00 -0.23505907978E+03  0.23505907978E+03  0.00000000000E+00 0. -1.
         -6    2    1    2    0  504 -0.10313051648E+02  0.90459611612E+01 -0.18679453241E+03  0.25471058939E+03  0.17261836101E+03 0.  0.
        -24    2    3    3    0    0 -0.11125016735E+01  0.60133277548E+02 -0.17191633989E+03  0.20050713352E+03  0.83848875616E+02 0.  0.
          6    2    1    2  502    0  0.10313051648E+02 -0.90459611612E+01  0.51849424552E+03  0.54710728328E+03  0.17407443333E+03 0.  0.
         24    2    5    5    0    0 -0.25264402293E+02  0.28107168366E+02  0.46509439013E+03  0.47281229814E+03  0.76225813225E+02 0.  0.
          2    1    6    6  501    0 -0.17007409523E+02  0.37138883199E+02  0.45532537544E+03  0.45715396328E+03  0.00000000000E+00 0. -1.
         -1    1    6    6    0  501 -0.82569927694E+01 -0.90317148333E+01  0.97690146896E+01  0.15658334855E+02  0.00000000000E+00 0.  1.
          5    1    5    5  502    0  0.35577453941E+02 -0.37153129527E+02  0.53399855390E+02  0.74294985149E+02  0.47000000000E+01 0. -1.
         11    1    4    4    0    0 -0.32106325072E+02  0.55133568793E+01 -0.26101065087E+02  0.41743009144E+02  0.00000000000E+00 0. -1.
        -12    1    4    4    0    0  0.30993823398E+02  0.54619920669E+02 -0.14581527480E+03  0.15876412437E+03  0.00000000000E+00 0.  1.
         -5    1    3    3    0  504 -0.92005499750E+01 -0.51087316387E+02 -0.14878192525E+02  0.54203455870E+02  0.47000000000E+01 0.  1.
<mgrwt>
<rscale>  2 0.17425012E+03</rscale>
<asrwt>0</asrwt>
<pdfrwt beam="1">  1       21 0.87193660E-01 0.17461414E+03</pdfrwt>
<pdfrwt beam="2">  1       21 0.36162935E-01 0.17461414E+03</pdfrwt>
<totfact> 0.84457251E+03</totfact>
</mgrwt>
</event>
<event>
12    1  0.1410528E-001  0.1802193E+03  0.7546771E-02  0.1167880E+00
         21   -1    0    0  502  503  0.00000000000E+00  0.00000000000E+00  0.44345312406E+03  0.44345312406E+03  0.00000000000E+00 0. -1.
         21   -1    0    0  503  504 -0.00000000000E+00 -0.00000000000E+00 -0.76478719821E+02  0.76478719821E+02  0.00000000000E+00 0. -1.
         -6    2    1    2    0  504 -0.33817848262E+02 -0.31052279431E+02  0.12555687896E+03  0.21866550296E+03  0.17303809238E+03 0.  0.
        -24    2    3    3    0    0  0.12858309598E+02 -0.62892005887E+02  0.37276493523E+02  0.11374673274E+03  0.86186087678E+02 0.  0.
          6    2    1    2  502    0  0.33817848262E+02  0.31052279431E+02  0.24141752528E+03  0.30126634092E+03  0.17427304937E+03 0.  0.
         24    2    5    5    0    0 -0.30605672547E+02  0.60616040369E+02  0.17199734863E+03  0.20194032760E+03  0.81152920066E+02 0.  0.
          2    1    6    6  501    0 -0.38405478384E+01  0.41501010738E+02  0.19641194588E+02  0.46074507321E+02  0.00000000000E+00 0. -1.
         -1    1    6    6    0  501 -0.26765124709E+02  0.19115029631E+02  0.15235615404E+03  0.15586582028E+03  0.00000000000E+00 0.  1.
          5    1    5    5  502    0  0.64423520809E+02 -0.29563760939E+02  0.69420176655E+02  0.99326013315E+02  0.47000000000E+01 0. -1.
         11    1    4    4    0    0  0.74805889876E+01 -0.64535460987E+02  0.61150285604E+02  0.89219629936E+02  0.00000000000E+00 0. -1.
        -12    1    4    4    0    0  0.53777206102E+01  0.16434551007E+01 -0.23873792080E+02  0.24527102803E+02  0.00000000000E+00 0.  1.
         -5    1    3    3    0  504 -0.46676157860E+02  0.31839726456E+02  0.88280385434E+02  0.10491877023E+03  0.47000000000E+01 0.  1.
<mgrwt>
<rscale>  2 0.17992005E+03</rscale>
<asrwt>0</asrwt>
<pdfrwt beam="1">  1       21 0.68223556E-01 0.18021927E+03</pdfrwt>
<pdfrwt beam="2">  1       21 0.11765957E-01 0.18021927E+03</pdfrwt>
<totfact> 0.11972180E+05</totfact>
</mgrwt>
</event>
<event>
12    1  0.1410528E-001  0.2723043E+03  0.7546771E-02  0.1100040E+00
         21   -1    0    0  502  503  0.00000000000E+00  0.00000000000E+00  0.40960851811E+02  0.40960851811E+02  0.00000000000E+00 0. -1.
         21   -1    0    0  503  504 -0.00000000000E+00 -0.00000000000E+00 -0.21487296689E+04  0.21487296689E+04  0.00000000000E+00 0.  1.
         -6    2    1    2    0  504 -0.21001888850E+03 -0.11913505238E+01 -0.14913930968E+04  0.15160484760E+04  0.17332126159E+03 0.  0.
        -24    2    3    3    0    0 -0.23035042916E+03  0.43893095547E+01 -0.14368375373E+04  0.14573721232E+04  0.79691973345E+02 0.  0.
          6    2    1    2  502    0  0.21001888850E+03  0.11913505238E+01 -0.61637572033E+03  0.67364204469E+03  0.17252600653E+03 0.  0.
         24    2    5    5    0    0  0.21143129226E+03 -0.19475544412E+02 -0.61077729998E+03  0.65167507538E+03  0.80925926113E+02 0.  0.
          4    1    6    6  501    0  0.11955971740E+03  0.23050462118E+02 -0.27015511033E+03  0.29632690304E+03  0.00000000000E+00 0. -1.
         -3    1    6    6    0  501  0.91871574854E+02 -0.42526006530E+02 -0.34062218965E+03  0.35534817233E+03  0.00000000000E+00 0.  1.
          5    1    5    5  502    0 -0.14124037532E+01  0.20666894936E+02 -0.55984203433E+01  0.21966969317E+02  0.47000000000E+01 0. -1.
         11    1    4    4    0    0 -0.91745941815E+02  0.16032971237E+02 -0.37168806029E+03  0.38317931595E+03  0.00000000000E+00 0. -1.
        -12    1    4    4    0    0 -0.13860448735E+03 -0.11643661683E+02 -0.10651494770E+04  0.10741928073E+04  0.00000000000E+00 0.  1.
         -5    1    3    3    0  504  0.20331540657E+02 -0.55806600785E+01 -0.54555559479E+02  0.58676352839E+02  0.47000000000E+01 0.  1.
<mgrwt>
<rscale>  2 0.27217780E+03</rscale>
<asrwt>0</asrwt>
<pdfrwt beam="1">  1       21 0.63016707E-02 0.27230426E+03</pdfrwt>
<pdfrwt beam="2">  1       21 0.33057373E+00 0.27230426E+03</pdfrwt>
<totfact> 0.37866235E+03</totfact>
</mgrwt>
</event>
<event>
12    1  0.1410528E-001  0.1831586E+03  0.7546771E-02  0.1165015E+00
         21   -1    0    0  502  503  0.00000000000E+00  0.00000000000E+00  0.33472324386E+02  0.33472324386E+02  0.00000000000E+00 0. -1.
         21   -1    0    0  503  504 -0.00000000000E+00 -0.00000000000E+00 -0.10132533535E+04  0.10132533535E+04  0.00000000000E+00 0. -1.
         -6    2    1    2    0  504  0.56904302591E+02 -0.13669606044E+02 -0.55783303964E+03  0.58713268475E+03  0.17355728626E+03 0.  0.
        -24    2    3    3    0    0  0.95610025453E+01  0.26586404159E+02 -0.47847210660E+03  0.48622588563E+03  0.81742310998E+02 0.  0.
          6    2    1    2  502    0 -0.56904302591E+02  0.13669606044E+02 -0.42194798944E+03  0.45959299310E+03  0.17251276975E+03 0.  0.
         24    2    5    5    0    0  0.31410163684E+02  0.39588324521E+01 -0.24320708429E+03  0.25993291884E+03  0.86099742806E+02 0.  0.
          2    1    6    6  501    0  0.60403051726E+02 -0.58143062674E+01 -0.14903789500E+03  0.16091808153E+03  0.00000000000E+00 0. -1.
         -1    1    6    6    0  501 -0.28992888042E+02  0.97731387195E+01 -0.94169189283E+02  0.99014837311E+02  0.00000000000E+00 0.  1.
          5    1    5    5  502    0 -0.88314466275E+02  0.97107735921E+01 -0.17874090515E+03  0.19966007426E+03  0.47000000000E+01 0. -1.
         11    1    4    4    0    0 -0.57554096813E+01  0.20461148170E+02 -0.26583249690E+02  0.34036046908E+02  0.00000000000E+00 0. -1.
        -12    1    4    4    0    0  0.15316412227E+02  0.61252559885E+01 -0.45188885691E+03  0.45218983872E+03  0.00000000000E+00 0.  1.
         -5    1    3    3    0  504  0.47343300046E+02 -0.40256010203E+02 -0.79360933035E+02  0.10090679912E+03  0.47000000000E+01 0.  1.
<mgrwt>
<rscale>  2 0.18291078E+03</rscale>
<asrwt>0</asrwt>
<pdfrwt beam="1">  1       21 0.51495882E-02 0.18315865E+03</pdfrwt>
<pdfrwt beam="2">  1       21 0.15588514E+00 0.18315865E+03</pdfrwt>
<totfact> 0.69416354E+04</totfact>
</mgrwt>
</event>
<event>
12    1  0.1410528E-001  0.2082553E+03  0.7546771E-02  0.1143062E+00
         21   -1    0    0  502  503  0.00000000000E+00  0.00000000000E+00  0.45501058898E+03  0.45501058898E+03  0.00000000000E+00 0. -1.
         21   -1    0    0  503  504 -0.00000000000E+00 -0.00000000000E+00 -0.13846909090E+03  0.13846909090E+03  0.00000000000E+00 0. -1.
         -6    2    1    2    0  504 -0.48201813064E+02 -0.10436737194E+03 -0.77115139530E+01  0.20839802708E+03  0.17364995576E+03 0.  0.
        -24    2    3    3    0    0 -0.12465424780E+02 -0.10405726435E+03  0.49500968995E+02  0.14077743983E+03  0.79903945807E+02 0.  0.
          6    2    1    2  502    0  0.48201813064E+02  0.10436737194E+03  0.32425301203E+03  0.38508165280E+03  0.17300838246E+03 0.  0.
         24    2    5    5    0    0  0.80924227607E+02  0.41792449039E+02  0.12858990310E+03  0.17701310739E+03  0.80640793645E+02 0.  0.
          4    1    6    6  501    0  0.49202900196E+02  0.55062307199E+02  0.44623270271E+02  0.86278730354E+02  0.00000000000E+00 0. -1.
         -3    1    6    6    0  501  0.31721327410E+02 -0.13269858160E+02  0.83966632830E+02  0.90734377041E+02  0.00000000000E+00 0.  1.
          5    1    5    5  502    0 -0.32722414542E+02  0.62574922899E+02  0.19566310893E+03  0.20806854540E+03  0.47000000000E+01 0. -1.
         11    1    4    4    0    0  0.20205644700E+02 -0.46981348409E+01  0.26555013993E+02  0.33697319135E+02  0.00000000000E+00 0. -1.
        -12    1    4    4    0    0 -0.32671069480E+02 -0.99359129507E+02  0.22945955002E+02  0.10708012070E+03  0.00000000000E+00 0.  1.
         -5    1    3    3    0  504 -0.35736388284E+02 -0.31010759078E+00 -0.57212482948E+02  0.67620587245E+02  0.47000000000E+01 0.  1.
<mgrwt>
<rscale>  2 0.20812151E+03</rscale>
<asrwt>0</asrwt>
<pdfrwt beam="1">  1       21 0.70001628E-01 0.20825530E+03</pdfrwt>
<pdfrwt beam="2">  1       21 0.21302937E-01 0.20825530E+03</pdfrwt>
<totfact> 0.37689322E+04</totfact>
</mgrwt>
</event>
<event>
12    1  0.1410528E-001  0.1761597E+03  0.7546771E-02  0.1171713E+00
         21   -1    0    0  502  503  0.00000000000E+00  0.00000000000E+00  0.10429577666E+03  0.10429577666E+03  0.00000000000E+00 0.  1.
         21   -1    0    0  503  504 -0.00000000000E+00 -0.00000000000E+00 -0.49352351840E+03  0.49352351840E+03  0.00000000000E+00 0.  1.
         -6    2    1    2    0  504 -0.19378462629E+02  0.14822592318E+02 -0.38362330641E+03  0.42213634395E+03  0.17446208072E+03 0.  0.
        -24    2    3    3    0    0  0.32391796457E+02  0.39074970507E+02 -0.13486712894E+03  0.16685206436E+03  0.84109375918E+02 0.  0.
          6    2    1    2  502    0  0.19378462629E+02 -0.14822592318E+02 -0.56044353274E+01  0.17568295111E+03  0.17389035499E+03 0.  0.
         24    2    5    5    0    0  0.63714805083E+02 -0.12516478450E+02  0.40169088740E+02  0.11174286252E+03  0.81588436775E+02 0.  0.
          4    1    6    6  501    0  0.52506994548E+02  0.33640703369E+01 -0.13788224453E+02  0.54391328162E+02  0.00000000000E+00 0. -1.
         -3    1    6    6    0  501  0.11207810535E+02 -0.15880548787E+02  0.53957313193E+02  0.57351534363E+02  0.00000000000E+00 0.  1.
          5    1    5    5  502    0 -0.44336342454E+02 -0.23061138677E+01 -0.45773524067E+02  0.63940088590E+02  0.47000000000E+01 0. -1.
         11    1    4    4    0    0  0.51429224198E+02 -0.21318248372E+01 -0.85415050700E+02  0.99725827472E+02  0.00000000000E+00 0. -1.
        -12    1    4    4    0    0 -0.19037427741E+02  0.41206795344E+02 -0.49452078237E+02  0.67126236893E+02  0.00000000000E+00 0.  1.
         -5    1    3    3    0  504 -0.51770259087E+02 -0.24252378189E+02 -0.24875617748E+03  0.25528427959E+03  0.47000000000E+01 0.  1.
<mgrwt>
<rscale>  2 0.17601801E+03</rscale>
<asrwt>0</asrwt>
<pdfrwt beam="1">  1       21 0.16045504E-01 0.17615973E+03</pdfrwt>
<pdfrwt beam="2">  1       21 0.75926695E-01 0.17615973E+03</pdfrwt>
<totfact> 0.54079039E+04</totfact>
</mgrwt>
</event>
<event>
12    1  0.1410528E-001  0.1997512E+03  0.7546771E-02  0.1154497E+00
         21   -1    0    0  502  503  0.00000000000E+00  0.00000000000E+00  0.41635582679E+03  0.41635582679E+03  0.00000000000E+00 0. -1.
         21   -1    0    0  503  504 -0.00000000000E+00 -0.00000000000E+00 -0.86669490258E+02  0.86669490258E+02  0.00000000000E+00 0. -1.
         -6    2    1    2    0  504 -0.79905376685E+01 -0.53233164790E+02  0.15788411657E+03  0.25461333705E+03  0.19236147902E+03 0.  0.
        -24    2    3    3    0    0 -0.23890410717E+01 -0.78342835729E+02  0.18612681774E+03  0.21612161705E+03  0.76954880603E+02 0.  0.
          6    2    1    2  502    0  0.79905376685E+01  0.53233164790E+02  0.17180221996E+03  0.24841198000E+03  0.17115750202E+03 0.  0.
         24    2    5    5    0    0  0.72443769438E+00  0.94379459593E+02  0.82977246672E+02  0.15013797700E+03  0.82147315659E+02 0.  0.
          2    1    6    6  501    0  0.36247271242E+02  0.62938002575E+02  0.70195924066E+02  0.10100754722E+03  0.00000000000E+00 0. -1.
         -1    1    6    6    0  501 -0.35522833548E+02  0.31441457018E+02  0.12781322606E+02  0.49130429779E+02  0.00000000000E+00 0.  1.
          5    1    5    5  502    0  0.72660999742E+01 -0.41146294803E+02  0.88824973290E+02  0.98274002996E+02  0.47000000000E+01 0. -1.
         13    1    4    4    0    0 -0.20085576931E+00  0.15289603952E+02  0.36845680172E+02  0.39892561705E+02  0.00000000000E+00 0. -1.
        -14    1    4    4    0    0 -0.21881853024E+01 -0.93632439681E+02  0.14928113757E+03  0.17622905535E+03  0.00000000000E+00 0.  1.
         -5    1    3    3    0  504 -0.56014965969E+01  0.25109670939E+02 -0.28242701171E+02  0.38491719995E+02  0.47000000000E+01 0.  1.
<mgrwt>
<rscale>  2 0.19446277E+03</rscale>
<asrwt>0</asrwt>
<pdfrwt beam="1">  1       21 0.64054742E-01 0.19975124E+03</pdfrwt>
<pdfrwt beam="2">  1       21 0.13333768E-01 0.19975124E+03</pdfrwt>
<totfact> 0.10895243E+05</totfact>
</mgrwt>
</event>
<event>
12    1  0.1410528E-001  0.2047933E+03  0.7546771E-02  0.1145920E+00
         21   -1    0    0  502  503  0.00000000000E+00  0.00000000000E+00  0.13909252901E+04  0.13909252901E+04  0.00000000000E+00 0.  1.
         21   -1    0    0  503  504 -0.00000000000E+00 -0.00000000000E+00 -0.51434717373E+02  0.51434717373E+02  0.00000000000E+00 0.  1.
         -6    2    1    2    0  504 -0.95396323448E+02 -0.52117583800E+02  0.20380743416E+03  0.28835979503E+03  0.17261865514E+03 0.  0.
        -24    2    3    3    0    0 -0.11296448230E+03  0.81826635760E+01  0.15917781759E+03  0.21116748509E+03  0.80163575889E+02 0.  0.
          6    2    1    2  502    0  0.95396323448E+02  0.52117583800E+02  0.11356831386E+04  0.11540002125E+04  0.17356151077E+03 0.  0.
         24    2    5    5    0    0  0.55923420435E+02 -0.23718553962E+02  0.37878715176E+03  0.39227660462E+03  0.81922093732E+02 0.  0.
          2    1    6    6  501    0  0.26022418525E+02 -0.50156150783E+02  0.15544919530E+03  0.16540029639E+03  0.00000000000E+00 0. -1.
         -1    1    6    6    0  501  0.29901001910E+02  0.26437596821E+02  0.22333795646E+03  0.22687630823E+03  0.00000000000E+00 0.  1.
          5    1    5    5  502    0  0.39472903013E+02  0.75836137761E+02  0.75689598682E+03  0.76172360783E+03  0.47000000000E+01 0. -1.
         11    1    4    4    0    0 -0.59729918783E+01  0.28943017232E+02  0.29234092570E+02  0.41569304142E+02  0.00000000000E+00 0. -1.
        -12    1    4    4    0    0 -0.10699149043E+03 -0.20760353656E+02  0.12994372502E+03  0.16959818095E+03  0.00000000000E+00 0.  1.
         -5    1    3    3    0  504  0.17568158857E+02 -0.60300247376E+02  0.44629616564E+02  0.77192309940E+02  0.47000000000E+01 0.  1.
<mgrwt>
<rscale>  2 0.20459340E+03</rscale>
<asrwt>0</asrwt>
<pdfrwt beam="1">  1       21 0.21398848E+00 0.20479331E+03</pdfrwt>
<pdfrwt beam="2">  1       21 0.79130345E-02 0.20479331E+03</pdfrwt>
<totfact> 0.13267683E+04</totfact>
</mgrwt>
</event>
<event>
12    1  0.1410528E-001  0.2797269E+03  0.7546771E-02  0.1095961E+00
         21   -1    0    0  502  503  0.00000000000E+00  0.00000000000E+00  0.20020567179E+03  0.20020567179E+03  0.00000000000E+00 0. -1.
         21   -1    0    0  503  504 -0.00000000000E+00 -0.00000000000E+00 -0.68107399927E+03  0.68107399927E+03  0.00000000000E+00 0. -1.
         -6    2    1    2    0  504 -0.18627057192E+03  0.11359794861E+03 -0.52892834133E+03  0.59834132837E+03  0.17505980428E+03 0.  0.
        -24    2    3    3    0    0 -0.20119465814E+03  0.10307982351E+03 -0.38832165000E+03  0.45647628351E+03  0.80449692773E+02 0.  0.
          6    2    1    2  502    0  0.18627057192E+03 -0.11359794861E+03  0.48060013860E+02  0.28293834269E+03  0.17361774374E+03 0.  0.
         24    2    5    5    0    0  0.43084535752E+02  0.23226458728E+01 -0.36378770473E+01  0.91536704498E+02  0.80647766343E+02 0.  0.
          4    1    6    6  501    0  0.38252171524E+02 -0.18048605694E+02 -0.34267251785E+02  0.54435515417E+02  0.00000000000E+00 0. -1.
         -3    1    6    6    0  501  0.48323642277E+01  0.20371251567E+02  0.30629374737E+02  0.37101189081E+02  0.00000000000E+00 0.  1.
          5    1    5    5  502    0  0.14318603616E+03 -0.11592059448E+03  0.51697890908E+02  0.19140163819E+03  0.47000000000E+01 0. -1.
         11    1    4    4    0    0 -0.10959399342E+03  0.58741334403E+02 -0.28743151820E+03  0.31317449675E+03  0.00000000000E+00 0. -1.
        -12    1    4    4    0    0 -0.91600664714E+02  0.44338489110E+02 -0.10089013181E+03  0.14330178676E+03  0.00000000000E+00 0.  1.
         -5    1    3    3    0  504  0.14924086222E+02  0.10518125098E+02 -0.14060669133E+03  0.14186504486E+03  0.47000000000E+01 0.  1.
<mgrwt>
<rscale>  2 0.27950161E+03</rscale>
<asrwt>0</asrwt>
<pdfrwt beam="1">  1       21 0.30800873E-01 0.27972693E+03</pdfrwt>
<pdfrwt beam="2">  1       21 0.10478061E+00 0.27972693E+03</pdfrwt>
<totfact> 0.70304788E+03</totfact>
</mgrwt>
</event>
<event>
12    1  0.1410528E-001  0.1884241E+03  0.7546771E-02  0.1160036E+00
         21   -1    0    0  502  503  0.00000000000E+00  0.00000000000E+00  0.26150344388E+03  0.26150344388E+03  0.00000000000E+00 0.  1.
         21   -1    0    0  503  504 -0.00000000000E+00 -0.00000000000E+00 -0.18729725228E+03  0.18729725228E+03  0.00000000000E+00 0. -1.
         -6    2    1    2    0  504 -0.56820227578E+02 -0.45437142330E+02  0.15537240288E+03  0.24422165076E+03  0.17381184931E+03 0.  0.
        -24    2    3    3    0    0 -0.87254608773E+02 -0.22404290720E+00  0.14647540878E+03  0.18879852903E+03  0.81095143144E+02 0.  0.
          6    2    1    2  502    0  0.56820227578E+02  0.45437142330E+02 -0.81166211279E+02  0.20457904539E+03  0.17312296149E+03 0.  0.
         24    2    5    5    0    0 -0.29485453643E+02  0.31895088161E+02 -0.14080225568E+02  0.94330792251E+02  0.82543061425E+02 0.  0.
          2    1    6    6  501    0 -0.16499092517E+02 -0.27407040998E+02  0.95705798491E-01  0.31990234600E+02  0.00000000000E+00 0. -1.
         -1    1    6    6    0  501 -0.12986361126E+02  0.59302129159E+02 -0.14175931367E+02  0.62340557651E+02  0.00000000000E+00 0.  1.
          5    1    5    5  502    0  0.86305681221E+02  0.13542054169E+02 -0.67085985711E+02  0.11024825314E+03  0.47000000000E+01 0. -1.
         11    1    4    4    0    0  0.13830733959E+02  0.14568097469E+01  0.47236659290E+01  0.14687563321E+02  0.00000000000E+00 0. -1.
        -12    1    4    4    0    0 -0.10108534273E+03 -0.16808526541E+01  0.14175174285E+03  0.17411096571E+03  0.00000000000E+00 0.  1.
         -5    1    3    3    0  504  0.30434381195E+02 -0.45213099423E+02  0.88969940981E+01  0.55423121729E+02  0.47000000000E+01 0.  1.
<mgrwt>
<rscale>  2 0.18826505E+03</rscale>
<asrwt>0</asrwt>
<pdfrwt beam="1">  1       21 0.40231299E-01 0.18842407E+03</pdfrwt>
<pdfrwt beam="2">  1       21 0.28814962E-01 0.18842407E+03</pdfrwt>
<totfact> 0.68740268E+04</totfact>
</mgrwt>
</event>
<event>
12    1  0.1410528E-001  0.1956657E+03  0.7546771E-02  0.1153639E+00
         21   -1    0    0  502  503  0.00000000000E+00  0.00000000000E+00  0.65693958648E+02  0.65693958648E+02  0.00000000000E+00 0. -1.
         21   -1    0    0  503  504 -0.00000000000E+00 -0.00000000000E+00 -0.12129257015E+04  0.12129257015E+04  0.00000000000E+00 0.  1.
         -6    2    1    2    0  504  0.74982321738E+02  0.53239755167E+02 -0.10347549073E+04  0.10529293621E+04  0.17171401595E+03 0.  0.
        -24    2    3    3    0    0  0.11084496764E+02  0.51650101982E+02 -0.88582222595E+03  0.89079209738E+03  0.77710653517E+02 0.  0.
          6    2    1    2  502    0 -0.74982321738E+02 -0.53239755167E+02 -0.11247683553E+03  0.22569029804E+03  0.17270857533E+03 0.  0.
         24    2    5    5    0    0 -0.40291072025E+02  0.50969351994E+01  0.48251071164E+01  0.90086138811E+02  0.80267562028E+02 0.  0.
          2    1    6    6  501    0  0.18116582027E+02  0.11703287573E+02  0.19962279687E+02  0.29388264574E+02  0.00000000000E+00 0. -1.
         -1    1    6    6    0  501 -0.58407654052E+02 -0.66063523733E+01 -0.15137172571E+02  0.60697874237E+02  0.00000000000E+00 0.  1.
          5    1    5    5  502    0 -0.34691249713E+02 -0.58336690367E+02 -0.11730194265E+03  0.13560415922E+03  0.47000000000E+01 0. -1.
         13    1    4    4    0    0  0.36538558930E+02  0.36763607060E+02 -0.31730323056E+03  0.32150889446E+03  0.00000000000E+00 0. -1.
        -14    1    4    4    0    0 -0.25454062166E+02  0.14886494922E+02 -0.56851899539E+03  0.56928320292E+03  0.00000000000E+00 0.  1.
         -5    1    3    3    0  504  0.63897824974E+02  0.15896531848E+01 -0.14893268136E+03  0.16213726472E+03  0.47000000000E+01 0.  1.
<mgrwt>
<rscale>  2 0.19544602E+03</rscale>
<asrwt>0</asrwt>
<pdfrwt beam="1">  1       21 0.10106763E-01 0.19566572E+03</pdfrwt>
<pdfrwt beam="2">  1       21 0.18660395E+00 0.19566572E+03</pdfrwt>
<totfact> 0.13050189E+04</totfact>
</mgrwt>
</event>
<event>
12    1  0.1410528E-001  0.2952985E+03  0.7546771E-02  0.1088270E+00
         21   -1    0    0  502  503  0.00000000000E+00  0.00000000000E+00  0.10425709735E+03  0.10425709735E+03  0.00000000000E+00 0. -1.
         21   -1    0    0  503  504 -0.00000000000E+00 -0.00000000000E+00 -0.10047098378E+04  0.10047098378E+04  0.00000000000E+00 0. -1.
         -6    2    1    2    0  504  0.12677564779E+03  0.19943933477E+03 -0.68343966670E+03  0.74250294832E+03  0.16844208834E+03 0.  0.
        -24    2    3    3    0    0  0.19201254650E+02  0.58985785702E+02 -0.35430162506E+03  0.36880067383E+03  0.81463393035E+02 0.  0.
          6    2    1    2  502    0 -0.12677564779E+03 -0.19943933477E+03 -0.21701307377E+03  0.36646398685E+03  0.17706797098E+03 0.  0.
         24    2    5    5    0    0 -0.15764558005E+03 -0.17365416195E+03 -0.21130416070E+03  0.32556766008E+03  0.79605000395E+02 0.  0.
          4    1    6    6  501    0 -0.79286273620E+02 -0.52548688726E+02 -0.44407446264E+02  0.10497475485E+03  0.00000000000E+00 0. -1.
         -3    1    6    6    0  501 -0.78359306430E+02 -0.12110547323E+03 -0.16689671444E+03  0.22059290523E+03  0.00000000000E+00 0.  1.
          5    1    5    5  502    0  0.30869932259E+02 -0.25785172816E+02 -0.57089130682E+01  0.40896326770E+02  0.47000000000E+01 0. -1.
         13    1    4    4    0    0 -0.31108117591E+01 -0.14405309630E+02 -0.15357055801E+02  0.21284483978E+02  0.00000000000E+00 0. -1.
        -14    1    4    4    0    0  0.22312066409E+02  0.73391095332E+02 -0.33894456926E+03  0.34751618986E+03  0.00000000000E+00 0.  1.
         -5    1    3    3    0  504  0.10757439314E+03  0.14045354907E+03 -0.32913804164E+03  0.37370227449E+03  0.47000000000E+01 0.  1.
<mgrwt>
<rscale>  2 0.29401761E+03</rscale>
<asrwt>0</asrwt>
<pdfrwt beam="1">  1       21 0.16039554E-01 0.29529846E+03</pdfrwt>
<pdfrwt beam="2">  1       21 0.15457074E+00 0.29529846E+03</pdfrwt>
<totfact> 0.89760226E+03</totfact>
</mgrwt>
</event>
<event>
12    1  0.1410528E-001  0.1852902E+03  0.7546771E-02  0.1162876E+00
         21   -1    0    0  502  503  0.00000000000E+00  0.00000000000E+00  0.59153898036E+03  0.59153898036E+03  0.00000000000E+00 0.  1.
         21   -1    0    0  503  504 -0.00000000000E+00 -0.00000000000E+00 -0.12202164270E+03  0.12202164270E+03  0.00000000000E+00 0.  1.
         -6    2    1    2    0  504  0.35661146700E+02 -0.56076248665E+02 -0.23982078953E+02  0.18642295100E+03  0.17251699481E+03 0.  0.
        -24    2    3    3    0    0  0.78383649616E+02 -0.71967239952E+02 -0.17749851325E+01  0.13550163056E+03  0.83870502313E+02 0.  0.
          6    2    1    2  502    0 -0.35661146700E+02  0.56076248665E+02  0.49349941662E+03  0.52713767206E+03  0.17296296730E+03 0.  0.
         24    2    5    5    0    0 -0.49636254886E+02  0.40375801499E+02  0.49459889166E+03  0.50557134332E+03  0.82947913833E+02 0.  0.
          4    1    6    6  501    0 -0.35589509320E+02  0.49774232716E+01  0.42256093581E+03  0.42408623226E+03  0.00000000000E+00 0. -1.
         -3    1    6    6    0  501 -0.14046745567E+02  0.35398378227E+02  0.72037955849E+02  0.81485111064E+02  0.00000000000E+00 0.  1.
          5    1    5    5  502    0  0.13975108186E+02  0.15700447166E+02 -0.10994750428E+01  0.21566328742E+02  0.47000000000E+01 0. -1.
         11    1    4    4    0    0  0.87736743607E+01 -0.41759595848E+02  0.31102536107E+02  0.52803493819E+02  0.00000000000E+00 0. -1.
        -12    1    4    4    0    0  0.69609975255E+02 -0.30207644104E+02 -0.32877521239E+02  0.82698136739E+02  0.00000000000E+00 0.  1.
         -5    1    3    3    0  504 -0.42722502916E+02  0.15890991287E+02 -0.22207093821E+02  0.50921320441E+02  0.47000000000E+01 0.  1.
<mgrwt>
<rscale>  2 0.18518603E+03</rscale>
<asrwt>0</asrwt>
<pdfrwt beam="1">  1       21 0.91005995E-01 0.18529018E+03</pdfrwt>
<pdfrwt beam="2">  1       21 0.18772561E-01 0.18529018E+03</pdfrwt>
<totfact> 0.26704769E+04</totfact>
</mgrwt>
</event>
<event>
12    1  0.1410528E-001  0.2266219E+03  0.7546771E-02  0.1129387E+00
         21   -1    0    0  502  503  0.00000000000E+00  0.00000000000E+00  0.12989484979E+04  0.12989484979E+04  0.00000000000E+00 0.  1.
         21   -1    0    0  503  504 -0.00000000000E+00 -0.00000000000E+00 -0.54013312907E+02  0.54013312907E+02  0.00000000000E+00 0. -1.
         -6    2    1    2    0  504 -0.37839932005E+02 -0.13814619538E+03  0.26631583184E+03  0.34844534135E+03  0.17312943676E+03 0.  0.
        -24    2    3    3    0    0 -0.82541296022E+02 -0.99996459069E+02  0.23926941588E+03  0.28358230919E+03  0.79729011869E+02 0.  0.
          6    2    1    2  502    0  0.37839932005E+02  0.13814619538E+03  0.97861935316E+03  0.10045164695E+04  0.17561681948E+03 0.  0.
         24    2    5    5    0    0 -0.43242125463E+02  0.52006504219E+02  0.25406634067E+03  0.27035469958E+03  0.62987302139E+02 0.  0.
          4    1    6    6  501    0 -0.13380834407E+02  0.80313401821E-01  0.51588420872E+01  0.14341088918E+02  0.00000000000E+00 0. -1.
         -3    1    6    6    0  501 -0.29861291056E+02  0.51926190818E+02  0.24890749858E+03  0.25601361066E+03  0.00000000000E+00 0.  1.
          5    1    5    5  502    0  0.81082057468E+02  0.86139691158E+02  0.72455301250E+03  0.73416176988E+03  0.47000000000E+01 0. -1.
         13    1    4    4    0    0  0.28839075274E+00 -0.15906615025E+02 -0.94312974336E+00  0.15937159863E+02  0.00000000000E+00 0. -1.
        -14    1    4    4    0    0 -0.82829686775E+02 -0.84089844044E+02  0.24021254562E+03  0.26764514932E+03  0.00000000000E+00 0.  1.
         -5    1    3    3    0  504  0.44701364017E+02 -0.38149736308E+02  0.27046415958E+02  0.64863032164E+02  0.47000000000E+01 0.  1.
<mgrwt>
<rscale>  2 0.22613988E+03</rscale>
<asrwt>0</asrwt>
<pdfrwt beam="1">  1       21 0.19983821E+00 0.22662193E+03</pdfrwt>
<pdfrwt beam="2">  1       21 0.83097415E-02 0.22662193E+03</pdfrwt>
<totfact> 0.14732900E+04</totfact>
</mgrwt>
</event>
<event>
12    1  0.1410528E-001  0.1840151E+03  0.7546771E-02  0.1164326E+00
         21   -1    0    0  502  503  0.00000000000E+00  0.00000000000E+00  0.10541233321E+03  0.10541233321E+03  0.00000000000E+00 0. -1.
         21   -1    0    0  503  504 -0.00000000000E+00 -0.00000000000E+00 -0.35022725088E+03  0.35022725088E+03  0.00000000000E+00 0. -1.
         -6    2    1    2    0  504 -0.52424459046E+02 -0.26194141732E+02 -0.53515135081E+02  0.19020190421E+03  0.17285380445E+03 0.  0.
        -24    2    3    3    0    0 -0.65568947332E+01 -0.43073548310E+02 -0.87903801082E+02  0.13025677787E+03  0.85682124760E+02 0.  0.
          6    2    1    2  502    0  0.52424459046E+02  0.26194141732E+02 -0.19129978260E+03  0.26543767988E+03  0.17443364960E+03 0.  0.
         24    2    5    5    0    0  0.16577269389E+02  0.35664082026E+02 -0.22602091095E+02  0.92649653985E+02  0.80785959513E+02 0.  0.
          2    1    6    6  501    0  0.23188610003E+02  0.47169694358E+02  0.13431505002E+02  0.54250318214E+02  0.00000000000E+00 0. -1.
         -1    1    6    6    0  501 -0.66113406145E+01 -0.11505612332E+02 -0.36033596098E+02  0.38399335770E+02  0.00000000000E+00 0.  1.
          5    1    5    5  502    0  0.35847189657E+02 -0.94699402946E+01 -0.16869769150E+03  0.17278802590E+03  0.47000000000E+01 0. -1.
         11    1    4    4    0    0 -0.72560953273E+01 -0.48536731558E+02 -0.74779690775E+01  0.49642574987E+02  0.00000000000E+00 0. -1.
        -12    1    4    4    0    0  0.69920059404E+00  0.54631832487E+01 -0.80425832004E+02  0.80614202882E+02  0.00000000000E+00 0.  1.
         -5    1    3    3    0  504 -0.45867564313E+02  0.16879406578E+02  0.34388666001E+02  0.59945126338E+02  0.47000000000E+01 0.  1.
<mgrwt>
<rscale>  2 0.18363972E+03</rscale>
<asrwt>0</asrwt>
<pdfrwt beam="1">  1       21 0.16217282E-01 0.18401509E+03</pdfrwt>
<pdfrwt beam="2">  1       21 0.53881115E-01 0.18401509E+03</pdfrwt>
<totfact> 0.11116364E+05</totfact>
</mgrwt>
</event>
<event>
12    1  0.1410528E-001  0.1930230E+03  0.7546771E-02  0.1156178E+00
         21   -1    0    0  502  503  0.00000000000E+00  0.00000000000E+00  0.39598418777E+02  0.39598418777E+02  0.00000000000E+00 0.  1.
         21   -1    0    0  503  504 -0.00000000000E+00 -0.00000000000E+00 -0.10269168534E+04  0.10269168534E+04  0.00000000000E+00 0.  1.
         -6    2    1    2    0  504 -0.85625220848E+02 -0.41029876166E+01 -0.65814214646E+03  0.68586366850E+03  0.17294326780E+03 0.  0.
        -24    2    3    3    0    0 -0.75428924916E+02 -0.67470599399E+02 -0.48852089876E+03  0.50444460571E+03  0.74631676991E+02 0.  0.
          6    2    1    2  502    0  0.85625220848E+02  0.41029876166E+01 -0.32917628817E+03  0.38065160368E+03  0.17085110985E+03 0.  0.
         24    2    5    5    0    0  0.35632850499E+02 -0.20567228377E+02 -0.67527469686E+02  0.11308843195E+03  0.80847531571E+02 0.  0.
          2    1    6    6  501    0  0.44259707795E+02 -0.21051385362E+02 -0.42181692300E+01  0.49192230193E+02  0.00000000000E+00 0. -1.
         -1    1    6    6    0  501 -0.86268572962E+01  0.48415698499E+00 -0.63309300456E+02  0.63896201758E+02  0.00000000000E+00 0.  1.
          5    1    5    5  502    0  0.49992370350E+02  0.24670215994E+02 -0.26164881849E+03  0.26756317173E+03  0.47000000000E+01 0. -1.
         11    1    4    4    0    0 -0.81763931554E+02 -0.61211582886E+02 -0.48360339895E+03  0.49427163165E+03  0.00000000000E+00 0. -1.
        -12    1    4    4    0    0  0.63350066377E+01 -0.62590165132E+01 -0.49174998097E+01  0.10172974058E+02  0.00000000000E+00 0.  1.
         -5    1    3    3    0  504 -0.10196295932E+02  0.63367611782E+02 -0.16962124770E+03  0.18141906280E+03  0.47000000000E+01 0.  1.
<mgrwt>
<rscale>  2 0.19255324E+03</rscale>
<asrwt>0</asrwt>
<pdfrwt beam="1">  1       21 0.60920638E-02 0.19302302E+03</pdfrwt>
<pdfrwt beam="2">  1       21 0.15798722E+00 0.19302302E+03</pdfrwt>
<totfact> 0.50019428E+04</totfact>
</mgrwt>
</event>
<event>
12    1  0.1410528E-001  0.2256816E+03  0.7546771E-02  0.1130091E+00
         21   -1    0    0  502  503  0.00000000000E+00  0.00000000000E+00  0.38395192139E+03  0.38395192139E+03  0.00000000000E+00 0. -1.
         21   -1    0    0  503  504 -0.00000000000E+00 -0.00000000000E+00 -0.18034415045E+03  0.18034415045E+03  0.00000000000E+00 0. -1.
         -6    2    1    2    0  504 -0.10120516268E+03 -0.97247211663E+02 -0.44778538477E+02  0.23008103466E+03  0.17672764321E+03 0.  0.
        -24    2    3    3    0    0 -0.13835146037E+03 -0.55992071216E+02 -0.36025202254E+02  0.17368471439E+03  0.81193141277E+02 0.  0.
          6    2    1    2  502    0  0.10120516268E+03  0.97247211663E+02  0.24838630942E+03  0.33421503717E+03  0.17408166830E+03 0.  0.
         24    2    5    5    0    0 -0.15199970788E+02  0.31924049837E+02  0.87815758427E+02  0.12535560499E+03  0.82171991598E+02 0.  0.
          2    1    6    6  501    0  0.70350383047E+01  0.14354286979E+02  0.94824831352E+02  0.96162809649E+02  0.00000000000E+00 0. -1.
         -1    1    6    6    0  501 -0.22235009093E+02  0.17569762859E+02 -0.70090729257E+01  0.29192795336E+02  0.00000000000E+00 0.  1.
          5    1    5    5  502    0  0.11640513346E+03  0.65323161826E+02  0.16057055099E+03  0.20885943219E+03  0.47000000000E+01 0. -1.
         11    1    4    4    0    0 -0.12926935598E+03 -0.32582245172E+02 -0.52907469937E+02  0.14342722709E+03  0.00000000000E+00 0. -1.
        -12    1    4    4    0    0 -0.90821043878E+01 -0.23409826045E+02  0.16882267683E+02  0.30257487299E+02  0.00000000000E+00 0.  1.
         -5    1    3    3    0  504  0.37146297692E+02 -0.41255140447E+02 -0.87533362225E+01  0.56396320275E+02  0.47000000000E+01 0.  1.
<mgrwt>
<rscale>  2 0.22516328E+03</rscale>
<asrwt>0</asrwt>
<pdfrwt beam="1">  1       21 0.59069526E-01 0.22568156E+03</pdfrwt>
<pdfrwt beam="2">  1       21 0.27745254E-01 0.22568156E+03</pdfrwt>
<totfact> 0.32662298E+04</totfact>
</mgrwt>
</event>
<event>
12    1  0.1410528E-001  0.1871023E+03  0.7546771E-02  0.1161210E+00
         21   -1    0    0  502  503  0.00000000000E+00  0.00000000000E+00  0.66341775455E+03  0.66341775455E+03  0.00000000000E+00 0. -1.
         21   -1    0    0  503  504 -0.00000000000E+00 -0.00000000000E+00 -0.19414602317E+03  0.19414602317E+03  0.00000000000E+00 0. -1.
         -6    2    1    2    0  504  0.15249052060E+02  0.71477432138E+02 -0.13135635151E+03  0.22860832063E+03  0.17223738354E+03 0.  0.
        -24    2    3    3    0    0 -0.12493398491E+02  0.13513879155E+02 -0.14087807787E+03  0.16347637525E+03  0.80865211953E+02 0.  0.
          6    2    1    2  502    0 -0.15249052060E+02 -0.71477432138E+02  0.60062808289E+03  0.62895545709E+03  0.17172453570E+03 0.  0.
         24    2    5    5    0    0  0.31077818267E+02  0.15979972270E+02  0.23268304759E+03  0.24790347179E+03  0.78061132391E+02 0.  0.
          4    1    6    6  501    0  0.41864401542E+02  0.18369092695E+02  0.23239776005E+03  0.23685179028E+03  0.00000000000E+00 0. -1.
         -3    1    6    6    0  501 -0.10786583276E+02 -0.23891204248E+01  0.28528753342E+00  0.11051681508E+02  0.00000000000E+00 0.  1.
          5    1    5    5  502    0 -0.46326870327E+02 -0.87457404408E+02  0.36794503530E+03  0.38105198530E+03  0.47000000000E+01 0. -1.
         13    1    4    4    0    0  0.87594562535E+01  0.38510683546E+02 -0.35484741079E+02  0.53093951355E+02  0.00000000000E+00 0. -1.
        -14    1    4    4    0    0 -0.21252854744E+02 -0.24996804392E+02 -0.10539333679E+03  0.11038242389E+03  0.00000000000E+00 0.  1.
         -5    1    3    3    0  504  0.27742450551E+02  0.57963552983E+02  0.95217263611E+01  0.65131945387E+02  0.47000000000E+01 0.  1.
<mgrwt>
<rscale>  2 0.18698420E+03</rscale>
<asrwt>0</asrwt>
<pdfrwt beam="1">  1       21 0.10206427E+00 0.18710231E+03</pdfrwt>
<pdfrwt beam="2">  1       21 0.29868619E-01 0.18710231E+03</pdfrwt>
<totfact> 0.84382775E+03</totfact>
</mgrwt>
</event>
<event>
12    1  0.1410528E-001  0.4410335E+03  0.7546771E-02  0.1030478E+00
         21   -1    0    0  502  503  0.00000000000E+00  0.00000000000E+00  0.64797157630E+03  0.64797157630E+03  0.00000000000E+00 0.  1.
         21   -1    0    0  503  504 -0.00000000000E+00 -0.00000000000E+00 -0.40181596621E+03  0.40181596621E+03  0.00000000000E+00 0. -1.
         -6    2    1    2    0  504  0.36363178247E+03  0.18021639661E+03  0.38767274834E+03  0.58719736934E+03  0.17263999515E+03 0.  0.
        -24    2    3    3    0    0  0.20481273540E+03  0.30027997183E+02  0.17824248554E+03  0.28443810853E+03  0.79276205329E+02 0.  0.
          6    2    1    2  502    0 -0.36363178247E+03 -0.18021639661E+03 -0.14151713825E+03  0.46259017317E+03  0.17104544736E+03 0.  0.
         24    2    5    5    0    0 -0.17357694796E+03 -0.14986510893E+03 -0.11244180517E+03  0.26788653741E+03  0.80817879443E+02 0.  0.
          2    1    6    6  501    0 -0.14570351308E+03 -0.85297904949E+02 -0.10070323147E+03  0.19658684376E+03  0.00000000000E+00 0. -1.
         -1    1    6    6    0  501 -0.27873434885E+02 -0.64567203978E+02 -0.11738573703E+02  0.71299693649E+02  0.00000000000E+00 0.  1.
          5    1    5    5  502    0 -0.19005483451E+03 -0.30351287683E+02 -0.29075333074E+02  0.19470363576E+03  0.47000000000E+01 0. -1.
         11    1    4    4    0    0  0.16627333431E+03  0.52738806278E+02  0.12343351199E+03  0.21369144876E+03  0.00000000000E+00 0. -1.
        -12    1    4    4    0    0  0.38539401091E+02 -0.22710809095E+02  0.54808973550E+02  0.70746659764E+02  0.00000000000E+00 0.  1.
         -5    1    3    3    0  504  0.15881904706E+03  0.15018839943E+03  0.20943026280E+03  0.30275926081E+03  0.47000000000E+01 0.  1.
<mgrwt>
<rscale>  2 0.44087803E+03</rscale>
<asrwt>0</asrwt>
<pdfrwt beam="1">  1       21 0.99687935E-01 0.44103355E+03</pdfrwt>
<pdfrwt beam="2">  1       21 0.61817841E-01 0.44103355E+03</pdfrwt>
<totfact> 0.17343280E+03</totfact>
</mgrwt>
</event>
<event>
12    1  0.1410528E-001  0.2066075E+03  0.7546771E-02  0.1144343E+00
         21   -1    0    0  502  503  0.00000000000E+00  0.00000000000E+00  0.49724615649E+03  0.49724615649E+03  0.00000000000E+00 0.  1.
         21   -1    0    0  503  504 -0.00000000000E+00 -0.00000000000E+00 -0.16197533371E+03  0.16197533371E+03  0.00000000000E+00 0.  1.
         -6    2    1    2    0  504 -0.34632884159E+02  0.10617832973E+03 -0.58457588581E+02  0.21471830292E+03  0.17381998036E+03 0.  0.
        -24    2    3    3    0    0 -0.52088680864E+02  0.26586117368E+02  0.19166375470E+02  0.10208085398E+03  0.81443836411E+02 0.  0.
          6    2    1    2  502    0  0.34632884159E+02 -0.10617832973E+03  0.39372841136E+03  0.44450318728E+03  0.17345820021E+03 0.  0.
         24    2    5    5    0    0  0.46192732865E+02 -0.36575842788E+01  0.25658658072E+03  0.27282294653E+03  0.80302803554E+02 0.  0.
          2    1    6    6  501    0  0.68954994400E+02  0.27784295207E+01  0.19482461870E+03  0.20668609768E+03  0.00000000000E+00 0. -1.
         -1    1    6    6    0  501 -0.22762261535E+02 -0.64360137995E+01  0.61761962020E+02  0.66136848854E+02  0.00000000000E+00 0.  1.
          5    1    5    5  502    0 -0.11559848706E+02 -0.10252074546E+03  0.13714183065E+03  0.17168024075E+03  0.47000000000E+01 0. -1.
         13    1    4    4    0    0 -0.24593771494E+02  0.18862004246E+01 -0.31096686579E+02  0.39691501162E+02  0.00000000000E+00 0. -1.
        -14    1    4    4    0    0 -0.27494909370E+02  0.24699916943E+02  0.50263062049E+02  0.62389352816E+02  0.00000000000E+00 0.  1.
         -5    1    3    3    0  504  0.17455796705E+02  0.79592212366E+02 -0.77623964052E+02  0.11263744894E+03  0.47000000000E+01 0.  1.
<mgrwt>
<rscale>  2 0.20653139E+03</rscale>
<asrwt>0</asrwt>
<pdfrwt beam="1">  1       21 0.76499408E-01 0.20660750E+03</pdfrwt>
<pdfrwt beam="2">  1       21 0.24919282E-01 0.20660750E+03</pdfrwt>
<totfact> 0.22992360E+04</totfact>
</mgrwt>
</event>
<event>
12    1  0.1410528E-001  0.2463334E+03  0.7546771E-02  0.1115781E+00
         21   -1    0    0  502  503  0.00000000000E+00  0.00000000000E+00  0.13587434443E+04  0.13587434443E+04  0.00000000000E+00 0.  1.
         21   -1    0    0  503  504 -0.00000000000E+00 -0.00000000000E+00 -0.49468281954E+02  0.49468281954E+02  0.00000000000E+00 0.  1.
         -6    2    1    2    0  504 -0.14281830757E+02 -0.17375643264E+03  0.43262770597E+03  0.49784222762E+03  0.17402552415E+03 0.  0.
        -24    2    3    3    0    0  0.29606920755E+02 -0.24366464524E+02  0.12770835848E+03  0.15543679023E+03  0.79880389208E+02 0.  0.
          6    2    1    2  502    0  0.14281830757E+02  0.17375643264E+03  0.87664745637E+03  0.91036949863E+03  0.17281953796E+03 0.  0.
         24    2    5    5    0    0  0.28714292605E+02  0.19017378541E+03  0.85199609395E+03  0.87708879707E+03  0.79980213677E+02 0.  0.
          2    1    6    6  501    0  0.13070401589E+02  0.17841997687E+03  0.65071745083E+03  0.67486126304E+03  0.00000000000E+00 0. -1.
         -1    1    6    6    0  501  0.15643891016E+02  0.11753808546E+02  0.20127864313E+03  0.20222753403E+03  0.00000000000E+00 0.  1.
          5    1    5    5  502    0 -0.14432461848E+02 -0.16417352774E+02  0.24651362414E+02  0.33280701555E+02  0.47000000000E+01 0. -1.
         11    1    4    4    0    0 -0.25369760174E+02 -0.16757201765E+01  0.19807122084E+02  0.32229720052E+02  0.00000000000E+00 0. -1.
        -12    1    4    4    0    0  0.54976680929E+02 -0.22690744347E+02  0.10790123640E+03  0.12320707018E+03  0.00000000000E+00 0.  1.
         -5    1    3    3    0  504 -0.43888751512E+02 -0.14938996811E+03  0.30491934749E+03  0.34240543739E+03  0.47000000000E+01 0.  1.
<mgrwt>
<rscale>  2 0.24612051E+03</rscale>
<asrwt>0</asrwt>
<pdfrwt beam="1">  1       21 0.20903743E+00 0.24633342E+03</pdfrwt>
<pdfrwt beam="2">  1       21 0.76105059E-02 0.24633342E+03</pdfrwt>
<totfact> 0.14801012E+04</totfact>
</mgrwt>
</event>
<event>
12    1  0.1410528E-001  0.2041465E+03  0.7546771E-02  0.1148689E+00
         21   -1    0    0  502  503  0.00000000000E+00  0.00000000000E+00  0.15683667331E+03  0.15683667331E+03  0.00000000000E+00 0. -1.
         21   -1    0    0  503  504 -0.00000000000E+00 -0.00000000000E+00 -0.43133027242E+03  0.43133027242E+03  0.00000000000E+00 0.  1.
         -6    2    1    2    0  504 -0.73729377455E+02 -0.12388494780E+02 -0.32955028531E+03  0.38765861622E+03  0.18996398680E+03 0.  0.
        -24    2    3    3    0    0 -0.16169590071E+02  0.51493577520E+02 -0.80967224934E+02  0.12458129643E+03  0.77793082839E+02 0.  0.
          6    2    1    2  502    0  0.73729377455E+02  0.12388494780E+02  0.55056686203E+02  0.20050832950E+03  0.17771565942E+03 0.  0.
         24    2    5    5    0    0  0.60926977171E+01  0.66067005911E+02  0.43034187116E+02  0.11320006250E+03  0.80995942204E+02 0.  0.
          2    1    6    6  501    0 -0.27373493346E+01  0.40380919627E+02  0.66139469766E+02  0.77540577843E+02  0.00000000000E+00 0. -1.
         -1    1    6    6    0  501  0.88300470517E+01  0.25686086284E+02 -0.23105282650E+02  0.35659484655E+02  0.00000000000E+00 0.  1.
          5    1    5    5  502    0  0.67636679738E+02 -0.53678511131E+02  0.12022499087E+02  0.87308267006E+02  0.47000000000E+01 0. -1.
         13    1    4    4    0    0 -0.52780165419E+01  0.71501520320E+02 -0.57834504138E+02  0.92114899640E+02  0.00000000000E+00 0. -1.
        -14    1    4    4    0    0 -0.10891573529E+02 -0.20007942801E+02 -0.23132720796E+02  0.32466396789E+02  0.00000000000E+00 0.  1.
         -5    1    3    3    0  504 -0.57559787384E+02 -0.63882072299E+02 -0.24858306038E+03  0.26307731980E+03  0.47000000000E+01 0.  1.
<mgrwt>
<rscale>  2 0.20124914E+03</rscale>
<asrwt>0</asrwt>
<pdfrwt beam="1">  1       21 0.24128719E-01 0.20414655E+03</pdfrwt>
<pdfrwt beam="2">  1       21 0.66358503E-01 0.20414655E+03</pdfrwt>
<totfact> 0.33554230E+04</totfact>
</mgrwt>
</event>
<event>
12    1  0.1410528E-001  0.1885576E+03  0.7546771E-02  0.1159846E+00
         21   -1    0    0  502  503  0.00000000000E+00  0.00000000000E+00  0.69226391383E+03  0.69226391383E+03  0.00000000000E+00 0.  1.
         21   -1    0    0  503  504 -0.00000000000E+00 -0.00000000000E+00 -0.60605150087E+02  0.60605150087E+02  0.00000000000E+00 0.  1.
         -6    2    1    2    0  504  0.17389277009E+02  0.70757814862E+02  0.16782150898E+03  0.25217059219E+03  0.17354219478E+03 0.  0.
        -24    2    3    3    0    0  0.32804474471E+02 -0.24775064391E+02  0.66911095342E+02  0.11228077515E+03  0.80249239419E+02 0.  0.
          6    2    1    2  502    0 -0.17389277009E+02 -0.70757814862E+02  0.46383725477E+03  0.50069847173E+03  0.17391062464E+03 0.  0.
         24    2    5    5    0    0  0.40491459640E+02 -0.88451206990E+02  0.33805463132E+03  0.36103246240E+03  0.81242420141E+02 0.  0.
          2    1    6    6  501    0  0.37500812234E+02 -0.49746816318E+01  0.15921390766E+03  0.16364634664E+03  0.00000000000E+00 0. -1.
         -1    1    6    6    0  501  0.29906474063E+01 -0.83476525358E+02  0.17884072366E+03  0.19738611576E+03  0.00000000000E+00 0.  1.
          5    1    5    5  502    0 -0.57880736649E+02  0.17693392128E+02  0.12578262345E+03  0.13966600933E+03  0.47000000000E+01 0. -1.
         11    1    4    4    0    0 -0.15852855842E+02  0.13813201484E+02  0.38761455091E+02  0.44097255860E+02  0.00000000000E+00 0. -1.
        -12    1    4    4    0    0  0.48657330313E+02 -0.38588265875E+02  0.28149640250E+02  0.68183519289E+02  0.00000000000E+00 0.  1.
         -5    1    3    3    0  504 -0.15415197462E+02  0.95532879254E+02  0.10091041364E+03  0.13988981704E+03  0.47000000000E+01 0.  1.
<mgrwt>
<rscale>  2 0.18847258E+03</rscale>
<asrwt>0</asrwt>
<pdfrwt beam="1">  1       21 0.10650213E+00 0.18855758E+03</pdfrwt>
<pdfrwt beam="2">  1       21 0.93238697E-02 0.18855758E+03</pdfrwt>
<totfact> 0.64944769E+04</totfact>
</mgrwt>
</event>
<event>
12    1  0.1410528E-001  0.1768722E+03  0.7546771E-02  0.1171430E+00
         21   -1    0    0  502  503  0.00000000000E+00  0.00000000000E+00  0.78030498689E+02  0.78030498689E+02  0.00000000000E+00 0. -1.
         21   -1    0    0  503  504 -0.00000000000E+00 -0.00000000000E+00 -0.96767649897E+03  0.96767649897E+03  0.00000000000E+00 0. -1.
         -6    2    1    2    0  504  0.19515562702E+02  0.25071238418E+02 -0.84793998652E+03  0.86619049811E+03  0.17399521283E+03 0.  0.
        -24    2    3    3    0    0  0.76998555793E+02 -0.43706061142E+01 -0.48262600452E+03  0.49518172173E+03  0.79556253707E+02 0.  0.
          6    2    1    2  502    0 -0.19515562702E+02 -0.25071238418E+02 -0.41706013758E+02  0.17951649955E+03  0.17168971386E+03 0.  0.
         24    2    5    5    0    0  0.24915782220E+02  0.40124478549E+02 -0.54203506985E+01  0.92548889109E+02  0.79404953819E+02 0.  0.
          4    1    6    6  501    0 -0.44913139276E+01  0.88442378562E+00  0.31082485109E+02  0.31417749550E+02  0.00000000000E+00 0. -1.
         -3    1    6    6    0  501  0.29407096148E+02  0.39240054763E+02 -0.36502835808E+02  0.61131139558E+02  0.00000000000E+00 0.  1.
          5    1    5    5  502    0 -0.44431344922E+02 -0.65195716966E+02 -0.36285663060E+02  0.86967610442E+02  0.47000000000E+01 0. -1.
         13    1    4    4    0    0  0.22227974169E+02 -0.80405810252E+01 -0.36063926466E+03  0.36141307806E+03  0.00000000000E+00 0. -1.
        -14    1    4    4    0    0  0.54770581624E+02  0.36699749110E+01 -0.12198673986E+03  0.13376864367E+03  0.00000000000E+00 0.  1.
         -5    1    3    3    0  504 -0.57482993091E+02  0.29441844532E+02 -0.36531398200E+03  0.37100877638E+03  0.47000000000E+01 0.  1.
<mgrwt>
<rscale>  2 0.17630253E+03</rscale>
<asrwt>0</asrwt>
<pdfrwt beam="1">  1       21 0.12004692E-01 0.17687215E+03</pdfrwt>
<pdfrwt beam="2">  1       21 0.14887331E+00 0.17687215E+03</pdfrwt>
<totfact> 0.18075692E+04</totfact>
</mgrwt>
</event>
<event>
12    1  0.1410528E-001  0.2075307E+03  0.7546771E-02  0.1143564E+00
         21   -1    0    0  502  503  0.00000000000E+00  0.00000000000E+00  0.96733962351E+03  0.96733962351E+03  0.00000000000E+00 0.  1.
         21   -1    0    0  503  504 -0.00000000000E+00 -0.00000000000E+00 -0.13744761650E+03  0.13744761650E+03  0.00000000000E+00 0. -1.
         -6    2    1    2    0  504  0.38859981847E+02 -0.10826348803E+03 -0.39278862618E+02  0.21121513922E+03  0.17273657678E+03 0.  0.
        -24    2    3    3    0    0  0.72773505578E+02 -0.21634912809E+02  0.91885301333E+01  0.10621125693E+03  0.73704473714E+02 0.  0.
          6    2    1    2  502    0 -0.38859981847E+02  0.10826348803E+03  0.86917086963E+03  0.89357210079E+03  0.17257467274E+03 0.  0.
         24    2    5    5    0    0 -0.27033579053E+02 -0.11773898175E+02  0.41023780695E+03  0.41902970658E+03  0.80133623807E+02 0.  0.
          2    1    6    6  501    0 -0.52328160802E+02 -0.18253667925E+02  0.33080590936E+03  0.33541613329E+03  0.00000000000E+00 0. -1.
         -1    1    6    6    0  501  0.25294581749E+02  0.64797697509E+01  0.79431897596E+02  0.83613573285E+02  0.00000000000E+00 0.  1.
          5    1    5    5  502    0 -0.11826402794E+02  0.12003738621E+03  0.45893306267E+03  0.47454239421E+03  0.47000000000E+01 0. -1.
         13    1    4    4    0    0  0.44083282369E+02 -0.40918370663E+02  0.28562040707E+02  0.66584074759E+02  0.00000000000E+00 0. -1.
        -14    1    4    4    0    0  0.28690223209E+02  0.19283457854E+02 -0.19373510574E+02  0.39627182167E+02  0.00000000000E+00 0.  1.
         -5    1    3    3    0  504 -0.33913523731E+02 -0.86628575226E+02 -0.48467392752E+02  0.10500388230E+03  0.47000000000E+01 0.  1.
<mgrwt>
<rscale>  2 0.20749704E+03</rscale>
<asrwt>0</asrwt>
<pdfrwt beam="1">  1       21 0.14882148E+00 0.20753074E+03</pdfrwt>
<pdfrwt beam="2">  1       21 0.21145788E-01 0.20753074E+03</pdfrwt>
<totfact> 0.62709249E+03</totfact>
</mgrwt>
</event>
<event>
12    1  0.1410528E-001  0.1737969E+03  0.7546771E-02  0.1174045E+00
         21   -1    0    0  502  503  0.00000000000E+00  0.00000000000E+00  0.79320139399E+02  0.79320139399E+02  0.00000000000E+00 0.  1.
         21   -1    0    0  503  504 -0.00000000000E+00 -0.00000000000E+00 -0.38087118142E+03  0.38087118142E+03  0.00000000000E+00 0.  1.
         -6    2    1    2    0  504 -0.15347415258E+02 -0.89196900986E+01 -0.13920827287E+03  0.22236671145E+03  0.17249031015E+03 0.  0.
        -24    2    3    3    0    0  0.96190771044E+01  0.28399784163E+02 -0.12423863802E+02  0.87784226391E+02  0.81563739655E+02 0.  0.
          6    2    1    2  502    0  0.15347415258E+02  0.89196900986E+01 -0.16234276915E+03  0.23782460937E+03  0.17288801607E+03 0.  0.
         24    2    5    5    0    0  0.51899589762E+02 -0.23834158081E+02 -0.41218312420E+02  0.10704961157E+03  0.80616595999E+02 0.  0.
          2    1    6    6  501    0  0.18304952541E+02 -0.29833422183E+02  0.17501682909E+02  0.39133275755E+02  0.00000000000E+00 0. -1.
         -1    1    6    6    0  501  0.33594637222E+02  0.59992641013E+01 -0.58719995328E+02  0.67916335820E+02  0.00000000000E+00 0.  1.
          5    1    5    5  502    0 -0.36552174504E+02  0.32753848180E+02 -0.12112445673E+03  0.13077499780E+03  0.47000000000E+01 0. -1.
         11    1    4    4    0    0  0.31587779894E+02  0.45014569965E+02 -0.21107869062E+02  0.58903662739E+02  0.00000000000E+00 0. -1.
        -12    1    4    4    0    0 -0.21968702789E+02 -0.16614785802E+02  0.86840052601E+01  0.28880563652E+02  0.00000000000E+00 0.  1.
         -5    1    3    3    0  504 -0.24966492363E+02 -0.37319474262E+02 -0.12678440907E+03  0.13458248506E+03  0.47000000000E+01 0.  1.
<mgrwt>
<rscale>  2 0.17369793E+03</rscale>
<asrwt>0</asrwt>
<pdfrwt beam="1">  1       21 0.12203098E-01 0.17379692E+03</pdfrwt>
<pdfrwt beam="2">  1       21 0.58595566E-01 0.17379692E+03</pdfrwt>
<totfact> 0.15620252E+05</totfact>
</mgrwt>
</event>
<event>
12    1  0.1410528E-001  0.2304142E+03  0.7546771E-02  0.1126641E+00
         21   -1    0    0  502  503  0.00000000000E+00  0.00000000000E+00  0.66801883786E+03  0.66801883786E+03  0.00000000000E+00 0. -1.
         21   -1    0    0  503  504 -0.00000000000E+00 -0.00000000000E+00 -0.10914769449E+03  0.10914769449E+03  0.00000000000E+00 0. -1.
         -6    2    1    2    0  504 -0.10574195911E+03  0.10659452113E+03  0.74156961972E+02  0.24047431060E+03  0.17258298062E+03 0.  0.
        -24    2    3    3    0    0 -0.49358039109E+02 -0.71811765578E+01  0.87359940754E+01  0.97554581872E+02  0.83383412801E+02 0.  0.
          6    2    1    2  502    0  0.10574195911E+03 -0.10659452113E+03  0.48471418140E+03  0.53669222174E+03  0.17477685595E+03 0.  0.
         24    2    5    5    0    0  0.89548080051E+02 -0.38727968050E+02  0.42977758468E+03  0.44776398997E+03  0.79152411658E+02 0.  0.
          2    1    6    6  501    0  0.10394185062E+03 -0.28033051017E+02  0.37252951620E+03  0.38777313045E+03  0.00000000000E+00 0. -1.
         -1    1    6    6    0  501 -0.14393770564E+02 -0.10694917033E+02  0.57248068480E+02  0.59990859521E+02  0.00000000000E+00 0.  1.
          5    1    5    5  502    0  0.16193879056E+02 -0.67866553084E+02  0.54936596717E+02  0.88928231767E+02  0.47000000000E+01 0. -1.
         11    1    4    4    0    0 -0.70460203896E+02 -0.21077849482E+01  0.19764081183E+02  0.73209985627E+02  0.00000000000E+00 0. -1.
        -12    1    4    4    0    0  0.21102164787E+02 -0.50733916096E+01 -0.11028087107E+02  0.24344596246E+02  0.00000000000E+00 0.  1.
         -5    1    3    3    0  504 -0.56383919997E+02  0.11377569769E+03  0.65420967896E+02  0.14291972873E+03  0.47000000000E+01 0.  1.
<mgrwt>
<rscale>  2 0.22999816E+03</rscale>
<asrwt>0</asrwt>
<pdfrwt beam="1">  1       21 0.10277213E+00 0.23041420E+03</pdfrwt>
<pdfrwt beam="2">  1       21 0.16791953E-01 0.23041420E+03</pdfrwt>
<totfact> 0.24020614E+04</totfact>
</mgrwt>
</event>
<event>
12    1  0.1410528E-001  0.1737088E+03  0.7546771E-02  0.1174182E+00
         21   -1    0    0  502  503  0.00000000000E+00  0.00000000000E+00  0.13410020096E+04  0.13410020096E+04  0.00000000000E+00 0.  1.
         21   -1    0    0  503  504 -0.00000000000E+00 -0.00000000000E+00 -0.28758095679E+02  0.28758095679E+02  0.00000000000E+00 0.  1.
         -6    2    1    2    0  504  0.30727282852E+01  0.38390018763E+01  0.33562062383E+03  0.37790998738E+03  0.17363921167E+03 0.  0.
        -24    2    3    3    0    0 -0.15470666184E+02  0.31036599655E+02  0.33117375957E+03  0.34436253732E+03  0.87788872036E+02 0.  0.
          6    2    1    2  502    0 -0.30727282852E+01 -0.38390018763E+01  0.97662329007E+03  0.99185011787E+03  0.17305902470E+03 0.  0.
         24    2    5    5    0    0 -0.35671962421E+02  0.41344900689E+01  0.26393969814E+03  0.27836131008E+03  0.80816284163E+02 0.  0.
          2    1    6    6  501    0 -0.48061199214E+02  0.15317056907E+02  0.86463361346E+02  0.10010196780E+03  0.00000000000E+00 0. -1.
         -1    1    6    6    0  501  0.12389236793E+02 -0.11182566838E+02  0.17747633679E+03  0.17825934228E+03  0.00000000000E+00 0.  1.
          5    1    5    5  502    0  0.32599234136E+02 -0.79734919452E+01  0.71268359193E+03  0.71348880779E+03  0.47000000000E+01 0. -1.
         11    1    4    4    0    0  0.26814124406E+02 -0.41826110005E+00  0.21654560366E+03  0.21819984114E+03  0.00000000000E+00 0. -1.
        -12    1    4    4    0    0 -0.42284790590E+02  0.31454860755E+02  0.11462815592E+03  0.12616269619E+03  0.00000000000E+00 0.  1.
         -5    1    3    3    0  504  0.18543394469E+02 -0.27197597779E+02  0.44468642538E+01  0.33547450053E+02  0.47000000000E+01 0.  1.
<mgrwt>
<rscale>  2 0.17356365E+03</rscale>
<asrwt>0</asrwt>
<pdfrwt beam="1">  1       21 0.20630795E+00 0.17370882E+03</pdfrwt>
<pdfrwt beam="2">  1       21 0.44243235E-02 0.17370882E+03</pdfrwt>
<totfact> 0.41036051E+04</totfact>
</mgrwt>
</event>
<event>
12    1  0.1410528E-001  0.2041522E+03  0.7546771E-02  0.1149748E+00
         21   -1    0    0  502  503  0.00000000000E+00  0.00000000000E+00  0.38926803913E+03  0.38926803913E+03  0.00000000000E+00 0. -1.
         21   -1    0    0  503  504 -0.00000000000E+00 -0.00000000000E+00 -0.18949102166E+03  0.18949102166E+03  0.00000000000E+00 0.  1.
         -6    2    1    2    0  504  0.37028890393E+02  0.98693539463E+02 -0.98112500641E+02  0.22650424968E+03  0.17483294565E+03 0.  0.
        -24    2    3    3    0    0  0.83169417745E+02  0.49697508973E+02 -0.98450845487E+02  0.15903748938E+03  0.78824866664E+02 0.  0.
          6    2    1    2  502    0 -0.37028890393E+02 -0.98693539463E+02  0.29788951811E+03  0.35225481112E+03  0.15567187768E+03 0.  0.
         24    2    5    5    0    0  0.95559269101E+01 -0.71196242406E+02  0.10503821527E+03  0.15190521277E+03  0.82957497121E+02 0.  0.
          4    1    6    6  501    0 -0.10956347393E+02 -0.49766825217E+02  0.11055331339E+03  0.12173254923E+03  0.00000000000E+00 0. -1.
         -3    1    6    6    0  501  0.20512274303E+02 -0.21429417190E+02 -0.55150981188E+01  0.30172663546E+02  0.00000000000E+00 0.  1.
          5    1    5    5  502    0 -0.46584817303E+02 -0.27497297056E+02  0.19285130285E+03  0.20034959835E+03  0.47000000000E+01 0. -1.
         11    1    4    4    0    0  0.45074905109E+02  0.68719824519E+02 -0.61274304569E+02  0.10251195907E+03  0.00000000000E+00 0. -1.
        -12    1    4    4    0    0  0.38094512636E+02 -0.19022315546E+02 -0.37176540918E+02  0.56525530306E+02  0.00000000000E+00 0.  1.
         -5    1    3    3    0  504 -0.46140527352E+02  0.48996030489E+02  0.33834484634E+00  0.67466760299E+02  0.47000000000E+01 0.  1.
<mgrwt>
<rscale>  2 0.19998939E+03</rscale>
<asrwt>0</asrwt>
<pdfrwt beam="1">  1       21 0.59887391E-01 0.20415218E+03</pdfrwt>
<pdfrwt beam="2">  1       21 0.29152465E-01 0.20415218E+03</pdfrwt>
<totfact> 0.29127045E+04</totfact>
</mgrwt>
</event>
<event>
12    1  0.1410528E-001  0.2938180E+03  0.7546771E-02  0.1088682E+00
         21   -1    0    0  502  503  0.00000000000E+00  0.00000000000E+00  0.58704335271E+03  0.58704335271E+03  0.00000000000E+00 0.  1.
         21   -1    0    0  503  504 -0.00000000000E+00 -0.00000000000E+00 -0.37110257526E+03  0.37110257526E+03  0.00000000000E+00 0.  1.
         -6    2    1    2    0  504 -0.12281761520E+03  0.19929045113E+03 -0.26543678664E+03  0.39418374037E+03  0.17356060314E+03 0.  0.
        -24    2    3    3    0    0 -0.15152907041E+03  0.14118194255E+03 -0.22907788129E+03  0.31971894045E+03  0.82765482553E+02 0.  0.
          6    2    1    2  502    0  0.12281761520E+03 -0.19929045113E+03  0.48137756409E+03  0.56396218760E+03  0.17756164935E+03 0.  0.
         24    2    5    5    0    0  0.13250848033E+01 -0.11121655113E+03  0.28783898820E+03  0.31901991449E+03  0.80941618557E+02 0.  0.
          2    1    6    6  501    0 -0.23056525555E+02 -0.64514769483E+02  0.23346416676E+03  0.24330901342E+03  0.00000000000E+00 0. -1.
         -1    1    6    6    0  501  0.24381610359E+02 -0.46701781652E+02  0.54374821442E+02  0.75710901064E+02  0.00000000000E+00 0.  1.
          5    1    5    5  502    0  0.12149253039E+03 -0.88073899992E+02  0.19353857589E+03  0.24494227311E+03  0.47000000000E+01 0. -1.
         11    1    4    4    0    0 -0.97691529549E+02  0.34870584901E+02 -0.10100862200E+03  0.14478375031E+03  0.00000000000E+00 0. -1.
        -12    1    4    4    0    0 -0.53837540864E+02  0.10631135765E+03 -0.12806925929E+03  0.17493519014E+03  0.00000000000E+00 0.  1.
         -5    1    3    3    0  504  0.28711455218E+02  0.58108508573E+02 -0.36358905344E+02  0.74464799920E+02  0.47000000000E+01 0.  1.
<mgrwt>
<rscale>  2 0.29321598E+03</rscale>
<asrwt>0</asrwt>
<pdfrwt beam="1">  1       21 0.90314363E-01 0.29381795E+03</pdfrwt>
<pdfrwt beam="2">  1       21 0.57092703E-01 0.29381795E+03</pdfrwt>
<totfact> 0.27961049E+03</totfact>
</mgrwt>
</event>
<event>
12    1  0.1410528E-001  0.1981820E+03  0.7546771E-02  0.1151633E+00
         21   -1    0    0  502  503  0.00000000000E+00  0.00000000000E+00  0.50562083220E+03  0.50562083220E+03  0.00000000000E+00 0.  1.
         21   -1    0    0  503  504 -0.00000000000E+00 -0.00000000000E+00 -0.18683035550E+03  0.18683035550E+03  0.00000000000E+00 0.  1.
         -6    2    1    2    0  504 -0.88694043720E+02 -0.36712671555E+02 -0.10628739586E+03  0.22344448570E+03  0.17151085688E+03 0.  0.
        -24    2    3    3    0    0 -0.12263159123E+00 -0.38898750329E+02 -0.12746184286E+02  0.94519227321E+02  0.85195606130E+02 0.  0.
          6    2    1    2  502    0  0.88694043720E+02  0.36712671555E+02  0.42507787255E+03  0.46900670199E+03  0.17338291478E+03 0.  0.
         24    2    5    5    0    0  0.11946825952E+03  0.42708941509E+02  0.40347006805E+03  0.43064011722E+03  0.81031450879E+02 0.  0.
          2    1    6    6  501    0  0.87510029643E+02  0.65840276229E+02  0.32216186758E+03  0.34026639003E+03  0.00000000000E+00 0. -1.
         -1    1    6    6    0  501  0.31958229879E+02 -0.23131334720E+02  0.81308200473E+02  0.90373727195E+02  0.00000000000E+00 0.  1.
          5    1    5    5  502    0 -0.30774215802E+02 -0.59962699535E+01  0.21607804505E+02  0.38366584772E+02  0.47000000000E+01 0. -1.
         13    1    4    4    0    0 -0.28948113507E+02 -0.27895894144E+02  0.23777980384E+02  0.46707242874E+02  0.00000000000E+00 0. -1.
        -14    1    4    4    0    0  0.28825481916E+02 -0.11002856185E+02 -0.36524164670E+02  0.47811984447E+02  0.00000000000E+00 0.  1.
         -5    1    3    3    0  504 -0.88571412129E+02  0.21860787734E+01 -0.93541211571E+02  0.12892525838E+03  0.47000000000E+01 0.  1.
<mgrwt>
<rscale>  2 0.19777176E+03</rscale>
<asrwt>0</asrwt>
<pdfrwt beam="1">  1       21 0.77787820E-01 0.19818196E+03</pdfrwt>
<pdfrwt beam="2">  1       21 0.28743132E-01 0.19818196E+03</pdfrwt>
<totfact> 0.16908130E+04</totfact>
</mgrwt>
</event>
<event>
12    1  0.1410528E-001  0.2405416E+03  0.7546771E-02  0.1119494E+00
         21   -1    0    0  502  503  0.00000000000E+00  0.00000000000E+00  0.41995851880E+02  0.41995851880E+02  0.00000000000E+00 0.  1.
         21   -1    0    0  503  504 -0.00000000000E+00 -0.00000000000E+00 -0.23670815764E+04  0.23670815764E+04  0.00000000000E+00 0. -1.
         -6    2    1    2    0  504 -0.12921683641E+03 -0.10491631355E+03 -0.38350956835E+03  0.45270282989E+03  0.17365436797E+03 0.  0.
        -24    2    3    3    0    0 -0.79996668881E+02 -0.12903264900E+03 -0.21000541945E+03  0.27068634104E+03  0.78229965422E+02 0.  0.
          6    2    1    2  502    0  0.12921683641E+03  0.10491631355E+03 -0.19415761562E+04  0.19563745984E+04  0.17314495471E+03 0.  0.
         24    2    5    5    0    0  0.42440450760E+02 -0.75194228953E+01 -0.99808236108E+03  0.10022390905E+04  0.80355843284E+02 0.  0.
          2    1    6    6  501    0  0.57309543153E+02 -0.18187899079E+02 -0.92308842286E+03  0.92504455018E+03  0.00000000000E+00 0. -1.
         -1    1    6    6    0  501 -0.14869092393E+02  0.10668476183E+02 -0.74993938219E+02  0.77194540366E+02  0.00000000000E+00 0.  1.
          5    1    5    5  502    0  0.86776385649E+02  0.11243573645E+03 -0.94349379513E+03  0.95413550787E+03  0.47000000000E+01 0. -1.
         11    1    4    4    0    0 -0.98999116487E+01 -0.61259093811E+02 -0.13186188780E+03  0.14573346314E+03  0.00000000000E+00 0. -1.
        -12    1    4    4    0    0 -0.70096757232E+02 -0.67773555192E+02 -0.78143531649E+02  0.12495287790E+03  0.00000000000E+00 0.  1.
         -5    1    3    3    0  504 -0.49220167528E+02  0.24116335449E+02 -0.17350414890E+03  0.18201648884E+03  0.47000000000E+01 0.  1.
<mgrwt>
<rscale>  2 0.24044968E+03</rscale>
<asrwt>0</asrwt>
<pdfrwt beam="1">  1       21 0.64608969E-02 0.24054160E+03</pdfrwt>
<pdfrwt beam="2">  1       21 0.36416658E+00 0.24054160E+03</pdfrwt>
<totfact> 0.23570715E+03</totfact>
</mgrwt>
</event>
<event>
12    1  0.1410528E-001  0.2186060E+03  0.7546771E-02  0.1135169E+00
         21   -1    0    0  502  503  0.00000000000E+00  0.00000000000E+00  0.26754078303E+03  0.26754078303E+03  0.00000000000E+00 0.  1.
         21   -1    0    0  503  504 -0.00000000000E+00 -0.00000000000E+00 -0.23150450491E+03  0.23150450491E+03  0.00000000000E+00 0.  1.
         -6    2    1    2    0  504  0.95011554791E+02 -0.89777570987E+02 -0.10245522123E+03  0.24026260774E+03  0.17361405624E+03 0.  0.
        -24    2    3    3    0    0 -0.47741239378E+01 -0.51530490875E+02 -0.41688385423E+01  0.94996218517E+02  0.79553243608E+02 0.  0.
          6    2    1    2  502    0 -0.95011554791E+02  0.89777570987E+02  0.13849149934E+03  0.25878268020E+03  0.17521807094E+03 0.  0.
         24    2    5    5    0    0 -0.68255095961E+02  0.34251586394E+02  0.15836125141E+03  0.19385240913E+03  0.81661136904E+02 0.  0.
          2    1    6    6  501    0 -0.10804620070E+02  0.35759496774E+02  0.11761051802E+03  0.12340062955E+03  0.00000000000E+00 0. -1.
         -1    1    6    6    0  501 -0.57450475891E+02 -0.15079103808E+01  0.40750733397E+02  0.70451779581E+02  0.00000000000E+00 0.  1.
          5    1    5    5  502    0 -0.26756458830E+02  0.55525984594E+02 -0.19869752070E+02  0.64930271072E+02  0.47000000000E+01 0. -1.
         13    1    4    4    0    0 -0.37396623376E+02 -0.15213476967E+02 -0.18078606651E+02  0.44235656882E+02  0.00000000000E+00 0. -1.
        -14    1    4    4    0    0  0.32622499438E+02 -0.36317013907E+02  0.13909768108E+02  0.50760561635E+02  0.00000000000E+00 0.  1.
         -5    1    3    3    0  504  0.99785678729E+02 -0.38247080113E+02 -0.98286382684E+02  0.14526638922E+03  0.47000000000E+01 0.  1.
<mgrwt>
<rscale>  2 0.21828440E+03</rscale>
<asrwt>0</asrwt>
<pdfrwt beam="1">  1       21 0.41160120E-01 0.21860599E+03</pdfrwt>
<pdfrwt beam="2">  1       21 0.35616078E-01 0.21860599E+03</pdfrwt>
<totfact> 0.42661511E+04</totfact>
</mgrwt>
</event>
<event>
12    1  0.1410528E-001  0.1793338E+03  0.7546771E-02  0.1168715E+00
         21   -1    0    0  502  503  0.00000000000E+00  0.00000000000E+00  0.12655820344E+03  0.12655820344E+03  0.00000000000E+00 0.  1.
         21   -1    0    0  503  504 -0.00000000000E+00 -0.00000000000E+00 -0.41507053588E+03  0.41507053588E+03  0.00000000000E+00 0.  1.
         -6    2    1    2    0  504  0.25872135034E+02  0.36657776669E+02 -0.31343336639E+03  0.36057167809E+03  0.17250594168E+03 0.  0.
        -24    2    3    3    0    0 -0.39252534602E+02  0.10963248631E+02 -0.25149276717E+03  0.26697595598E+03  0.79790944585E+02 0.  0.
          6    2    1    2  502    0 -0.25872135034E+02 -0.36657776669E+02  0.24921033951E+02  0.18105706123E+03  0.17363018610E+03 0.  0.
         24    2    5    5    0    0 -0.65345311341E+02 -0.18101232572E+02 -0.32257416881E+02  0.10898805114E+03  0.78994873324E+02 0.  0.
          4    1    6    6  501    0  0.84082550750E+01 -0.26219213338E+02 -0.19402189780E+02  0.33683688481E+02  0.00000000000E+00 0. -1.
         -3    1    6    6    0  501 -0.73753566416E+02  0.81179807654E+01 -0.12855227101E+02  0.75304362654E+02  0.00000000000E+00 0.  1.
          5    1    5    5  502    0  0.39473176308E+02 -0.18556544097E+02  0.57178450832E+02  0.72069010096E+02  0.47000000000E+01 0. -1.
         11    1    4    4    0    0 -0.33222214710E+02  0.19278869945E+02 -0.25359800505E+03  0.25649042583E+03  0.00000000000E+00 0. -1.
        -12    1    4    4    0    0 -0.60303198918E+01 -0.83156213147E+01  0.21052378843E+01  0.10485530144E+02  0.00000000000E+00 0.  1.
         -5    1    3    3    0  504  0.65124669636E+02  0.25694528039E+02 -0.61940599220E+02  0.93595722114E+02  0.47000000000E+01 0.  1.
<mgrwt>
<rscale>  2 0.17906108E+03</rscale>
<asrwt>0</asrwt>
<pdfrwt beam="1">  1       21 0.19470493E-01 0.17933377E+03</pdfrwt>
<pdfrwt beam="2">  1       21 0.63857005E-01 0.17933377E+03</pdfrwt>
<totfact> 0.55310836E+04</totfact>
</mgrwt>
</event>
<event>
12    1  0.1410528E-001  0.2282011E+03  0.7546771E-02  0.1128368E+00
         21   -1    0    0  502  503  0.00000000000E+00  0.00000000000E+00  0.45391027215E+03  0.45391027215E+03  0.00000000000E+00 0.  1.
         21   -1    0    0  503  504 -0.00000000000E+00 -0.00000000000E+00 -0.28692014160E+03  0.28692014160E+03  0.00000000000E+00 0.  1.
         -6    2    1    2    0  504  0.14509600513E+03 -0.35891843887E+01 -0.20470802418E+03  0.30467076580E+03  0.17278069168E+03 0.  0.
        -24    2    3    3    0    0  0.35845320172E+02  0.48422571166E+02 -0.12176050598E+03  0.15789435197E+03  0.80469703554E+02 0.  0.
          6    2    1    2  502    0 -0.14509600513E+03  0.35891843887E+01  0.37169815473E+03  0.43615964795E+03  0.17609652843E+03 0.  0.
         24    2    5    5    0    0 -0.89779129673E+02 -0.40079612517E+02  0.33100917921E+03  0.35464521204E+03  0.80867065213E+02 0.  0.
          2    1    6    6  501    0 -0.35217174291E+02  0.14340260747E+02  0.19177001013E+03  0.19550352741E+03  0.00000000000E+00 0. -1.
         -1    1    6    6    0  501 -0.54561955382E+02 -0.54419873264E+02  0.13923916908E+03  0.15914168463E+03  0.00000000000E+00 0.  1.
          5    1    5    5  502    0 -0.55316875459E+02  0.43668796905E+02  0.40688975513E+02  0.81514435912E+02  0.47000000000E+01 0. -1.
         11    1    4    4    0    0  0.59990495936E+02  0.31322161702E+02 -0.64740801993E+02  0.93655266051E+02  0.00000000000E+00 0. -1.
        -12    1    4    4    0    0 -0.24145175765E+02  0.17100409464E+02 -0.57019703990E+02  0.64239085918E+02  0.00000000000E+00 0.  1.
         -5    1    3    3    0  504  0.10925068496E+03 -0.52011755555E+02 -0.82947518201E+02  0.14677641383E+03  0.47000000000E+01 0.  1.
<mgrwt>
<rscale>  2 0.22756114E+03</rscale>
<asrwt>0</asrwt>
<pdfrwt beam="1">  1       21 0.69832349E-01 0.22820105E+03</pdfrwt>
<pdfrwt beam="2">  1       21 0.44141560E-01 0.22820105E+03</pdfrwt>
<totfact> 0.89664830E+03</totfact>
</mgrwt>
</event>
<event>
12    1  0.1410528E-001  0.1789384E+03  0.7546771E-02  0.1169025E+00
         21   -1    0    0  502  503  0.00000000000E+00  0.00000000000E+00  0.29420061363E+03  0.29420061363E+03  0.00000000000E+00 0. -1.
         21   -1    0    0  503  504 -0.00000000000E+00 -0.00000000000E+00 -0.59050838588E+03  0.59050838588E+03  0.00000000000E+00 0. -1.
         -6    2    1    2    0  504  0.27286568539E+02 -0.31338557547E+02 -0.54792593896E+03  0.57640420110E+03  0.17404685131E+03 0.  0.
        -24    2    3    3    0    0 -0.38453414092E+02  0.29488702144E+02 -0.27173579336E+03  0.28601689531E+03  0.74947144046E+02 0.  0.
          6    2    1    2  502    0 -0.27286568539E+02  0.31338557547E+02  0.25161816671E+03  0.30830479841E+03  0.17324400392E+03 0.  0.
         24    2    5    5    0    0  0.40696760661E+02 -0.20448571553E+02  0.11971504253E+03  0.15106560495E+03  0.80092166824E+02 0.  0.
          2    1    6    6  501    0  0.24184539622E+02 -0.43468474904E+02  0.32635026102E+02  0.59493236556E+02  0.00000000000E+00 0. -1.
         -1    1    6    6    0  501  0.16512221039E+02  0.23019903351E+02  0.87080016423E+02  0.91572368399E+02  0.00000000000E+00 0.  1.
          5    1    5    5  502    0 -0.67983329200E+02  0.51787129100E+02  0.13190312419E+03  0.15723919346E+03  0.47000000000E+01 0. -1.
         13    1    4    4    0    0 -0.42337006605E+02 -0.12695719291E+02 -0.10376504546E+03  0.11278647116E+03  0.00000000000E+00 0. -1.
        -14    1    4    4    0    0  0.38835925128E+01  0.42184421434E+02 -0.16797074790E+03  0.17323042415E+03  0.00000000000E+00 0.  1.
         -5    1    3    3    0  504  0.65739982631E+02 -0.60827259691E+02 -0.27619014560E+03  0.29038730580E+03  0.47000000000E+01 0.  1.
<mgrwt>
<rscale>  2 0.17874293E+03</rscale>
<asrwt>0</asrwt>
<pdfrwt beam="1">  1       21 0.45261633E-01 0.17893845E+03</pdfrwt>
<pdfrwt beam="2">  1       21 0.90847444E-01 0.17893845E+03</pdfrwt>
<totfact> 0.48672617E+03</totfact>
</mgrwt>
</event>
<event>
12    1  0.1410528E-001  0.2723036E+03  0.7546771E-02  0.1100164E+00
         21   -1    0    0  502  503  0.00000000000E+00  0.00000000000E+00  0.23453144549E+03  0.23453144549E+03  0.00000000000E+00 0. -1.
         21   -1    0    0  503  504 -0.00000000000E+00 -0.00000000000E+00 -0.31456574719E+03  0.31456574719E+03  0.00000000000E+00 0. -1.
         -6    2    1    2    0  504  0.17888089587E+03 -0.10687456505E+03 -0.39239757872E+02  0.27375473663E+03  0.17315123352E+03 0.  0.
        -24    2    3    3    0    0  0.51597250048E+02 -0.48233225719E+02 -0.72403578035E+02  0.12966496552E+03  0.81129556231E+02 0.  0.
          6    2    1    2  502    0 -0.17888089587E+03  0.10687456505E+03 -0.40794543822E+02  0.27534245604E+03  0.17529610872E+03 0.  0.
         24    2    5    5    0    0 -0.12444058736E+02  0.47124966563E+02 -0.26682667338E+02  0.97881276252E+02  0.80580161535E+02 0.  0.
          2    1    6    6  501    0  0.11129914662E+02  0.60787886395E+02 -0.31500776093E+01  0.61878632190E+02  0.00000000000E+00 0. -1.
         -1    1    6    6    0  501 -0.23573973398E+02 -0.13662919832E+02 -0.23532589728E+02  0.36002644062E+02  0.00000000000E+00 0.  1.
          5    1    5    5  502    0 -0.16643683714E+03  0.59749598484E+02 -0.14111876484E+02  0.17746117979E+03  0.47000000000E+01 0. -1.
         13    1    4    4    0    0  0.10022814959E+02 -0.57388416728E+02 -0.63496735522E+02  0.86172632641E+02  0.00000000000E+00 0. -1.
        -14    1    4    4    0    0  0.41574435089E+02  0.91551910094E+01 -0.89068425132E+01  0.43492332876E+02  0.00000000000E+00 0.  1.
         -5    1    3    3    0  504  0.12728364583E+03 -0.58641339328E+02  0.33163820163E+02  0.14408977112E+03  0.47000000000E+01 0.  1.
<mgrwt>
<rscale>  2 0.27195904E+03</rscale>
<asrwt>0</asrwt>
<pdfrwt beam="1">  1       21 0.36081761E-01 0.27230364E+03</pdfrwt>
<pdfrwt beam="2">  1       21 0.48394730E-01 0.27230364E+03</pdfrwt>
<totfact> 0.29071334E+04</totfact>
</mgrwt>
</event>
<event>
12    1  0.1410528E-001  0.1794365E+03  0.7546771E-02  0.1169473E+00
         21   -1    0    0  502  503  0.00000000000E+00  0.00000000000E+00  0.39491323344E+02  0.39491323344E+02  0.00000000000E+00 0.  1.
         21   -1    0    0  503  504 -0.00000000000E+00 -0.00000000000E+00 -0.14684625971E+04  0.14684625971E+04  0.00000000000E+00 0.  1.
         -6    2    1    2    0  504  0.25290774147E+02  0.16453025321E+02 -0.12301497109E+04  0.12431676381E+04  0.17688171182E+03 0.  0.
        -24    2    3    3    0    0  0.58891143460E+02  0.14841203007E+02 -0.47480007193E+03  0.48705471676E+03  0.89993114849E+02 0.  0.
          6    2    1    2  502    0 -0.25290774147E+02 -0.16453025321E+02 -0.19882156294E+03  0.26478628239E+03  0.17225398734E+03 0.  0.
         24    2    5    5    0    0 -0.37117777059E+02  0.46087318690E+02 -0.85682624668E+02  0.13488754499E+03  0.85740114908E+02 0.  0.
          4    1    6    6  501    0 -0.23875787834E+02 -0.11987356070E+02  0.42153651291E+01  0.27046612605E+02  0.00000000000E+00 0. -1.
         -3    1    6    6    0  501 -0.13241989225E+02  0.58074674760E+02 -0.89897989797E+02  0.10784093238E+03  0.00000000000E+00 0.  1.
          5    1    5    5  502    0  0.11827002912E+02 -0.62540344011E+02 -0.11313893827E+03  0.12989873741E+03  0.47000000000E+01 0. -1.
         11    1    4    4    0    0  0.18145287522E+02  0.36566656416E+02 -0.82504553446E+02  0.92050926992E+02  0.00000000000E+00 0. -1.
        -12    1    4    4    0    0  0.40745855938E+02 -0.21725453408E+02 -0.39229551849E+03  0.39500378976E+03  0.00000000000E+00 0.  1.
         -5    1    3    3    0  504 -0.33600369313E+02  0.16118223134E+01 -0.75534963892E+03  0.75611292133E+03  0.47000000000E+01 0.  1.
<mgrwt>
<rscale>  2 0.17828547E+03</rscale>
<asrwt>0</asrwt>
<pdfrwt beam="1">  1       21 0.60755890E-02 0.17943652E+03</pdfrwt>
<pdfrwt beam="2">  1       21 0.22591729E+00 0.17943652E+03</pdfrwt>
<totfact> 0.18067268E+04</totfact>
</mgrwt>
</event>
<event>
12    1  0.1410528E-001  0.2843280E+03  0.7546771E-02  0.1093507E+00
         21   -1    0    0  502  503  0.00000000000E+00  0.00000000000E+00  0.33346535771E+03  0.33346535771E+03  0.00000000000E+00 0. -1.
         21   -1    0    0  503  504 -0.00000000000E+00 -0.00000000000E+00 -0.24678603609E+03  0.24678603609E+03  0.00000000000E+00 0.  1.
         -6    2    1    2    0  504 -0.74211407753E+02  0.21341078095E+03  0.65958309154E+00  0.28432876315E+03  0.17260045201E+03 0.  0.
        -24    2    3    3    0    0  0.31412506183E+01  0.32405410454E+02  0.75770132021E+01  0.87310188524E+02  0.80657794471E+02 0.  0.
          6    2    1    2  502    0  0.74211407753E+02 -0.21341078095E+03  0.86019738534E+02  0.29592263065E+03  0.17064382041E+03 0.  0.
         24    2    5    5    0    0  0.11515720653E+03 -0.15575704645E+03  0.43985687103E+02  0.21352443273E+03  0.78335834520E+02 0.  0.
          2    1    6    6  501    0  0.11252466517E+03 -0.12203700140E+03  0.59467325323E+02  0.17632694849E+03  0.00000000000E+00 0. -1.
         -1    1    6    6    0  501  0.26325413576E+01 -0.33720045044E+02 -0.15481638220E+02  0.37197484239E+02  0.00000000000E+00 0.  1.
          5    1    5    5  502    0 -0.40945798779E+02 -0.57653734508E+02  0.42034051431E+02  0.82398197918E+02  0.47000000000E+01 0. -1.
         13    1    4    4    0    0  0.19115394224E+02  0.42983415359E+02  0.31534584605E+02  0.56633932572E+02  0.00000000000E+00 0. -1.
        -14    1    4    4    0    0 -0.15974143606E+02 -0.10578004906E+02 -0.23957571403E+02  0.30676255952E+02  0.00000000000E+00 0.  1.
         -5    1    3    3    0  504 -0.77352658371E+02  0.18100537050E+03 -0.69174301106E+01  0.19701857462E+03  0.47000000000E+01 0.  1.
<mgrwt>
<rscale>  2 0.28403166E+03</rscale>
<asrwt>0</asrwt>
<pdfrwt beam="1">  1       21 0.51302363E-01 0.28432800E+03</pdfrwt>
<pdfrwt beam="2">  1       21 0.37967082E-01 0.28432800E+03</pdfrwt>
<totfact> 0.23090720E+04</totfact>
</mgrwt>
</event>
<event>
12    1  0.1410528E-001  0.1873591E+03  0.7546771E-02  0.1161118E+00
         21   -1    0    0  502  503  0.00000000000E+00  0.00000000000E+00  0.10357387808E+03  0.10357387808E+03  0.00000000000E+00 0.  1.
         21   -1    0    0  503  504 -0.00000000000E+00 -0.00000000000E+00 -0.40996161218E+03  0.40996161218E+03  0.00000000000E+00 0.  1.
         -6    2    1    2    0  504  0.10155255031E+02  0.72904835401E+02 -0.26193059767E+03  0.32204201797E+03  0.17229387426E+03 0.  0.
        -24    2    3    3    0    0 -0.14454899521E+02  0.26484339457E+02 -0.25494348188E+03  0.26883081672E+03  0.79771327609E+02 0.  0.
          6    2    1    2  502    0 -0.10155255031E+02 -0.72904835401E+02 -0.44457136427E+02  0.19149347230E+03  0.17109958716E+03 0.  0.
         24    2    5    5    0    0 -0.23394582275E+02  0.18526958549E+02 -0.49728170592E+02  0.98838593681E+02  0.80035129647E+02 0.  0.
          2    1    6    6  501    0 -0.30870437340E+02  0.44857803217E+02 -0.45865453515E+02  0.71195830196E+02  0.00000000000E+00 0. -1.
         -1    1    6    6    0  501  0.74758550652E+01 -0.26330844669E+02 -0.38627170768E+01  0.27642763486E+02  0.00000000000E+00 0.  1.
          5    1    5    5  502    0  0.13239327244E+02 -0.91431793950E+02  0.52710341647E+01  0.92654878619E+02  0.47000000000E+01 0. -1.
         11    1    4    4    0    0  0.87124213811E+01  0.32587210506E+02 -0.39006108910E+02  0.51568489479E+02  0.00000000000E+00 0. -1.
        -12    1    4    4    0    0 -0.23167320902E+02 -0.61028710485E+01 -0.21593737297E+03  0.21726232724E+03  0.00000000000E+00 0.  1.
         -5    1    3    3    0  504  0.24610154552E+02  0.46420495943E+02 -0.69871157890E+01  0.53211201243E+02  0.47000000000E+01 0.  1.
<mgrwt>
<rscale>  2 0.18708405E+03</rscale>
<asrwt>0</asrwt>
<pdfrwt beam="1">  1       21 0.15934443E-01 0.18735908E+03</pdfrwt>
<pdfrwt beam="2">  1       21 0.63071015E-01 0.18735908E+03</pdfrwt>
<totfact> 0.81920188E+04</totfact>
</mgrwt>
</event>
<event>
12    1  0.1410528E-001  0.1745637E+03  0.7546771E-02  0.1174802E+00
         21   -1    0    0  502  503  0.00000000000E+00  0.00000000000E+00  0.33022448887E+03  0.33022448887E+03  0.00000000000E+00 0. -1.
         21   -1    0    0  503  504 -0.00000000000E+00 -0.00000000000E+00 -0.10409018673E+03  0.10409018673E+03  0.00000000000E+00 0. -1.
         -6    2    1    2    0  504  0.17984289006E+02  0.12733609298E+02  0.19765925374E+03  0.26370755786E+03  0.17316730646E+03 0.  0.
        -24    2    3    3    0    0  0.57015655170E+02 -0.41449055645E+02  0.11275166143E+03  0.15558448929E+03  0.80776153692E+02 0.  0.
          6    2    1    2  502    0 -0.17984289006E+02 -0.12733609298E+02  0.28475048402E+02  0.17060711773E+03  0.16676444700E+03 0.  0.
         24    2    5    5    0    0  0.84570516000E+00  0.54250884259E+02  0.38016795230E+01  0.96631742174E+02  0.79870940699E+02 0.  0.
          4    1    6    6  501    0 -0.15109928739E+02  0.16042186758E+02 -0.34031582924E+02  0.40543930974E+02  0.00000000000E+00 0. -1.
         -3    1    6    6    0  501  0.15955633899E+02  0.38208697501E+02  0.37833262447E+02  0.56087811200E+02  0.00000000000E+00 0.  1.
          5    1    5    5  502    0 -0.18829994166E+02 -0.66984493557E+02  0.24673368879E+02  0.73975375560E+02  0.47000000000E+01 0. -1.
         11    1    4    4    0    0  0.33574767366E+02 -0.63260677574E+02  0.58003470606E+02  0.92160625720E+02  0.00000000000E+00 0. -1.
        -12    1    4    4    0    0  0.23440887804E+02  0.21811621928E+02  0.54748190820E+02  0.63423863571E+02  0.00000000000E+00 0.  1.
         -5    1    3    3    0  504 -0.39031366164E+02  0.54182664943E+02  0.84907592315E+02  0.10812306857E+03  0.47000000000E+01 0.  1.
<mgrwt>
<rscale>  2 0.17295418E+03</rscale>
<asrwt>0</asrwt>
<pdfrwt beam="1">  1       21 0.50803767E-01 0.17456373E+03</pdfrwt>
<pdfrwt beam="2">  1       21 0.16013875E-01 0.17456373E+03</pdfrwt>
<totfact> 0.12912136E+05</totfact>
</mgrwt>
</event>
<event>
12    1  0.1410528E-001  0.1971130E+03  0.7546771E-02  0.1152528E+00
         21   -1    0    0  502  503  0.00000000000E+00  0.00000000000E+00  0.13066534703E+04  0.13066534703E+04  0.00000000000E+00 0.  1.
         21   -1    0    0  503  504 -0.00000000000E+00 -0.00000000000E+00 -0.29764303752E+02  0.29764303752E+02  0.00000000000E+00 0.  1.
         -6    2    1    2    0  504  0.88215144144E+02  0.27976226063E+02  0.70332601218E+03  0.73042523104E+03  0.17403723125E+03 0.  0.
        -24    2    3    3    0    0  0.58269372401E+02  0.67652384060E+02  0.28727029922E+03  0.31138419124E+03  0.80397294169E+02 0.  0.
          6    2    1    2  502    0 -0.88215144144E+02 -0.27976226063E+02  0.57356315441E+03  0.60599254305E+03  0.17230115858E+03 0.  0.
         24    2    5    5    0    0 -0.70179596879E+02  0.33383826864E+02  0.48144621551E+03  0.49375191986E+03  0.77206503776E+02 0.  0.
          4    1    6    6  501    0  0.10161911743E+02  0.22965876243E+02  0.69089369320E+02  0.73512154607E+02  0.00000000000E+00 0. -1.
         -3    1    6    6    0  501 -0.80341508622E+02  0.10417950621E+02  0.41235684619E+03  0.42023976525E+03  0.00000000000E+00 0.  1.
          5    1    5    5  502    0 -0.18035547266E+02 -0.61360052927E+02  0.92116938903E+02  0.11224062319E+03  0.47000000000E+01 0. -1.
         13    1    4    4    0    0 -0.12283531860E+02  0.43285129514E+02  0.12226823884E+03  0.13028434219E+03  0.00000000000E+00 0. -1.
        -14    1    4    4    0    0  0.70552904261E+02  0.24367254546E+02  0.16500206038E+03  0.18109984904E+03  0.00000000000E+00 0.  1.
         -5    1    3    3    0  504  0.29945771743E+02 -0.39676157997E+02  0.41605571296E+03  0.41904103981E+03  0.47000000000E+01 0.  1.
<mgrwt>
<rscale>  2 0.19672911E+03</rscale>
<asrwt>0</asrwt>
<pdfrwt beam="1">  1       21 0.20102357E+00 0.19711301E+03</pdfrwt>
<pdfrwt beam="2">  1       21 0.45791247E-02 0.19711301E+03</pdfrwt>
<totfact> 0.41155963E+04</totfact>
</mgrwt>
</event>
<event>
12    1  0.1410528E-001  0.4237072E+03  0.7546771E-02  0.1036019E+00
         21   -1    0    0  502  503  0.00000000000E+00  0.00000000000E+00  0.32462669342E+03  0.32462669342E+03  0.00000000000E+00 0. -1.
         21   -1    0    0  503  504 -0.00000000000E+00 -0.00000000000E+00 -0.85696210336E+03  0.85696210336E+03  0.00000000000E+00 0. -1.
         -6    2    1    2    0  504 -0.30995713343E+03 -0.22747977887E+03 -0.61980855660E+03  0.75079321714E+03  0.17806553209E+03 0.  0.
        -24    2    3    3    0    0 -0.11214379985E+03 -0.95230030714E+02 -0.36796025182E+03  0.40428236674E+03  0.80028085965E+02 0.  0.
          6    2    1    2  502    0  0.30995713343E+03  0.22747977887E+03  0.87473146653E+02  0.43079557963E+03  0.17353041718E+03 0.  0.
         24    2    5    5    0    0  0.11585292031E+03  0.10068649105E+03 -0.22851976642E+02  0.17399467189E+03  0.78690942207E+02 0.  0.
          4    1    6    6  501    0  0.95527128086E+02  0.36906435418E+02 -0.29899733946E+02  0.10668416596E+03  0.00000000000E+00 0. -1.
         -3    1    6    6    0  501  0.20325792224E+02  0.63780055635E+02  0.70477573048E+01  0.67310505936E+02  0.00000000000E+00 0.  1.
          5    1    5    5  502    0  0.19410421312E+03  0.12679328782E+03  0.11032512329E+03  0.25680090774E+03  0.47000000000E+01 0. -1.
         11    1    4    4    0    0 -0.12351137796E+03 -0.87974856260E+02 -0.35270454627E+03  0.38392073763E+03  0.00000000000E+00 0. -1.
        -12    1    4    4    0    0  0.11367578107E+02 -0.72551744531E+01 -0.15255705543E+02  0.20361629109E+02  0.00000000000E+00 0.  1.
         -5    1    3    3    0  504 -0.19781333358E+03 -0.13224974816E+03 -0.25184830478E+03  0.34651085041E+03  0.47000000000E+01 0.  1.
<mgrwt>
<rscale>  2 0.42323497E+03</rscale>
<asrwt>0</asrwt>
<pdfrwt beam="1">  1       21 0.49942569E-01 0.42370722E+03</pdfrwt>
<pdfrwt beam="2">  1       21 0.13184032E+00 0.42370722E+03</pdfrwt>
<totfact> 0.13734382E+03</totfact>
</mgrwt>
</event>
<event>
12    1  0.1410528E-001  0.3211787E+03  0.7546771E-02  0.1075115E+00
         21   -1    0    0  502  503  0.00000000000E+00  0.00000000000E+00  0.18759872041E+03  0.18759872041E+03  0.00000000000E+00 0.  1.
         21   -1    0    0  503  504 -0.00000000000E+00 -0.00000000000E+00 -0.62110341884E+03  0.62110341884E+03  0.00000000000E+00 0. -1.
         -6    2    1    2    0  504  0.19553807536E+03 -0.18665888850E+03 -0.79695341184E+02  0.33085611839E+03  0.17331400433E+03 0.  0.
        -24    2    3    3    0    0  0.11535739500E+03 -0.14394495857E+03 -0.11825177615E+03  0.23205272781E+03  0.76403574809E+02 0.  0.
          6    2    1    2  502    0 -0.19553807536E+03  0.18665888850E+03 -0.35380935724E+03  0.47784602086E+03  0.17343321139E+03 0.  0.
         24    2    5    5    0    0 -0.14969103619E+03  0.65682587254E+02 -0.26198687744E+03  0.31913031823E+03  0.80532151854E+02 0.  0.
          4    1    6    6  501    0 -0.10168622405E+03  0.50677146260E+02 -0.23731484891E+03  0.26310948069E+03  0.00000000000E+00 0. -1.
         -3    1    6    6    0  501 -0.48004812136E+02  0.15005440994E+02 -0.24672028532E+02  0.56020837547E+02  0.00000000000E+00 0.  1.
          5    1    5    5  502    0 -0.45847039174E+02  0.12097630125E+03 -0.91822479799E+02  0.15871570263E+03  0.47000000000E+01 0. -1.
         11    1    4    4    0    0  0.76726220022E+02 -0.87286833258E+02 -0.11485480056E+03  0.16339378602E+03  0.00000000000E+00 0. -1.
        -12    1    4    4    0    0  0.38631174982E+02 -0.56658125314E+02 -0.33969755844E+01  0.68658941789E+02  0.00000000000E+00 0.  1.
         -5    1    3    3    0  504  0.80180680356E+02 -0.42713929931E+02  0.38556434961E+02  0.98803390576E+02  0.47000000000E+01 0.  1.
<mgrwt>
<rscale>  2 0.32116261E+03</rscale>
<asrwt>0</asrwt>
<pdfrwt beam="1">  1       21 0.28861341E-01 0.32117870E+03</pdfrwt>
<pdfrwt beam="2">  1       21 0.95554375E-01 0.32117870E+03</pdfrwt>
<totfact> 0.97776844E+03</totfact>
</mgrwt>
</event>
<event>
12    1  0.1410528E-001  0.1994366E+03  0.7546771E-02  0.1150217E+00
         21   -1    0    0  502  503  0.00000000000E+00  0.00000000000E+00  0.61607909038E+03  0.61607909038E+03  0.00000000000E+00 0. -1.
         21   -1    0    0  503  504 -0.00000000000E+00 -0.00000000000E+00 -0.68287775036E+02  0.68287775036E+02  0.00000000000E+00 0. -1.
         -6    2    1    2    0  504  0.57821038543E+02 -0.83106655127E+02  0.19393016571E+03  0.27817397055E+03  0.17181926578E+03 0.  0.
        -24    2    3    3    0    0  0.25925312527E+02 -0.34059967667E+02  0.52906801534E+02  0.12542386701E+03  0.10535565262E+03 0.  0.
          6    2    1    2  502    0 -0.57821038543E+02  0.83106655127E+02  0.35386114964E+03  0.40619289487E+03  0.17182830383E+03 0.  0.
         24    2    5    5    0    0  0.16400883128E+02  0.68073067070E+02  0.27926002592E+03  0.29978650368E+03  0.83563474583E+02 0.  0.
          2    1    6    6  501    0 -0.15327518356E+02  0.74186687246E+02  0.17660958614E+03  0.19217060988E+03  0.00000000000E+00 0. -1.
         -1    1    6    6    0  501  0.31728401483E+02 -0.61136201765E+01  0.10265043978E+03  0.10761589380E+03  0.00000000000E+00 0.  1.
          5    1    5    5  502    0 -0.74221921670E+02  0.15033588057E+02  0.74601123720E+02  0.10640639119E+03  0.47000000000E+01 0. -1.
         13    1    4    4    0    0  0.57888048286E+02 -0.46658724375E+02  0.52583157648E+02  0.91066191108E+02  0.00000000000E+00 0. -1.
        -14    1    4    4    0    0 -0.31962735759E+02  0.12598756709E+02  0.32364388675E+00  0.34357675899E+02  0.00000000000E+00 0.  1.
         -5    1    3    3    0  504  0.31895726016E+02 -0.49046687460E+02  0.14102336418E+03  0.15275010354E+03  0.47000000000E+01 0.  1.
<mgrwt>
<rscale>  2 0.19943465E+03</rscale>
<asrwt>0</asrwt>
<pdfrwt beam="1">  1       21 0.94781395E-01 0.19943659E+03</pdfrwt>
<pdfrwt beam="2">  1       21 0.10505812E-01 0.19943659E+03</pdfrwt>
<totfact> 0.69034620E+04</totfact>
</mgrwt>
</event>
<event>
12    1  0.1410528E-001  0.2575918E+03  0.7546771E-02  0.1108916E+00
         21   -1    0    0  502  503  0.00000000000E+00  0.00000000000E+00  0.77607792455E+03  0.77607792455E+03  0.00000000000E+00 0. -1.
         21   -1    0    0  503  504 -0.00000000000E+00 -0.00000000000E+00 -0.20738857979E+03  0.20738857979E+03  0.00000000000E+00 0.  1.
         -6    2    1    2    0  504  0.16959657118E+03 -0.80770442007E+02 -0.94168404108E+02  0.27231678147E+03  0.17321050741E+03 0.  0.
        -24    2    3    3    0    0  0.60297959371E+02 -0.73426657534E+02  0.66807358488E+00  0.12734724944E+03  0.84791259443E+02 0.  0.
          6    2    1    2  502    0 -0.16959657118E+03  0.80770442007E+02  0.66285774886E+03  0.71114972288E+03  0.17625740229E+03 0.  0.
         24    2    5    5    0    0 -0.91015747626E+02  0.11694601997E+03  0.38522481409E+03  0.42031342057E+03  0.79403880338E+02 0.  0.
          4    1    6    6  501    0 -0.11547121861E+02 -0.25396445060E+01  0.32328637657E+01  0.12257129583E+02  0.00000000000E+00 0. -1.
         -3    1    6    6    0  501 -0.79468625765E+02  0.11948566448E+03  0.38199195033E+03  0.40805629099E+03  0.00000000000E+00 0.  1.
          5    1    5    5  502    0 -0.78580823555E+02 -0.36175577966E+02  0.27763293477E+03  0.29083630231E+03  0.47000000000E+01 0. -1.
         11    1    4    4    0    0 -0.15795684127E+02 -0.23291154808E+02 -0.19217155862E+02  0.34077567530E+02  0.00000000000E+00 0. -1.
        -12    1    4    4    0    0  0.76093643498E+02 -0.50135502726E+02  0.19885229447E+02  0.93269681915E+02  0.00000000000E+00 0.  1.
         -5    1    3    3    0  504  0.10929861181E+03 -0.73437844738E+01 -0.94836477693E+02  0.14496953202E+03  0.47000000000E+01 0.  1.
<mgrwt>
<rscale>  2 0.25707143E+03</rscale>
<asrwt>0</asrwt>
<pdfrwt beam="1">  1       21 0.11939660E+00 0.25759180E+03</pdfrwt>
<pdfrwt beam="2">  1       21 0.31905936E-01 0.25759180E+03</pdfrwt>
<totfact> 0.48213229E+03</totfact>
</mgrwt>
</event>
<event>
12    1  0.1410528E-001  0.1806538E+03  0.7546771E-02  0.1167257E+00
         21   -1    0    0  502  503  0.00000000000E+00  0.00000000000E+00  0.26604417771E+03  0.26604417771E+03  0.00000000000E+00 0.  1.
         21   -1    0    0  503  504 -0.00000000000E+00 -0.00000000000E+00 -0.33141324533E+03  0.33141324533E+03  0.00000000000E+00 0.  1.
         -6    2    1    2    0  504 -0.46127920446E+02 -0.18710244611E+02 -0.26991479570E+03  0.32479189436E+03  0.17366035646E+03 0.  0.
        -24    2    3    3    0    0  0.35098672539E+02 -0.38813006510E+02 -0.14959530975E+03  0.17816055684E+03  0.81388334702E+02 0.  0.
          6    2    1    2  502    0  0.46127920446E+02  0.18710244611E+02  0.20454572807E+03  0.27266552868E+03  0.17329073074E+03 0.  0.
         24    2    5    5    0    0  0.67607829103E+02 -0.19411063615E+02  0.62332081754E+02  0.12379836704E+03  0.80580018112E+02 0.  0.
          4    1    6    6  501    0  0.31052858394E+02  0.10769526305E+02  0.68517255405E+02  0.75992611480E+02  0.00000000000E+00 0. -1.
         -3    1    6    6    0  501  0.36554970708E+02 -0.30180589920E+02 -0.61851736516E+01  0.47805755558E+02  0.00000000000E+00 0.  1.
          5    1    5    5  502    0 -0.21479908657E+02  0.38121308226E+02  0.14221364632E+03  0.14886716165E+03  0.47000000000E+01 0. -1.
         11    1    4    4    0    0  0.33552902194E+01 -0.58936521828E+02 -0.86629464022E+02  0.10483050899E+03  0.00000000000E+00 0. -1.
        -12    1    4    4    0    0  0.31743382319E+02  0.20123515318E+02 -0.62965845727E+02  0.73330047852E+02  0.00000000000E+00 0.  1.
         -5    1    3    3    0  504 -0.81226592985E+02  0.20102761899E+02 -0.12031948595E+03  0.14663133752E+03  0.47000000000E+01 0.  1.
<mgrwt>
<rscale>  2 0.18056486E+03</rscale>
<asrwt>0</asrwt>
<pdfrwt beam="1">  1       21 0.40929874E-01 0.18065375E+03</pdfrwt>
<pdfrwt beam="2">  1       21 0.50986653E-01 0.18065375E+03</pdfrwt>
<totfact> 0.21181965E+04</totfact>
</mgrwt>
</event>
<event>
12    1  0.1410528E-001  0.1748274E+03  0.7546771E-02  0.1172991E+00
         21   -1    0    0  502  503  0.00000000000E+00  0.00000000000E+00  0.47337956726E+03  0.47337956726E+03  0.00000000000E+00 0. -1.
         21   -1    0    0  503  504 -0.00000000000E+00 -0.00000000000E+00 -0.70950679839E+02  0.70950679839E+02  0.00000000000E+00 0. -1.
         -6    2    1    2    0  504  0.16277587052E+01  0.27497976115E+02  0.11859667216E+03  0.21097557038E+03  0.17229838176E+03 0.  0.
        -24    2    3    3    0    0 -0.16109428118E+02 -0.46025420032E+02  0.92271288333E+02  0.13075454189E+03  0.78771229587E+02 0.  0.
          6    2    1    2  502    0 -0.16277587052E+01 -0.27497976115E+02  0.28383221525E+03  0.33335467672E+03  0.17264363813E+03 0.  0.
         24    2    5    5    0    0  0.74454569702E+01 -0.82719995956E+02  0.16608006520E+03  0.20289604895E+03  0.81769102122E+02 0.  0.
          4    1    6    6  501    0  0.53584716633E+01 -0.39330794265E+02  0.10070422712E+02  0.40951654541E+02  0.00000000000E+00 0. -1.
         -3    1    6    6    0  501  0.20869853069E+01 -0.43389201691E+02  0.15600964248E+03  0.16194439440E+03  0.00000000000E+00 0.  1.
          5    1    5    5  502    0 -0.90732156754E+01  0.55222019840E+02  0.11775215006E+03  0.13045862778E+03  0.47000000000E+01 0. -1.
         13    1    4    4    0    0  0.31317243680E+02 -0.18673430094E+02  0.48397331039E+02  0.60595118573E+02  0.00000000000E+00 0. -1.
        -14    1    4    4    0    0 -0.47426671798E+02 -0.27351989938E+02  0.43873957293E+02  0.70159423316E+02  0.00000000000E+00 0.  1.
         -5    1    3    3    0  504  0.17737186824E+02  0.73523396148E+02  0.26325383832E+02  0.80221028486E+02  0.47000000000E+01 0.  1.
<mgrwt>
<rscale>  2 0.17474209E+03</rscale>
<asrwt>0</asrwt>
<pdfrwt beam="1">  1       21 0.72827624E-01 0.17482738E+03</pdfrwt>
<pdfrwt beam="2">  1       21 0.10915490E-01 0.17482738E+03</pdfrwt>
<totfact> 0.11872134E+05</totfact>
</mgrwt>
</event>
<event>
12    1  0.1410528E-001  0.2208546E+03  0.7546771E-02  0.1133495E+00
         21   -1    0    0  502  503  0.00000000000E+00  0.00000000000E+00  0.23253117314E+03  0.23253117314E+03  0.00000000000E+00 0. -1.
         21   -1    0    0  503  504 -0.00000000000E+00 -0.00000000000E+00 -0.84710516640E+03  0.84710516640E+03  0.00000000000E+00 0. -1.
         -6    2    1    2    0  504 -0.59576760297E+02 -0.12181516156E+03 -0.77575710875E+03  0.80621951874E+03  0.17263399623E+03 0.  0.
        -24    2    3    3    0    0 -0.93328552454E+02 -0.62215458752E+02 -0.62520575372E+03  0.64075318213E+03  0.84269946645E+02 0.  0.
          6    2    1    2  502    0  0.59576760297E+02  0.12181516156E+03  0.16118311550E+03  0.27341682081E+03  0.17432279605E+03 0.  0.
         24    2    5    5    0    0 -0.14289079194E+01  0.17773552328E+01  0.35253934257E+02  0.88996064949E+02  0.81683896371E+02 0.  0.
          4    1    6    6  501    0 -0.30638779916E+01  0.41206652456E+02  0.11322784225E+02  0.42843680953E+02  0.00000000000E+00 0. -1.
         -3    1    6    6    0  501  0.16349700723E+01 -0.39429297223E+02  0.23931150032E+02  0.46152383996E+02  0.00000000000E+00 0.  1.
          5    1    5    5  502    0  0.61005668216E+02  0.12003780633E+03  0.12592918124E+03  0.18442075586E+03  0.47000000000E+01 0. -1.
         13    1    4    4    0    0 -0.97556895143E+02 -0.22326668748E+02 -0.43504733152E+03  0.44641013496E+03  0.00000000000E+00 0. -1.
        -14    1    4    4    0    0  0.42283426886E+01 -0.39888790005E+02 -0.19015842220E+03  0.19434304717E+03  0.00000000000E+00 0.  1.
         -5    1    3    3    0  504  0.33751792157E+02 -0.59599702810E+02 -0.15055135503E+03  0.16546633661E+03  0.47000000000E+01 0.  1.
<mgrwt>
<rscale>  2 0.22052123E+03</rscale>
<asrwt>0</asrwt>
<pdfrwt beam="1">  1       21 0.35774027E-01 0.22085462E+03</pdfrwt>
<pdfrwt beam="2">  1       21 0.13032387E+00 0.22085462E+03</pdfrwt>
<totfact> 0.31606465E+03</totfact>
</mgrwt>
</event>
<event>
12    1  0.1410528E-001  0.2448005E+03  0.7546771E-02  0.1116725E+00
         21   -1    0    0  502  503  0.00000000000E+00  0.00000000000E+00  0.16389983624E+03  0.16389983624E+03  0.00000000000E+00 0. -1.
         21   -1    0    0  503  504 -0.00000000000E+00 -0.00000000000E+00 -0.61652182855E+03  0.61652182855E+03  0.00000000000E+00 0. -1.
         -6    2    1    2    0  504  0.13479877023E+03  0.10855980433E+03 -0.47548983551E+03  0.53455542391E+03  0.17234551920E+03 0.  0.
        -24    2    3    3    0    0  0.16134116880E+03  0.63488100282E+02 -0.38844820724E+03  0.43289770173E+03  0.80291337184E+02 0.  0.
          6    2    1    2  502    0 -0.13479877023E+03 -0.10855980433E+03  0.22867843202E+02  0.24586624088E+03  0.17312229948E+03 0.  0.
         24    2    5    5    0    0 -0.13447454192E+03 -0.10299662601E+03  0.69269792384E+02  0.19889513311E+03  0.77905471211E+02 0.  0.
          2    1    6    6  501    0 -0.11249497528E+03 -0.11543609975E+03  0.59541631488E+02  0.17183078440E+03  0.00000000000E+00 0. -1.
         -1    1    6    6    0  501 -0.21979566636E+02  0.12439473740E+02  0.97281608958E+01  0.27064348706E+02  0.00000000000E+00 0.  1.
          5    1    5    5  502    0 -0.32422831528E+00 -0.55631783193E+01 -0.46401949182E+02  0.46971107768E+02  0.47000000000E+01 0. -1.
         13    1    4    4    0    0  0.11454068098E+03  0.77860468224E+02 -0.24649806272E+03  0.28274213523E+03  0.00000000000E+00 0. -1.
        -14    1    4    4    0    0  0.46800487827E+02 -0.14372367942E+02 -0.14195014452E+03  0.15015556650E+03  0.00000000000E+00 0.  1.
         -5    1    3    3    0  504 -0.26542398570E+02  0.45071704044E+02 -0.87041628268E+02  0.10165772218E+03  0.47000000000E+01 0.  1.
<mgrwt>
<rscale>  2 0.24466317E+03</rscale>
<asrwt>0</asrwt>
<pdfrwt beam="1">  1       21 0.25215359E-01 0.24480047E+03</pdfrwt>
<pdfrwt beam="2">  1       21 0.94849513E-01 0.24480047E+03</pdfrwt>
<totfact> 0.13420554E+04</totfact>
</mgrwt>
</event>
<event>
12    1  0.1410528E-001  0.2149459E+03  0.7546771E-02  0.1137907E+00
         21   -1    0    0  502  503  0.00000000000E+00  0.00000000000E+00  0.14714586423E+03  0.14714586423E+03  0.00000000000E+00 0.  1.
         21   -1    0    0  503  504 -0.00000000000E+00 -0.00000000000E+00 -0.40523351259E+03  0.40523351259E+03  0.00000000000E+00 0. -1.
         -6    2    1    2    0  504 -0.12117734015E+03  0.34893931503E+02 -0.26141755379E+03  0.33843888018E+03  0.17406953774E+03 0.  0.
        -24    2    3    3    0    0 -0.11799659043E+03  0.66592629834E+02 -0.26223208405E+03  0.30622586877E+03  0.81552701355E+02 0.  0.
          6    2    1    2  502    0  0.12117734015E+03 -0.34893931503E+02  0.33299054311E+01  0.21394049664E+03  0.17279442587E+03 0.  0.
         24    2    5    5    0    0  0.38239930957E+02  0.78677629913E+01  0.57025390041E+02  0.10617931890E+03  0.80609916507E+02 0.  0.
          4    1    6    6  501    0 -0.45964544021E+01  0.11605958976E+02 -0.16688587405E+02  0.20840696399E+02  0.00000000000E+00 0. -1.
         -3    1    6    6    0  501  0.42836385359E+02 -0.37381959843E+01  0.73713977446E+02  0.85338622504E+02  0.00000000000E+00 0.  1.
          5    1    5    5  502    0  0.82937409195E+02 -0.42761694494E+02 -0.53695484610E+02  0.10776117774E+03  0.47000000000E+01 0. -1.
         13    1    4    4    0    0 -0.60265238626E+02  0.66270697943E+02 -0.21026396430E+03  0.22854898616E+03  0.00000000000E+00 0. -1.
        -14    1    4    4    0    0 -0.57731351808E+02  0.32193189154E+00 -0.51968119747E+02  0.77676882609E+02  0.00000000000E+00 0.  1.
         -5    1    3    3    0  504 -0.31807497183E+01 -0.31698698331E+02  0.81453026044E+00  0.32213011412E+02  0.47000000000E+01 0.  1.
<mgrwt>
<rscale>  2 0.21468760E+03</rscale>
<asrwt>0</asrwt>
<pdfrwt beam="1">  1       21 0.22637826E-01 0.21494590E+03</pdfrwt>
<pdfrwt beam="2">  1       21 0.62343616E-01 0.21494590E+03</pdfrwt>
<totfact> 0.43153449E+04</totfact>
</mgrwt>
</event>
<event>
12    1  0.1410528E-001  0.2251538E+03  0.7546771E-02  0.1130301E+00
         21   -1    0    0  502  503  0.00000000000E+00  0.00000000000E+00  0.43675323414E+03  0.43675323414E+03  0.00000000000E+00 0. -1.
         21   -1    0    0  503  504 -0.00000000000E+00 -0.00000000000E+00 -0.11685998333E+03  0.11685998333E+03  0.00000000000E+00 0. -1.
         -6    2    1    2    0  504 -0.10661693981E+03 -0.94436780931E+02  0.18948220495E+03  0.29341855967E+03  0.17293197426E+03 0.  0.
        -24    2    3    3    0    0 -0.92715811834E+02 -0.13357121695E+03  0.14373119330E+03  0.23145090272E+03  0.80457272399E+02 0.  0.
          6    2    1    2  502    0  0.10661693981E+03  0.94436780931E+02  0.13041104585E+03  0.26019465779E+03  0.17438102424E+03 0.  0.
         24    2    5    5    0    0  0.82055622700E+02 -0.12495062905E+02  0.75080394426E+02  0.13722617194E+03  0.79402171417E+02 0.  0.
          2    1    6    6  501    0  0.31788793958E+02 -0.36923437028E+02  0.63689891956E+02  0.80188964083E+02  0.00000000000E+00 0. -1.
         -1    1    6    6    0  501  0.50266828742E+02  0.24428374124E+02  0.11390502469E+02  0.57037207861E+02  0.00000000000E+00 0.  1.
          5    1    5    5  502    0  0.24561317110E+02  0.10693184384E+03  0.55330651427E+02  0.12296848585E+03  0.47000000000E+01 0. -1.
         13    1    4    4    0    0 -0.90660212379E+02 -0.63356096363E+02  0.78912410708E+02  0.13586919305E+03  0.00000000000E+00 0. -1.
        -14    1    4    4    0    0 -0.20555994551E+01 -0.70215120584E+02  0.64818782594E+02  0.95581709676E+02  0.00000000000E+00 0.  1.
         -5    1    3    3    0  504 -0.13901127976E+02  0.39134436016E+02  0.45751011650E+02  0.61967656953E+02  0.47000000000E+01 0.  1.
<mgrwt>
<rscale>  2 0.22487314E+03</rscale>
<asrwt>0</asrwt>
<pdfrwt beam="1">  1       21 0.67192804E-01 0.22515377E+03</pdfrwt>
<pdfrwt beam="2">  1       21 0.17978459E-01 0.22515377E+03</pdfrwt>
<totfact> 0.56193522E+04</totfact>
</mgrwt>
</event>
<event>
12    1  0.1410528E-001  0.1895671E+03  0.7546771E-02  0.1158877E+00
         21   -1    0    0  502  503  0.00000000000E+00  0.00000000000E+00  0.16611986278E+03  0.16611986278E+03  0.00000000000E+00 0.  1.
         21   -1    0    0  503  504 -0.00000000000E+00 -0.00000000000E+00 -0.29598831590E+03  0.29598831590E+03  0.00000000000E+00 0.  1.
         -6    2    1    2    0  504  0.23121753806E+02  0.73398309981E+02 -0.18488329423E+03  0.26471940906E+03  0.17312598200E+03 0.  0.
        -24    2    3    3    0    0 -0.20437943268E+02  0.48874705661E+02 -0.28197703702E+02  0.10018576917E+03  0.80222387593E+02 0.  0.
          6    2    1    2  502    0 -0.23121753806E+02 -0.73398309981E+02  0.55014841108E+02  0.19738876962E+03  0.17324481586E+03 0.  0.
         24    2    5    5    0    0  0.11701446679E+02  0.66065343169E+01  0.70945114441E+02  0.10856707175E+03  0.81074223130E+02 0.  0.
          2    1    6    6  501    0 -0.30627875671E+02  0.13202820047E+02  0.11470660413E+02  0.35269778503E+02  0.00000000000E+00 0. -1.
         -1    1    6    6    0  501  0.42329322350E+02 -0.65962857301E+01  0.59474454028E+02  0.73297293251E+02  0.00000000000E+00 0.  1.
          5    1    5    5  502    0 -0.34823200485E+02 -0.80004844297E+02 -0.15930273333E+02  0.88821697865E+02  0.47000000000E+01 0. -1.
         13    1    4    4    0    0  0.32477402715E+01 -0.13151251640E+02  0.15589269985E+02  0.20652568248E+02  0.00000000000E+00 0. -1.
        -14    1    4    4    0    0 -0.23685683539E+02  0.62025957301E+02 -0.43786973687E+02  0.79533200920E+02  0.00000000000E+00 0.  1.
         -5    1    3    3    0  504  0.43559697074E+02  0.24523604319E+02 -0.15668559053E+03  0.16453363990E+03  0.47000000000E+01 0.  1.
<mgrwt>
<rscale>  2 0.18953997E+03</rscale>
<asrwt>0</asrwt>
<pdfrwt beam="1">  1       21 0.25556902E-01 0.18956712E+03</pdfrwt>
<pdfrwt beam="2">  1       21 0.45536664E-01 0.18956712E+03</pdfrwt>
<totfact> 0.67249322E+04</totfact>
</mgrwt>
</event>
<event>
12    1  0.1410528E-001  0.1883891E+03  0.7546771E-02  0.1160868E+00
         21   -1    0    0  502  503  0.00000000000E+00  0.00000000000E+00  0.51561351060E+03  0.51561351060E+03  0.00000000000E+00 0. -1.
         21   -1    0    0  503  504 -0.00000000000E+00 -0.00000000000E+00 -0.20365700033E+03  0.20365700033E+03  0.00000000000E+00 0. -1.
         -6    2    1    2    0  504  0.46721678221E+02  0.37334922355E+02 -0.13881063301E+03  0.23072013454E+03  0.17431746041E+03 0.  0.
        -24    2    3    3    0    0  0.92836575742E+02  0.48897001111E+02 -0.64945346518E+02  0.14275175393E+03  0.71767811051E+02 0.  0.
          6    2    1    2  502    0 -0.46721678221E+02 -0.37334922355E+02  0.45076714327E+03  0.48855037639E+03  0.17864389488E+03 0.  0.
         24    2    5    5    0    0  0.12412431977E+02  0.32885974051E+02  0.16104882413E+03  0.18459871621E+03  0.83092758504E+02 0.  0.
          4    1    6    6  501    0 -0.19305771361E+01  0.59694304984E+02  0.10272365866E+03  0.11882460698E+03  0.00000000000E+00 0. -1.
         -3    1    6    6    0  501  0.14343009113E+02 -0.26808330933E+02  0.58325165470E+02  0.65774109230E+02  0.00000000000E+00 0.  1.
          5    1    5    5  502    0 -0.59134110198E+02 -0.70220896406E+02  0.28971831915E+03  0.30395166019E+03  0.47000000000E+01 0. -1.
         11    1    4    4    0    0  0.76574547964E+02  0.26588474863E+01 -0.28814945885E+02  0.81859831250E+02  0.00000000000E+00 0. -1.
        -12    1    4    4    0    0  0.16262027778E+02  0.46238153624E+02 -0.36130400633E+02  0.60891922682E+02  0.00000000000E+00 0.  1.
         -5    1    3    3    0  504 -0.46114897521E+02 -0.11562078755E+02 -0.73865286489E+02  0.87968380607E+02  0.47000000000E+01 0.  1.
<mgrwt>
<rscale>  2 0.18735626E+03</rscale>
<asrwt>0</asrwt>
<pdfrwt beam="1">  1       21 0.79325155E-01 0.18838910E+03</pdfrwt>
<pdfrwt beam="2">  1       21 0.31331846E-01 0.18838910E+03</pdfrwt>
<totfact> 0.13761712E+04</totfact>
</mgrwt>
</event>
<event>
12    1  0.1410528E-001  0.1935141E+03  0.7546771E-02  0.1155977E+00
         21   -1    0    0  502  503  0.00000000000E+00  0.00000000000E+00  0.40079231008E+03  0.40079231008E+03  0.00000000000E+00 0. -1.
         21   -1    0    0  503  504 -0.00000000000E+00 -0.00000000000E+00 -0.11159282710E+03  0.11159282710E+03  0.00000000000E+00 0. -1.
         -6    2    1    2    0  504 -0.25552669358E+02  0.83725773125E+02  0.38246445648E+02  0.19725746567E+03  0.17258265602E+03 0.  0.
        -24    2    3    3    0    0 -0.78170661727E+02  0.25206798222E+02  0.24629871483E+02  0.11725356178E+03  0.79973321492E+02 0.  0.
          6    2    1    2  502    0  0.25552669358E+02 -0.83725773125E+02  0.25095303733E+03  0.31512767151E+03  0.16930764428E+03 0.  0.
         24    2    5    5    0    0  0.11536713836E+01 -0.12077826828E+03  0.20560810467E+03  0.25151594761E+03  0.79980361019E+02 0.  0.
          4    1    6    6  501    0  0.18571263290E+02 -0.96844893661E+02  0.94673012536E+02  0.13669968746E+03  0.00000000000E+00 0. -1.
         -3    1    6    6    0  501 -0.17417591907E+02 -0.23933374624E+02  0.11093509213E+03  0.11481626015E+03  0.00000000000E+00 0.  1.
          5    1    5    5  502    0  0.24398997974E+02  0.37052495160E+02  0.45344932664E+02  0.63611723904E+02  0.47000000000E+01 0. -1.
         11    1    4    4    0    0 -0.14280894630E+02  0.42800154569E+02 -0.35151781100E+01  0.45256531680E+02  0.00000000000E+00 0. -1.
        -12    1    4    4    0    0 -0.63889767097E+02 -0.17593356347E+02  0.28145049593E+02  0.71997030105E+02  0.00000000000E+00 0.  1.
         -5    1    3    3    0  504  0.52617992369E+02  0.58518974903E+02  0.13616574164E+02  0.80003903883E+02  0.47000000000E+01 0.  1.
<mgrwt>
<rscale>  2 0.19278122E+03</rscale>
<asrwt>0</asrwt>
<pdfrwt beam="1">  1       21 0.61660354E-01 0.19351413E+03</pdfrwt>
<pdfrwt beam="2">  1       21 0.17168128E-01 0.19351413E+03</pdfrwt>
<totfact> 0.74834084E+04</totfact>
</mgrwt>
</event>
<event>
12    1  0.1410528E-001  0.2369029E+03  0.7546771E-02  0.1121999E+00
         21   -1    0    0  502  503  0.00000000000E+00  0.00000000000E+00  0.29421883437E+03  0.29421883437E+03  0.00000000000E+00 0. -1.
         21   -1    0    0  503  504 -0.00000000000E+00 -0.00000000000E+00 -0.19431692324E+03  0.19431692324E+03  0.00000000000E+00 0. -1.
         -6    2    1    2    0  504 -0.14341966186E+03 -0.73411882084E+02  0.85622860324E+02  0.25120293360E+03  0.17266480765E+03 0.  0.
        -24    2    3    3    0    0 -0.49636689827E+02 -0.85615655043E+02  0.11100322664E+02  0.13070448325E+03  0.84655793730E+02 0.  0.
          6    2    1    2  502    0  0.14341966186E+03  0.73411882084E+02  0.14279050810E+02  0.23733282401E+03  0.17367922795E+03 0.  0.
         24    2    5    5    0    0  0.13295942707E+03  0.11326300139E+03 -0.20132267552E+01  0.19277885078E+03  0.81565406252E+02 0.  0.
          2    1    6    6  501    0  0.10093612456E+03  0.75073021915E+02 -0.37882286471E+02  0.13137399852E+03  0.00000000000E+00 0. -1.
         -1    1    6    6    0  501  0.32023302516E+02  0.38189979475E+02  0.35869059716E+02  0.61404852262E+02  0.00000000000E+00 0.  1.
          5    1    5    5  502    0  0.10460234790E+02 -0.39851119306E+02  0.16292277565E+02  0.44553973225E+02  0.47000000000E+01 0. -1.
         11    1    4    4    0    0 -0.11566399474E+02 -0.20179066523E+02 -0.35032419949E+02  0.42050526394E+02  0.00000000000E+00 0. -1.
        -12    1    4    4    0    0 -0.38070290353E+02 -0.65436588520E+02  0.46132742613E+02  0.88653956853E+02  0.00000000000E+00 0.  1.
         -5    1    3    3    0  504 -0.93782972034E+02  0.12203772959E+02  0.74522537660E+02  0.12049845035E+03  0.47000000000E+01 0.  1.
<mgrwt>
<rscale>  2 0.23671700E+03</rscale>
<asrwt>0</asrwt>
<pdfrwt beam="1">  1       21 0.45264436E-01 0.23690289E+03</pdfrwt>
<pdfrwt beam="2">  1       21 0.29894911E-01 0.23690289E+03</pdfrwt>
<totfact> 0.49224860E+04</totfact>
</mgrwt>
</event>
<event>
12    1  0.1410528E-001  0.3117828E+03  0.7546771E-02  0.1079562E+00
         21   -1    0    0  502  503  0.00000000000E+00  0.00000000000E+00  0.20672600421E+04  0.20672600421E+04  0.00000000000E+00 0.  1.
         21   -1    0    0  503  504 -0.00000000000E+00 -0.00000000000E+00 -0.99465004115E+02  0.99465004115E+02  0.00000000000E+00 0. -1.
         -6    2    1    2    0  504 -0.13095119962E+03  0.22355160882E+03  0.19618772835E+03  0.36789182722E+03  0.17242747256E+03 0.  0.
        -24    2    3    3    0    0 -0.11904787785E+02  0.13556069449E+03  0.66204562916E+02  0.17083304799E+03  0.79261972425E+02 0.  0.
          6    2    1    2  502    0  0.13095119962E+03 -0.22355160882E+03  0.17716073096E+04  0.17988332190E+04  0.17345014191E+03 0.  0.
         24    2    5    5    0    0  0.15382853804E+03 -0.13474864062E+03  0.11972086652E+04  0.12171415202E+04  0.79400735451E+02 0.  0.
          4    1    6    6  501    0  0.22037690345E+01  0.95716604246E+01  0.66181506987E+02  0.66906390938E+02  0.00000000000E+00 0. -1.
         -3    1    6    6    0  501  0.15162476900E+03 -0.14432030104E+03  0.11310271582E+04  0.11502351292E+04  0.00000000000E+00 0.  1.
          5    1    5    5  502    0 -0.22877338419E+02 -0.88802968200E+02  0.57439864444E+03  0.58169169885E+03  0.47000000000E+01 0. -1.
         11    1    4    4    0    0 -0.38294866832E+02  0.12093249601E+03  0.48221019057E+02  0.13570715565E+03  0.00000000000E+00 0. -1.
        -12    1    4    4    0    0  0.26390079047E+02  0.14628198481E+02  0.17983543859E+02  0.35125892340E+02  0.00000000000E+00 0.  1.
         -5    1    3    3    0  504 -0.11904641183E+03  0.87990914330E+02  0.12998316544E+03  0.19705877923E+03  0.47000000000E+01 0.  1.
<mgrwt>
<rscale>  2 0.31164072E+03</rscale>
<asrwt>0</asrwt>
<pdfrwt beam="1">  1       21 0.31803998E+00 0.31178276E+03</pdfrwt>
<pdfrwt beam="2">  1       21 0.15302310E-01 0.31178276E+03</pdfrwt>
<totfact> 0.89325914E+02</totfact>
</mgrwt>
</event>
<event>
12    1  0.1410528E-001  0.1815691E+03  0.7546771E-02  0.1167397E+00
         21   -1    0    0  502  503  0.00000000000E+00  0.00000000000E+00  0.55327726051E+02  0.55327726051E+02  0.00000000000E+00 0. -1.
         21   -1    0    0  503  504 -0.00000000000E+00 -0.00000000000E+00 -0.61608648175E+03  0.61608648175E+03  0.00000000000E+00 0. -1.
         -6    2    1    2    0  504 -0.36217936260E+02 -0.30991563064E+02 -0.36383384393E+03  0.40662319141E+03  0.17520027944E+03 0.  0.
        -24    2    3    3    0    0 -0.21045925249E+02  0.13677912713E+02 -0.71912266335E+02  0.11087693285E+03  0.80574834307E+02 0.  0.
          6    2    1    2  502    0  0.36217936260E+02  0.30991563064E+02 -0.19692491178E+03  0.26479101640E+03  0.17047769825E+03 0.  0.
         24    2    5    5    0    0  0.75096342714E+02 -0.13468478074E+02 -0.16170425830E+03  0.19586489524E+03  0.79962050038E+02 0.  0.
          2    1    6    6  501    0  0.73112230515E+02 -0.26796514530E+02 -0.74977388517E+02  0.10809745710E+03  0.00000000000E+00 0. -1.
         -1    1    6    6    0  501  0.19841121994E+01  0.13328036457E+02 -0.86726869778E+02  0.87767438145E+02  0.00000000000E+00 0.  1.
          5    1    5    5  502    0 -0.38878406454E+02  0.44460041137E+02 -0.35220653481E+02  0.68926121158E+02  0.47000000000E+01 0. -1.
         11    1    4    4    0    0 -0.35467160054E+02  0.35322667402E+02 -0.68209300951E+02  0.84605667723E+02  0.00000000000E+00 0. -1.
        -12    1    4    4    0    0  0.14421234806E+02 -0.21644754689E+02 -0.37029653842E+01  0.26271265129E+02  0.00000000000E+00 0.  1.
         -5    1    3    3    0  504 -0.15172011012E+02 -0.44669475777E+02 -0.29192157759E+03  0.29574625855E+03  0.47000000000E+01 0.  1.
<mgrwt>
<rscale>  2 0.18042014E+03</rscale>
<asrwt>0</asrwt>
<pdfrwt beam="1">  1       21 0.85119580E-02 0.18156914E+03</pdfrwt>
<pdfrwt beam="2">  1       21 0.94782534E-01 0.18156914E+03</pdfrwt>
<totfact> 0.10075230E+05</totfact>
</mgrwt>
</event>
<event>
12    1  0.1410528E-001  0.3376839E+03  0.7546771E-02  0.1067917E+00
         21   -1    0    0  502  503  0.00000000000E+00  0.00000000000E+00  0.56677476934E+03  0.56677476934E+03  0.00000000000E+00 0.  1.
         21   -1    0    0  503  504 -0.00000000000E+00 -0.00000000000E+00 -0.25812901806E+03  0.25812901806E+03  0.00000000000E+00 0. -1.
         -6    2    1    2    0  504 -0.24138772288E+03 -0.15840850191E+03 -0.40821778979E+02  0.33894292088E+03  0.17278483655E+03 0.  0.
        -24    2    3    3    0    0 -0.24895589814E+03 -0.10779600981E+03 -0.47316105931E+02  0.28714361667E+03  0.81324189308E+02 0.  0.
          6    2    1    2  502    0  0.24138772288E+03  0.15840850191E+03  0.34946753026E+03  0.48596086652E+03  0.17512601992E+03 0.  0.
         24    2    5    5    0    0  0.24230675994E+03  0.16624267528E+03  0.36030604036E+03  0.47175586027E+03  0.79899661953E+02 0.  0.
          4    1    6    6  501    0  0.39990515008E+02  0.31498097375E+02  0.11811020753E+03  0.12861334516E+03  0.00000000000E+00 0. -1.
         -3    1    6    6    0  501  0.20231624493E+03  0.13474457790E+03  0.24219583283E+03  0.34314251511E+03  0.00000000000E+00 0.  1.
          5    1    5    5  502    0 -0.91903706128E+00 -0.78341733648E+01 -0.10838510103E+02  0.14205006255E+02  0.47000000000E+01 0. -1.
         13    1    4    4    0    0  0.59476177208E+01  0.98100271961E+00 -0.17743857441E+01  0.62837065222E+01  0.00000000000E+00 0. -1.
        -14    1    4    4    0    0 -0.25490351586E+03 -0.10877701253E+03 -0.45541720187E+02  0.28085991015E+03  0.00000000000E+00 0.  1.
         -5    1    3    3    0  504  0.75681752587E+01 -0.50612492105E+02  0.64943269519E+01  0.51799304207E+02  0.47000000000E+01 0.  1.
<mgrwt>
<rscale>  2 0.33738143E+03</rscale>
<asrwt>0</asrwt>
<pdfrwt beam="1">  1       21 0.87196118E-01 0.33768389E+03</pdfrwt>
<pdfrwt beam="2">  1       21 0.39712157E-01 0.33768389E+03</pdfrwt>
<totfact> 0.63565900E+03</totfact>
</mgrwt>
</event>
<event>
12    1  0.1410528E-001  0.1881595E+03  0.7546771E-02  0.1160241E+00
         21   -1    0    0  502  503  0.00000000000E+00  0.00000000000E+00  0.39734832075E+02  0.39734832075E+02  0.00000000000E+00 0.  1.
         21   -1    0    0  503  504 -0.00000000000E+00 -0.00000000000E+00 -0.12799349925E+04  0.12799349925E+04  0.00000000000E+00 0.  1.
         -6    2    1    2    0  504  0.72910356191E+02  0.15550429168E+02 -0.98433327730E+03  0.10020665469E+04  0.17224293243E+03 0.  0.
        -24    2    3    3    0    0  0.53849050325E+02  0.65803219924E-01 -0.26277235984E+03  0.28007253405E+03  0.80570383392E+02 0.  0.
          6    2    1    2  502    0 -0.72910356191E+02 -0.15550429168E+02 -0.25586688316E+03  0.31760327769E+03  0.17276065586E+03 0.  0.
         24    2    5    5    0    0 -0.25715431567E+02 -0.43688246024E+02 -0.56058641895E+02  0.11032442946E+03  0.80367668514E+02 0.  0.
          2    1    6    6  501    0 -0.67875367808E+01 -0.64643629706E+02 -0.28860658739E+02  0.71118261649E+02  0.00000000000E+00 0. -1.
         -1    1    6    6    0  501 -0.18927894786E+02  0.20955383683E+02 -0.27197983156E+02  0.39206167806E+02  0.00000000000E+00 0.  1.
          5    1    5    5  502    0 -0.47194924624E+02  0.28137816856E+02 -0.19980824127E+03  0.20727884824E+03  0.47000000000E+01 0. -1.
         11    1    4    4    0    0  0.10288593003E+02 -0.26800235910E+02 -0.29159245998E+02  0.40919059349E+02  0.00000000000E+00 0. -1.
        -12    1    4    4    0    0  0.43560457322E+02  0.26866039130E+02 -0.23361311384E+03  0.23915347470E+03  0.00000000000E+00 0.  1.
         -5    1    3    3    0  504  0.19061305866E+02  0.15484625948E+02 -0.72156091746E+03  0.72199401287E+03  0.47000000000E+01 0.  1.
<mgrwt>
<rscale>  2 0.18804053E+03</rscale>
<asrwt>0</asrwt>
<pdfrwt beam="1">  1       21 0.61130511E-02 0.18815945E+03</pdfrwt>
<pdfrwt beam="2">  1       21 0.19691307E+00 0.18815945E+03</pdfrwt>
<totfact> 0.26931274E+04</totfact>
</mgrwt>
</event>
<event>
12    1  0.1410528E-001  0.1771642E+03  0.7546771E-02  0.1171615E+00
         21   -1    0    0  502  503  0.00000000000E+00  0.00000000000E+00  0.71012863648E+03  0.71012863648E+03  0.00000000000E+00 0. -1.
         21   -1    0    0  503  504 -0.00000000000E+00 -0.00000000000E+00 -0.57713833871E+02  0.57713833871E+02  0.00000000000E+00 0. -1.
         -6    2    1    2    0  504  0.76933410647E+01  0.31677236862E+02  0.13059664689E+03  0.21676958180E+03  0.16991448609E+03 0.  0.
        -24    2    3    3    0    0  0.43102486858E+02 -0.38449184689E+02  0.68585670551E+02  0.11657490234E+03  0.74495298337E+02 0.  0.
          6    2    1    2  502    0 -0.76933410647E+01 -0.31677236862E+02  0.52181815572E+03  0.55107288855E+03  0.17413932935E+03 0.  0.
         24    2    5    5    0    0 -0.14921463180E+01 -0.76317657045E+02  0.22035192771E+03  0.24622013957E+03  0.79011225838E+02 0.  0.
          2    1    6    6  501    0  0.40639360612E+01 -0.82965401229E+02  0.22232401781E+03  0.23733466302E+03  0.00000000000E+00 0. -1.
         -1    1    6    6    0  501 -0.55560823792E+01  0.66477441840E+01 -0.19720901002E+01  0.88854765490E+01  0.00000000000E+00 0.  1.
          5    1    5    5  502    0 -0.62011947467E+01  0.44640420182E+02  0.30146622801E+03  0.30485274898E+03  0.47000000000E+01 0. -1.
         11    1    4    4    0    0  0.28910999818E+02  0.17731344018E+02  0.38420133772E+02  0.51247957522E+02  0.00000000000E+00 0. -1.
        -12    1    4    4    0    0  0.14191487040E+02 -0.56180528707E+02  0.30165536779E+02  0.65326944819E+02  0.00000000000E+00 0.  1.
         -5    1    3    3    0  504 -0.35409145794E+02  0.70126421551E+02  0.62010976342E+02  0.10019467946E+03  0.47000000000E+01 0.  1.
<mgrwt>
<rscale>  2 0.17611718E+03</rscale>
<asrwt>0</asrwt>
<pdfrwt beam="1">  1       21 0.10925055E+00 0.17716416E+03</pdfrwt>
<pdfrwt beam="2">  1       21 0.88790519E-02 0.17716416E+03</pdfrwt>
<totfact> 0.66907188E+04</totfact>
</mgrwt>
</event>
<event>
12    1  0.1410528E-001  0.2506741E+03  0.7546771E-02  0.1113252E+00
         21   -1    0    0  502  503  0.00000000000E+00  0.00000000000E+00  0.98975114987E+02  0.98975114987E+02  0.00000000000E+00 0.  1.
         21   -1    0    0  503  504 -0.00000000000E+00 -0.00000000000E+00 -0.12824449330E+04  0.12824449330E+04  0.00000000000E+00 0.  1.
         -6    2    1    2    0  504 -0.14791822888E+03  0.10506472238E+03 -0.10861617765E+04  0.11147129271E+04  0.17297140427E+03 0.  0.
        -24    2    3    3    0    0 -0.17459775777E+03  0.90842262690E+02 -0.10244061607E+04  0.10457932513E+04  0.74423441998E+02 0.  0.
          6    2    1    2  502    0  0.14791822888E+03 -0.10506472238E+03 -0.97308041465E+02  0.26670712088E+03  0.16954478780E+03 0.  0.
         24    2    5    5    0    0  0.22153305343E+02 -0.35781455168E+02 -0.80927364630E+02  0.12211319403E+03  0.81186897581E+02 0.  0.
          2    1    6    6  501    0 -0.54777767281E+01  0.11033462645E+02 -0.64004381385E+02  0.65179016350E+02  0.00000000000E+00 0. -1.
         -1    1    6    6    0  501  0.27631082071E+02 -0.46814917813E+02 -0.16922983245E+02  0.56934177681E+02  0.00000000000E+00 0.  1.
          5    1    5    5  502    0  0.12576492354E+03 -0.69283267216E+02 -0.16380676835E+02  0.14459392685E+03  0.47000000000E+01 0. -1.
         11    1    4    4    0    0 -0.61795544295E+02  0.84402093275E+01 -0.46712074011E+03  0.47126607375E+03  0.00000000000E+00 0. -1.
        -12    1    4    4    0    0 -0.11280221348E+03  0.82402053363E+02 -0.55728542057E+03  0.57452717755E+03  0.00000000000E+00 0.  1.
         -5    1    3    3    0  504  0.26679528888E+02  0.14222459694E+02 -0.61755615861E+02  0.68919675796E+02  0.47000000000E+01 0.  1.
<mgrwt>
<rscale>  2 0.25008400E+03</rscale>
<asrwt>0</asrwt>
<pdfrwt beam="1">  1       21 0.15226943E-01 0.25067410E+03</pdfrwt>
<pdfrwt beam="2">  1       21 0.19729920E+00 0.25067410E+03</pdfrwt>
<totfact> 0.50863540E+03</totfact>
</mgrwt>
</event>
<event>
12    1  0.1410528E-001  0.1885734E+03  0.7546771E-02  0.1161106E+00
         21   -1    0    0  502  503  0.00000000000E+00  0.00000000000E+00  0.55750544496E+02  0.55750544496E+02  0.00000000000E+00 0. -1.
         21   -1    0    0  503  504 -0.00000000000E+00 -0.00000000000E+00 -0.63692047066E+03  0.63692047066E+03  0.00000000000E+00 0. -1.
         -6    2    1    2    0  504 -0.68646891989E+02 -0.34996661638E+02 -0.34543588656E+03  0.39079278698E+03  0.16569818503E+03 0.  0.
        -24    2    3    3    0    0 -0.35921832408E+02  0.42272049506E+02 -0.21095702561E+03  0.23221145992E+03  0.79636620049E+02 0.  0.
          6    2    1    2  502    0  0.68646891989E+02  0.34996661638E+02 -0.23573403960E+03  0.30187822818E+03  0.17211265240E+03 0.  0.
         24    2    5    5    0    0 -0.20829448655E+02  0.51205423689E+02 -0.12237926060E+03  0.15648175152E+03  0.80336752409E+02 0.  0.
          4    1    6    6  501    0 -0.37390061806E+02  0.17504922986E+02 -0.10910506670E+03  0.11665485258E+03  0.00000000000E+00 0. -1.
         -3    1    6    6    0  501  0.16560613151E+02  0.33700500703E+02 -0.13274193897E+02  0.39826898939E+02  0.00000000000E+00 0.  1.
          5    1    5    5  502    0  0.89476340645E+02 -0.16208762051E+02 -0.11335477900E+03  0.14539647666E+03  0.47000000000E+01 0. -1.
         11    1    4    4    0    0 -0.29317662583E+02 -0.14275608209E+02 -0.37728786700E+02  0.49867621508E+02  0.00000000000E+00 0. -1.
        -12    1    4    4    0    0 -0.66041698245E+01  0.56547657716E+02 -0.17322823891E+03  0.18234383841E+03  0.00000000000E+00 0.  1.
         -5    1    3    3    0  504 -0.32725059582E+02 -0.77268711145E+02 -0.13447886095E+03  0.15858132705E+03  0.47000000000E+01 0.  1.
<mgrwt>
<rscale>  2 0.18709722E+03</rscale>
<asrwt>0</asrwt>
<pdfrwt beam="1">  1       21 0.85770073E-02 0.18857340E+03</pdfrwt>
<pdfrwt beam="2">  1       21 0.97987759E-01 0.18857340E+03</pdfrwt>
<totfact> 0.91697002E+04</totfact>
</mgrwt>
</event>
<event>
12    1  0.1410528E-001  0.1858591E+03  0.7546771E-02  0.1162414E+00
         21   -1    0    0  502  503  0.00000000000E+00  0.00000000000E+00  0.51967940417E+03  0.51967940417E+03  0.00000000000E+00 0.  1.
         21   -1    0    0  503  504 -0.00000000000E+00 -0.00000000000E+00 -0.74514095695E+02  0.74514095695E+02  0.00000000000E+00 0.  1.
         -6    2    1    2    0  504 -0.65480570406E+02 -0.53140630763E+01  0.12308336726E+03  0.22233277494E+03  0.17310806783E+03 0.  0.
        -24    2    3    3    0    0 -0.76632791201E+02 -0.24195980523E+02  0.18941515453E+02  0.11580336992E+03  0.81201042588E+02 0.  0.
          6    2    1    2  502    0  0.65480570406E+02  0.53140630763E+01  0.32208194122E+03  0.37186072493E+03  0.17386108684E+03 0.  0.
         24    2    5    5    0    0  0.99160072615E+02  0.11643690618E+02  0.15518514796E+03  0.20141717811E+03  0.80735085039E+02 0.  0.
          4    1    6    6  501    0  0.50887653301E+02  0.44816185026E+02  0.10082998441E+03  0.12151020309E+03  0.00000000000E+00 0. -1.
         -3    1    6    6    0  501  0.48272419314E+02 -0.33172494408E+02  0.54355163556E+02  0.79906975021E+02  0.00000000000E+00 0.  1.
          5    1    5    5  502    0 -0.33679502209E+02 -0.63296275414E+01  0.16689679325E+03  0.17044354682E+03  0.47000000000E+01 0. -1.
         13    1    4    4    0    0  0.29326711365E+00 -0.58285408661E+00  0.33942229927E+02  0.33948500658E+02  0.00000000000E+00 0. -1.
        -14    1    4    4    0    0 -0.76926058315E+02 -0.23613126437E+02 -0.15000714474E+02  0.81854869267E+02  0.00000000000E+00 0.  1.
         -5    1    3    3    0  504  0.11152220795E+02  0.18881917447E+02  0.10414185181E+03  0.10652940501E+03  0.47000000000E+01 0.  1.
<mgrwt>
<rscale>  2 0.18568284E+03</rscale>
<asrwt>0</asrwt>
<pdfrwt beam="1">  1       21 0.79950675E-01 0.18585915E+03</pdfrwt>
<pdfrwt beam="2">  1       21 0.11463707E-01 0.18585915E+03</pdfrwt>
<totfact> 0.87941931E+04</totfact>
</mgrwt>
</event>
<event>
12    1  0.1410528E-001  0.1819636E+03  0.7546771E-02  0.1166750E+00
         21   -1    0    0  502  503  0.00000000000E+00  0.00000000000E+00  0.13962331007E+04  0.13962331007E+04  0.00000000000E+00 0. -1.
         21   -1    0    0  503  504 -0.00000000000E+00 -0.00000000000E+00 -0.34904229278E+02  0.34904229278E+02  0.00000000000E+00 0. -1.
         -6    2    1    2    0  504 -0.43887579490E+02 -0.53365608676E+01  0.10894987542E+04  0.11040251543E+04  0.17294336421E+03 0.  0.
        -24    2    3    3    0    0 -0.49773025722E+01 -0.18874895429E+02  0.10187660536E+04  0.10220342944E+04  0.79301903160E+02 0.  0.
          6    2    1    2  502    0  0.43887579490E+02  0.53365608676E+01  0.27183011714E+03  0.32711217568E+03  0.17651108854E+03 0.  0.
         24    2    5    5    0    0  0.96224203019E+02  0.16620315249E+02  0.17699280843E+03  0.21810460531E+03  0.81901358321E+02 0.  0.
          2    1    6    6  501    0  0.19447162588E+02  0.34705152431E+02  0.25346616110E+02  0.47170866922E+02  0.00000000000E+00 0. -1.
         -1    1    6    6    0  501  0.76777040431E+02 -0.18084837182E+02  0.15164619232E+03  0.17093373838E+03  0.00000000000E+00 0.  1.
          5    1    5    5  502    0 -0.52336623529E+02 -0.11283754381E+02  0.94837308715E+02  0.10900757038E+03  0.47000000000E+01 0. -1.
         11    1    4    4    0    0 -0.28530886786E+02 -0.39748863522E+02  0.52892428734E+03  0.53118253490E+03  0.00000000000E+00 0. -1.
        -12    1    4    4    0    0  0.23553584214E+02  0.20873968093E+02  0.48984176623E+03  0.49085175952E+03  0.00000000000E+00 0.  1.
         -5    1    3    3    0  504 -0.38910276918E+02  0.13538334561E+02  0.70732700663E+02  0.81990859830E+02  0.47000000000E+01 0.  1.
<mgrwt>
<rscale>  2 0.18109272E+03</rscale>
<asrwt>0</asrwt>
<pdfrwt beam="1">  1       21 0.21480505E+00 0.18196363E+03</pdfrwt>
<pdfrwt beam="2">  1       21 0.53698825E-02 0.18196363E+03</pdfrwt>
<totfact> 0.26020269E+04</totfact>
</mgrwt>
</event>
<event>
12    1  0.1410528E-001  0.2612448E+03  0.7546771E-02  0.1106822E+00
         21   -1    0    0  502  503  0.00000000000E+00  0.00000000000E+00  0.10093595916E+04  0.10093595916E+04  0.00000000000E+00 0. -1.
         21   -1    0    0  503  504 -0.00000000000E+00 -0.00000000000E+00 -0.33986269292E+03  0.33986269292E+03  0.00000000000E+00 0. -1.
         -6    2    1    2    0  504  0.12419397038E+03  0.14823736347E+03 -0.26948640211E+03  0.37532886479E+03  0.17564275566E+03 0.  0.
        -24    2    3    3    0    0  0.11759442887E+03  0.17335853090E+03 -0.26729768899E+03  0.34884287856E+03  0.79760074254E+02 0.  0.
          6    2    1    2  502    0 -0.12419397038E+03 -0.14823736347E+03  0.93898330076E+03  0.97389341971E+03  0.17140681330E+03 0.  0.
         24    2    5    5    0    0 -0.55360423035E+02 -0.15576631562E+03  0.58217052995E+03  0.61039350805E+03  0.79559959858E+02 0.  0.
          2    1    6    6  501    0 -0.55798081393E+02 -0.95958646446E+02  0.25977229857E+03  0.28249448635E+03  0.00000000000E+00 0. -1.
         -1    1    6    6    0  501  0.43765835839E+00 -0.59807669176E+02  0.32239823138E+03  0.32789902170E+03  0.00000000000E+00 0.  1.
          5    1    5    5  502    0 -0.68833547350E+02  0.75289521547E+01  0.35681277081E+03  0.36349991166E+03  0.47000000000E+01 0. -1.
         13    1    4    4    0    0  0.10602344677E+03  0.93833657098E+02 -0.19326938691E+03  0.23958042990E+03  0.00000000000E+00 0. -1.
        -14    1    4    4    0    0  0.11570982093E+02  0.79524873801E+02 -0.74028302078E+02  0.10926244866E+03  0.00000000000E+00 0.  1.
         -5    1    3    3    0  504  0.65995415171E+01 -0.25121167433E+02 -0.21887131172E+01  0.26485986229E+02  0.47000000000E+01 0.  1.
<mgrwt>
<rscale>  2 0.26053466E+03</rscale>
<asrwt>0</asrwt>
<pdfrwt beam="1">  1       21 0.15528609E+00 0.26124478E+03</pdfrwt>
<pdfrwt beam="2">  1       21 0.52286569E-01 0.26124478E+03</pdfrwt>
<totfact> 0.88800877E+02</totfact>
</mgrwt>
</event>
<event>
12    1  0.1410528E-001  0.1808066E+03  0.7546771E-02  0.1169036E+00
         21   -1    0    0  502  503  0.00000000000E+00  0.00000000000E+00  0.62416574172E+02  0.62416574172E+02  0.00000000000E+00 0. -1.
         21   -1    0    0  503  504 -0.00000000000E+00 -0.00000000000E+00 -0.73388026970E+03  0.73388026970E+03  0.00000000000E+00 0. -1.
         -6    2    1    2    0  504  0.59552575010E+01 -0.64033001843E+01 -0.55498412346E+03  0.58121892533E+03  0.17242852005E+03 0.  0.
        -24    2    3    3    0    0  0.32905223012E+02  0.56076551786E+02 -0.30107785820E+03  0.31831112005E+03  0.80291712424E+02 0.  0.
          6    2    1    2  502    0 -0.59552575010E+01  0.64033001843E+01 -0.11647957207E+03  0.21507791854E+03  0.18059499713E+03 0.  0.
         24    2    5    5    0    0 -0.16994486397E+02  0.26081239309E+02 -0.15086008891E+03  0.17368714902E+03  0.80245969988E+02 0.  0.
          4    1    6    6  501    0 -0.38906709204E+02  0.21183634390E+02 -0.37249763409E+02  0.57879385458E+02  0.00000000000E+00 0. -1.
         -3    1    6    6    0  501  0.21912222807E+02  0.48976049189E+01 -0.11361032550E+03  0.11580776357E+03  0.00000000000E+00 0.  1.
          5    1    5    5  502    0  0.11039228896E+02 -0.19677939125E+02  0.34380516840E+02  0.41390769515E+02  0.47000000000E+01 0. -1.
         13    1    4    4    0    0  0.30943753172E+02  0.56830585818E+02 -0.11295893906E+03  0.13018046419E+03  0.00000000000E+00 0. -1.
        -14    1    4    4    0    0  0.19614698397E+01 -0.75403403196E+00 -0.18811891915E+03  0.18813065585E+03  0.00000000000E+00 0.  1.
         -5    1    3    3    0  504 -0.26949965511E+02 -0.62479851971E+02 -0.25390626526E+03  0.26290780528E+03  0.47000000000E+01 0.  1.
<mgrwt>
<rscale>  2 0.17873203E+03</rscale>
<asrwt>0</asrwt>
<pdfrwt beam="1">  1       21 0.96025492E-02 0.18080658E+03</pdfrwt>
<pdfrwt beam="2">  1       21 0.11290467E+00 0.18080658E+03</pdfrwt>
<totfact> 0.53758962E+04</totfact>
</mgrwt>
</event>
<event>
12    1  0.1410528E-001  0.2480561E+03  0.7546771E-02  0.1114884E+00
         21   -1    0    0  502  503  0.00000000000E+00  0.00000000000E+00  0.29226913204E+03  0.29226913204E+03  0.00000000000E+00 0.  1.
         21   -1    0    0  503  504 -0.00000000000E+00 -0.00000000000E+00 -0.20930103078E+03  0.20930103078E+03  0.00000000000E+00 0. -1.
         -6    2    1    2    0  504 -0.37280769428E+02 -0.17164635329E+03  0.28016987802E+02  0.24750033899E+03  0.17210212034E+03 0.  0.
        -24    2    3    3    0    0 -0.62762442803E+02 -0.42548422145E+02 -0.99063556382E+01  0.11047529937E+03  0.79731821976E+02 0.  0.
          6    2    1    2  502    0  0.37280769428E+02  0.17164635329E+03  0.54951113457E+02  0.25406982384E+03  0.17515571400E+03 0.  0.
         24    2    5    5    0    0  0.38345887899E+02  0.75849577258E+02 -0.35275181767E+02  0.12238447490E+03  0.80684916549E+02 0.  0.
          4    1    6    6  501    0  0.30801408340E+02  0.40556005089E+02 -0.59953096235E+02  0.78663142911E+02  0.00000000000E+00 0. -1.
         -3    1    6    6    0  501  0.75444795586E+01  0.35293572169E+02  0.24677914468E+02  0.43721331987E+02  0.00000000000E+00 0.  1.
          5    1    5    5  502    0 -0.10651184712E+01  0.95796776034E+02  0.90226295224E+02  0.13168534894E+03  0.47000000000E+01 0. -1.
         11    1    4    4    0    0  0.10261442206E+02  0.66588248664E+01 -0.18308939711E+02  0.22019410030E+02  0.00000000000E+00 0. -1.
        -12    1    4    4    0    0 -0.73023885008E+02 -0.49207247011E+02  0.84025840724E+01  0.88455889342E+02  0.00000000000E+00 0.  1.
         -5    1    3    3    0  504  0.25481673375E+02 -0.12909793115E+03  0.37923343440E+02  0.13702503962E+03  0.47000000000E+01 0.  1.
<mgrwt>
<rscale>  2 0.24751772E+03</rscale>
<asrwt>0</asrwt>
<pdfrwt beam="1">  1       21 0.44964482E-01 0.24805614E+03</pdfrwt>
<pdfrwt beam="2">  1       21 0.32200158E-01 0.24805614E+03</pdfrwt>
<totfact> 0.42921850E+04</totfact>
</mgrwt>
</event>
<event>
12    1  0.1410528E-001  0.2817201E+03  0.7546771E-02  0.1094758E+00
         21   -1    0    0  502  503  0.00000000000E+00  0.00000000000E+00  0.13003250734E+03  0.13003250734E+03  0.00000000000E+00 0. -1.
         21   -1    0    0  503  504 -0.00000000000E+00 -0.00000000000E+00 -0.11698638007E+04  0.11698638007E+04  0.00000000000E+00 0.  1.
         -6    2    1    2    0  504 -0.11145804374E+03 -0.19199003602E+03 -0.96944905289E+03  0.10095532142E+04  0.17344496724E+03 0.  0.
        -24    2    3    3    0    0 -0.77209049181E+02 -0.14855909169E+03 -0.90861631615E+03  0.92720060394E+03  0.78014799718E+02 0.  0.
          6    2    1    2  502    0  0.11145804374E+03  0.19199003602E+03 -0.70382240509E+02  0.29034309390E+03  0.17338507131E+03 0.  0.
         24    2    5    5    0    0  0.28490041978E+02  0.88284075755E+02 -0.95011591804E+02  0.15518647936E+03  0.80311146635E+02 0.  0.
          2    1    6    6  501    0  0.34527284653E+02  0.69567965455E+02 -0.23681528687E+02  0.81195135347E+02  0.00000000000E+00 0. -1.
         -1    1    6    6    0  501 -0.60372426746E+01  0.18716110299E+02 -0.71330063117E+02  0.73991344008E+02  0.00000000000E+00 0.  1.
          5    1    5    5  502    0  0.82968001761E+02  0.10370596027E+03  0.24629351294E+02  0.13515661455E+03  0.47000000000E+01 0. -1.
         11    1    4    4    0    0 -0.10958689517E+01 -0.77201812946E+02 -0.30418006628E+03  0.31382611996E+03  0.00000000000E+00 0. -1.
        -12    1    4    4    0    0 -0.76113180229E+02 -0.71357278747E+02 -0.60443624987E+03  0.61337448397E+03  0.00000000000E+00 0.  1.
         -5    1    3    3    0  504 -0.34248994559E+02 -0.43430944327E+02 -0.60832736741E+02  0.82352610237E+02  0.47000000000E+01 0.  1.
<mgrwt>
<rscale>  2 0.28171090E+03</rscale>
<asrwt>0</asrwt>
<pdfrwt beam="1">  1       21 0.20005001E-01 0.28172012E+03</pdfrwt>
<pdfrwt beam="2">  1       21 0.17997905E+00 0.28172012E+03</pdfrwt>
<totfact> 0.39210579E+03</totfact>
</mgrwt>
</event>
<event>
12    1  0.1410528E-001  0.3266646E+03  0.7546771E-02  0.1072738E+00
         21   -1    0    0  502  503  0.00000000000E+00  0.00000000000E+00  0.42222662547E+03  0.42222662547E+03  0.00000000000E+00 0. -1.
         21   -1    0    0  503  504 -0.00000000000E+00 -0.00000000000E+00 -0.25279419896E+03  0.25279419896E+03  0.00000000000E+00 0.  1.
         -6    2    1    2    0  504 -0.27247871848E+03  0.36187910978E+02  0.65179599437E+02  0.33310375024E+03  0.17650923860E+03 0.  0.
        -24    2    3    3    0    0 -0.22823043491E+03 -0.28329675744E+02  0.85541133692E+02  0.25212775582E+03  0.57960484395E+02 0.  0.
          6    2    1    2  502    0  0.27247871848E+03 -0.36187910978E+02  0.10425282707E+03  0.34191707419E+03  0.17459787154E+03 0.  0.
         24    2    5    5    0    0  0.19795854933E+03 -0.26111970866E+02  0.17893468529E+01  0.21473360452E+03  0.78980357506E+02 0.  0.
          4    1    6    6  501    0  0.95336851704E+02  0.27117774874E+02  0.13044633020E+01  0.99127143767E+02  0.00000000000E+00 0. -1.
         -3    1    6    6    0  501  0.10262169763E+03 -0.53229745741E+02  0.48488355087E+00  0.11560646075E+03  0.00000000000E+00 0.  1.
          5    1    5    5  502    0  0.74520169151E+02 -0.10075940111E+02  0.10246348022E+03  0.12718346967E+03  0.47000000000E+01 0. -1.
         13    1    4    4    0    0 -0.97660701958E+02  0.13484511940E+02  0.49762893496E+02  0.11043455228E+03  0.00000000000E+00 0. -1.
        -14    1    4    4    0    0 -0.13056973295E+03 -0.41814187684E+02  0.35778240196E+02  0.14169320353E+03  0.00000000000E+00 0.  1.
         -5    1    3    3    0  504 -0.44248283569E+02  0.64517586722E+02 -0.20361534255E+02  0.80975994420E+02  0.47000000000E+01 0.  1.
<mgrwt>
<rscale>  2 0.32640704E+03</rscale>
<asrwt>0</asrwt>
<pdfrwt beam="1">  1       21 0.64957942E-01 0.32666455E+03</pdfrwt>
<pdfrwt beam="2">  1       21 0.38891415E-01 0.32666455E+03</pdfrwt>
<totfact> 0.12991544E+04</totfact>
</mgrwt>
</event>
<event>
12    1  0.1410528E-001  0.2031815E+03  0.7546771E-02  0.1148797E+00
         21   -1    0    0  502  503  0.00000000000E+00  0.00000000000E+00  0.65279604851E+02  0.65279604851E+02  0.00000000000E+00 0. -1.
         21   -1    0    0  503  504 -0.00000000000E+00 -0.00000000000E+00 -0.60831596444E+03  0.60831596444E+03  0.00000000000E+00 0.  1.
         -6    2    1    2    0  504  0.10560861752E+03 -0.20240607587E+02 -0.25282559909E+03  0.31932872811E+03  0.16274885791E+03 0.  0.
        -24    2    3    3    0    0  0.54669239739E+02  0.36705671734E+02 -0.16829132636E+03  0.20528561257E+03  0.97386755196E+02 0.  0.
          6    2    1    2  502    0 -0.10560861752E+03  0.20240607587E+02 -0.29021076050E+03  0.35426684118E+03  0.17239445165E+03 0.  0.
         24    2    5    5    0    0 -0.11006356043E+03 -0.19663976756E+02 -0.14074673893E+03  0.19943207082E+03  0.86387771339E+02 0.  0.
          2    1    6    6  501    0 -0.10436572218E+03 -0.41407841063E+02 -0.89891917988E+02  0.14383104737E+03  0.00000000000E+00 0. -1.
         -1    1    6    6    0  501 -0.56978382441E+01  0.21743864307E+02 -0.50854820942E+02  0.55601023450E+02  0.00000000000E+00 0.  1.
          5    1    5    5  502    0  0.44549429041E+01  0.39904584343E+02 -0.14946402157E+03  0.15483477036E+03  0.47000000000E+01 0. -1.
         13    1    4    4    0    0 -0.62926861383E+01  0.51309593156E+02 -0.10009329099E+03  0.11265406850E+03  0.00000000000E+00 0. -1.
        -14    1    4    4    0    0  0.60961925878E+02 -0.14603921422E+02 -0.68198035373E+02  0.92631544068E+02  0.00000000000E+00 0.  1.
         -5    1    3    3    0  504  0.50939377784E+02 -0.56946279321E+02 -0.84534272728E+02  0.11404311554E+03  0.47000000000E+01 0.  1.
<mgrwt>
<rscale>  2 0.20112103E+03</rscale>
<asrwt>0</asrwt>
<pdfrwt beam="1">  1       21 0.10043016E-01 0.20318147E+03</pdfrwt>
<pdfrwt beam="2">  1       21 0.93587074E-01 0.20318147E+03</pdfrwt>
<totfact> 0.76887722E+04</totfact>
</mgrwt>
</event>
<event>
12    1  0.1410528E-001  0.2025050E+03  0.7546771E-02  0.1148584E+00
         21   -1    0    0  502  503  0.00000000000E+00  0.00000000000E+00  0.18210728313E+03  0.18210728313E+03  0.00000000000E+00 0. -1.
         21   -1    0    0  503  504 -0.00000000000E+00 -0.00000000000E+00 -0.45830609857E+03  0.45830609857E+03  0.00000000000E+00 0. -1.
         -6    2    1    2    0  504  0.88857667810E+02 -0.36766490504E+02  0.91936425304E+02  0.22239734018E+03  0.17821562970E+03 0.  0.
        -24    2    3    3    0    0  0.11464930690E+03 -0.41062095913E+02  0.11593576121E+03  0.18659623690E+03  0.80910417156E+02 0.  0.
          6    2    1    2  502    0 -0.88857667810E+02  0.36766490504E+02 -0.36813524074E+03  0.41801604152E+03  0.17310804586E+03 0.  0.
         24    2    5    5    0    0 -0.17741840551E+02 -0.34546972261E+02 -0.11637497382E+03  0.14681797210E+03  0.80648101038E+02 0.  0.
          4    1    6    6  501    0  0.16043156813E+02 -0.43704993843E+02 -0.95023519804E+02  0.10581577710E+03  0.00000000000E+00 0. -1.
         -3    1    6    6    0  501 -0.33784997364E+02  0.91580215816E+01 -0.21351454017E+02  0.41002195000E+02  0.00000000000E+00 0.  1.
          5    1    5    5  502    0 -0.71115827259E+02  0.71313462766E+02 -0.25176026692E+03  0.27119806942E+03  0.47000000000E+01 0. -1.
         11    1    4    4    0    0  0.76395835515E+02 -0.63707954042E+02  0.94650996486E+02  0.13730927947E+03  0.00000000000E+00 0. -1.
        -12    1    4    4    0    0  0.38253471384E+02  0.22645858129E+02  0.21284764720E+02  0.49286957428E+02  0.00000000000E+00 0.  1.
         -5    1    3    3    0  504 -0.25791639089E+02  0.42956054085E+01 -0.23999335902E+02  0.35801103285E+02  0.47000000000E+01 0.  1.
<mgrwt>
<rscale>  2 0.20137555E+03</rscale>
<asrwt>0</asrwt>
<pdfrwt beam="1">  1       21 0.28016505E-01 0.20250499E+03</pdfrwt>
<pdfrwt beam="2">  1       21 0.70508630E-01 0.20250499E+03</pdfrwt>
<totfact> 0.22062452E+04</totfact>
</mgrwt>
</event>
<event>
12    1  0.1410528E-001  0.1868458E+03  0.7546771E-02  0.1161471E+00
         21   -1    0    0  502  503  0.00000000000E+00  0.00000000000E+00  0.82078492205E+02  0.82078492205E+02  0.00000000000E+00 0.  1.
         21   -1    0    0  503  504 -0.00000000000E+00 -0.00000000000E+00 -0.45456973719E+03  0.45456973719E+03  0.00000000000E+00 0.  1.
         -6    2    1    2    0  504  0.41409723166E+02 -0.54570632546E+02 -0.11641627893E+03  0.21965334974E+03  0.17321121483E+03 0.  0.
        -24    2    3    3    0    0  0.48723584635E+02  0.29223179576E+02 -0.93487600903E+02  0.13234521842E+03  0.74480490004E+02 0.  0.
          6    2    1    2  502    0 -0.41409723166E+02  0.54570632546E+02 -0.25607496605E+03  0.31699487965E+03  0.17383511261E+03 0.  0.
         24    2    5    5    0    0  0.33015203689E+02  0.19017890560E+02 -0.66073137844E+02  0.10980933015E+03  0.78998389902E+02 0.  0.
          2    1    6    6  501    0  0.40369268918E+01  0.22992151183E+02  0.12135685869E+02  0.26309896736E+02  0.00000000000E+00 0. -1.
         -1    1    6    6    0  501  0.28978276797E+02 -0.39742606228E+01 -0.78208823713E+02  0.83499433413E+02  0.00000000000E+00 0.  1.
          5    1    5    5  502    0 -0.74424926855E+02  0.35552741987E+02 -0.19000182820E+03  0.20718554950E+03  0.47000000000E+01 0. -1.
         13    1    4    4    0    0  0.22031755029E+01  0.14346103824E+02 -0.80511786700E+02  0.81809611140E+02  0.00000000000E+00 0. -1.
        -14    1    4    4    0    0  0.46520409132E+02  0.14877075752E+02 -0.12975814203E+02  0.50535607278E+02  0.00000000000E+00 0.  1.
         -5    1    3    3    0  504 -0.73138614689E+01 -0.83793812122E+02 -0.22928678030E+02  0.87308131327E+02  0.47000000000E+01 0.  1.
<mgrwt>
<rscale>  2 0.18670059E+03</rscale>
<asrwt>0</asrwt>
<pdfrwt beam="1">  1       21 0.12627460E-01 0.18684583E+03</pdfrwt>
<pdfrwt beam="2">  1       21 0.69933807E-01 0.18684583E+03</pdfrwt>
<totfact> 0.99670740E+04</totfact>
</mgrwt>
</event>
<event>
12    1  0.1410528E-001  0.2270539E+03  0.7546771E-02  0.1128755E+00
         21   -1    0    0  502  503  0.00000000000E+00  0.00000000000E+00  0.25752585287E+03  0.25752585287E+03  0.00000000000E+00 0.  1.
         21   -1    0    0  503  504 -0.00000000000E+00 -0.00000000000E+00 -0.26377189726E+03  0.26377189726E+03  0.00000000000E+00 0.  1.
         -6    2    1    2    0  504 -0.60512421393E+02  0.13439858465E+03 -0.13121592517E+03  0.26212419589E+03  0.17253040994E+03 0.  0.
        -24    2    3    3    0    0 -0.40949588334E+01  0.12617208356E+02 -0.89883502310E+02  0.12161052085E+03  0.80833855276E+02 0.  0.
          6    2    1    2  502    0  0.60512421393E+02 -0.13439858465E+03  0.12496988078E+03  0.25917355424E+03  0.17270995169E+03 0.  0.
         24    2    5    5    0    0  0.97141844529E+02 -0.54829447295E+02  0.93162548442E+02  0.16586354058E+03  0.79929014830E+02 0.  0.
          4    1    6    6  501    0  0.65256687720E+02 -0.33240045136E+02  0.10275303096E+03  0.12618051064E+03  0.00000000000E+00 0. -1.
         -3    1    6    6    0  501  0.31885156809E+02 -0.21589402159E+02 -0.95904825197E+01  0.39683029941E+02  0.00000000000E+00 0.  1.
          5    1    5    5  502    0 -0.36629423136E+02 -0.79569137353E+02  0.31807332343E+02  0.93310013660E+02  0.47000000000E+01 0. -1.
         11    1    4    4    0    0 -0.16158301586E+01 -0.33144908806E+02 -0.22402061529E+02  0.40038084964E+02  0.00000000000E+00 0. -1.
        -12    1    4    4    0    0 -0.24791286748E+01  0.45762117162E+02 -0.67481440781E+02  0.81572435883E+02  0.00000000000E+00 0.  1.
         -5    1    3    3    0  504 -0.56417462560E+02  0.12178137629E+03 -0.41332422861E+02  0.14051367504E+03  0.47000000000E+01 0.  1.
<mgrwt>
<rscale>  2 0.22701973E+03</rscale>
<asrwt>0</asrwt>
<pdfrwt beam="1">  1       21 0.39619362E-01 0.22705387E+03</pdfrwt>
<pdfrwt beam="2">  1       21 0.40580292E-01 0.22705387E+03</pdfrwt>
<totfact> 0.35307543E+04</totfact>
</mgrwt>
</event>
<event>
12    1  0.1410528E-001  0.2481167E+03  0.7546771E-02  0.1114903E+00
         21   -1    0    0  502  503  0.00000000000E+00  0.00000000000E+00  0.85200755282E+03  0.85200755282E+03  0.00000000000E+00 0. -1.
         21   -1    0    0  503  504 -0.00000000000E+00 -0.00000000000E+00 -0.23817487141E+03  0.23817487141E+03  0.00000000000E+00 0.  1.
         -6    2    1    2    0  504  0.13968788036E+03 -0.11057821223E+03 -0.14950545760E+03  0.28753242958E+03  0.16906439977E+03 0.  0.
        -24    2    3    3    0    0  0.87271215679E+02 -0.41986860061E+01 -0.96262703526E+02  0.15745171926E+03  0.88829284347E+02 0.  0.
          6    2    1    2  502    0 -0.13968788036E+03  0.11057821223E+03  0.76333813901E+03  0.80264999465E+03  0.17268947419E+03 0.  0.
         24    2    5    5    0    0 -0.13932964856E+03  0.50601355418E+02  0.40335445223E+03  0.43767369893E+03  0.83007255513E+02 0.  0.
          4    1    6    6  501    0 -0.32634081725E+02 -0.11768293343E+01  0.24880663237E+02  0.41053813714E+02  0.00000000000E+00 0. -1.
         -3    1    6    6    0  501 -0.10669556683E+03  0.51778184752E+02  0.37847378899E+03  0.39661988522E+03  0.00000000000E+00 0.  1.
          5    1    5    5  502    0 -0.35823180457E+00  0.59976856811E+02  0.35998368678E+03  0.36497629572E+03  0.47000000000E+01 0. -1.
         13    1    4    4    0    0 -0.13643787845E+02 -0.12224862864E+02 -0.84731161477E+00  0.18338979136E+02  0.00000000000E+00 0. -1.
        -14    1    4    4    0    0  0.10091500352E+03  0.80261768580E+01 -0.95415391911E+02  0.13911274012E+03  0.00000000000E+00 0.  1.
         -5    1    3    3    0  504  0.52416664683E+02 -0.10637952622E+03 -0.53242754070E+02  0.13008071032E+03  0.47000000000E+01 0.  1.
<mgrwt>
<rscale>  2 0.24748700E+03</rscale>
<asrwt>0</asrwt>
<pdfrwt beam="1">  1       21 0.13107808E+00 0.24811671E+03</pdfrwt>
<pdfrwt beam="2">  1       21 0.36642288E-01 0.24811671E+03</pdfrwt>
<totfact> 0.29089209E+03</totfact>
</mgrwt>
</event>
<event>
12    1  0.1410528E-001  0.2039942E+03  0.7546771E-02  0.1146707E+00
         21   -1    0    0  502  503  0.00000000000E+00  0.00000000000E+00  0.20410046217E+03  0.20410046217E+03  0.00000000000E+00 0.  1.
         21   -1    0    0  503  504 -0.00000000000E+00 -0.00000000000E+00 -0.30089794371E+03  0.30089794371E+03  0.00000000000E+00 0.  1.
         -6    2    1    2    0  504  0.91962466304E+02  0.50758800326E+02 -0.19293221112E+03  0.28077834113E+03  0.17487163218E+03 0.  0.
        -24    2    3    3    0    0  0.12726344300E+03  0.18118236413E+02 -0.11950888156E+03  0.19288840603E+03  0.79995687351E+02 0.  0.
          6    2    1    2  502    0 -0.91962466304E+02 -0.50758800326E+02  0.96134729578E+02  0.22422006476E+03  0.17320277189E+03 0.  0.
         24    2    5    5    0    0 -0.73574294528E+02 -0.93341355254E+02  0.35574744910E+02  0.14779362569E+03  0.80321901766E+02 0.  0.
          4    1    6    6  501    0  0.42682463658E+01 -0.18875393679E+02 -0.18924692713E+02  0.27067367953E+02  0.00000000000E+00 0. -1.
         -3    1    6    6    0  501 -0.77842540893E+02 -0.74465961575E+02  0.54499437623E+02  0.12072625774E+03  0.00000000000E+00 0.  1.
          5    1    5    5  502    0 -0.18388171776E+02  0.42582554929E+02  0.60559984668E+02  0.76426439067E+02  0.47000000000E+01 0. -1.
         11    1    4    4    0    0  0.98393219998E+02  0.38370264817E+01 -0.38528132677E+02  0.10573724756E+03  0.00000000000E+00 0. -1.
        -12    1    4    4    0    0  0.28870223001E+02  0.14281209932E+02 -0.80980748885E+02  0.87151158473E+02  0.00000000000E+00 0.  1.
         -5    1    3    3    0  504 -0.35300976696E+02  0.32640563912E+02 -0.73423329554E+02  0.87889935095E+02  0.47000000000E+01 0.  1.
<mgrwt>
<rscale>  2 0.20363607E+03</rscale>
<asrwt>0</asrwt>
<pdfrwt beam="1">  1       21 0.31400071E-01 0.20399421E+03</pdfrwt>
<pdfrwt beam="2">  1       21 0.46291991E-01 0.20399421E+03</pdfrwt>
<totfact> 0.43327407E+04</totfact>
</mgrwt>
</event>
<event>
12    1  0.1410528E-001  0.2940264E+03  0.7546771E-02  0.1088293E+00
         21   -1    0    0  502  503  0.00000000000E+00  0.00000000000E+00  0.42117126052E+03  0.42117126052E+03  0.00000000000E+00 0.  1.
         21   -1    0    0  503  504 -0.00000000000E+00 -0.00000000000E+00 -0.28898810587E+03  0.28898810587E+03  0.00000000000E+00 0. -1.
         -6    2    1    2    0  504  0.21494671604E+03  0.10275328526E+03 -0.12518347977E+03  0.31956600650E+03  0.17231134767E+03 0.  0.
        -24    2    3    3    0    0  0.14042280099E+03  0.13448306877E+03 -0.10865359573E+03  0.23676552255E+03  0.80299750805E+02 0.  0.
          6    2    1    2  502    0 -0.21494671604E+03 -0.10275328526E+03  0.25736663441E+03  0.39059335989E+03  0.17194551438E+03 0.  0.
         24    2    5    5    0    0 -0.60525771980E+02 -0.30176070149E+02  0.37042866378E+02  0.11188574808E+03  0.81069614478E+02 0.  0.
          4    1    6    6  501    0  0.81766963369E+01 -0.17945653836E+02 -0.15046944382E+02  0.24805551593E+02  0.00000000000E+00 0. -1.
         -3    1    6    6    0  501 -0.68702468316E+02 -0.12230416313E+02  0.52089810760E+02  0.87080196491E+02  0.00000000000E+00 0.  1.
          5    1    5    5  502    0 -0.15442094406E+03 -0.72577215112E+02  0.22032376803E+03  0.27870761180E+03  0.47000000000E+01 0. -1.
         11    1    4    4    0    0  0.13655038228E+03  0.96850990531E+02 -0.66523567447E+02  0.18014301622E+03  0.00000000000E+00 0. -1.
        -12    1    4    4    0    0  0.38724187058E+01  0.37632078244E+02 -0.42130028285E+02  0.56622506328E+02  0.00000000000E+00 0.  1.
         -5    1    3    3    0  504  0.74523915047E+02 -0.31729783514E+02 -0.16529884034E+02  0.82800483948E+02  0.47000000000E+01 0.  1.
<mgrwt>
<rscale>  2 0.29397283E+03</rscale>
<asrwt>0</asrwt>
<pdfrwt beam="1">  1       21 0.64795578E-01 0.29402641E+03</pdfrwt>
<pdfrwt beam="2">  1       21 0.44459709E-01 0.29402641E+03</pdfrwt>
<totfact> 0.10062556E+04</totfact>
</mgrwt>
</event>
<event>
12    1  0.1410528E-001  0.2290317E+03  0.7546771E-02  0.1127704E+00
         21   -1    0    0  502  503  0.00000000000E+00  0.00000000000E+00  0.68839007335E+03  0.68839007335E+03  0.00000000000E+00 0. -1.
         21   -1    0    0  503  504 -0.00000000000E+00 -0.00000000000E+00 -0.83703626506E+02  0.83703626506E+02  0.00000000000E+00 0.  1.
         -6    2    1    2    0  504  0.12074968757E+03  0.81236279887E+02  0.18013122532E+03  0.28970107459E+03  0.17406790074E+03 0.  0.
        -24    2    3    3    0    0  0.35755689414E+02  0.94481852855E+02  0.15103903586E+03  0.19877324380E+03  0.80577430168E+02 0.  0.
          6    2    1    2  502    0 -0.12074968757E+03 -0.81236279887E+02  0.42455522151E+03  0.48239262526E+03  0.17684933862E+03 0.  0.
         24    2    5    5    0    0 -0.34547800488E+01 -0.59315589287E+02  0.26431420868E+03  0.28254797509E+03  0.80256356013E+02 0.  0.
          2    1    6    6  501    0 -0.85201734177E+01 -0.48953848598E+02  0.59981449564E+02  0.77889966873E+02  0.00000000000E+00 0. -1.
         -1    1    6    6    0  501  0.50653933688E+01 -0.10361740689E+02  0.20433275912E+03  0.20465800822E+03  0.00000000000E+00 0.  1.
          5    1    5    5  502    0 -0.11729490752E+03 -0.21920690600E+02  0.16024101283E+03  0.19984465017E+03  0.47000000000E+01 0. -1.
         11    1    4    4    0    0  0.50893725666E+02  0.25358709908E+02  0.82987491835E+02  0.10059900239E+03  0.00000000000E+00 0. -1.
        -12    1    4    4    0    0 -0.15138036253E+02  0.69123142947E+02  0.68051544028E+02  0.98174241413E+02  0.00000000000E+00 0.  1.
         -5    1    3    3    0  504  0.84993998152E+02 -0.13245572968E+02  0.29092189462E+02  0.90927830793E+02  0.47000000000E+01 0.  1.
<mgrwt>
<rscale>  2 0.22849458E+03</rscale>
<asrwt>0</asrwt>
<pdfrwt beam="1">  1       21 0.10590616E+00 0.22903168E+03</pdfrwt>
<pdfrwt beam="2">  1       21 0.12877481E-01 0.22903168E+03</pdfrwt>
<totfact> 0.36297947E+04</totfact>
</mgrwt>
</event>
<event>
12    1  0.1410528E-001  0.1761704E+03  0.7546771E-02  0.1171607E+00
         21   -1    0    0  502  503  0.00000000000E+00  0.00000000000E+00  0.45191593060E+02  0.45191593060E+02  0.00000000000E+00 0.  1.
         21   -1    0    0  503  504 -0.00000000000E+00 -0.00000000000E+00 -0.70289407169E+03  0.70289407169E+03  0.00000000000E+00 0.  1.
         -6    2    1    2    0  504  0.87898247623E+01  0.30285188344E+02 -0.27113144409E+03  0.32333922558E+03  0.17332495830E+03 0.  0.
        -24    2    3    3    0    0 -0.35296821960E+02  0.54025263312E+02 -0.24766688382E+03  0.26784238632E+03  0.78968752383E+02 0.  0.
          6    2    1    2  502    0 -0.87898247623E+01 -0.30285188344E+02 -0.38657103454E+03  0.42474643917E+03  0.17314132722E+03 0.  0.
         24    2    5    5    0    0 -0.54519484284E+02 -0.28952916834E+02 -0.13933854484E+03  0.17327284082E+03  0.82447569562E+02 0.  0.
          2    1    6    6  501    0 -0.15744056772E+02  0.25631449347E+02 -0.19050150186E+02  0.35605543688E+02  0.00000000000E+00 0. -1.
         -1    1    6    6    0  501 -0.38775427512E+02 -0.54584366181E+02 -0.12028839466E+03  0.13766729713E+03  0.00000000000E+00 0.  1.
          5    1    5    5  502    0  0.45729659522E+02 -0.13322715103E+01 -0.24723248970E+03  0.25147359836E+03  0.47000000000E+01 0. -1.
         11    1    4    4    0    0 -0.21591618067E+02 -0.17486274941E+02 -0.50155497867E+02  0.57337088768E+02  0.00000000000E+00 0. -1.
        -12    1    4    4    0    0 -0.13705203893E+02  0.71511538254E+02 -0.19751138595E+03  0.21050529756E+03  0.00000000000E+00 0.  1.
         -5    1    3    3    0  504  0.44086646723E+02 -0.23740074968E+02 -0.23464560273E+02  0.55496839257E+02  0.47000000000E+01 0.  1.
<mgrwt>
<rscale>  2 0.17612517E+03</rscale>
<asrwt>0</asrwt>
<pdfrwt beam="1">  1       21 0.69525531E-02 0.17617036E+03</pdfrwt>
<pdfrwt beam="2">  1       21 0.10813754E+00 0.17617036E+03</pdfrwt>
<totfact> 0.10488903E+05</totfact>
</mgrwt>
</event>
<event>
12    1  0.1410528E-001  0.3141174E+03  0.7546771E-02  0.1078525E+00
         21   -1    0    0  502  503  0.00000000000E+00  0.00000000000E+00  0.84889530073E+03  0.84889530073E+03  0.00000000000E+00 0.  1.
         21   -1    0    0  503  504 -0.00000000000E+00 -0.00000000000E+00 -0.27130640042E+03  0.27130640042E+03  0.00000000000E+00 0.  1.
         -6    2    1    2    0  504 -0.85067636752E+02 -0.24652649640E+03 -0.13501298284E+03  0.34190387538E+03  0.17509408390E+03 0.  0.
        -24    2    3    3    0    0 -0.67209865516E+02 -0.56007226475E+02 -0.25335801285E+02  0.12129638149E+03  0.80105766936E+02 0.  0.
          6    2    1    2  502    0  0.85067636752E+02  0.24652649640E+03  0.71260188314E+03  0.77829782576E+03  0.17301515966E+03 0.  0.
         24    2    5    5    0    0  0.16587780901E+02  0.12020117515E+03  0.50399018755E+03  0.52494331724E+03  0.82679502829E+02 0.  0.
          2    1    6    6  501    0  0.21255398937E+02  0.40633496929E+02  0.33471902316E+03  0.33784567116E+03  0.00000000000E+00 0. -1.
         -1    1    6    6    0  501 -0.46676180362E+01  0.79567678220E+02  0.16927116439E+03  0.18709764608E+03  0.00000000000E+00 0.  1.
          5    1    5    5  502    0  0.68479855851E+02  0.12632532126E+03  0.20861169559E+03  0.25335450852E+03  0.47000000000E+01 0. -1.
         13    1    4    4    0    0 -0.74364699752E+02 -0.37930865637E+02 -0.43983505180E+02  0.94357871240E+02  0.00000000000E+00 0. -1.
        -14    1    4    4    0    0  0.71548342350E+01 -0.18076360839E+02  0.18647703895E+02  0.26938510253E+02  0.00000000000E+00 0.  1.
         -5    1    3    3    0  504 -0.17857771235E+02 -0.19051926993E+03 -0.10967718155E+03  0.22060749389E+03  0.47000000000E+01 0.  1.
<mgrwt>
<rscale>  2 0.31382851E+03</rscale>
<asrwt>0</asrwt>
<pdfrwt beam="1">  1       21 0.13059928E+00 0.31411742E+03</pdfrwt>
<pdfrwt beam="2">  1       21 0.41739446E-01 0.31411742E+03</pdfrwt>
<totfact> 0.21617181E+03</totfact>
</mgrwt>
</event>
<event>
12    1  0.1410528E-001  0.1826988E+03  0.7546771E-02  0.1165630E+00
         21   -1    0    0  502  503  0.00000000000E+00  0.00000000000E+00  0.11441550692E+03  0.11441550692E+03  0.00000000000E+00 0.  1.
         21   -1    0    0  503  504 -0.00000000000E+00 -0.00000000000E+00 -0.32942638844E+03  0.32942638844E+03  0.00000000000E+00 0. -1.
         -6    2    1    2    0  504 -0.55497840792E+02  0.58699913046E+01 -0.18572327012E+03  0.26052253550E+03  0.17396663850E+03 0.  0.
        -24    2    3    3    0    0 -0.53239941139E+02  0.46505860942E+02 -0.48017632618E+02  0.11685171518E+03  0.79695318962E+02 0.  0.
          6    2    1    2  502    0  0.55497840792E+02 -0.58699913046E+01 -0.29287611405E+02  0.18331935985E+03  0.17214457988E+03 0.  0.
         24    2    5    5    0    0  0.20547593162E+02 -0.65292547291E+02  0.13869434060E+02  0.10185046675E+03  0.74133906278E+02 0.  0.
          4    1    6    6  501    0 -0.26122046645E+02 -0.32847173949E+02 -0.42748042738E+01  0.42184974919E+02  0.00000000000E+00 0. -1.
         -3    1    6    6    0  501  0.46669639807E+02 -0.32445373343E+02  0.18144238333E+02  0.59665491834E+02  0.00000000000E+00 0.  1.
          5    1    5    5  502    0  0.34950247630E+02  0.59422555987E+02 -0.43157045464E+02  0.81468893098E+02  0.47000000000E+01 0. -1.
         11    1    4    4    0    0 -0.63459946128E+02  0.18783673838E+02 -0.55500316622E+02  0.86372891063E+02  0.00000000000E+00 0. -1.
        -12    1    4    4    0    0  0.10220004989E+02  0.27722187104E+02  0.74826840045E+01  0.30478824120E+02  0.00000000000E+00 0.  1.
         -5    1    3    3    0  504 -0.22578996523E+01 -0.40635869638E+02 -0.13770563750E+03  0.14367082032E+03  0.47000000000E+01 0.  1.
<mgrwt>
<rscale>  2 0.18226374E+03</rscale>
<asrwt>0</asrwt>
<pdfrwt beam="1">  1       21 0.17602386E-01 0.18269882E+03</pdfrwt>
<pdfrwt beam="2">  1       21 0.50680983E-01 0.18269882E+03</pdfrwt>
<totfact> 0.10877902E+05</totfact>
</mgrwt>
</event>
<event>
12    1  0.1410528E-001  0.2042255E+03  0.7546771E-02  0.1146490E+00
         21   -1    0    0  502  503  0.00000000000E+00  0.00000000000E+00  0.15510342333E+03  0.15510342333E+03  0.00000000000E+00 0. -1.
         21   -1    0    0  503  504 -0.00000000000E+00 -0.00000000000E+00 -0.33219598314E+03  0.33219598314E+03  0.00000000000E+00 0. -1.
         -6    2    1    2    0  504 -0.68222584151E+02  0.82517908518E+02 -0.19654776205E+03  0.28344146292E+03  0.17390949923E+03 0.  0.
        -24    2    3    3    0    0 -0.71506623311E+02  0.38398806711E+02 -0.38043442252E+02  0.11881160703E+03  0.77982234723E+02 0.  0.
          6    2    1    2  502    0  0.68222584151E+02 -0.82517908518E+02  0.19455202239E+02  0.20385794356E+03  0.17238338099E+03 0.  0.
         24    2    5    5    0    0 -0.40414799348E+01 -0.67920376695E+01  0.49019447494E+02  0.94988126473E+02  0.80977605562E+02 0.  0.
          4    1    6    6  501    0  0.13605927751E+02 -0.72085022669E+01  0.67616353884E+02  0.69347350977E+02  0.00000000000E+00 0. -1.
         -3    1    6    6    0  501 -0.17647407686E+02  0.41646459741E+00 -0.18596906390E+02  0.25640775497E+02  0.00000000000E+00 0.  1.
          5    1    5    5  502    0  0.72264064086E+02 -0.75725870848E+02 -0.29564245255E+02  0.10886981708E+03  0.47000000000E+01 0. -1.
         13    1    4    4    0    0 -0.58019190050E+02  0.54144770581E+02 -0.46370977423E+01  0.79494561265E+02  0.00000000000E+00 0. -1.
        -14    1    4    4    0    0 -0.13487433262E+02 -0.15745963870E+02 -0.33406344510E+02  0.39317045765E+02  0.00000000000E+00 0.  1.
         -5    1    3    3    0  504  0.32840391601E+01  0.44119101806E+02 -0.15850431980E+03  0.16462985589E+03  0.47000000000E+01 0.  1.
<mgrwt>
<rscale>  2 0.20390019E+03</rscale>
<asrwt>0</asrwt>
<pdfrwt beam="1">  1       21 0.23862065E-01 0.20422546E+03</pdfrwt>
<pdfrwt beam="2">  1       21 0.51107074E-01 0.20422546E+03</pdfrwt>
<totfact> 0.59926144E+04</totfact>
</mgrwt>
</event>
<event>
12    1  0.1410528E-001  0.1921215E+03  0.7546771E-02  0.1157002E+00
         21   -1    0    0  502  503  0.00000000000E+00  0.00000000000E+00  0.10708597347E+03  0.10708597347E+03  0.00000000000E+00 0. -1.
         21   -1    0    0  503  504 -0.00000000000E+00 -0.00000000000E+00 -0.34874711791E+03  0.34874711791E+03  0.00000000000E+00 0. -1.
         -6    2    1    2    0  504  0.74419074981E+01 -0.82101006431E+02 -0.15505565553E+03  0.24688643943E+03  0.17353587646E+03 0.  0.
        -24    2    3    3    0    0 -0.58583305765E+02 -0.36077676312E+02 -0.58311613088E+02  0.12095401529E+03  0.80597935156E+02 0.  0.
          6    2    1    2  502    0 -0.74419074981E+01  0.82101006431E+02 -0.86605488907E+02  0.20894665194E+03  0.17135412281E+03 0.  0.
         24    2    5    5    0    0 -0.16564117293E+02  0.78523919280E+02 -0.12497260668E+03  0.16907014269E+03  0.80784805809E+02 0.  0.
          2    1    6    6  501    0  0.42081461478E+00  0.88770769675E+02 -0.11878447042E+03  0.14829085288E+03  0.00000000000E+00 0. -1.
         -1    1    6    6    0  501 -0.16984931907E+02 -0.10246850395E+02 -0.61881362557E+01  0.20779289815E+02  0.00000000000E+00 0.  1.
          5    1    5    5  502    0  0.91222097945E+01  0.35770871511E+01  0.38367117768E+02  0.39876509249E+02  0.47000000000E+01 0. -1.
         11    1    4    4    0    0 -0.24975972866E+02  0.17933274304E+02 -0.47269229947E+02  0.56389552646E+02  0.00000000000E+00 0. -1.
        -12    1    4    4    0    0 -0.33607332899E+02 -0.54010950616E+02 -0.11042383141E+02  0.64564462644E+02  0.00000000000E+00 0.  1.
         -5    1    3    3    0  504  0.66025213263E+02 -0.46023330119E+02 -0.96744042444E+02  0.12593242414E+03  0.47000000000E+01 0.  1.
<mgrwt>
<rscale>  2 0.19162747E+03</rscale>
<asrwt>0</asrwt>
<pdfrwt beam="1">  1       21 0.16474765E-01 0.19212147E+03</pdfrwt>
<pdfrwt beam="2">  1       21 0.53653404E-01 0.19212147E+03</pdfrwt>
<totfact> 0.10865151E+05</totfact>
</mgrwt>
</event>
<event>
12    1  0.1410528E-001  0.1994508E+03  0.7546771E-02  0.1150326E+00
         21   -1    0    0  502  503  0.00000000000E+00  0.00000000000E+00  0.61984984170E+03  0.61984984170E+03  0.00000000000E+00 0.  1.
         21   -1    0    0  503  504 -0.00000000000E+00 -0.00000000000E+00 -0.13303103356E+03  0.13303103356E+03  0.00000000000E+00 0.  1.
         -6    2    1    2    0  504 -0.44305001046E+02 -0.87682636311E+02 -0.27606771040E+02  0.20135231606E+03  0.17357834988E+03 0.  0.
        -24    2    3    3    0    0 -0.68391998734E+02 -0.14647873532E+02  0.23552728934E+02  0.10886640108E+03  0.80032097021E+02 0.  0.
          6    2    1    2  502    0  0.44305001046E+02  0.87682636311E+02  0.51442557918E+03  0.55152855921E+03  0.17291297603E+03 0.  0.
         24    2    5    5    0    0 -0.13570329103E+02  0.72823002678E+02  0.17178431661E+03  0.20368450311E+03  0.80561664708E+02 0.  0.
          2    1    6    6  501    0 -0.43014477663E+02  0.61713282820E+02  0.98587302663E+02  0.12400899488E+03  0.00000000000E+00 0. -1.
         -1    1    6    6    0  501  0.29444148561E+02  0.11109719859E+02  0.73197013949E+02  0.79675508225E+02  0.00000000000E+00 0.  1.
          5    1    5    5  502    0  0.57875330149E+02  0.14859633632E+02  0.34264126257E+03  0.34784405610E+03  0.47000000000E+01 0. -1.
         11    1    4    4    0    0 -0.29477048099E+02  0.28235975648E+02 -0.98832426468E+01  0.41998156753E+02  0.00000000000E+00 0. -1.
        -12    1    4    4    0    0 -0.38914950635E+02 -0.42883849181E+02  0.33435971581E+02  0.66868244324E+02  0.00000000000E+00 0.  1.
         -5    1    3    3    0  504  0.24086997688E+02 -0.73034762778E+02 -0.51159499974E+02  0.92485914978E+02  0.47000000000E+01 0.  1.
<mgrwt>
<rscale>  2 0.19930594E+03</rscale>
<asrwt>0</asrwt>
<pdfrwt beam="1">  1       21 0.95361513E-01 0.19945080E+03</pdfrwt>
<pdfrwt beam="2">  1       21 0.20466313E-01 0.19945080E+03</pdfrwt>
<totfact> 0.20214441E+04</totfact>
</mgrwt>
</event>
<event>
12    1  0.1410528E-001  0.2323187E+03  0.7546771E-02  0.1126648E+00
         21   -1    0    0  502  503  0.00000000000E+00  0.00000000000E+00  0.89454661286E+02  0.89454661286E+02  0.00000000000E+00 0.  1.
         21   -1    0    0  503  504 -0.00000000000E+00 -0.00000000000E+00 -0.61839469580E+03  0.61839469580E+03  0.00000000000E+00 0. -1.
         -6    2    1    2    0  504 -0.13011755250E+02  0.13971210946E+03 -0.18098787060E+03  0.29449720523E+03  0.18515727174E+03 0.  0.
        -24    2    3    3    0    0  0.11939591165E+02  0.18780040777E+02 -0.10396427283E+02  0.83853749461E+02  0.80175568782E+02 0.  0.
          6    2    1    2  502    0  0.13011755250E+02 -0.13971210946E+03 -0.34795216391E+03  0.41335215185E+03  0.17349499638E+03 0.  0.
         24    2    5    5    0    0 -0.48899547016E+02 -0.10597152349E+03 -0.28724141610E+03  0.32018927626E+03  0.79952561048E+02 0.  0.
          2    1    6    6  501    0 -0.22070119868E+01 -0.45173330844E+02 -0.19536568809E+03  0.20053242333E+03  0.00000000000E+00 0. -1.
         -1    1    6    6    0  501 -0.46692535029E+02 -0.60798192644E+02 -0.91875728008E+02  0.11965685293E+03  0.00000000000E+00 0.  1.
          5    1    5    5  502    0  0.61911302266E+02 -0.33740585973E+02 -0.60710747806E+02  0.93162875595E+02  0.47000000000E+01 0. -1.
         11    1    4    4    0    0  0.38188244939E+02  0.31148915675E+01 -0.29015495952E+02  0.48061872689E+02  0.00000000000E+00 0. -1.
        -12    1    4    4    0    0 -0.26248653774E+02  0.15665149210E+02  0.18619068669E+02  0.35791876772E+02  0.00000000000E+00 0.  1.
         -5    1    3    3    0  504 -0.24951346415E+02  0.12093206868E+03 -0.17059144332E+03  0.21064345577E+03  0.47000000000E+01 0.  1.
<mgrwt>
<rscale>  2 0.22998800E+03</rscale>
<asrwt>0</asrwt>
<pdfrwt beam="1">  1       21 0.13762256E-01 0.23231873E+03</pdfrwt>
<pdfrwt beam="2">  1       21 0.95137645E-01 0.23231873E+03</pdfrwt>
<totfact> 0.41505421E+04</totfact>
</mgrwt>
</event>
<event>
12    1  0.1410528E-001  0.2140030E+03  0.7546771E-02  0.1138479E+00
         21   -1    0    0  502  503  0.00000000000E+00  0.00000000000E+00  0.26133250893E+03  0.26133250893E+03  0.00000000000E+00 0. -1.
         21   -1    0    0  503  504 -0.00000000000E+00 -0.00000000000E+00 -0.20896530381E+03  0.20896530381E+03  0.00000000000E+00 0. -1.
         -6    2    1    2    0  504  0.74071038977E+02 -0.10128813368E+03 -0.68525266533E+02  0.22470648225E+03  0.17335364482E+03 0.  0.
        -24    2    3    3    0    0  0.67590055108E+02 -0.10684820924E+03  0.53732678838E+01  0.15016789505E+03  0.80849052740E+02 0.  0.
          6    2    1    2  502    0 -0.74071038977E+02  0.10128813368E+03  0.12089247166E+03  0.24559133049E+03  0.17307312636E+03 0.  0.
         24    2    5    5    0    0 -0.10909782305E+03  0.55104171185E+02  0.51901338067E+02  0.15535995840E+03  0.80648391831E+02 0.  0.
          2    1    6    6  501    0 -0.67238995141E+02  0.31215221382E+02  0.71814435508E+02  0.10321233289E+03  0.00000000000E+00 0. -1.
         -1    1    6    6    0  501 -0.41858827911E+02  0.23888949802E+02 -0.19913097441E+02  0.52147625511E+02  0.00000000000E+00 0.  1.
          5    1    5    5  502    0  0.35026784075E+02  0.46183962496E+02  0.68991133593E+02  0.90231372088E+02  0.47000000000E+01 0. -1.
         11    1    4    4    0    0 -0.18153026363E+02 -0.27351486655E+02 -0.28665220662E+01  0.32952285765E+02  0.00000000000E+00 0. -1.
        -12    1    4    4    0    0  0.85743081471E+02 -0.79496722589E+02  0.82397899500E+01  0.11721560929E+03  0.00000000000E+00 0.  1.
         -5    1    3    3    0  504  0.64809838688E+01  0.55600755632E+01 -0.73898534417E+02  0.74538587195E+02  0.47000000000E+01 0.  1.
<mgrwt>
<rscale>  2 0.21394620E+03</rscale>
<asrwt>0</asrwt>
<pdfrwt beam="1">  1       21 0.40205002E-01 0.21400302E+03</pdfrwt>
<pdfrwt beam="2">  1       21 0.32148508E-01 0.21400302E+03</pdfrwt>
<totfact> 0.54934864E+04</totfact>
</mgrwt>
</event>
<event>
12    1  0.1410528E-001  0.1726507E+03  0.7546771E-02  0.1175443E+00
         21   -1    0    0  502  503  0.00000000000E+00  0.00000000000E+00  0.65726738956E+03  0.65726738956E+03  0.00000000000E+00 0. -1.
         21   -1    0    0  503  504 -0.00000000000E+00 -0.00000000000E+00 -0.57515139057E+02  0.57515139057E+02  0.00000000000E+00 0. -1.
         -6    2    1    2    0  504  0.67012319194E+01 -0.10684822169E+01  0.13413318241E+03  0.21863205891E+03  0.17251729883E+03 0.  0.
        -24    2    3    3    0    0  0.24536195985E+02 -0.61786249617E+02  0.45778250713E+02  0.10985054772E+03  0.74511267873E+02 0.  0.
          6    2    1    2  502    0 -0.67012319194E+01  0.10684822169E+01  0.46561906809E+03  0.49615046971E+03  0.17122535987E+03 0.  0.
         24    2    5    5    0    0 -0.27077285087E+02  0.59347620013E+02  0.22672011976E+03  0.24935817048E+03  0.80759922693E+02 0.  0.
          2    1    6    6  501    0 -0.30098953370E+02 -0.11832489980E+02  0.78651175836E+02  0.85040944688E+02  0.00000000000E+00 0. -1.
         -1    1    6    6    0  501  0.30216682829E+01  0.71180109993E+02  0.14806894392E+03  0.16431722579E+03  0.00000000000E+00 0.  1.
          5    1    5    5  502    0  0.20376053168E+02 -0.58279137796E+02  0.23889894833E+03  0.24679229923E+03  0.47000000000E+01 0. -1.
         11    1    4    4    0    0  0.45087590744E+02 -0.51541826145E+02  0.12800782790E+02  0.69665706925E+02  0.00000000000E+00 0. -1.
        -12    1    4    4    0    0 -0.20551394758E+02 -0.10244423472E+02  0.32977467923E+02  0.40184840791E+02  0.00000000000E+00 0.  1.
         -5    1    3    3    0  504 -0.17834964066E+02  0.60717767400E+02  0.88354931700E+02  0.10878151119E+03  0.47000000000E+01 0.  1.
<mgrwt>
<rscale>  2 0.17232706E+03</rscale>
<asrwt>0</asrwt>
<pdfrwt beam="1">  1       21 0.10111805E+00 0.17265071E+03</pdfrwt>
<pdfrwt beam="2">  1       21 0.88484834E-02 0.17265071E+03</pdfrwt>
<totfact> 0.81178866E+04</totfact>
</mgrwt>
</event>
<event>
12    1  0.1410528E-001  0.2471722E+03  0.7546771E-02  0.1115402E+00
         21   -1    0    0  502  503  0.00000000000E+00  0.00000000000E+00  0.10200494886E+04  0.10200494886E+04  0.00000000000E+00 0.  1.
         21   -1    0    0  503  504 -0.00000000000E+00 -0.00000000000E+00 -0.59469326207E+02  0.59469326207E+02  0.00000000000E+00 0.  1.
         -6    2    1    2    0  504  0.14939051134E+03 -0.91878268917E+02  0.46815627351E+03  0.52854205141E+03  0.17154376264E+03 0.  0.
        -24    2    3    3    0    0  0.93237934525E+02  0.14812805759E+02  0.21717404417E+03  0.25006356616E+03  0.80339840754E+02 0.  0.
          6    2    1    2  502    0 -0.14939051134E+03  0.91878268917E+02  0.49242388893E+03  0.55097676344E+03  0.17416936095E+03 0.  0.
         24    2    5    5    0    0 -0.10093157205E+03  0.89958638528E+02  0.20177654299E+03  0.25627365270E+03  0.81747617018E+02 0.  0.
          4    1    6    6  501    0 -0.11230955897E+03  0.74822846323E+02  0.15333833361E+03  0.20426585598E+03  0.00000000000E+00 0. -1.
         -3    1    6    6    0  501  0.11377986915E+02  0.15135792205E+02  0.48438209377E+02  0.52007796719E+02  0.00000000000E+00 0.  1.
          5    1    5    5  502    0 -0.48458939288E+02  0.19196303893E+01  0.29064734594E+03  0.29470311074E+03  0.47000000000E+01 0. -1.
         11    1    4    4    0    0  0.60969152047E+02 -0.24740851191E+02  0.79298766548E+02  0.10304194095E+03  0.00000000000E+00 0. -1.
        -12    1    4    4    0    0  0.32268782478E+02  0.39553656950E+02  0.13787527762E+03  0.14702162521E+03  0.00000000000E+00 0.  1.
         -5    1    3    3    0  504  0.56152576814E+02 -0.10669107468E+03  0.25098222934E+03  0.27847848524E+03  0.47000000000E+01 0.  1.
<mgrwt>
<rscale>  2 0.24671017E+03</rscale>
<asrwt>0</asrwt>
<pdfrwt beam="1">  1       21 0.15693068E+00 0.24717222E+03</pdfrwt>
<pdfrwt beam="2">  1       21 0.91491278E-02 0.24717222E+03</pdfrwt>
<totfact> 0.24349411E+04</totfact>
</mgrwt>
</event>
<event>
12    1  0.1410528E-001  0.3290991E+03  0.7546771E-02  0.1072931E+00
         21   -1    0    0  502  503  0.00000000000E+00  0.00000000000E+00  0.91548051087E+03  0.91548051087E+03  0.00000000000E+00 0.  1.
         21   -1    0    0  503  504 -0.00000000000E+00 -0.00000000000E+00 -0.13545557147E+03  0.13545557147E+03  0.00000000000E+00 0.  1.
         -6    2    1    2    0  504 -0.13073545390E+03 -0.24510019367E+03  0.18677699481E+03  0.37840697849E+03  0.17646623397E+03 0.  0.
        -24    2    3    3    0    0  0.45082281027E+01 -0.78653611898E+02  0.30423813524E+02  0.11295693534E+03  0.75012972396E+02 0.  0.
          6    2    1    2  502    0  0.13073545390E+03  0.24510019367E+03  0.59324794459E+03  0.67252910385E+03  0.15227083739E+03 0.  0.
         24    2    5    5    0    0  0.93442244989E+02  0.23226507756E+03  0.42719849481E+03  0.50179529522E+03  0.81372261452E+02 0.  0.
          2    1    6    6  501    0 -0.14772490209E+02  0.36986048452E+02  0.71195235121E+02  0.81577912151E+02  0.00000000000E+00 0. -1.
         -1    1    6    6    0  501  0.10821473520E+03  0.19527902911E+03  0.35600325969E+03  0.42021738307E+03  0.00000000000E+00 0.  1.
          5    1    5    5  502    0  0.37293208912E+02  0.12835116107E+02  0.16604944978E+03  0.17073380863E+03  0.47000000000E+01 0. -1.
         11    1    4    4    0    0  0.33800445060E+02 -0.18139784858E+02  0.24386608015E+02  0.45455786556E+02  0.00000000000E+00 0. -1.
        -12    1    4    4    0    0 -0.29292216958E+02 -0.60513827040E+02  0.60372055089E+01  0.67501148787E+02  0.00000000000E+00 0.  1.
         -5    1    3    3    0  504 -0.13524368200E+03 -0.16644658177E+03  0.15635318129E+03  0.26545004314E+03  0.47000000000E+01 0.  1.
<mgrwt>
<rscale>  2 0.32597620E+03</rscale>
<asrwt>0</asrwt>
<pdfrwt beam="1">  1       21 0.14084315E+00 0.32909907E+03</pdfrwt>
<pdfrwt beam="2">  1       21 0.20839319E-01 0.32909907E+03</pdfrwt>
<totfact> 0.69298930E+03</totfact>
</mgrwt>
</event>
<event>
12    1  0.1410528E-001  0.1786726E+03  0.7546771E-02  0.1169344E+00
         21   -1    0    0  502  503  0.00000000000E+00  0.00000000000E+00  0.16028420527E+04  0.16028420527E+04  0.00000000000E+00 0.  1.
         21   -1    0    0  503  504 -0.00000000000E+00 -0.00000000000E+00 -0.25776226697E+02  0.25776226697E+02  0.00000000000E+00 0.  1.
         -6    2    1    2    0  504  0.45659851395E+01  0.37518583065E+02  0.11787783418E+04  0.11920901512E+04  0.17358587817E+03 0.  0.
        -24    2    3    3    0    0  0.37309727617E+02 -0.75901655745E+01  0.10131360620E+04  0.10172576407E+04  0.83179330004E+02 0.  0.
          6    2    1    2  502    0 -0.45659851395E+01 -0.37518583065E+02  0.39828748421E+03  0.43652812824E+03  0.17462930560E+03 0.  0.
         24    2    5    5    0    0 -0.42632853340E+02 -0.13514281728E+01  0.36228478787E+03  0.37268900472E+03  0.76337672095E+02 0.  0.
          4    1    6    6  501    0  0.21753993465E+01  0.73845719446E+01  0.26619190566E+03  0.26630320108E+03  0.00000000000E+00 0. -1.
         -3    1    6    6    0  501 -0.44808252687E+02 -0.87360001174E+01  0.96092882207E+02  0.10638580365E+03  0.00000000000E+00 0.  1.
          5    1    5    5  502    0  0.38066868201E+02 -0.36167154892E+02  0.36002696340E+02  0.63839123516E+02  0.47000000000E+01 0. -1.
         13    1    4    4    0    0  0.21806749674E+02 -0.37431904232E+02  0.27820778179E+03  0.28156038719E+03  0.00000000000E+00 0. -1.
        -14    1    4    4    0    0  0.15502977943E+02  0.29841738658E+02  0.73492828023E+03  0.73569725347E+03  0.00000000000E+00 0.  1.
         -5    1    3    3    0  504 -0.32743742478E+02  0.45108748639E+02  0.16564227982E+03  0.17483251053E+03  0.47000000000E+01 0.  1.
<mgrwt>
<rscale>  2 0.17841710E+03</rscale>
<asrwt>0</asrwt>
<pdfrwt beam="1">  1       21 0.24659101E+00 0.17867257E+03</pdfrwt>
<pdfrwt beam="2">  1       21 0.39655746E-02 0.17867257E+03</pdfrwt>
<totfact> 0.28017459E+04</totfact>
</mgrwt>
</event>
<event>
12    1  0.1410528E-001  0.1960549E+03  0.7546771E-02  0.1154642E+00
         21   -1    0    0  502  503  0.00000000000E+00  0.00000000000E+00  0.15716099493E+03  0.15716099493E+03  0.00000000000E+00 0.  1.
         21   -1    0    0  503  504 -0.00000000000E+00 -0.00000000000E+00 -0.23726173547E+03  0.23726173547E+03  0.00000000000E+00 0.  1.
         -6    2    1    2    0  504 -0.12506910749E+02 -0.92157421624E+02 -0.53746996435E+02  0.19660456276E+03  0.16466694051E+03 0.  0.
        -24    2    3    3    0    0  0.22764462286E+02  0.10202705332E+01 -0.37354455933E+02  0.95525596329E+02  0.84914795417E+02 0.  0.
          6    2    1    2  502    0  0.12506910749E+02  0.92157421624E+02 -0.26353744107E+02  0.19781816764E+03  0.17259227805E+03 0.  0.
         24    2    5    5    0    0  0.72476917117E+02  0.77209123511E+02 -0.75518711895E+01  0.13304584558E+03  0.80187368075E+02 0.  0.
          2    1    6    6  501    0  0.98269614858E+01  0.39595961347E+02  0.30235725144E+02  0.50780000020E+02  0.00000000000E+00 0. -1.
         -1    1    6    6    0  501  0.62649955631E+02  0.37613162164E+02 -0.37787596333E+02  0.82265845557E+02  0.00000000000E+00 0.  1.
          5    1    5    5  502    0 -0.59970006368E+02  0.14948298113E+02 -0.18801872917E+02  0.64772322063E+02  0.47000000000E+01 0. -1.
         11    1    4    4    0    0  0.27707238890E+02  0.48256005275E+00  0.22358164647E+02  0.35606340411E+02  0.00000000000E+00 0. -1.
        -12    1    4    4    0    0 -0.49427766032E+01  0.53771048047E+00 -0.59712620581E+02  0.59919255918E+02  0.00000000000E+00 0.  1.
         -5    1    3    3    0  504 -0.35271373036E+02 -0.93177692157E+02 -0.16392540502E+02  0.10107896644E+03  0.47000000000E+01 0.  1.
<mgrwt>
<rscale>  2 0.19429647E+03</rscale>
<asrwt>0</asrwt>
<pdfrwt beam="1">  1       21 0.24178614E-01 0.19605486E+03</pdfrwt>
<pdfrwt beam="2">  1       21 0.36501806E-01 0.19605486E+03</pdfrwt>
<totfact> 0.11669435E+05</totfact>
</mgrwt>
</event>
<event>
12    1  0.1410528E-001  0.2187573E+03  0.7546771E-02  0.1134836E+00
         21   -1    0    0  502  503  0.00000000000E+00  0.00000000000E+00  0.38166211784E+03  0.38166211784E+03  0.00000000000E+00 0. -1.
         21   -1    0    0  503  504 -0.00000000000E+00 -0.00000000000E+00 -0.12654461855E+03  0.12654461855E+03  0.00000000000E+00 0. -1.
         -6    2    1    2    0  504  0.13391585424E+03  0.31708040213E+01  0.10246268150E+03  0.24145173567E+03  0.17279128897E+03 0.  0.
        -24    2    3    3    0    0  0.84584938360E+02 -0.99531340720E+01  0.13576477514E+03  0.18032157573E+03  0.82644539027E+02 0.  0.
          6    2    1    2  502    0 -0.13391585424E+03 -0.31708040213E+01  0.15265481779E+03  0.26675500073E+03  0.17294862533E+03 0.  0.
         24    2    5    5    0    0 -0.52290188720E+01 -0.33585110296E+02  0.73196969587E+02  0.11241456123E+03  0.78255574543E+02 0.  0.
          4    1    6    6  501    0 -0.37774993647E+02 -0.36166183281E+02  0.39876999890E+02  0.65765629916E+02  0.00000000000E+00 0. -1.
         -3    1    6    6    0  501  0.32545974775E+02  0.25810729842E+01  0.33319969697E+02  0.46648931310E+02  0.00000000000E+00 0.  1.
          5    1    5    5  502    0 -0.12868683537E+03  0.30414306275E+02  0.79457848204E+02  0.15434043950E+03  0.47000000000E+01 0. -1.
         13    1    4    4    0    0  0.86397175443E+02 -0.31164729665E+02  0.84465596258E+02  0.12478040411E+03  0.00000000000E+00 0. -1.
        -14    1    4    4    0    0 -0.18122370833E+01  0.21211595593E+02  0.51299178883E+02  0.55541171620E+02  0.00000000000E+00 0.  1.
         -5    1    3    3    0  504  0.49330915883E+02  0.13123938093E+02 -0.33302093643E+02  0.61130159937E+02  0.47000000000E+01 0.  1.
<mgrwt>
<rscale>  2 0.21872616E+03</rscale>
<asrwt>0</asrwt>
<pdfrwt beam="1">  1       21 0.58717248E-01 0.21875726E+03</pdfrwt>
<pdfrwt beam="2">  1       21 0.19468403E-01 0.21875726E+03</pdfrwt>
<totfact> 0.65112972E+04</totfact>
</mgrwt>
</event>
<event>
12    1  0.1410528E-001  0.2122822E+03  0.7546771E-02  0.1140052E+00
         21   -1    0    0  502  503  0.00000000000E+00  0.00000000000E+00  0.54860015398E+03  0.54860015398E+03  0.00000000000E+00 0. -1.
         21   -1    0    0  503  504 -0.00000000000E+00 -0.00000000000E+00 -0.85180914774E+02  0.85180914774E+02  0.00000000000E+00 0. -1.
         -6    2    1    2    0  504 -0.13401330198E+01  0.12296104503E+03  0.29751713619E+03  0.36548619545E+03  0.17303900769E+03 0.  0.
        -24    2    3    3    0    0 -0.81781968326E+01  0.15735900503E+03  0.23880953169E+03  0.29693948440E+03  0.79462730905E+02 0.  0.
          6    2    1    2  502    0  0.13401330198E+01 -0.12296104503E+03  0.16590210302E+03  0.26829487331E+03  0.17128168818E+03 0.  0.
         24    2    5    5    0    0  0.34852151297E+02 -0.19573801948E+02  0.11859088825E+03  0.14966764859E+03  0.82090194826E+02 0.  0.
          2    1    6    6  501    0  0.49187749400E+02  0.14174108668E+00  0.29619867695E+02  0.57417691906E+02  0.00000000000E+00 0. -1.
         -1    1    6    6    0  501 -0.14335598103E+02 -0.19715543035E+02  0.88971020552E+02  0.92249956684E+02  0.00000000000E+00 0.  1.
          5    1    5    5  502    0 -0.33512018277E+02 -0.10338724309E+03  0.47311214768E+02  0.11862722472E+03  0.47000000000E+01 0. -1.
         11    1    4    4    0    0 -0.50692574016E+01  0.13229006402E+03  0.23717993410E+03  0.27162599203E+03  0.00000000000E+00 0. -1.
        -12    1    4    4    0    0 -0.31089394310E+01  0.25068941009E+02  0.16295975957E+01  0.25313492371E+02  0.00000000000E+00 0.  1.
         -5    1    3    3    0  504  0.68380638128E+01 -0.34397959996E+02  0.58707604501E+02  0.68546711043E+02  0.47000000000E+01 0.  1.
<mgrwt>
<rscale>  2 0.21192375E+03</rscale>
<asrwt>0</asrwt>
<pdfrwt beam="1">  1       21 0.84400022E-01 0.21228215E+03</pdfrwt>
<pdfrwt beam="2">  1       21 0.13104756E-01 0.21228215E+03</pdfrwt>
<totfact> 0.60450038E+04</totfact>
</mgrwt>
</event>
<event>
12    1  0.1410528E-001  0.3543079E+03  0.7546771E-02  0.1060890E+00
         21   -1    0    0  502  503  0.00000000000E+00  0.00000000000E+00  0.19206871668E+03  0.19206871668E+03  0.00000000000E+00 0.  1.
         21   -1    0    0  503  504 -0.00000000000E+00 -0.00000000000E+00 -0.66602863592E+03  0.66602863592E+03  0.00000000000E+00 0. -1.
         -6    2    1    2    0  504 -0.17336649527E+03 -0.25545067932E+03 -0.29694507968E+03  0.46228831548E+03  0.17384796530E+03 0.  0.
        -24    2    3    3    0    0 -0.14236127715E+03 -0.27296371101E+03 -0.26126788506E+03  0.41166241256E+03  0.80181752262E+02 0.  0.
          6    2    1    2  502    0  0.17336649527E+03  0.25545067932E+03 -0.17701483956E+03  0.39580903713E+03  0.17326150525E+03 0.  0.
         24    2    5    5    0    0  0.11205387168E+03  0.18536772611E+03 -0.36378388034E+02  0.22707386107E+03  0.57635815448E+02 0.  0.
          2    1    6    6  501    0 -0.27733009574E+01  0.26394852467E+02  0.40396169748E+01  0.26845817928E+02  0.00000000000E+00 0. -1.
         -1    1    6    6    0  501  0.11482717264E+03  0.15897287365E+03 -0.40418005009E+02  0.20022804314E+03  0.00000000000E+00 0.  1.
          5    1    5    5  502    0  0.61312623587E+02  0.70082953203E+02 -0.14063645153E+03  0.16873517606E+03  0.47000000000E+01 0. -1.
         11    1    4    4    0    0 -0.95637835475E+02 -0.17899741128E+03 -0.21886713388E+03  0.29847862756E+03  0.00000000000E+00 0. -1.
        -12    1    4    4    0    0 -0.46723441672E+02 -0.93966299731E+02 -0.42400751179E+02  0.11318378500E+03  0.00000000000E+00 0.  1.
         -5    1    3    3    0  504 -0.31005218121E+02  0.17513031695E+02 -0.35677194621E+02  0.50625902915E+02  0.47000000000E+01 0.  1.
<mgrwt>
<rscale>  2 0.35423606E+03</rscale>
<asrwt>0</asrwt>
<pdfrwt beam="1">  1       21 0.29549033E-01 0.35430793E+03</pdfrwt>
<pdfrwt beam="2">  1       21 0.10246594E+00 0.35430793E+03</pdfrwt>
<totfact> 0.77834853E+03</totfact>
</mgrwt>
</event>
<event>
12    1  0.1410528E-001  0.1767796E+03  0.7546771E-02  0.1171172E+00
         21   -1    0    0  502  503  0.00000000000E+00  0.00000000000E+00  0.31841979528E+02  0.31841979528E+02  0.00000000000E+00 0.  1.
         21   -1    0    0  503  504 -0.00000000000E+00 -0.00000000000E+00 -0.98179482994E+03  0.98179482994E+03  0.00000000000E+00 0.  1.
         -6    2    1    2    0  504  0.30943743911E+02 -0.18109126086E+01 -0.51053409434E+03  0.53999151096E+03  0.17316170401E+03 0.  0.
        -24    2    3    3    0    0  0.36254675306E+02  0.17209864241E+02 -0.51198543736E+03  0.51963979504E+03  0.79283337569E+02 0.  0.
          6    2    1    2  502    0 -0.30943743911E+02  0.18109126086E+01 -0.43941875607E+03  0.47364529851E+03  0.17404088864E+03 0.  0.
         24    2    5    5    0    0 -0.86375468899E+02  0.15589711577E+02 -0.28367564465E+03  0.30769187676E+03  0.80614260021E+02 0.  0.
          4    1    6    6  501    0 -0.80696640256E+02  0.42812993551E+02 -0.21544490623E+03  0.23401155481E+03  0.00000000000E+00 0. -1.
         -3    1    6    6    0  501 -0.56788286438E+01 -0.27223281974E+02 -0.68230738423E+02  0.73680321946E+02  0.00000000000E+00 0.  1.
          5    1    5    5  502    0  0.55431724988E+02 -0.13778798968E+02 -0.15574311142E+03  0.16595342175E+03  0.47000000000E+01 0. -1.
         11    1    4    4    0    0  0.41925133181E+01  0.24075931671E+02 -0.42611427656E+02  0.49121903675E+02  0.00000000000E+00 0. -1.
        -12    1    4    4    0    0  0.32062161988E+02 -0.68660674295E+01 -0.46937400970E+03  0.47051789137E+03  0.00000000000E+00 0.  1.
         -5    1    3    3    0  504 -0.53109313947E+01 -0.19020776850E+02  0.14513430181E+01  0.20351715918E+02  0.47000000000E+01 0.  1.
<mgrwt>
<rscale>  2 0.17656282E+03</rscale>
<asrwt>0</asrwt>
<pdfrwt beam="1">  1       21 0.48987658E-02 0.17677960E+03</pdfrwt>
<pdfrwt beam="2">  1       21 0.15104537E+00 0.17677960E+03</pdfrwt>
<totfact> 0.82386240E+04</totfact>
</mgrwt>
</event>
<event>
12    1  0.1410528E-001  0.2296344E+03  0.7546771E-02  0.1127158E+00
         21   -1    0    0  502  503  0.00000000000E+00  0.00000000000E+00  0.59186216749E+03  0.59186216749E+03  0.00000000000E+00 0.  1.
         21   -1    0    0  503  504 -0.00000000000E+00 -0.00000000000E+00 -0.89581906751E+02  0.89581906751E+02  0.00000000000E+00 0.  1.
         -6    2    1    2    0  504 -0.11216869020E+03  0.99518703322E+02  0.21333874295E+03  0.31236525408E+03  0.17196757061E+03 0.  0.
        -24    2    3    3    0    0 -0.28750007982E+02  0.88296933668E+02  0.56511012506E+02  0.13431573374E+03  0.78894298541E+02 0.  0.
          6    2    1    2  502    0  0.11216869020E+03 -0.99518703322E+02  0.28894151779E+03  0.36907882016E+03  0.17391431056E+03 0.  0.
         24    2    5    5    0    0  0.42605409807E+02 -0.30378108137E+02  0.23587346167E+03  0.25746439250E+03  0.88958265985E+02 0.  0.
          4    1    6    6  501    0  0.31643271349E+02  0.26301797983E+02  0.63366783825E+02  0.75554156016E+02  0.00000000000E+00 0. -1.
         -3    1    6    6    0  501  0.10962138458E+02 -0.56679906120E+02  0.17250667784E+03  0.18191023648E+03  0.00000000000E+00 0.  1.
          5    1    5    5  502    0  0.69563280390E+02 -0.69140595185E+02  0.53068056119E+02  0.11161442766E+03  0.47000000000E+01 0. -1.
         11    1    4    4    0    0  0.90675118442E+01  0.18313084726E+02  0.50573868003E+02  0.54546356139E+02  0.00000000000E+00 0. -1.
        -12    1    4    4    0    0 -0.37817519826E+02  0.69983848942E+02  0.59371445030E+01  0.79769377604E+02  0.00000000000E+00 0.  1.
         -5    1    3    3    0  504 -0.83418682215E+02  0.11221769654E+02  0.15682773044E+03  0.17804952034E+03  0.47000000000E+01 0.  1.
<mgrwt>
<rscale>  2 0.22926584E+03</rscale>
<asrwt>0</asrwt>
<pdfrwt beam="1">  1       21 0.91055716E-01 0.22963444E+03</pdfrwt>
<pdfrwt beam="2">  1       21 0.13781832E-01 0.22963444E+03</pdfrwt>
<totfact> 0.45935507E+04</totfact>
</mgrwt>
</event>
<event>
12    1  0.1410528E-001  0.1750965E+03  0.7546771E-02  0.1172764E+00
         21   -1    0    0  502  503  0.00000000000E+00  0.00000000000E+00  0.39257616750E+03  0.39257616750E+03  0.00000000000E+00 0. -1.
         21   -1    0    0  503  504 -0.00000000000E+00 -0.00000000000E+00 -0.81866822673E+02  0.81866822673E+02  0.00000000000E+00 0. -1.
         -6    2    1    2    0  504 -0.97544240275E+01  0.21162267049E+02  0.20800175215E+03  0.27188879160E+03  0.17353903240E+03 0.  0.
        -24    2    3    3    0    0  0.73607202710E+01  0.79887508476E+02  0.13402903468E+03  0.17578658000E+03  0.80628440129E+02 0.  0.
          6    2    1    2  502    0  0.97544240275E+01 -0.21162267049E+02  0.10270759268E+03  0.20255419857E+03  0.17302128028E+03 0.  0.
         24    2    5    5    0    0  0.13292625768E+01  0.51864300545E+02  0.83954156108E+02  0.12654338155E+03  0.79203879180E+02 0.  0.
          4    1    6    6  501    0 -0.21924745840E+02  0.57946338068E+02  0.81509779354E+02  0.10238318566E+03  0.00000000000E+00 0. -1.
         -3    1    6    6    0  501  0.23254008417E+02 -0.60820375228E+01  0.24443767543E+01  0.24160195893E+02  0.00000000000E+00 0.  1.
          5    1    5    5  502    0  0.84251614507E+01 -0.73026567594E+02  0.18753436568E+02  0.76010817014E+02  0.47000000000E+01 0. -1.
         11    1    4    4    0    0 -0.17128266119E+01 -0.10565071447E+02 -0.32066002536E+01  0.11173038749E+02  0.00000000000E+00 0. -1.
        -12    1    4    4    0    0  0.90735468829E+01  0.90452579923E+02  0.13723563494E+03  0.16461354126E+03  0.00000000000E+00 0.  1.
         -5    1    3    3    0  504 -0.17115144298E+02 -0.58725241427E+02  0.73972717465E+02  0.96102211599E+02  0.47000000000E+01 0.  1.
<mgrwt>
<rscale>  2 0.17496808E+03</rscale>
<asrwt>0</asrwt>
<pdfrwt beam="1">  1       21 0.60396332E-01 0.17509651E+03</pdfrwt>
<pdfrwt beam="2">  1       21 0.12594896E-01 0.17509651E+03</pdfrwt>
<totfact> 0.13830087E+05</totfact>
</mgrwt>
</event>
<event>
12    1  0.1410528E-001  0.2269343E+03  0.7546771E-02  0.1128878E+00
         21   -1    0    0  502  503  0.00000000000E+00  0.00000000000E+00  0.10747822787E+03  0.10747822787E+03  0.00000000000E+00 0. -1.
         21   -1    0    0  503  504 -0.00000000000E+00 -0.00000000000E+00 -0.56139804601E+03  0.56139804601E+03  0.00000000000E+00 0. -1.
         -6    2    1    2    0  504  0.14688028656E+03 -0.24528952498E+00 -0.35566856978E+03  0.42189966346E+03  0.17298935155E+03 0.  0.
        -24    2    3    3    0    0  0.16965546484E+03  0.20780783024E+02 -0.33389984800E+03  0.38373198445E+03  0.80909268351E+02 0.  0.
          6    2    1    2  502    0 -0.14688028656E+03  0.24528952498E+00 -0.98251248362E+02  0.24697661043E+03  0.17254060260E+03 0.  0.
         24    2    5    5    0    0 -0.12731695534E+03  0.51717552286E+02 -0.34383960701E+02  0.16251811059E+03  0.79659068437E+02 0.  0.
          2    1    6    6  501    0 -0.13762775842E+03  0.54439835633E+02 -0.33936547844E+02  0.15184460765E+03  0.00000000000E+00 0. -1.
         -1    1    6    6    0  501  0.10310803081E+02 -0.27222833465E+01 -0.44741285693E+00  0.10673502942E+02  0.00000000000E+00 0.  1.
          5    1    5    5  502    0 -0.19563331221E+02 -0.51472262761E+02 -0.63867287661E+02  0.84458499841E+02  0.47000000000E+01 0. -1.
         11    1    4    4    0    0  0.13690448625E+03  0.18775998440E+02 -0.31910120797E+03  0.34773690830E+03  0.00000000000E+00 0. -1.
        -12    1    4    4    0    0  0.32750978593E+02  0.20047845841E+01 -0.14798640032E+02  0.35995076147E+02  0.00000000000E+00 0.  1.
         -5    1    3    3    0  504 -0.22775178280E+02 -0.21026072549E+02 -0.21768721782E+02  0.38167679004E+02  0.47000000000E+01 0.  1.
<mgrwt>
<rscale>  2 0.22684882E+03</rscale>
<asrwt>0</asrwt>
<pdfrwt beam="1">  1       21 0.16535111E-01 0.22693434E+03</pdfrwt>
<pdfrwt beam="2">  1       21 0.86368933E-01 0.22693434E+03</pdfrwt>
<totfact> 0.37258404E+04</totfact>
</mgrwt>
</event>
<event>
12    1  0.1410528E-001  0.1865738E+03  0.7546771E-02  0.1162062E+00
         21   -1    0    0  502  503  0.00000000000E+00  0.00000000000E+00  0.32359225548E+03  0.32359225548E+03  0.00000000000E+00 0. -1.
         21   -1    0    0  503  504 -0.00000000000E+00 -0.00000000000E+00 -0.22550585852E+03  0.22550585852E+03  0.00000000000E+00 0. -1.
         -6    2    1    2    0  504  0.65088864301E+02 -0.13406050664E+02 -0.15061185626E+03  0.23819520669E+03  0.17215325381E+03 0.  0.
        -24    2    3    3    0    0  0.83805819883E+02  0.23265105932E+02 -0.15684089417E+03  0.19629068348E+03  0.79789007614E+02 0.  0.
          6    2    1    2  502    0 -0.65088864301E+02  0.13406050664E+02  0.24869825322E+03  0.31090290731E+03  0.17433735737E+03 0.  0.
         24    2    5    5    0    0 -0.22592563767E+00 -0.47101855640E+02  0.15406978682E+03  0.18111444793E+03  0.82742420742E+02 0.  0.
          4    1    6    6  501    0 -0.28064433298E+02 -0.58122259991E+02  0.94416659757E+02  0.11436920548E+03  0.00000000000E+00 0. -1.
         -3    1    6    6    0  501  0.27838507660E+02  0.11020404351E+02  0.59653127063E+02  0.66745242446E+02  0.00000000000E+00 0.  1.
          5    1    5    5  502    0 -0.64862938663E+02  0.60507906305E+02  0.94628466395E+02  0.12978845939E+03  0.47000000000E+01 0. -1.
         13    1    4    4    0    0  0.52085253894E+02 -0.21546787262E+02 -0.11207448916E+03  0.12545050352E+03  0.00000000000E+00 0. -1.
        -14    1    4    4    0    0  0.31720565988E+02  0.44811893194E+02 -0.44766405016E+02  0.70840179957E+02  0.00000000000E+00 0.  1.
         -5    1    3    3    0  504 -0.18716955582E+02 -0.36671156596E+02  0.62290379160E+01  0.41904523213E+02  0.47000000000E+01 0.  1.
<mgrwt>
<rscale>  2 0.18606193E+03</rscale>
<asrwt>0</asrwt>
<pdfrwt beam="1">  1       21 0.49783424E-01 0.18657384E+03</pdfrwt>
<pdfrwt beam="2">  1       21 0.34693209E-01 0.18657384E+03</pdfrwt>
<totfact> 0.30891262E+04</totfact>
</mgrwt>
</event>
<event>
12    1  0.1410528E-001  0.2024218E+03  0.7546771E-02  0.1148127E+00
         21   -1    0    0  502  503  0.00000000000E+00  0.00000000000E+00  0.22974503734E+02  0.22974503734E+02  0.00000000000E+00 0.  1.
         21   -1    0    0  503  504 -0.00000000000E+00 -0.00000000000E+00 -0.19843047157E+04  0.19843047157E+04  0.00000000000E+00 0.  1.
         -6    2    1    2    0  504 -0.10415973855E+03  0.12871094380E+02 -0.64346891737E+03  0.67396269019E+03  0.17075873020E+03 0.  0.
        -24    2    3    3    0    0 -0.26538757339E+02 -0.51585066194E+02 -0.27576248285E+03  0.29263641867E+03  0.78903750809E+02 0.  0.
          6    2    1    2  502    0  0.10415973855E+03 -0.12871094380E+02 -0.13178612946E+04  0.13333165293E+04  0.17308858760E+03 0.  0.
         24    2    5    5    0    0  0.66733733299E+02  0.48653988983E+02 -0.10471052895E+04  0.10531077748E+04  0.76065079515E+02 0.  0.
          4    1    6    6  501    0 -0.12975626897E+02  0.20942497564E+02 -0.35953465098E+03  0.36037774675E+03  0.00000000000E+00 0. -1.
         -3    1    6    6    0  501  0.79709360196E+02  0.27711491419E+02 -0.68757063849E+03  0.69273002805E+03  0.00000000000E+00 0.  1.
          5    1    5    5  502    0  0.37426005250E+02 -0.61525083363E+02 -0.27075600517E+03  0.28020875448E+03  0.47000000000E+01 0. -1.
         11    1    4    4    0    0  0.26128606531E+02 -0.21120641448E+02 -0.63687733619E+02  0.72006339915E+02  0.00000000000E+00 0. -1.
        -12    1    4    4    0    0 -0.52667363870E+02 -0.30464424746E+02 -0.21207474923E+03  0.22063007876E+03  0.00000000000E+00 0.  1.
         -5    1    3    3    0  504 -0.77620981210E+02  0.64456160574E+02 -0.36770643452E+03  0.38132627151E+03  0.47000000000E+01 0.  1.
<mgrwt>
<rscale>  2 0.20192279E+03</rscale>
<asrwt>0</asrwt>
<pdfrwt beam="1">  1       21 0.35345382E-02 0.20242178E+03</pdfrwt>
<pdfrwt beam="2">  1       21 0.30527772E+00 0.20242178E+03</pdfrwt>
<totfact> 0.15185288E+04</totfact>
</mgrwt>
</event>
<event>
12    1  0.1410528E-001  0.2118675E+03  0.7546771E-02  0.1140205E+00
         21   -1    0    0  502  503  0.00000000000E+00  0.00000000000E+00  0.17972525133E+03  0.17972525133E+03  0.00000000000E+00 0.  1.
         21   -1    0    0  503  504 -0.00000000000E+00 -0.00000000000E+00 -0.26644193131E+03  0.26644193131E+03  0.00000000000E+00 0.  1.
         -6    2    1    2    0  504 -0.76261686372E+02  0.89074549579E+02 -0.10021704843E+03  0.23387003964E+03  0.17578856179E+03 0.  0.
        -24    2    3    3    0    0  0.16316106161E+02  0.58200699870E+02 -0.64181209991E+01  0.98429384545E+02  0.77418438883E+02 0.  0.
          6    2    1    2  502    0  0.76261686372E+02 -0.89074549579E+02  0.13500368448E+02  0.21229714300E+03  0.17645876796E+03 0.  0.
         24    2    5    5    0    0  0.47792055980E+01  0.19413641557E+02 -0.89324994820E+00  0.81496917759E+02  0.79001388748E+02 0.  0.
          4    1    6    6  501    0  0.25971666451E+02  0.27180233349E+02 -0.27520609821E+02  0.46590519508E+02  0.00000000000E+00 0. -1.
         -3    1    6    6    0  501 -0.21192460853E+02 -0.77665917929E+01  0.26627359873E+02  0.34906398251E+02  0.00000000000E+00 0.  1.
          5    1    5    5  502    0  0.71482480774E+02 -0.10848819114E+03  0.14393618397E+02  0.13080022524E+03  0.47000000000E+01 0. -1.
         13    1    4    4    0    0  0.27734245721E+02  0.22872220871E+02 -0.36061644023E+02  0.50919240400E+02  0.00000000000E+00 0. -1.
        -14    1    4    4    0    0 -0.11418139560E+02  0.35328478999E+02  0.29643523024E+02  0.47510144145E+02  0.00000000000E+00 0.  1.
         -5    1    3    3    0  504 -0.92577792533E+02  0.30873849708E+02 -0.93798927428E+02  0.13544065510E+03  0.47000000000E+01 0.  1.
<mgrwt>
<rscale>  2 0.21172785E+03</rscale>
<asrwt>0</asrwt>
<pdfrwt beam="1">  1       21 0.27650039E-01 0.21186745E+03</pdfrwt>
<pdfrwt beam="2">  1       21 0.40991066E-01 0.21186745E+03</pdfrwt>
<totfact> 0.70957995E+04</totfact>
</mgrwt>
</event>
<event>
12    1  0.1410528E-001  0.2284964E+03  0.7546771E-02  0.1127805E+00
         21   -1    0    0  502  503  0.00000000000E+00  0.00000000000E+00  0.27484706066E+03  0.27484706066E+03  0.00000000000E+00 0.  1.
         21   -1    0    0  503  504 -0.00000000000E+00 -0.00000000000E+00 -0.19303426030E+03  0.19303426030E+03  0.00000000000E+00 0.  1.
         -6    2    1    2    0  504  0.29976343956E+02  0.14579849497E+03  0.91318454557E+01  0.22810406043E+03  0.17260443057E+03 0.  0.
        -24    2    3    3    0    0 -0.50634698192E+02  0.70625431073E+02  0.77834701785E+01  0.11777257006E+03  0.79107342742E+02 0.  0.
          6    2    1    2  502    0 -0.29976343956E+02 -0.14579849497E+03  0.72680954907E+02  0.23977726053E+03  0.17336329233E+03 0.  0.
         24    2    5    5    0    0 -0.26130053071E+02 -0.10343301457E+03  0.11517579586E+03  0.17946532647E+03  0.86954995686E+02 0.  0.
          4    1    6    6  501    0 -0.87423105716E+01 -0.11122336029E+03  0.11526030422E+03  0.16041197460E+03  0.00000000000E+00 0. -1.
         -3    1    6    6    0  501 -0.17387742499E+02  0.77903457154E+01 -0.84508356306E-01  0.19053351864E+02  0.00000000000E+00 0.  1.
          5    1    5    5  502    0 -0.38462908853E+01 -0.42365480393E+02 -0.42494840953E+02  0.60311934060E+02  0.47000000000E+01 0. -1.
         11    1    4    4    0    0 -0.33661627810E+02  0.64443450217E+02 -0.27822141631E+02  0.77846869093E+02  0.00000000000E+00 0. -1.
        -12    1    4    4    0    0 -0.16973070382E+02  0.61819808561E+01  0.35605611810E+02  0.39925700969E+02  0.00000000000E+00 0.  1.
         -5    1    3    3    0  504  0.80611042148E+02  0.75173063894E+02  0.13483752772E+01  0.11033149037E+03  0.47000000000E+01 0.  1.
<mgrwt>
<rscale>  2 0.22835248E+03</rscale>
<asrwt>0</asrwt>
<pdfrwt beam="1">  1       21 0.42284163E-01 0.22849642E+03</pdfrwt>
<pdfrwt beam="2">  1       21 0.29697579E-01 0.22849642E+03</pdfrwt>
<totfact> 0.57560173E+04</totfact>
</mgrwt>
</event>
<event>
12    1  0.1410528E-001  0.2589448E+03  0.7546771E-02  0.1107798E+00
         21   -1    0    0  502  503  0.00000000000E+00  0.00000000000E+00  0.24947283637E+03  0.24947283637E+03  0.00000000000E+00 0. -1.
         21   -1    0    0  503  504 -0.00000000000E+00 -0.00000000000E+00 -0.26872906574E+03  0.26872906574E+03  0.00000000000E+00 0. -1.
         -6    2    1    2    0  504 -0.19242207482E+03 -0.80446897879E+01 -0.14134310903E+02  0.25933031788E+03  0.17309379860E+03 0.  0.
        -24    2    3    3    0    0 -0.11210532029E+03 -0.62146630398E+00 -0.75561209317E+02  0.15783529754E+03  0.81452413940E+02 0.  0.
          6    2    1    2  502    0  0.19242207482E+03  0.80446897879E+01 -0.51219184667E+01  0.25887158424E+03  0.17290833168E+03 0.  0.
         24    2    5    5    0    0  0.13508846368E+03  0.65588447019E+02 -0.32499923444E+02  0.17302246007E+03  0.79559972762E+02 0.  0.
          4    1    6    6  501    0  0.13012196804E+03  0.30680854420E+02 -0.33221391073E+02  0.13775595166E+03  0.00000000000E+00 0. -1.
         -3    1    6    6    0  501  0.49664956380E+01  0.34907592599E+02  0.72146762938E+00  0.35266508411E+02  0.00000000000E+00 0.  1.
          5    1    5    5  502    0  0.57333611148E+02 -0.57543757231E+02  0.27378004977E+02  0.85849124166E+02  0.47000000000E+01 0. -1.
         13    1    4    4    0    0 -0.88459015250E+02 -0.43123841778E+01 -0.11324526681E+02  0.89285155210E+02  0.00000000000E+00 0. -1.
        -14    1    4    4    0    0 -0.23646305043E+02  0.36909178739E+01 -0.64236682636E+02  0.68550142327E+02  0.00000000000E+00 0.  1.
         -5    1    3    3    0  504 -0.80316754530E+02 -0.74232234839E+01  0.61426898414E+02  0.10149502034E+03  0.47000000000E+01 0.  1.
<mgrwt>
<rscale>  2 0.25891386E+03</rscale>
<asrwt>0</asrwt>
<pdfrwt beam="1">  1       21 0.38380436E-01 0.25894485E+03</pdfrwt>
<pdfrwt beam="2">  1       21 0.41342933E-01 0.25894485E+03</pdfrwt>
<totfact> 0.35746902E+04</totfact>
</mgrwt>
</event>
<event>
12    1  0.1410528E-001  0.3359247E+03  0.7546771E-02  0.1068831E+00
         21   -1    0    0  502  503  0.00000000000E+00  0.00000000000E+00  0.27230102242E+03  0.27230102242E+03  0.00000000000E+00 0.  1.
         21   -1    0    0  503  504 -0.00000000000E+00 -0.00000000000E+00 -0.70862934559E+03  0.70862934559E+03  0.00000000000E+00 0. -1.
         -6    2    1    2    0  504 -0.24579686135E+03 -0.15011267978E+03 -0.53643220542E+03  0.63293359634E+03  0.17290318878E+03 0.  0.
        -24    2    3    3    0    0 -0.81126570417E+02 -0.11761271314E+03 -0.22151954500E+03  0.27605178644E+03  0.81972002905E+02 0.  0.
          6    2    1    2  502    0  0.24579686135E+03  0.15011267978E+03  0.10010388225E+03  0.34799677166E+03  0.16772314141E+03 0.  0.
         24    2    5    5    0    0  0.96649061305E+02  0.39830973797E+02  0.94413689792E+02  0.16235844258E+03  0.80738909663E+02 0.  0.
          4    1    6    6  501    0 -0.64052586522E+01  0.23614058014E+02  0.33731093490E+02  0.41670586057E+02  0.00000000000E+00 0. -1.
         -3    1    6    6    0  501  0.10305431996E+03  0.16216915783E+02  0.60682596302E+02  0.12068785653E+03  0.00000000000E+00 0.  1.
          5    1    5    5  502    0  0.14914780004E+03  0.11028170598E+03  0.56901924615E+01  0.18563832908E+03  0.47000000000E+01 0. -1.
         13    1    4    4    0    0 -0.59478694202E+02 -0.11787932420E+03 -0.21688142691E+03  0.25391101487E+03  0.00000000000E+00 0. -1.
        -14    1    4    4    0    0 -0.21647876215E+02  0.26661105890E+00 -0.46381180926E+01  0.22140771565E+02  0.00000000000E+00 0.  1.
         -5    1    3    3    0  504 -0.16467029093E+03 -0.32499966639E+02 -0.31491266042E+03  0.35688180990E+03  0.47000000000E+01 0.  1.
<mgrwt>
<rscale>  2 0.33526363E+03</rscale>
<asrwt>0</asrwt>
<pdfrwt beam="1">  1       21 0.41892464E-01 0.33592473E+03</pdfrwt>
<pdfrwt beam="2">  1       21 0.10901990E+00 0.33592473E+03</pdfrwt>
<totfact> 0.33376956E+03</totfact>
</mgrwt>
</event>
<event>
12    1  0.1410528E-001  0.1977626E+03  0.7546771E-02  0.1151678E+00
         21   -1    0    0  502  503  0.00000000000E+00  0.00000000000E+00  0.39039422112E+03  0.39039422112E+03  0.00000000000E+00 0.  1.
         21   -1    0    0  503  504 -0.00000000000E+00 -0.00000000000E+00 -0.16849256411E+03  0.16849256411E+03  0.00000000000E+00 0. -1.
         -6    2    1    2    0  504  0.85037432024E+02  0.45055301281E+02 -0.67065418940E+02  0.20882483285E+03  0.17276774982E+03 0.  0.
        -24    2    3    3    0    0  0.97400571895E+01  0.32954026841E+02 -0.95900718056E+02  0.12715660172E+03  0.76098732180E+02 0.  0.
          6    2    1    2  502    0 -0.85037432024E+02 -0.45055301281E+02  0.28896707595E+03  0.35006195238E+03  0.17256898477E+03 0.  0.
         24    2    5    5    0    0 -0.76646104665E+02 -0.52153626911E+02  0.30581594715E+03  0.32940341754E+03  0.79928666915E+02 0.  0.
          4    1    6    6  501    0 -0.54468889801E+02 -0.73166056367E+02  0.24290607297E+03  0.25946770906E+03  0.00000000000E+00 0. -1.
         -3    1    6    6    0  501 -0.22177214864E+02  0.21012429456E+02  0.62909874176E+02  0.69935708473E+02  0.00000000000E+00 0.  1.
          5    1    5    5  502    0 -0.83913273591E+01  0.70983256304E+01 -0.16848871194E+02  0.20658534849E+02  0.47000000000E+01 0. -1.
         13    1    4    4    0    0  0.32554019359E+02  0.15097161871E+02 -0.90939555881E+02  0.97763445606E+02  0.00000000000E+00 0. -1.
        -14    1    4    4    0    0 -0.22813962170E+02  0.17856864970E+02 -0.49611621747E+01  0.29393156118E+02  0.00000000000E+00 0.  1.
         -5    1    3    3    0  504  0.75297374835E+02  0.12101274440E+02  0.28835299116E+02  0.81668231125E+02  0.47000000000E+01 0.  1.
<mgrwt>
<rscale>  2 0.19771917E+03</rscale>
<asrwt>0</asrwt>
<pdfrwt beam="1">  1       21 0.60060649E-01 0.19776259E+03</pdfrwt>
<pdfrwt beam="2">  1       21 0.25921933E-01 0.19776259E+03</pdfrwt>
<totfact> 0.36443931E+04</totfact>
</mgrwt>
</event>
<event>
12    1  0.1410528E-001  0.2213734E+03  0.7546771E-02  0.1134281E+00
         21   -1    0    0  502  503  0.00000000000E+00  0.00000000000E+00  0.14140586177E+04  0.14140586177E+04  0.00000000000E+00 0.  1.
         21   -1    0    0  503  504 -0.00000000000E+00 -0.00000000000E+00 -0.54973332434E+02  0.54973332434E+02  0.00000000000E+00 0. -1.
         -6    2    1    2    0  504 -0.11753734507E+03  0.39910004665E+02  0.21322460152E+03  0.30198316009E+03  0.17413001557E+03 0.  0.
        -24    2    3    3    0    0 -0.10919131037E+03  0.15942650096E+02  0.62104618757E+02  0.14867487730E+03  0.77912291180E+02 0.  0.
          6    2    1    2  502    0  0.11753734507E+03 -0.39910004665E+02  0.11458606838E+04  0.11670487901E+04  0.18329848840E+03 0.  0.
         24    2    5    5    0    0  0.49799310133E+02  0.10265542630E+02  0.93870311758E+03  0.94334726091E+03  0.78454821720E+02 0.  0.
          2    1    6    6  501    0 -0.89513619885E+01  0.30107219625E+02  0.29857057255E+03  0.30021818457E+03  0.00000000000E+00 0. -1.
         -1    1    6    6    0  501  0.58750672121E+02 -0.19841676995E+02  0.64013254504E+03  0.64312907634E+03  0.00000000000E+00 0.  1.
          5    1    5    5  502    0  0.67738034935E+02 -0.50175547295E+02  0.20715756619E+03  0.22370152917E+03  0.47000000000E+01 0. -1.
         13    1    4    4    0    0 -0.74515808669E+02 -0.26623561148E+02  0.45682277086E+02  0.91368978267E+02  0.00000000000E+00 0. -1.
        -14    1    4    4    0    0 -0.34675501696E+02  0.42566211245E+02  0.16422341671E+02  0.57305899030E+02  0.00000000000E+00 0.  1.
         -5    1    3    3    0  504 -0.83460347021E+01  0.23967354569E+02  0.15111998277E+03  0.15330828279E+03  0.47000000000E+01 0.  1.
<mgrwt>
<rscale>  2 0.21946644E+03</rscale>
<asrwt>0</asrwt>
<pdfrwt beam="1">  1       21 0.21754745E+00 0.22137338E+03</pdfrwt>
<pdfrwt beam="2">  1       21 0.84574368E-02 0.22137338E+03</pdfrwt>
<totfact> 0.11076698E+04</totfact>
</mgrwt>
</event>
<event>
12    1  0.1410528E-001  0.1840670E+03  0.7546771E-02  0.1164209E+00
         21   -1    0    0  502  503  0.00000000000E+00  0.00000000000E+00  0.88636159790E+02  0.88636159790E+02  0.00000000000E+00 0. -1.
         21   -1    0    0  503  504 -0.00000000000E+00 -0.00000000000E+00 -0.39625686317E+03  0.39625686317E+03  0.00000000000E+00 0. -1.
         -6    2    1    2    0  504  0.38361715542E+02  0.47933386011E+02 -0.10479548062E+03  0.21180832061E+03  0.17352648561E+03 0.  0.
        -24    2    3    3    0    0  0.49073325668E+01  0.39626087487E+02  0.12555733052E+02  0.89408956644E+02  0.79006369193E+02 0.  0.
          6    2    1    2  502    0 -0.38361715542E+02 -0.47933386011E+02 -0.20282522276E+03  0.27308470235E+03  0.17224387640E+03 0.  0.
         24    2    5    5    0    0 -0.10397616399E+02  0.35879069949E+02 -0.67702124911E+02  0.11157042996E+03  0.80429876513E+02 0.  0.
          4    1    6    6  501    0 -0.21608777984E+02  0.41745305113E+02 -0.80724400728E+02  0.93413268104E+02  0.00000000000E+00 0. -1.
         -3    1    6    6    0  501  0.11211161585E+02 -0.58662351640E+01  0.13022275817E+02  0.18157161852E+02  0.00000000000E+00 0.  1.
          5    1    5    5  502    0 -0.27964099143E+02 -0.83812455960E+02 -0.13512309785E+03  0.16151427240E+03  0.47000000000E+01 0. -1.
         13    1    4    4    0    0  0.25115333292E+02 -0.49497017797E+01  0.28143773224E+02  0.38044072934E+02  0.00000000000E+00 0. -1.
        -14    1    4    4    0    0 -0.20208000726E+02  0.44575789267E+02 -0.15588040172E+02  0.51364883710E+02  0.00000000000E+00 0.  1.
         -5    1    3    3    0  504  0.33454382975E+02  0.83072985238E+01 -0.11735121367E+03  0.12239936396E+03  0.47000000000E+01 0.  1.
<mgrwt>
<rscale>  2 0.18376412E+03</rscale>
<asrwt>0</asrwt>
<pdfrwt beam="1">  1       21 0.13636332E-01 0.18406703E+03</pdfrwt>
<pdfrwt beam="2">  1       21 0.60962595E-01 0.18406703E+03</pdfrwt>
<totfact> 0.11713170E+05</totfact>
</mgrwt>
</event>
<event>
12    1  0.1410528E-001  0.2357887E+03  0.7546771E-02  0.1123759E+00
         21   -1    0    0  502  503  0.00000000000E+00  0.00000000000E+00  0.11294065362E+04  0.11294065362E+04  0.00000000000E+00 0. -1.
         21   -1    0    0  503  504 -0.00000000000E+00 -0.00000000000E+00 -0.77384723882E+02  0.77384723882E+02  0.00000000000E+00 0.  1.
         -6    2    1    2    0  504  0.19984435406E+02  0.15978245084E+03  0.15797730077E+03  0.28381888661E+03  0.17223972707E+03 0.  0.
        -24    2    3    3    0    0  0.71413041373E+02  0.82824916938E+02  0.12551441785E+03  0.18561862030E+03  0.82101240972E+02 0.  0.
          6    2    1    2  502    0 -0.19984435406E+02 -0.15978245084E+03  0.89404451152E+03  0.92297237345E+03  0.16319498864E+03 0.  0.
         24    2    5    5    0    0  0.86777551990E+01 -0.18803896376E+02  0.25775231487E+03  0.27060259832E+03  0.79753497988E+02 0.  0.
          2    1    6    6  501    0  0.28507225696E+02  0.14265803599E+02  0.18992035629E+03  0.19257704122E+03  0.00000000000E+00 0. -1.
         -1    1    6    6    0  501 -0.19829470497E+02 -0.33069699975E+02  0.67831958577E+02  0.78025557102E+02  0.00000000000E+00 0.  1.
          5    1    5    5  502    0 -0.28662190605E+02 -0.14097855446E+03  0.63629219665E+03  0.65236977514E+03  0.47000000000E+01 0. -1.
         13    1    4    4    0    0  0.33640517135E+01  0.10206914778E+02  0.71661898448E+02  0.72463270989E+02  0.00000000000E+00 0. -1.
        -14    1    4    4    0    0  0.68048989659E+02  0.72618002160E+02  0.53852519403E+02  0.11315534931E+03  0.00000000000E+00 0.  1.
         -5    1    3    3    0  504 -0.51428605966E+02  0.76957533898E+02  0.32462882920E+02  0.98200266307E+02  0.47000000000E+01 0.  1.
<mgrwt>
<rscale>  2 0.23414059E+03</rscale>
<asrwt>0</asrwt>
<pdfrwt beam="1">  1       21 0.17375484E+00 0.23578875E+03</pdfrwt>
<pdfrwt beam="2">  1       21 0.11905343E-01 0.23578875E+03</pdfrwt>
<totfact> 0.11588527E+04</totfact>
</mgrwt>
</event>
<event>
12    1  0.1410528E-001  0.2141958E+03  0.7546771E-02  0.1138735E+00
         21   -1    0    0  502  503  0.00000000000E+00  0.00000000000E+00  0.21391975242E+04  0.21391975242E+04  0.00000000000E+00 0. -1.
         21   -1    0    0  503  504 -0.00000000000E+00 -0.00000000000E+00 -0.39847888253E+02  0.39847888253E+02  0.00000000000E+00 0. -1.
         -6    2    1    2    0  504 -0.34819184290E+02 -0.11705829780E+03  0.30770918730E+03  0.37491970566E+03  0.17596823879E+03 0.  0.
        -24    2    3    3    0    0 -0.16567564517E+02 -0.15262374765E+03  0.25861965639E+03  0.31143825252E+03  0.80877474737E+02 0.  0.
          6    2    1    2  502    0  0.34819184290E+02  0.11705829780E+03  0.17916404486E+04  0.18041257068E+04  0.17314458703E+03 0.  0.
         24    2    5    5    0    0  0.25470768385E+02  0.15063352913E+03  0.16049054325E+04  0.16141079569E+04  0.79270605895E+02 0.  0.
          4    1    6    6  501    0  0.17597530343E+02  0.15935718105E+03  0.14866300086E+04  0.14952502020E+04  0.00000000000E+00 0. -1.
         -3    1    6    6    0  501  0.78732380424E+01 -0.87236519211E+01  0.11827542393E+03  0.11885775484E+03  0.00000000000E+00 0.  1.
          5    1    5    5  502    0  0.93484159046E+01 -0.33575231332E+02  0.18673501609E+03  0.19001774989E+03  0.47000000000E+01 0. -1.
         11    1    4    4    0    0 -0.30770193535E+02 -0.64928354086E+02  0.17607496892E+03  0.19017068821E+03  0.00000000000E+00 0. -1.
        -12    1    4    4    0    0  0.14202629019E+02 -0.87695393566E+02  0.82544687469E+02  0.12126756431E+03  0.00000000000E+00 0.  1.
         -5    1    3    3    0  504 -0.18251619773E+02  0.35565449853E+02  0.49089530911E+02  0.63481453140E+02  0.47000000000E+01 0.  1.
<mgrwt>
<rscale>  2 0.21361505E+03</rscale>
<asrwt>0</asrwt>
<pdfrwt beam="1">  1       21 0.32910722E+00 0.21419580E+03</pdfrwt>
<pdfrwt beam="2">  1       21 0.61304460E-02 0.21419580E+03</pdfrwt>
<totfact> 0.42933466E+03</totfact>
</mgrwt>
</event>
<event>
12    1  0.1410528E-001  0.2501441E+03  0.7546771E-02  0.1114002E+00
         21   -1    0    0  502  503  0.00000000000E+00  0.00000000000E+00  0.78527840562E+03  0.78527840562E+03  0.00000000000E+00 0.  1.
         21   -1    0    0  503  504 -0.00000000000E+00 -0.00000000000E+00 -0.87057983241E+02  0.87057983241E+02  0.00000000000E+00 0.  1.
         -6    2    1    2    0  504  0.15345598394E+03 -0.79991314044E+02  0.20621027200E+03  0.32038885498E+03  0.17372101999E+03 0.  0.
        -24    2    3    3    0    0  0.51929456717E+02 -0.18100431468E+02  0.17063095418E+03  0.19618702354E+03  0.79687712896E+02 0.  0.
          6    2    1    2  502    0 -0.15345598394E+03  0.79991314044E+02  0.49201015037E+03  0.55194753388E+03  0.18062320657E+03 0.  0.
         24    2    5    5    0    0 -0.11210653778E+03  0.12637144958E+03  0.35738524573E+03  0.40360047924E+03  0.81434107676E+02 0.  0.
          4    1    6    6  501    0 -0.15009379446E+02  0.28901555402E+02  0.17598873724E+02  0.37017586799E+02  0.00000000000E+00 0. -1.
         -3    1    6    6    0  501 -0.97097158337E+02  0.97469894177E+02  0.33978637201E+03  0.36658289244E+03  0.00000000000E+00 0.  1.
          5    1    5    5  502    0 -0.41349446159E+02 -0.46380135535E+02  0.13462490464E+03  0.14834705463E+03  0.47000000000E+01 0. -1.
         11    1    4    4    0    0  0.56132273898E+02  0.18113936415E+02  0.88821467527E+02  0.10662176119E+03  0.00000000000E+00 0. -1.
        -12    1    4    4    0    0 -0.42028171802E+01 -0.36214367884E+02  0.81809486657E+02  0.89565262354E+02  0.00000000000E+00 0.  1.
         -5    1    3    3    0  504  0.10152652722E+03 -0.61890882576E+02  0.35579317819E+02  0.12420183144E+03  0.47000000000E+01 0.  1.
<mgrwt>
<rscale>  2 0.24890055E+03</rscale>
<asrwt>0</asrwt>
<pdfrwt beam="1">  1       21 0.12081206E+00 0.25014414E+03</pdfrwt>
<pdfrwt beam="2">  1       21 0.13393536E-01 0.25014414E+03</pdfrwt>
<totfact> 0.24224379E+04</totfact>
</mgrwt>
</event>
<event>
12    1  0.1410528E-001  0.1734324E+03  0.7546771E-02  0.1174457E+00
         21   -1    0    0  502  503  0.00000000000E+00  0.00000000000E+00  0.22465355120E+03  0.22465355120E+03  0.00000000000E+00 0.  1.
         21   -1    0    0  503  504 -0.00000000000E+00 -0.00000000000E+00 -0.13998431313E+03  0.13998431313E+03  0.00000000000E+00 0.  1.
         -6    2    1    2    0  504 -0.83363526871E+01  0.34287252244E+00  0.81765471887E+02  0.19174039242E+03  0.17323155993E+03 0.  0.
        -24    2    3    3    0    0 -0.78205913001E+01  0.34415191084E+02 -0.82989110007E+01  0.95330476091E+02  0.88167231568E+02 0.  0.
          6    2    1    2  502    0  0.83363526871E+01 -0.34287252244E+00  0.29037661903E+01  0.17289747191E+03  0.17267162939E+03 0.  0.
         24    2    5    5    0    0  0.43005800196E+02  0.28867837976E+02  0.49804689843E+02  0.10749852056E+03  0.79953573228E+02 0.  0.
          4    1    6    6  501    0 -0.31522757383E+01  0.41396486103E+02  0.41966842994E+02  0.59032379377E+02  0.00000000000E+00 0. -1.
         -3    1    6    6    0  501  0.46158075934E+02 -0.12528648127E+02  0.78378468494E+01  0.48466141182E+02  0.00000000000E+00 0.  1.
          5    1    5    5  502    0 -0.34669447509E+02 -0.29210710498E+02 -0.46900923653E+02  0.65398951351E+02  0.47000000000E+01 0. -1.
         13    1    4    4    0    0  0.39540534634E+02  0.14998579386E+02 -0.12146294462E+02  0.43999360585E+02  0.00000000000E+00 0. -1.
        -14    1    4    4    0    0 -0.47361125934E+02  0.19416611699E+02  0.38473834613E+01  0.51331115506E+02  0.00000000000E+00 0.  1.
         -5    1    3    3    0  504 -0.51576138697E+00 -0.34072318562E+02  0.90064382888E+02  0.96409916331E+02  0.47000000000E+01 0.  1.
<mgrwt>
<rscale>  2 0.17329238E+03</rscale>
<asrwt>0</asrwt>
<pdfrwt beam="1">  1       21 0.34562085E-01 0.17343237E+03</pdfrwt>
<pdfrwt beam="2">  1       21 0.21536048E-01 0.17343237E+03</pdfrwt>
<totfact> 0.16310379E+05</totfact>
</mgrwt>
</event>
<event>
12    1  0.1410528E-001  0.1764903E+03  0.7546771E-02  0.1171538E+00
         21   -1    0    0  502  503  0.00000000000E+00  0.00000000000E+00  0.24154215038E+03  0.24154215038E+03  0.00000000000E+00 0. -1.
         21   -1    0    0  503  504 -0.00000000000E+00 -0.00000000000E+00 -0.27430568004E+03  0.27430568004E+03  0.00000000000E+00 0.  1.
         -6    2    1    2    0  504 -0.96056802583E+01 -0.21638553420E+02 -0.20466091039E+03  0.26947911493E+03  0.17370206980E+03 0.  0.
        -24    2    3    3    0    0 -0.26344776404E+02  0.48866738861E+02 -0.96339829828E+02  0.13906922238E+03  0.83527722299E+02 0.  0.
          6    2    1    2  502    0  0.96056802583E+01  0.21638553420E+02  0.17189738073E+03  0.24636871549E+03  0.17489522116E+03 0.  0.
         24    2    5    5    0    0  0.52017053188E+02  0.55121678146E+02  0.15321984645E+03  0.18900335589E+03  0.80633578412E+02 0.  0.
          4    1    6    6  501    0  0.45691142150E+02  0.36395731448E+02  0.15818279990E+03  0.16862422104E+03  0.00000000000E+00 0. -1.
         -3    1    6    6    0  501  0.63259110383E+01  0.18725946698E+02 -0.49629534478E+01  0.20379134848E+02  0.00000000000E+00 0.  1.
          5    1    5    5  502    0 -0.42411372930E+02 -0.33483124726E+02  0.18677534280E+02  0.57365359599E+02  0.47000000000E+01 0. -1.
         13    1    4    4    0    0 -0.43693172926E+02 -0.26534163139E+01 -0.28927883061E+02  0.52468622975E+02  0.00000000000E+00 0. -1.
        -14    1    4    4    0    0  0.17348396522E+02  0.51520155175E+02 -0.67411946767E+02  0.86600599409E+02  0.00000000000E+00 0.  1.
         -5    1    3    3    0  504  0.16739096146E+02 -0.70505292280E+02 -0.10832108056E+03  0.13040989254E+03  0.47000000000E+01 0.  1.
<mgrwt>
<rscale>  2 0.17619400E+03</rscale>
<asrwt>0</asrwt>
<pdfrwt beam="1">  1       21 0.37160331E-01 0.17649032E+03</pdfrwt>
<pdfrwt beam="2">  1       21 0.42200874E-01 0.17649032E+03</pdfrwt>
<totfact> 0.38052362E+04</totfact>
</mgrwt>
</event>
<event>
12    1  0.1410528E-001  0.2503615E+03  0.7546771E-02  0.1114538E+00
         21   -1    0    0  502  503  0.00000000000E+00  0.00000000000E+00  0.48535776003E+02  0.48535776003E+02  0.00000000000E+00 0. -1.
         21   -1    0    0  503  504 -0.00000000000E+00 -0.00000000000E+00 -0.14445501487E+04  0.14445501487E+04  0.00000000000E+00 0. -1.
         -6    2    1    2    0  504 -0.13222518112E+03  0.10447744697E+03 -0.98656361495E+03  0.10178352716E+04  0.18515355354E+03 0.  0.
        -24    2    3    3    0    0 -0.12491894942E+03  0.44988109478E+01 -0.65086207042E+03  0.66745444213E+03  0.79050707666E+02 0.  0.
          6    2    1    2  502    0  0.13222518112E+03 -0.10447744697E+03 -0.40945075773E+03  0.47525065305E+03  0.17266796106E+03 0.  0.
         24    2    5    5    0    0  0.13823739638E+03 -0.10752040238E+03 -0.41935300895E+03  0.46238399501E+03  0.85274838240E+02 0.  0.
          2    1    6    6  501    0  0.14507243311E+03 -0.79463228194E+02 -0.34446654190E+03  0.38212251173E+03  0.00000000000E+00 0. -1.
         -1    1    6    6    0  501 -0.68350367275E+01 -0.28057174187E+02 -0.74886467053E+02  0.80261483279E+02  0.00000000000E+00 0.  1.
          5    1    5    5  502    0 -0.60122152660E+01  0.30429554080E+01  0.99022512210E+01  0.12866658046E+02  0.47000000000E+01 0. -1.
         13    1    4    4    0    0 -0.81456219956E+02  0.36303842134E+02 -0.31819334315E+03  0.33045436651E+03  0.00000000000E+00 0. -1.
        -14    1    4    4    0    0 -0.43462729465E+02 -0.31805031187E+02 -0.33266872727E+03  0.33700007561E+03  0.00000000000E+00 0.  1.
         -5    1    3    3    0  504 -0.73062316938E+01  0.99978636025E+02 -0.33570154454E+03  0.35038082951E+03  0.47000000000E+01 0.  1.
<mgrwt>
<rscale>  2 0.24805808E+03</rscale>
<asrwt>0</asrwt>
<pdfrwt beam="1">  1       21 0.74670428E-02 0.25036149E+03</pdfrwt>
<pdfrwt beam="2">  1       21 0.22223847E+00 0.25036149E+03</pdfrwt>
<totfact> 0.12610320E+04</totfact>
</mgrwt>
</event>
<event>
12    1  0.1410528E-001  0.2555510E+03  0.7546771E-02  0.1110100E+00
         21   -1    0    0  502  503  0.00000000000E+00  0.00000000000E+00  0.41434241947E+03  0.41434241947E+03  0.00000000000E+00 0. -1.
         21   -1    0    0  503  504 -0.00000000000E+00 -0.00000000000E+00 -0.15671175292E+03  0.15671175292E+03  0.00000000000E+00 0. -1.
         -6    2    1    2    0  504 -0.11053514517E+02 -0.18668663710E+03  0.13607578068E+03  0.28806669292E+03  0.17173153708E+03 0.  0.
        -24    2    3    3    0    0 -0.15967419738E+01 -0.82009478161E+02  0.14142527893E+03  0.18272228025E+03  0.81597904896E+02 0.  0.
          6    2    1    2  502    0  0.11053514517E+02  0.18668663710E+03  0.12155488587E+03  0.28298747947E+03  0.17416154170E+03 0.  0.
         24    2    5    5    0    0 -0.90844313125E-01  0.10584584163E+03 -0.45326930953E+01  0.13272238534E+03  0.79945830539E+02 0.  0.
          2    1    6    6  501    0 -0.35815028697E+02  0.82486658647E+02 -0.16455521915E+01  0.89941497526E+02  0.00000000000E+00 0. -1.
         -1    1    6    6    0  501  0.35724184384E+02  0.23359182983E+02 -0.28871409038E+01  0.42780887813E+02  0.00000000000E+00 0.  1.
          5    1    5    5  502    0  0.11144358830E+02  0.80840795469E+02  0.12608757897E+03  0.15026509414E+03  0.47000000000E+01 0. -1.
         11    1    4    4    0    0  0.30511335771E+02 -0.32694385775E+02  0.10340805811E+03  0.11266361859E+03  0.00000000000E+00 0. -1.
        -12    1    4    4    0    0 -0.32108077745E+02 -0.49315092386E+02  0.38017220820E+02  0.70058661651E+02  0.00000000000E+00 0.  1.
         -5    1    3    3    0  504 -0.94567725428E+01 -0.10467715894E+03 -0.53494982590E+01  0.10534441267E+03  0.47000000000E+01 0.  1.
<mgrwt>
<rscale>  2 0.25513755E+03</rscale>
<asrwt>0</asrwt>
<pdfrwt beam="1">  1       21 0.63744987E-01 0.25555102E+03</pdfrwt>
<pdfrwt beam="2">  1       21 0.24109501E-01 0.25555102E+03</pdfrwt>
<totfact> 0.35810936E+04</totfact>
</mgrwt>
</event>
<event>
12    1  0.1410528E-001  0.3283601E+03  0.7546771E-02  0.1071903E+00
         21   -1    0    0  502  503  0.00000000000E+00  0.00000000000E+00  0.10451996444E+04  0.10451996444E+04  0.00000000000E+00 0. -1.
         21   -1    0    0  503  504 -0.00000000000E+00 -0.00000000000E+00 -0.11823906442E+03  0.11823906442E+03  0.00000000000E+00 0. -1.
         -6    2    1    2    0  504 -0.27824175417E+03 -0.25862172138E+02  0.67175975693E+03  0.74756879031E+03  0.17178649395E+03 0.  0.
        -24    2    3    3    0    0 -0.28260399003E+03 -0.42825206400E+02  0.66432002480E+03  0.72796743201E+03  0.83165336711E+02 0.  0.
          6    2    1    2  502    0  0.27824175417E+03  0.25862172138E+02  0.25520082307E+03  0.41586991854E+03  0.17243260522E+03 0.  0.
         24    2    5    5    0    0  0.94239939251E+02  0.64164850541E+02  0.10045404208E+03  0.17236957092E+03  0.81375427577E+02 0.  0.
          2    1    6    6  501    0  0.60140013725E+02  0.63932743258E+02  0.27733947453E+02  0.92051011688E+02  0.00000000000E+00 0. -1.
         -1    1    6    6    0  501  0.34099925526E+02  0.23210728326E+00  0.72720094622E+02  0.80318559228E+02  0.00000000000E+00 0.  1.
          5    1    5    5  502    0  0.18400181492E+03 -0.38302678404E+02  0.15474678100E+03  0.24350034763E+03  0.47000000000E+01 0. -1.
         11    1    4    4    0    0 -0.12772047508E+03 -0.25936308537E+01  0.38994563032E+03  0.41033747243E+03  0.00000000000E+00 0. -1.
        -12    1    4    4    0    0 -0.15488351496E+03 -0.40231575546E+02  0.27437439448E+03  0.31762995958E+03  0.00000000000E+00 0.  1.
         -5    1    3    3    0  504  0.43622358670E+01  0.16963034262E+02  0.74397321368E+01  0.19601358305E+02  0.47000000000E+01 0.  1.
<mgrwt>
<rscale>  2 0.32827532E+03</rscale>
<asrwt>0</asrwt>
<pdfrwt beam="1">  1       21 0.16079994E+00 0.32836006E+03</pdfrwt>
<pdfrwt beam="2">  1       21 0.18190626E-01 0.32836006E+03</pdfrwt>
<totfact> 0.62693770E+03</totfact>
</mgrwt>
</event>
<event>
12    1  0.1410528E-001  0.1921490E+03  0.7546771E-02  0.1157003E+00
         21   -1    0    0  502  503  0.00000000000E+00  0.00000000000E+00  0.21632594295E+03  0.21632594295E+03  0.00000000000E+00 0. -1.
         21   -1    0    0  503  504 -0.00000000000E+00 -0.00000000000E+00 -0.23505176585E+03  0.23505176585E+03  0.00000000000E+00 0. -1.
         -6    2    1    2    0  504 -0.26024168300E+02  0.76197342855E+02 -0.12919324110E+03  0.23154290296E+03  0.17446469549E+03 0.  0.
        -24    2    3    3    0    0  0.41984508638E+02  0.54953552963E+02 -0.11791789193E+03  0.15925388411E+03  0.81698093112E+02 0.  0.
          6    2    1    2  502    0  0.26024168300E+02 -0.76197342855E+02  0.11046741821E+03  0.21983480583E+03  0.17216561496E+03 0.  0.
         24    2    5    5    0    0  0.81381964940E+02 -0.69581548079E+02  0.67472788963E+02  0.14927360875E+03  0.79154386922E+02 0.  0.
          2    1    6    6  501    0  0.74372668275E+02 -0.71247544097E+02  0.24719730077E+02  0.10591775763E+03  0.00000000000E+00 0. -1.
         -1    1    6    6    0  501  0.70092966650E+01  0.16659960185E+01  0.42753058886E+02  0.43355851123E+02  0.00000000000E+00 0.  1.
          5    1    5    5  502    0 -0.55357796640E+02 -0.66157947767E+01  0.42994629244E+02  0.70561197079E+02  0.47000000000E+01 0. -1.
         13    1    4    4    0    0 -0.20989952191E+01  0.30495454093E+02  0.47822990118E+00  0.30571346145E+02  0.00000000000E+00 0. -1.
        -14    1    4    4    0    0  0.44083503857E+02  0.24458098870E+02 -0.11839612183E+03  0.12868253796E+03  0.00000000000E+00 0.  1.
         -5    1    3    3    0  504 -0.68008676938E+02  0.21243789893E+02 -0.11275349177E+02  0.72289018855E+02  0.47000000000E+01 0.  1.
<mgrwt>
<rscale>  2 0.19162556E+03</rscale>
<asrwt>0</asrwt>
<pdfrwt beam="1">  1       21 0.33280914E-01 0.19214896E+03</pdfrwt>
<pdfrwt beam="2">  1       21 0.36161810E-01 0.19214896E+03</pdfrwt>
<totfact> 0.64132300E+04</totfact>
</mgrwt>
</event>
<event>
12    1  0.1410528E-001  0.1805873E+03  0.7546771E-02  0.1167536E+00
         21   -1    0    0  502  503  0.00000000000E+00  0.00000000000E+00  0.62800126986E+03  0.62800126986E+03  0.00000000000E+00 0.  1.
         21   -1    0    0  503  504 -0.00000000000E+00 -0.00000000000E+00 -0.52082778664E+02  0.52082778664E+02  0.00000000000E+00 0.  1.
         -6    2    1    2    0  504  0.45955330571E+02 -0.17561064024E+01  0.32061601611E+03  0.36736830940E+03  0.17334897938E+03 0.  0.
        -24    2    3    3    0    0 -0.14914765004E+02 -0.22030723389E+02  0.27883652394E+03  0.29066208674E+03  0.77632716034E+02 0.  0.
          6    2    1    2  502    0 -0.45955330571E+02  0.17561064024E+01  0.25530247509E+03  0.31271573912E+03  0.17463333985E+03 0.  0.
         24    2    5    5    0    0 -0.88982938198E+02  0.23921771894E+02  0.13152466394E+03  0.17972803940E+03  0.80704500865E+02 0.  0.
          4    1    6    6  501    0 -0.63275709823E+02  0.50084395982E+02  0.64438095520E+02  0.10326921288E+03  0.00000000000E+00 0. -1.
         -3    1    6    6    0  501 -0.25707228375E+02 -0.26162624088E+02  0.67086568425E+02  0.76458826521E+02  0.00000000000E+00 0.  1.
          5    1    5    5  502    0  0.43027607627E+02 -0.22165665492E+02  0.12377781115E+03  0.13298769972E+03  0.47000000000E+01 0. -1.
         11    1    4    4    0    0 -0.24984155024E+02 -0.48053723893E+02  0.18472945934E+03  0.19250543247E+03  0.00000000000E+00 0. -1.
        -12    1    4    4    0    0  0.10069390019E+02  0.26023000503E+02  0.94107064596E+02  0.98156654270E+02  0.00000000000E+00 0.  1.
         -5    1    3    3    0  504  0.60870095575E+02  0.20274616987E+02  0.41779492167E+02  0.76706222662E+02  0.47000000000E+01 0.  1.
<mgrwt>
<rscale>  2 0.18027609E+03</rscale>
<asrwt>0</asrwt>
<pdfrwt beam="1">  1       21 0.96615575E-01 0.18058732E+03</pdfrwt>
<pdfrwt beam="2">  1       21 0.80127356E-02 0.18058732E+03</pdfrwt>
<totfact> 0.10707169E+05</totfact>
</mgrwt>
</event>
<event>
12    1  0.1410528E-001  0.1749516E+03  0.7546771E-02  0.1173593E+00
         21   -1    0    0  502  503  0.00000000000E+00  0.00000000000E+00  0.20635267928E+02  0.20635267928E+02  0.00000000000E+00 0.  1.
         21   -1    0    0  503  504 -0.00000000000E+00 -0.00000000000E+00 -0.18585320312E+04  0.18585320312E+04  0.00000000000E+00 0.  1.
         -6    2    1    2    0  504 -0.69891726930E+01  0.26735570629E+02 -0.13627395978E+04  0.13739240467E+04  0.17275542059E+03 0.  0.
        -24    2    3    3    0    0 -0.45533459527E+02 -0.36357519813E+02 -0.79580783834E+03  0.80217225612E+03  0.82310678236E+02 0.  0.
          6    2    1    2  502    0  0.69891726930E+01 -0.26735570629E+02 -0.47515716548E+03  0.50524325246E+03  0.16950744226E+03 0.  0.
         24    2    5    5    0    0 -0.25458311517E+02  0.12416394665E+02 -0.42543645990E+03  0.43396945517E+03  0.80814690006E+02 0.  0.
          4    1    6    6  501    0  0.12475179042E+02  0.17165794849E+01 -0.33597160927E+03  0.33620752367E+03  0.00000000000E+00 0. -1.
         -3    1    6    6    0  501 -0.37933490559E+02  0.10699815180E+02 -0.89464850630E+02  0.97761931492E+02  0.00000000000E+00 0.  1.
          5    1    5    5  502    0  0.32447484210E+02 -0.39151965294E+02 -0.49720705575E+02  0.71273797295E+02  0.47000000000E+01 0. -1.
         13    1    4    4    0    0  0.27196527997E+01 -0.22712101574E+02 -0.53657996550E+02  0.58330237982E+02  0.00000000000E+00 0. -1.
        -14    1    4    4    0    0 -0.48253112327E+02 -0.13645418239E+02 -0.74214984179E+03  0.74384201814E+03  0.00000000000E+00 0.  1.
         -5    1    3    3    0  504  0.38544286834E+02  0.63093090442E+02 -0.56693175947E+03  0.57175179056E+03  0.47000000000E+01 0.  1.
<mgrwt>
<rscale>  2 0.17414446E+03</rscale>
<asrwt>0</asrwt>
<pdfrwt beam="1">  1       21 0.31746558E-02 0.17495164E+03</pdfrwt>
<pdfrwt beam="2">  1       21 0.28592808E+00 0.17495164E+03</pdfrwt>
<totfact> 0.24112542E+04</totfact>
</mgrwt>
</event>
<event>
12    1  0.1410528E-001  0.2353436E+03  0.7546771E-02  0.1122966E+00
         21   -1    0    0  502  503  0.00000000000E+00  0.00000000000E+00  0.20702958140E+03  0.20702958140E+03  0.00000000000E+00 0.  1.
         21   -1    0    0  503  504 -0.00000000000E+00 -0.00000000000E+00 -0.27344944659E+03  0.27344944659E+03  0.00000000000E+00 0. -1.
         -6    2    1    2    0  504 -0.92034484631E+02 -0.13082570434E+03  0.27836734685E+01  0.23517159724E+03  0.17237232967E+03 0.  0.
        -24    2    3    3    0    0 -0.91865910565E+02 -0.94874641455E+02 -0.57475189090E+02  0.16484572820E+03  0.80188363430E+02 0.  0.
          6    2    1    2  502    0  0.92034484631E+02  0.13082570434E+03 -0.69203538661E+02  0.24530743074E+03  0.17262935595E+03 0.  0.
         24    2    5    5    0    0  0.72964306441E+02 -0.18676126680E+01  0.53599330527E+01  0.91837598565E+02  0.55480966433E+02 0.  0.
          2    1    6    6  501    0  0.44672814963E+02 -0.25274751498E+02  0.15727742388E+02  0.53682728513E+02  0.00000000000E+00 0. -1.
         -1    1    6    6    0  501  0.28291491477E+02  0.23407138830E+02 -0.10367809336E+02  0.38154870051E+02  0.00000000000E+00 0.  1.
          5    1    5    5  502    0  0.19070178190E+02  0.13269331701E+03 -0.74563471713E+02  0.15346983218E+03  0.47000000000E+01 0. -1.
         11    1    4    4    0    0 -0.17799499578E+02 -0.35244878185E+02 -0.57508717004E+02  0.69758699493E+02  0.00000000000E+00 0. -1.
        -12    1    4    4    0    0 -0.74066410987E+02 -0.59629763270E+02  0.33527913908E-01  0.95087028707E+02  0.00000000000E+00 0.  1.
         -5    1    3    3    0  504 -0.16857406576E+00 -0.35951062887E+02  0.60258862559E+02  0.70325869044E+02  0.47000000000E+01 0.  1.
<mgrwt>
<rscale>  2 0.23529646E+03</rscale>
<asrwt>0</asrwt>
<pdfrwt beam="1">  1       21 0.31850705E-01 0.23534359E+03</pdfrwt>
<pdfrwt beam="2">  1       21 0.42069146E-01 0.23534359E+03</pdfrwt>
<totfact> 0.50550718E+04</totfact>
</mgrwt>
</event>
<event>
12    1  0.1410528E-001  0.2181389E+03  0.7546771E-02  0.1135389E+00
         21   -1    0    0  502  503  0.00000000000E+00  0.00000000000E+00  0.28637014759E+03  0.28637014759E+03  0.00000000000E+00 0.  1.
         21   -1    0    0  503  504 -0.00000000000E+00 -0.00000000000E+00 -0.17076443955E+03  0.17076443955E+03  0.00000000000E+00 0.  1.
         -6    2    1    2    0  504  0.12508249368E+03 -0.41555349165E+02  0.97170329388E+02  0.23880256662E+03  0.17381632731E+03 0.  0.
        -24    2    3    3    0    0  0.27359332361E+02 -0.62624145122E+01  0.10464017790E+03  0.13452746829E+03  0.79751626881E+02 0.  0.
          6    2    1    2  502    0 -0.12508249368E+03  0.41555349165E+02  0.18435378652E+02  0.21833202052E+03  0.17307955029E+03 0.  0.
         24    2    5    5    0    0 -0.75045653864E+02 -0.25707097151E+02 -0.34587572693E+02  0.11902721000E+03  0.81721915837E+02 0.  0.
          2    1    6    6  501    0  0.49107218150E+01 -0.30639003138E+02  0.17143463847E+01  0.31077366129E+02  0.00000000000E+00 0. -1.
         -1    1    6    6    0  501 -0.79956375679E+02  0.49319059871E+01 -0.36301919078E+02  0.87949843872E+02  0.00000000000E+00 0.  1.
          5    1    5    5  502    0 -0.50036839818E+02  0.67262446316E+02  0.53022951345E+02  0.99304810521E+02  0.47000000000E+01 0. -1.
         13    1    4    4    0    0 -0.22752201988E+02 -0.22362139218E+02  0.40502208315E+02  0.51557316107E+02  0.00000000000E+00 0. -1.
        -14    1    4    4    0    0  0.50111534349E+02  0.16099724706E+02  0.64137969582E+02  0.82970152179E+02  0.00000000000E+00 0.  1.
         -5    1    3    3    0  504  0.97723161321E+02 -0.35292934653E+02 -0.74698485100E+01  0.10427509833E+03  0.47000000000E+01 0.  1.
<mgrwt>
<rscale>  2 0.21799213E+03</rscale>
<asrwt>0</asrwt>
<pdfrwt beam="1">  1       21 0.44056946E-01 0.21813893E+03</pdfrwt>
<pdfrwt beam="2">  1       21 0.26271452E-01 0.21813893E+03</pdfrwt>
<totfact> 0.67410217E+04</totfact>
</mgrwt>
</event>
<event>
12    1  0.1410528E-001  0.2258994E+03  0.7546771E-02  0.1129734E+00
         21   -1    0    0  502  503  0.00000000000E+00  0.00000000000E+00  0.18829122180E+03  0.18829122180E+03  0.00000000000E+00 0.  1.
         21   -1    0    0  503  504 -0.00000000000E+00 -0.00000000000E+00 -0.35860467067E+03  0.35860467067E+03  0.00000000000E+00 0.  1.
         -6    2    1    2    0  504  0.12482529830E+03 -0.74511086826E+02 -0.22104914616E+03  0.31536913672E+03  0.17164413833E+03 0.  0.
        -24    2    3    3    0    0  0.80941798891E+02  0.15500074847E+02 -0.72423149114E+02  0.13609407503E+03  0.80527371759E+02 0.  0.
          6    2    1    2  502    0 -0.12482529830E+03  0.74511086826E+02  0.50735697293E+02  0.23152675575E+03  0.17290827190E+03 0.  0.
         24    2    5    5    0    0 -0.61008374001E+01  0.49576544268E+02  0.52614787109E+02  0.11010661736E+03  0.82825704981E+02 0.  0.
          4    1    6    6  501    0 -0.41615469175E+01  0.31705147409E+01 -0.21782091854E+02  0.22401566061E+02  0.00000000000E+00 0. -1.
         -3    1    6    6    0  501 -0.19392904826E+01  0.46406029528E+02  0.74396878963E+02  0.87705051300E+02  0.00000000000E+00 0.  1.
          5    1    5    5  502    0 -0.11872446090E+03  0.24934542557E+02 -0.18790898158E+01  0.12142013839E+03  0.47000000000E+01 0. -1.
         11    1    4    4    0    0  0.42412873297E+02 -0.15816635257E+02  0.34738219183E+01  0.45399176324E+02  0.00000000000E+00 0. -1.
        -12    1    4    4    0    0  0.38528925594E+02  0.31316710104E+02 -0.75896971032E+02  0.90694898704E+02  0.00000000000E+00 0.  1.
         -5    1    3    3    0  504  0.43883499405E+02 -0.90011161673E+02 -0.14862599705E+03  0.17927506169E+03  0.47000000000E+01 0.  1.
<mgrwt>
<rscale>  2 0.22565746E+03</rscale>
<asrwt>0</asrwt>
<pdfrwt beam="1">  1       21 0.28967881E-01 0.22589938E+03</pdfrwt>
<pdfrwt beam="2">  1       21 0.55169948E-01 0.22589938E+03</pdfrwt>
<totfact> 0.34753328E+04</totfact>
</mgrwt>
</event>
<event>
12    1  0.1410528E-001  0.2049729E+03  0.7546771E-02  0.1145778E+00
         21   -1    0    0  502  503  0.00000000000E+00  0.00000000000E+00  0.12700326818E+03  0.12700326818E+03  0.00000000000E+00 0.  1.
         21   -1    0    0  503  504 -0.00000000000E+00 -0.00000000000E+00 -0.52675531864E+03  0.52675531864E+03  0.00000000000E+00 0.  1.
         -6    2    1    2    0  504  0.79589633462E+02 -0.74909550398E+02 -0.40016315223E+03  0.44960473582E+03  0.17340103683E+03 0.  0.
        -24    2    3    3    0    0 -0.17662202372E+02 -0.12872854904E+02 -0.11472076465E+03  0.14169903956E+03  0.80250234794E+02 0.  0.
          6    2    1    2  502    0 -0.79589633462E+02  0.74909550398E+02  0.41110176919E+00  0.20415385100E+03  0.17243165423E+03 0.  0.
         24    2    5    5    0    0 -0.11309028927E+03  0.21798872309E+02 -0.53575792693E+01  0.14092090273E+03  0.81027111578E+02 0.  0.
          4    1    6    6  501    0 -0.52255051210E+02 -0.11011896478E+02 -0.36933966480E+02  0.64930502239E+02  0.00000000000E+00 0. -1.
         -3    1    6    6    0  501 -0.60835238055E+02  0.32810768788E+02  0.31576387211E+02  0.75990400492E+02  0.00000000000E+00 0.  1.
          5    1    5    5  502    0  0.33500655804E+02  0.53110678089E+02  0.57686810385E+01  0.63232948273E+02  0.47000000000E+01 0. -1.
         13    1    4    4    0    0  0.26328649504E+02  0.85901594098E+01 -0.17247443423E+02  0.32626108074E+02  0.00000000000E+00 0. -1.
        -14    1    4    4    0    0 -0.43990851876E+02 -0.21463014314E+02 -0.97473321223E+02  0.10907293148E+03  0.00000000000E+00 0.  1.
         -5    1    3    3    0  504  0.97251835833E+02 -0.62036695494E+02 -0.28544238758E+03  0.30790569626E+03  0.47000000000E+01 0.  1.
<mgrwt>
<rscale>  2 0.20476769E+03</rscale>
<asrwt>0</asrwt>
<pdfrwt beam="1">  1       21 0.19538964E-01 0.20497285E+03</pdfrwt>
<pdfrwt beam="2">  1       21 0.81039281E-01 0.20497285E+03</pdfrwt>
<totfact> 0.31986553E+04</totfact>
</mgrwt>
</event>
<event>
12    1  0.1410528E-001  0.1811002E+03  0.7546771E-02  0.1167133E+00
         21   -1    0    0  502  503  0.00000000000E+00  0.00000000000E+00  0.21744349637E+03  0.21744349637E+03  0.00000000000E+00 0.  1.
         21   -1    0    0  503  504 -0.00000000000E+00 -0.00000000000E+00 -0.25686395398E+03  0.25686395398E+03  0.00000000000E+00 0.  1.
         -6    2    1    2    0  504  0.30467356752E+02  0.41897421047E+02 -0.17299029150E+03  0.24927816655E+03  0.17184385252E+03 0.  0.
        -24    2    3    3    0    0  0.30999310109E+02  0.57830818552E+02 -0.32839251802E+02  0.10814503771E+03  0.79445402131E+02 0.  0.
          6    2    1    2  502    0 -0.30467356752E+02 -0.41897421047E+02  0.13356983390E+03  0.22502928380E+03  0.17353277593E+03 0.  0.
         24    2    5    5    0    0  0.22987473988E+01  0.35792303487E+02  0.99598779418E+02  0.13400492760E+03  0.82164654991E+02 0.  0.
          2    1    6    6  501    0  0.21656528180E+02 -0.15472544406E+02  0.62216755043E+02  0.67670742949E+02  0.00000000000E+00 0. -1.
         -1    1    6    6    0  501 -0.19357780782E+02  0.51264847894E+02  0.37382024375E+02  0.66334184646E+02  0.00000000000E+00 0.  1.
          5    1    5    5  502    0 -0.32766104150E+02 -0.77689724534E+02  0.33971054479E+02  0.91024356201E+02  0.47000000000E+01 0. -1.
         11    1    4    4    0    0 -0.82649390905E+01  0.26190580912E+01  0.20278964350E+02  0.22054593140E+02  0.00000000000E+00 0. -1.
        -12    1    4    4    0    0  0.39264249199E+02  0.55211760460E+02 -0.53118216152E+02  0.86090444565E+02  0.00000000000E+00 0.  1.
         -5    1    3    3    0  504 -0.53195335731E+00 -0.15933397505E+02 -0.14015103970E+03  0.14113312885E+03  0.47000000000E+01 0.  1.
<mgrwt>
<rscale>  2 0.18069440E+03</rscale>
<asrwt>0</asrwt>
<pdfrwt beam="1">  1       21 0.33452846E-01 0.18110019E+03</pdfrwt>
<pdfrwt beam="2">  1       21 0.39517531E-01 0.18110019E+03</pdfrwt>
<totfact> 0.53407802E+04</totfact>
</mgrwt>
</event>
<event>
12    1  0.1410528E-001  0.1824453E+03  0.7546771E-02  0.1165460E+00
         21   -1    0    0  502  503  0.00000000000E+00  0.00000000000E+00  0.18272512950E+04  0.18272512950E+04  0.00000000000E+00 0.  1.
         21   -1    0    0  503  504 -0.00000000000E+00 -0.00000000000E+00 -0.28982417568E+02  0.28982417568E+02  0.00000000000E+00 0.  1.
         -6    2    1    2    0  504 -0.20843935195E+02 -0.52263354876E+02  0.33345814234E+03  0.38010604987E+03  0.17355214939E+03 0.  0.
        -24    2    3    3    0    0  0.35244278614E+02  0.14475446893E+02  0.13199981870E+03  0.16054398222E+03  0.83058535690E+02 0.  0.
          6    2    1    2  502    0  0.20843935195E+02  0.52263354876E+02  0.14648107351E+04  0.14761276627E+04  0.17354094340E+03 0.  0.
         24    2    5    5    0    0  0.47513958785E+02  0.39851843945E+02  0.14115890577E+04  0.14151360837E+04  0.78617567254E+02 0.  0.
          2    1    6    6  501    0  0.44083829442E+02 -0.12998571808E+02  0.76645548229E+03  0.76783224289E+03  0.00000000000E+00 0. -1.
         -1    1    6    6    0  501  0.34301293429E+01  0.52850415753E+02  0.64513357543E+03  0.64730384085E+03  0.00000000000E+00 0.  1.
          5    1    5    5  502    0 -0.26670023590E+02  0.12411510931E+02  0.53221677409E+02  0.60991578993E+02  0.47000000000E+01 0. -1.
         11    1    4    4    0    0 -0.23539882977E+02  0.59319257490E+01  0.72547985939E+02  0.76501791465E+02  0.00000000000E+00 0. -1.
        -12    1    4    4    0    0  0.58784161591E+02  0.85435211442E+01  0.59451832766E+02  0.84042190754E+02  0.00000000000E+00 0.  1.
         -5    1    3    3    0  504 -0.56088213809E+02 -0.66738801770E+02  0.20145832363E+03  0.21956206765E+03  0.47000000000E+01 0.  1.
<mgrwt>
<rscale>  2 0.18244260E+03</rscale>
<asrwt>0</asrwt>
<pdfrwt beam="1">  1       21 0.28111549E+00 0.18244527E+03</pdfrwt>
<pdfrwt beam="2">  1       21 0.44588349E-02 0.18244527E+03</pdfrwt>
<totfact> 0.14463426E+04</totfact>
</mgrwt>
</event>
<event>
12    1  0.1410528E-001  0.1752093E+03  0.7546771E-02  0.1173089E+00
         21   -1    0    0  502  503  0.00000000000E+00  0.00000000000E+00  0.16760383166E+03  0.16760383166E+03  0.00000000000E+00 0.  1.
         21   -1    0    0  503  504 -0.00000000000E+00 -0.00000000000E+00 -0.11540788766E+04  0.11540788766E+04  0.00000000000E+00 0.  1.
         -6    2    1    2    0  504  0.80073631404E+01 -0.67063114585E+01 -0.11006029923E+04  0.11144618650E+04  0.17489771127E+03 0.  0.
        -24    2    3    3    0    0  0.44472448621E+02  0.50309229360E+02 -0.60196059209E+03  0.61122553122E+03  0.82044368109E+02 0.  0.
          6    2    1    2  502    0 -0.80073631404E+01  0.67063114585E+01  0.11412794738E+03  0.20722084323E+03  0.17264471327E+03 0.  0.
         24    2    5    5    0    0 -0.38611731643E+02 -0.34656770095E+01  0.17501443313E+01  0.90212478836E+02  0.81439250948E+02 0.  0.
          2    1    6    6  501    0 -0.26441786067E+02  0.35158493395E+02 -0.14871960675E+02  0.46437731668E+02  0.00000000000E+00 0. -1.
         -1    1    6    6    0  501 -0.12169945576E+02 -0.38624170404E+02  0.16622105006E+02  0.43774747168E+02  0.00000000000E+00 0.  1.
          5    1    5    5  502    0  0.30604368503E+02  0.10171988468E+02  0.11237780305E+03  0.11700836440E+03  0.47000000000E+01 0. -1.
         11    1    4    4    0    0  0.43633081837E+02  0.14958763549E+02 -0.12997182196E+03  0.13791404911E+03  0.00000000000E+00 0. -1.
        -12    1    4    4    0    0  0.83936678443E+00  0.35350465811E+02 -0.47198877013E+03  0.47331148211E+03  0.00000000000E+00 0.  1.
         -5    1    3    3    0  504 -0.36465085481E+02 -0.57015540819E+02 -0.49864240025E+03  0.50323633383E+03  0.47000000000E+01 0.  1.
<mgrwt>
<rscale>  2 0.17464435E+03</rscale>
<asrwt>0</asrwt>
<pdfrwt beam="1">  1       21 0.25785205E-01 0.17520931E+03</pdfrwt>
<pdfrwt beam="2">  1       21 0.17755060E+00 0.17520931E+03</pdfrwt>
<totfact> 0.27472696E+03</totfact>
</mgrwt>
</event>
<event>
12    1  0.1410528E-001  0.1732047E+03  0.7546771E-02  0.1174555E+00
         21   -1    0    0  502  503  0.00000000000E+00  0.00000000000E+00  0.10558072404E+03  0.10558072404E+03  0.00000000000E+00 0.  1.
         21   -1    0    0  503  504 -0.00000000000E+00 -0.00000000000E+00 -0.59422125281E+03  0.59422125281E+03  0.00000000000E+00 0.  1.
         -6    2    1    2    0  504  0.11196830331E+02  0.24392195135E+02 -0.49709165036E+03  0.52639119293E+03  0.17107668149E+03 0.  0.
        -24    2    3    3    0    0  0.18001033666E+02 -0.48385391121E+02 -0.33545384559E+03  0.34893205912E+03  0.80988369991E+02 0.  0.
          6    2    1    2  502    0 -0.11196830331E+02 -0.24392195135E+02  0.84511215881E+01  0.17341078392E+03  0.17111262470E+03 0.  0.
         24    2    5    5    0    0 -0.45767590982E+02 -0.67760119758E+02  0.61636700624E-01  0.11712234963E+03  0.83854247179E+02 0.  0.
          4    1    6    6  501    0 -0.53957004821E+02 -0.75569524270E+01  0.10467611529E+02  0.55480057591E+02  0.00000000000E+00 0. -1.
         -3    1    6    6    0  501  0.81894138389E+01 -0.60203167331E+02 -0.10405974829E+02  0.61642292040E+02  0.00000000000E+00 0.  1.
          5    1    5    5  502    0  0.34570760651E+02  0.43367924624E+02  0.83894848875E+01  0.56288434290E+02  0.47000000000E+01 0. -1.
         13    1    4    4    0    0  0.41240232656E+02 -0.34525636403E+02 -0.11654147717E+03  0.12835377774E+03  0.00000000000E+00 0. -1.
        -14    1    4    4    0    0 -0.23239198990E+02 -0.13859754718E+02 -0.21891236841E+03  0.22057828138E+03  0.00000000000E+00 0.  1.
         -5    1    3    3    0  504 -0.68042033356E+01  0.72777586255E+02 -0.16163780477E+03  0.17745913381E+03  0.47000000000E+01 0.  1.
<mgrwt>
<rscale>  2 0.17319585E+03</rscale>
<asrwt>0</asrwt>
<pdfrwt beam="1">  1       21 0.16243189E-01 0.17320473E+03</pdfrwt>
<pdfrwt beam="2">  1       21 0.91418652E-01 0.17320473E+03</pdfrwt>
<totfact> 0.34732962E+04</totfact>
</mgrwt>
</event>
<event>
12    1  0.1410528E-001  0.2194733E+03  0.7546771E-02  0.1134858E+00
         21   -1    0    0  502  503  0.00000000000E+00  0.00000000000E+00  0.29523021015E+03  0.29523021015E+03  0.00000000000E+00 0.  1.
         21   -1    0    0  503  504 -0.00000000000E+00 -0.00000000000E+00 -0.16832033127E+03  0.16832033127E+03  0.00000000000E+00 0. -1.
         -6    2    1    2    0  504 -0.11520890276E+02  0.13553016594E+03  0.15115115516E+02  0.21999313824E+03  0.17224214747E+03 0.  0.
        -24    2    3    3    0    0 -0.58228057972E+02  0.13358641820E+03  0.32966387689E+02  0.16973285982E+03  0.80539574875E+02 0.  0.
          6    2    1    2  502    0  0.11520890276E+02 -0.13553016594E+03  0.11179476336E+03  0.24355740317E+03  0.16828839156E+03 0.  0.
         24    2    5    5    0    0 -0.23827660712E+02 -0.13278603998E+02  0.67868616581E+02  0.10884823190E+03  0.80608372588E+02 0.  0.
          4    1    6    6  501    0  0.25761181417E+02 -0.12030225826E+02  0.47217320061E+02  0.55116604714E+02  0.00000000000E+00 0. -1.
         -3    1    6    6    0  501 -0.49588842129E+02 -0.12483781721E+01  0.20651296519E+02  0.53731627183E+02  0.00000000000E+00 0.  1.
          5    1    5    5  502    0  0.35348550988E+02 -0.12225156195E+03  0.43926146779E+02  0.13470917128E+03  0.47000000000E+01 0. -1.
         13    1    4    4    0    0 -0.26469716051E+01  0.39760534636E+02 -0.24183081756E+02  0.46612530680E+02  0.00000000000E+00 0. -1.
        -14    1    4    4    0    0 -0.55581086367E+02  0.93825883567E+02  0.57149469445E+02  0.12312032914E+03  0.00000000000E+00 0.  1.
         -5    1    3    3    0  504  0.46707167696E+02  0.19437477410E+01 -0.17851272172E+02  0.50260278427E+02  0.47000000000E+01 0.  1.
<mgrwt>
<rscale>  2 0.21869690E+03</rscale>
<asrwt>0</asrwt>
<pdfrwt beam="1">  1       21 0.45420032E-01 0.21947327E+03</pdfrwt>
<pdfrwt beam="2">  1       21 0.25895436E-01 0.21947327E+03</pdfrwt>
<totfact> 0.65055821E+04</totfact>
</mgrwt>
</event>
<event>
12    1  0.1410528E-001  0.1761833E+03  0.7546771E-02  0.1171741E+00
         21   -1    0    0  502  503  0.00000000000E+00  0.00000000000E+00  0.21373841601E+03  0.21373841601E+03  0.00000000000E+00 0.  1.
         21   -1    0    0  503  504 -0.00000000000E+00 -0.00000000000E+00 -0.77361935640E+03  0.77361935640E+03  0.00000000000E+00 0.  1.
         -6    2    1    2    0  504 -0.10197031055E+02 -0.29237420300E+02 -0.72498507159E+03  0.74590401131E+03  0.17265756245E+03 0.  0.
        -24    2    3    3    0    0  0.97062951788E+00 -0.34331528853E+02 -0.16549276727E+03  0.18625734136E+03  0.78258195730E+02 0.  0.
          6    2    1    2  502    0  0.10197031055E+02  0.29237420300E+02  0.16510413120E+03  0.24145376111E+03  0.17344087876E+03 0.  0.
         24    2    5    5    0    0 -0.38962962210E+02  0.34045654056E+02  0.16602318229E+03  0.19182757140E+03  0.80974694254E+02 0.  0.
          4    1    6    6  501    0  0.48716659890E+00  0.44460697244E-01  0.12636614423E+03  0.12636709111E+03  0.00000000000E+00 0. -1.
         -3    1    6    6    0  501 -0.39450128809E+02  0.34001193359E+02  0.39657038058E+02  0.65460480294E+02  0.00000000000E+00 0.  1.
          5    1    5    5  502    0  0.49159993265E+02 -0.48082337557E+01 -0.91905108986E+00  0.49626189704E+02  0.47000000000E+01 0. -1.
         11    1    4    4    0    0  0.89288896074E+01 -0.19008435188E+02 -0.11739838338E+01  0.21033875439E+02  0.00000000000E+00 0. -1.
        -12    1    4    4    0    0 -0.79582600895E+01 -0.15323093665E+02 -0.16431878343E+03  0.16522346592E+03  0.00000000000E+00 0.  1.
         -5    1    3    3    0  504 -0.11167660573E+02  0.50941085530E+01 -0.55949230432E+03  0.55964666994E+03  0.47000000000E+01 0.  1.
<mgrwt>
<rscale>  2 0.17599019E+03</rscale>
<asrwt>0</asrwt>
<pdfrwt beam="1">  1       21 0.32882833E-01 0.17618327E+03</pdfrwt>
<pdfrwt beam="2">  1       21 0.11901836E+00 0.17618327E+03</pdfrwt>
<totfact> 0.48645027E+03</totfact>
</mgrwt>
</event>
<event>
12    1  0.1410528E-001  0.2492760E+03  0.7546771E-02  0.1113772E+00
         21   -1    0    0  502  503  0.00000000000E+00  0.00000000000E+00  0.17075481602E+03  0.17075481602E+03  0.00000000000E+00 0.  1.
         21   -1    0    0  503  504 -0.00000000000E+00 -0.00000000000E+00 -0.55982629244E+03  0.55982629244E+03  0.00000000000E+00 0. -1.
         -6    2    1    2    0  504 -0.47627753112E+02  0.17357673772E+03 -0.41069164987E+03  0.48042288849E+03  0.17245646919E+03 0.  0.
        -24    2    3    3    0    0 -0.18379916008E+02  0.46367302499E+02 -0.76625147986E+02  0.12173054948E+03  0.80368932545E+02 0.  0.
          6    2    1    2  502    0  0.47627753112E+02 -0.17357673772E+03  0.21620173450E+02  0.25015821998E+03  0.17237870048E+03 0.  0.
         24    2    5    5    0    0  0.98272147231E+02 -0.13510383953E+03  0.21026031205E+02  0.18638156629E+03  0.79909523137E+02 0.  0.
          4    1    6    6  501    0  0.43502390763E+02 -0.82375602924E+02 -0.26337911143E+02  0.96808488897E+02  0.00000000000E+00 0. -1.
         -3    1    6    6    0  501  0.54769756467E+02 -0.52728236605E+02  0.47363942348E+02  0.89573077393E+02  0.00000000000E+00 0.  1.
          5    1    5    5  502    0 -0.50644394118E+02 -0.38472898186E+02  0.59414224469E+00  0.63776653687E+02  0.47000000000E+01 0. -1.
         11    1    4    4    0    0  0.35856646519E+01  0.44841698268E+02 -0.86577799949E+02  0.97567158094E+02  0.00000000000E+00 0. -1.
        -12    1    4    4    0    0 -0.21965580660E+02  0.15256042316E+01  0.99526519630E+01  0.24163391382E+02  0.00000000000E+00 0.  1.
         -5    1    3    3    0  504 -0.29247837104E+02  0.12720943522E+03 -0.33406650188E+03  0.35869233901E+03  0.47000000000E+01 0.  1.
<mgrwt>
<rscale>  2 0.24926254E+03</rscale>
<asrwt>0</asrwt>
<pdfrwt beam="1">  1       21 0.26269971E-01 0.24927599E+03</pdfrwt>
<pdfrwt beam="2">  1       21 0.86127123E-01 0.24927599E+03</pdfrwt>
<totfact> 0.15495952E+04</totfact>
</mgrwt>
</event>
<event>
12    1  0.1410528E-001  0.1905766E+03  0.7546771E-02  0.1158695E+00
         21   -1    0    0  502  503  0.00000000000E+00  0.00000000000E+00  0.14494963911E+03  0.14494963911E+03  0.00000000000E+00 0.  1.
         21   -1    0    0  503  504 -0.00000000000E+00 -0.00000000000E+00 -0.37062133482E+03  0.37062133482E+03  0.00000000000E+00 0. -1.
         -6    2    1    2    0  504 -0.42023017022E+01  0.80586707896E+02 -0.26152441925E+03  0.32165126506E+03  0.16897525742E+03 0.  0.
        -24    2    3    3    0    0  0.42834416839E+01  0.39738864883E+02 -0.26458367744E+03  0.27955609692E+03  0.80929374792E+02 0.  0.
          6    2    1    2  502    0  0.42023017022E+01 -0.80586707896E+02  0.35852723537E+02  0.19391970887E+03  0.17264865732E+03 0.  0.
         24    2    5    5    0    0  0.17645665079E+02 -0.24259542952E+02  0.84662730627E+02  0.11803835199E+03  0.76585766719E+02 0.  0.
          2    1    6    6  501    0 -0.26451026974E+02 -0.15052160905E+02  0.58503663751E+02  0.65946213297E+02  0.00000000000E+00 0. -1.
         -1    1    6    6    0  501  0.44096692053E+02 -0.92073820469E+01  0.26159066876E+02  0.52092138697E+02  0.00000000000E+00 0.  1.
          5    1    5    5  502    0 -0.13443363377E+02 -0.56327164943E+02 -0.48810007090E+02  0.75881356877E+02  0.47000000000E+01 0. -1.
         11    1    4    4    0    0  0.41936084157E+02  0.28982661177E+02 -0.14228093474E+03  0.15113733554E+03  0.00000000000E+00 0. -1.
        -12    1    4    4    0    0 -0.37652642474E+02  0.10756203705E+02 -0.12230274270E+03  0.12841876139E+03  0.00000000000E+00 0.  1.
         -5    1    3    3    0  504 -0.84857433861E+01  0.40847843013E+02  0.30592581883E+01  0.42095168135E+02  0.47000000000E+01 0.  1.
<mgrwt>
<rscale>  2 0.18974076E+03</rscale>
<asrwt>0</asrwt>
<pdfrwt beam="1">  1       21 0.22299944E-01 0.19057659E+03</pdfrwt>
<pdfrwt beam="2">  1       21 0.57018667E-01 0.19057659E+03</pdfrwt>
<totfact> 0.54424082E+04</totfact>
</mgrwt>
</event>
<event>
12    1  0.1410528E-001  0.2129960E+03  0.7546771E-02  0.1140225E+00
         21   -1    0    0  502  503  0.00000000000E+00  0.00000000000E+00  0.11163536186E+03  0.11163536186E+03  0.00000000000E+00 0.  1.
         21   -1    0    0  503  504 -0.00000000000E+00 -0.00000000000E+00 -0.48599005696E+03  0.48599005696E+03  0.00000000000E+00 0.  1.
         -6    2    1    2    0  504  0.11539192081E+03  0.38436071794E+02 -0.31713615379E+03  0.38202439359E+03  0.17485614159E+03 0.  0.
        -24    2    3    3    0    0 -0.88466713579E+00  0.38817965242E+02 -0.19191085000E+03  0.21107452533E+03  0.78835676159E+02 0.  0.
          6    2    1    2  502    0 -0.11539192081E+03 -0.38436071794E+02 -0.57218541304E+02  0.21560102523E+03  0.16857405971E+03 0.  0.
         24    2    5    5    0    0 -0.11014308761E+03 -0.56323374623E+02  0.80039089025E+01  0.14760423219E+03  0.80119439124E+02 0.  0.
          4    1    6    6  501    0 -0.36830270772E+02  0.37582181511E+01  0.32981032360E+02  0.49581665405E+02  0.00000000000E+00 0. -1.
         -3    1    6    6    0  501 -0.73312816842E+02 -0.60081592774E+02 -0.24977123457E+02  0.98022566788E+02  0.00000000000E+00 0.  1.
          5    1    5    5  502    0 -0.52488331951E+01  0.17887302829E+02 -0.65222450206E+02  0.67996793037E+02  0.47000000000E+01 0. -1.
         11    1    4    4    0    0 -0.18734223949E+01 -0.23301728268E+02 -0.32916859671E+02  0.40373257267E+02  0.00000000000E+00 0. -1.
        -12    1    4    4    0    0  0.98875525907E+00  0.62119693510E+02 -0.15899399033E+03  0.17070126806E+03  0.00000000000E+00 0.  1.
         -5    1    3    3    0  504  0.11627658794E+03 -0.38189344763E+00 -0.12522530380E+03  0.17094986826E+03  0.47000000000E+01 0.  1.
<mgrwt>
<rscale>  2 0.21170271E+03</rscale>
<asrwt>0</asrwt>
<pdfrwt beam="1">  1       21 0.17174671E-01 0.21299600E+03</pdfrwt>
<pdfrwt beam="2">  1       21 0.74767702E-01 0.21299600E+03</pdfrwt>
<totfact> 0.48525445E+04</totfact>
</mgrwt>
</event>
<event>
12    1  0.1410528E-001  0.1842856E+03  0.7546771E-02  0.1164217E+00
         21   -1    0    0  502  503  0.00000000000E+00  0.00000000000E+00  0.10403720084E+03  0.10403720084E+03  0.00000000000E+00 0.  1.
         21   -1    0    0  503  504 -0.00000000000E+00 -0.00000000000E+00 -0.36920529538E+03  0.36920529538E+03  0.00000000000E+00 0.  1.
         -6    2    1    2    0  504 -0.42321661907E+02 -0.48548248133E+02 -0.47943423434E+02  0.18837807763E+03  0.17041030725E+03 0.  0.
        -24    2    3    3    0    0 -0.14329595410E+02  0.99705340681E+01 -0.81489798093E+02  0.11519711760E+03  0.79530119180E+02 0.  0.
          6    2    1    2  502    0  0.42321661907E+02  0.48548248133E+02 -0.21722467110E+03  0.28486441859E+03  0.17266477284E+03 0.  0.
         24    2    5    5    0    0  0.62501984789E+02  0.59640606978E+01 -0.21427993791E+03  0.23741528894E+03  0.80672544941E+02 0.  0.
          4    1    6    6  501    0  0.30923074332E+02 -0.31393296228E+02 -0.15178868248E+03  0.15805562218E+03  0.00000000000E+00 0. -1.
         -3    1    6    6    0  501  0.31578910457E+02  0.37357356926E+02 -0.62491255431E+02  0.79359666755E+02  0.00000000000E+00 0.  1.
          5    1    5    5  502    0 -0.20180322882E+02  0.42584187435E+02 -0.29447331877E+01  0.47449129652E+02  0.47000000000E+01 0. -1.
         11    1    4    4    0    0  0.12683798335E+02  0.39055221708E+02 -0.34073888680E+02  0.53359338195E+02  0.00000000000E+00 0. -1.
        -12    1    4    4    0    0 -0.27013393744E+02 -0.29084687640E+02 -0.47415909413E+02  0.61837779408E+02  0.00000000000E+00 0.  1.
         -5    1    3    3    0  504 -0.27992066497E+02 -0.58518782201E+02  0.33546374659E+02  0.73180960023E+02  0.47000000000E+01 0.  1.
<mgrwt>
<rscale>  2 0.18375566E+03</rscale>
<asrwt>0</asrwt>
<pdfrwt beam="1">  1       21 0.16005723E-01 0.18428559E+03</pdfrwt>
<pdfrwt beam="2">  1       21 0.56800815E-01 0.18428559E+03</pdfrwt>
<totfact> 0.10183086E+05</totfact>
</mgrwt>
</event>
<event>
12    1  0.1410528E-001  0.1827775E+03  0.7546771E-02  0.1166064E+00
         21   -1    0    0  502  503  0.00000000000E+00  0.00000000000E+00  0.81164818767E+02  0.81164818767E+02  0.00000000000E+00 0. -1.
         21   -1    0    0  503  504 -0.00000000000E+00 -0.00000000000E+00 -0.42304666076E+03  0.42304666076E+03  0.00000000000E+00 0. -1.
         -6    2    1    2    0  504 -0.57193618708E+02 -0.92580887638E+01 -0.22756497465E+03  0.29187916059E+03  0.17335167858E+03 0.  0.
        -24    2    3    3    0    0 -0.59141180209E+02  0.27674927908E+02 -0.23250167110E+03  0.25427195798E+03  0.79584048145E+02 0.  0.
          6    2    1    2  502    0  0.57193618708E+02  0.92580887638E+01 -0.11431686734E+03  0.21233231894E+03  0.16929218907E+03 0.  0.
         24    2    5    5    0    0  0.33309696886E+02 -0.15042782643E+02 -0.15835891103E+02  0.10801757045E+03  0.10040517348E+03 0.  0.
          4    1    6    6  501    0  0.63932429041E+00 -0.54657338777E+02 -0.14022392615E+01  0.54679060825E+02  0.00000000000E+00 0. -1.
         -3    1    6    6    0  501  0.32670372595E+02  0.39614556134E+02 -0.14433651842E+02  0.53338509622E+02  0.00000000000E+00 0.  1.
          5    1    5    5  502    0  0.23883921822E+02  0.24300871407E+02 -0.98480976241E+02  0.10431474850E+03  0.47000000000E+01 0. -1.
         11    1    4    4    0    0 -0.11411074627E+02  0.35789590706E+02 -0.36492044772E+02  0.52371526220E+02  0.00000000000E+00 0. -1.
        -12    1    4    4    0    0 -0.47730105582E+02 -0.81146627974E+01 -0.19600962633E+03  0.20190043176E+03  0.00000000000E+00 0.  1.
         -5    1    3    3    0  504  0.19475615011E+01 -0.36933016672E+02  0.49366964456E+01  0.37607202609E+02  0.47000000000E+01 0.  1.
<mgrwt>
<rscale>  2 0.18180848E+03</rscale>
<asrwt>0</asrwt>
<pdfrwt beam="1">  1       21 0.12486895E-01 0.18277753E+03</pdfrwt>
<pdfrwt beam="2">  1       21 0.65084101E-01 0.18277753E+03</pdfrwt>
<totfact> 0.11919003E+05</totfact>
</mgrwt>
</event>
<event>
12    1  0.1410528E-001  0.4785203E+03  0.7546771E-02  0.1019617E+00
         21   -1    0    0  502  503  0.00000000000E+00  0.00000000000E+00  0.14259022034E+04  0.14259022034E+04  0.00000000000E+00 0.  1.
         21   -1    0    0  503  504 -0.00000000000E+00 -0.00000000000E+00 -0.16266711592E+03  0.16266711592E+03  0.00000000000E+00 0. -1.
         -6    2    1    2    0  504 -0.36246751521E+03 -0.25922825663E+03  0.53503705830E+03  0.71780662632E+03  0.17435512728E+03 0.  0.
        -24    2    3    3    0    0 -0.12374711410E+03 -0.15802981403E+03  0.20297907447E+03  0.29648353258E+03  0.80095006376E+02 0.  0.
          6    2    1    2  502    0  0.36246751521E+03  0.25922825663E+03  0.72819802918E+03  0.87076269301E+03  0.17138643242E+03 0.  0.
         24    2    5    5    0    0  0.11331650757E+03  0.53733902853E+02  0.29551709923E+03  0.33081914857E+03  0.79893616256E+02 0.  0.
          4    1    6    6  501    0  0.71665437604E+02  0.67428809668E+02  0.24445398555E+03  0.26351533233E+03  0.00000000000E+00 0. -1.
         -3    1    6    6    0  501  0.41651069963E+02 -0.13694906815E+02  0.51063113677E+02  0.67303816238E+02  0.00000000000E+00 0.  1.
          5    1    5    5  502    0  0.24915100764E+03  0.20549435377E+03  0.43268092995E+03  0.53994354445E+03  0.47000000000E+01 0. -1.
         11    1    4    4    0    0 -0.38019063555E+02 -0.33987856692E+02  0.10654076693E+02  0.52097341067E+02  0.00000000000E+00 0. -1.
        -12    1    4    4    0    0 -0.85728050541E+02 -0.12404195734E+03  0.19232499778E+03  0.24438619151E+03  0.00000000000E+00 0.  1.
         -5    1    3    3    0  504 -0.23872040112E+03 -0.10119844260E+03  0.33205798383E+03  0.42132309374E+03  0.47000000000E+01 0.  1.
<mgrwt>
<rscale>  2 0.47825168E+03</rscale>
<asrwt>0</asrwt>
<pdfrwt beam="1">  1       21 0.21936956E+00 0.47852032E+03</pdfrwt>
<pdfrwt beam="2">  1       21 0.25025711E-01 0.47852032E+03</pdfrwt>
<totfact> 0.12626196E+03</totfact>
</mgrwt>
</event>
<event>
12    1  0.1410528E-001  0.1786893E+03  0.7546771E-02  0.1169612E+00
         21   -1    0    0  502  503  0.00000000000E+00  0.00000000000E+00  0.22391657425E+02  0.22391657425E+02  0.00000000000E+00 0.  1.
         21   -1    0    0  503  504 -0.00000000000E+00 -0.00000000000E+00 -0.15813560988E+04  0.15813560988E+04  0.00000000000E+00 0.  1.
         -6    2    1    2    0  504 -0.37607244001E+02 -0.20393218838E+02 -0.10402098700E+04  0.10550801113E+04  0.17125209299E+03 0.  0.
        -24    2    3    3    0    0 -0.29008214389E+02 -0.45393056887E+02 -0.29722129916E+03  0.31160647917E+03  0.76525100921E+02 0.  0.
          6    2    1    2  502    0  0.37607244001E+02  0.20393218838E+02 -0.51875457141E+03  0.54866764500E+03  0.17349262559E+03 0.  0.
         24    2    5    5    0    0  0.10448711294E+02  0.27835043653E+02 -0.11403950737E+03  0.14294687930E+03  0.80900159697E+02 0.  0.
          4    1    6    6  501    0  0.36683490899E+02 -0.92122367857E-01 -0.91291522008E+02  0.98386121896E+02  0.00000000000E+00 0. -1.
         -3    1    6    6    0  501 -0.26234779605E+02  0.27927166020E+02 -0.22747985361E+02  0.44560757408E+02  0.00000000000E+00 0.  1.
          5    1    5    5  502    0  0.27158532707E+02 -0.74418248143E+01 -0.40471506404E+03  0.40572076570E+03  0.47000000000E+01 0. -1.
         11    1    4    4    0    0 -0.51006799315E+02 -0.14022028277E+02 -0.13676584575E+03  0.14663971978E+03  0.00000000000E+00 0. -1.
        -12    1    4    4    0    0  0.21998584926E+02 -0.31371028611E+02 -0.16045545341E+03  0.16496675939E+03  0.00000000000E+00 0.  1.
         -5    1    3    3    0  504 -0.85990296116E+01  0.24999838049E+02 -0.74298857084E+03  0.74347363209E+03  0.47000000000E+01 0.  1.
<mgrwt>
<rscale>  2 0.17814320E+03</rscale>
<asrwt>0</asrwt>
<pdfrwt beam="1">  1       21 0.34448685E-02 0.17868934E+03</pdfrwt>
<pdfrwt beam="2">  1       21 0.24328568E+00 0.17868934E+03</pdfrwt>
<totfact> 0.37051845E+04</totfact>
</mgrwt>
</event>
<event>
12    1  0.1410528E-001  0.2380569E+03  0.7546771E-02  0.1121348E+00
         21   -1    0    0  502  503  0.00000000000E+00  0.00000000000E+00  0.20970901060E+03  0.20970901060E+03  0.00000000000E+00 0. -1.
         21   -1    0    0  503  504 -0.00000000000E+00 -0.00000000000E+00 -0.31077344025E+03  0.31077344025E+03  0.00000000000E+00 0.  1.
         -6    2    1    2    0  504 -0.11062778518E+03 -0.12109776050E+03 -0.14661401140E+03  0.27958315690E+03  0.17253376143E+03 0.  0.
        -24    2    3    3    0    0 -0.47129111672E+02 -0.44937840855E+02 -0.14701504847E+03  0.18031248788E+03  0.81600282484E+02 0.  0.
          6    2    1    2  502    0  0.11062778518E+03  0.12109776050E+03  0.45549581749E+02  0.24089929394E+03  0.17045389692E+03 0.  0.
         24    2    5    5    0    0  0.63133515923E+02  0.14495728115E+03  0.11919533050E+02  0.17782748952E+03  0.80511406457E+02 0.  0.
          4    1    6    6  501    0  0.77077724894E+02  0.94102102166E+02  0.23375408386E+02  0.12386521313E+03  0.00000000000E+00 0. -1.
         -3    1    6    6    0  501 -0.13944208971E+02  0.50855178986E+02 -0.11455875336E+02  0.53962276391E+02  0.00000000000E+00 0.  1.
          5    1    5    5  502    0  0.47494269253E+02 -0.23859520650E+02  0.33630048700E+02  0.63071804422E+02  0.47000000000E+01 0. -1.
         13    1    4    4    0    0  0.20380619601E+02 -0.10659192547E+02 -0.13082301373E+02  0.26460057639E+02  0.00000000000E+00 0. -1.
        -14    1    4    4    0    0 -0.67509731272E+02 -0.34278648309E+02 -0.13393274709E+03  0.15385243024E+03  0.00000000000E+00 0.  1.
         -5    1    3    3    0  504 -0.63498673505E+02 -0.76159919646E+02  0.40103706956E+00  0.99270669022E+02  0.47000000000E+01 0.  1.
<mgrwt>
<rscale>  2 0.23768021E+03</rscale>
<asrwt>0</asrwt>
<pdfrwt beam="1">  1       21 0.32262925E-01 0.23805687E+03</pdfrwt>
<pdfrwt beam="2">  1       21 0.47811298E-01 0.23805687E+03</pdfrwt>
<totfact> 0.37805138E+04</totfact>
</mgrwt>
</event>
<event>
12    1  0.1410528E-001  0.1909040E+03  0.7546771E-02  0.1157700E+00
         21   -1    0    0  502  503  0.00000000000E+00  0.00000000000E+00  0.83012964101E+02  0.83012964101E+02  0.00000000000E+00 0.  1.
         21   -1    0    0  503  504 -0.00000000000E+00 -0.00000000000E+00 -0.93279297069E+03  0.93279297069E+03  0.00000000000E+00 0.  1.
         -6    2    1    2    0  504 -0.19230293477E+01 -0.79873363816E+02 -0.79473651784E+03  0.81734354867E+03  0.17338077018E+03 0.  0.
        -24    2    3    3    0    0 -0.40599877054E+02 -0.97979828883E+02 -0.71038655139E+03  0.72268231338E+03  0.79826541898E+02 0.  0.
          6    2    1    2  502    0  0.19230293477E+01  0.79873363816E+02 -0.55043488748E+02  0.19846238612E+03  0.17313024220E+03 0.  0.
         24    2    5    5    0    0 -0.30911274131E+02  0.11429121933E+03 -0.34468857118E+02  0.14642311509E+03  0.78953383951E+02 0.  0.
          4    1    6    6  501    0  0.12613377204E+02  0.62661810845E+02  0.11213400421E+02  0.64894839331E+02  0.00000000000E+00 0. -1.
         -3    1    6    6    0  501 -0.43524651335E+02  0.51629408485E+02 -0.45682257539E+02  0.81528275759E+02  0.00000000000E+00 0.  1.
          5    1    5    5  502    0  0.32834303479E+02 -0.34417855514E+02 -0.20574631630E+02  0.52039271035E+02  0.47000000000E+01 0. -1.
         11    1    4    4    0    0  0.70551748605E+01  0.57280774986E+01 -0.17643803704E+03  0.17667191989E+03  0.00000000000E+00 0. -1.
        -12    1    4    4    0    0 -0.47655051915E+02 -0.10370790638E+03 -0.53394851435E+03  0.54601039349E+03  0.00000000000E+00 0.  1.
         -5    1    3    3    0  504  0.38676847706E+02  0.18106465067E+02 -0.84349966449E+02  0.94661235284E+02  0.47000000000E+01 0.  1.
<mgrwt>
<rscale>  2 0.19084712E+03</rscale>
<asrwt>0</asrwt>
<pdfrwt beam="1">  1       21 0.12771224E-01 0.19090402E+03</pdfrwt>
<pdfrwt beam="2">  1       21 0.14350662E+00 0.19090402E+03</pdfrwt>
<totfact> 0.17633586E+04</totfact>
</mgrwt>
</event>
<event>
12    1  0.1410528E-001  0.1905344E+03  0.7546771E-02  0.1158361E+00
         21   -1    0    0  502  503  0.00000000000E+00  0.00000000000E+00  0.33470040493E+03  0.33470040493E+03  0.00000000000E+00 0.  1.
         21   -1    0    0  503  504 -0.00000000000E+00 -0.00000000000E+00 -0.36026892160E+03  0.36026892160E+03  0.00000000000E+00 0. -1.
         -6    2    1    2    0  504  0.96992444796E+01  0.75030100099E+02 -0.30382362580E+03  0.35773161921E+03  0.17303041503E+03 0.  0.
        -24    2    3    3    0    0 -0.36270180119E+02  0.80391879606E+01 -0.23503298808E+03  0.25117078145E+03  0.80412072845E+02 0.  0.
          6    2    1    2  502    0 -0.96992444796E+01 -0.75030100099E+02  0.27825510913E+03  0.33723770732E+03  0.17487073574E+03 0.  0.
         24    2    5    5    0    0  0.42561711931E+02  0.97965576796E+00  0.18427537499E+03  0.20546908063E+03  0.80297386122E+02 0.  0.
          2    1    6    6  501    0  0.41882669909E+02  0.36181731551E+02  0.10395311105E+03  0.11776894767E+03  0.00000000000E+00 0. -1.
         -1    1    6    6    0  501  0.67904202240E+00 -0.35202075783E+02  0.80322263934E+02  0.87700132959E+02  0.00000000000E+00 0.  1.
          5    1    5    5  502    0 -0.52260956411E+02 -0.76009755867E+02  0.93979734137E+02  0.13176862669E+03  0.47000000000E+01 0. -1.
         13    1    4    4    0    0 -0.45660934969E+02  0.26745336948E+02 -0.21756643609E+03  0.22390933019E+03  0.00000000000E+00 0. -1.
        -14    1    4    4    0    0  0.93907548506E+01 -0.18706148988E+02 -0.17466551987E+02  0.27261451262E+02  0.00000000000E+00 0.  1.
         -5    1    3    3    0  504  0.45969424598E+02  0.66990912139E+02 -0.68790637721E+02  0.10656083776E+03  0.47000000000E+01 0.  1.
<mgrwt>
<rscale>  2 0.19011111E+03</rscale>
<asrwt>0</asrwt>
<pdfrwt beam="1">  1       21 0.51492370E-01 0.19053442E+03</pdfrwt>
<pdfrwt beam="2">  1       21 0.55425988E-01 0.19053442E+03</pdfrwt>
<totfact> 0.11011861E+04</totfact>
</mgrwt>
</event>
<event>
12    1  0.1410528E-001  0.2395116E+03  0.7546771E-02  0.1120234E+00
         21   -1    0    0  502  503  0.00000000000E+00  0.00000000000E+00  0.10110571789E+03  0.10110571789E+03  0.00000000000E+00 0. -1.
         21   -1    0    0  503  504 -0.00000000000E+00 -0.00000000000E+00 -0.63045023208E+03  0.63045023208E+03  0.00000000000E+00 0. -1.
         -6    2    1    2    0  504 -0.15941965834E+03  0.43964288445E+02 -0.38150989396E+03  0.45009391055E+03  0.17229986360E+03 0.  0.
        -24    2    3    3    0    0 -0.17228619249E+03  0.53890991241E+02 -0.38475066193E+03  0.43286951777E+03  0.82195964026E+02 0.  0.
          6    2    1    2  502    0  0.15941965834E+03 -0.43964288445E+02 -0.14783462023E+03  0.28146203942E+03  0.17325795385E+03 0.  0.
         24    2    5    5    0    0  0.11906970980E+03 -0.85957097370E+02 -0.14677988164E+03  0.22302646103E+03  0.81426348832E+02 0.  0.
          4    1    6    6  501    0  0.10787523753E+03 -0.35695068524E+02 -0.81263840460E+02  0.13969615799E+03  0.00000000000E+00 0. -1.
         -3    1    6    6    0  501  0.11194472266E+02 -0.50262028847E+02 -0.65516041177E+02  0.83330303039E+02  0.00000000000E+00 0.  1.
          5    1    5    5  502    0  0.40349948537E+02  0.41992808926E+02 -0.10547385925E+01  0.58435578391E+02  0.47000000000E+01 0. -1.
         13    1    4    4    0    0 -0.21299085867E+02  0.17654848878E+01 -0.13310291368E+03  0.13480783963E+03  0.00000000000E+00 0. -1.
        -14    1    4    4    0    0 -0.15098710662E+03  0.52125506353E+02 -0.25164774826E+03  0.29806167815E+03  0.00000000000E+00 0.  1.
         -5    1    3    3    0  504  0.12866534148E+02 -0.99267027957E+01  0.32407679694E+01  0.17224392773E+02  0.47000000000E+01 0.  1.
<mgrwt>
<rscale>  2 0.23933837E+03</rscale>
<asrwt>0</asrwt>
<pdfrwt beam="1">  1       21 0.15554726E-01 0.23951160E+03</pdfrwt>
<pdfrwt beam="2">  1       21 0.96992344E-01 0.23951160E+03</pdfrwt>
<totfact> 0.31605861E+04</totfact>
</mgrwt>
</event>
<event>
12    1  0.1410528E-001  0.1948127E+03  0.7546771E-02  0.1154861E+00
         21   -1    0    0  502  503  0.00000000000E+00  0.00000000000E+00  0.53679994172E+03  0.53679994172E+03  0.00000000000E+00 0.  1.
         21   -1    0    0  503  504 -0.00000000000E+00 -0.00000000000E+00 -0.15242939698E+03  0.15242939698E+03  0.00000000000E+00 0. -1.
         -6    2    1    2    0  504  0.58788768253E+02  0.68509445878E+02 -0.62536407757E+02  0.20170724043E+03  0.16919026302E+03 0.  0.
        -24    2    3    3    0    0  0.92868708656E+02  0.86022456461E+02 -0.36719789272E+02  0.15526657218E+03  0.82066469709E+02 0.  0.
          6    2    1    2  502    0 -0.58788768253E+02 -0.68509445878E+02  0.44690695250E+03  0.48752209826E+03  0.17263345172E+03 0.  0.
         24    2    5    5    0    0 -0.78040709276E+02 -0.56071505347E+02  0.22446444762E+03  0.26385248125E+03  0.99997387960E+02 0.  0.
          4    1    6    6  501    0 -0.82827056948E+02 -0.24012130485E+02  0.86547951349E+02  0.12217795078E+03  0.00000000000E+00 0. -1.
         -3    1    6    6    0  501  0.47863476715E+01 -0.32059374863E+02  0.13791649627E+03  0.14167453047E+03  0.00000000000E+00 0.  1.
          5    1    5    5  502    0  0.19251941023E+02 -0.12437940530E+02  0.22244250488E+03  0.22366961701E+03  0.47000000000E+01 0. -1.
         13    1    4    4    0    0  0.10532617231E+02  0.39519471153E+02 -0.44434355552E+02  0.60391527380E+02  0.00000000000E+00 0. -1.
        -14    1    4    4    0    0  0.82336091425E+02  0.46502985308E+02  0.77145662794E+01  0.94875044804E+02  0.00000000000E+00 0.  1.
         -5    1    3    3    0  504 -0.34079940403E+02 -0.17513010583E+02 -0.25816618485E+02  0.46440668250E+02  0.47000000000E+01 0.  1.
<mgrwt>
<rscale>  2 0.19404702E+03</rscale>
<asrwt>0</asrwt>
<pdfrwt beam="1">  1       21 0.82584606E-01 0.19481266E+03</pdfrwt>
<pdfrwt beam="2">  1       21 0.23450677E-01 0.19481266E+03</pdfrwt>
<totfact> 0.21865178E+04</totfact>
</mgrwt>
</event>
<event>
12    1  0.1410528E-001  0.1774648E+03  0.7546771E-02  0.1171069E+00
         21   -1    0    0  502  503  0.00000000000E+00  0.00000000000E+00  0.28087876609E+03  0.28087876609E+03  0.00000000000E+00 0. -1.
         21   -1    0    0  503  504 -0.00000000000E+00 -0.00000000000E+00 -0.11013032174E+03  0.11013032174E+03  0.00000000000E+00 0. -1.
         -6    2    1    2    0  504  0.58952163258E+01 -0.20280844318E+02  0.84799958886E+02  0.19382666042E+03  0.17300773115E+03 0.  0.
        -24    2    3    3    0    0 -0.13757715254E+02 -0.33983642973E+02 -0.19932523933E+02  0.86286029173E+02  0.75523576460E+02 0.  0.
          6    2    1    2  502    0 -0.58952163258E+01  0.20280844318E+02  0.85948485470E+02  0.19718242741E+03  0.17620357915E+03 0.  0.
         24    2    5    5    0    0 -0.32327507919E+02  0.18430641656E+02 -0.13391005734E+02  0.94262488619E+02  0.85564837438E+02 0.  0.
          2    1    6    6  501    0 -0.55660895367E+02  0.33895030217E+02 -0.69529869854E+01  0.65538937850E+02  0.00000000000E+00 0. -1.
         -1    1    6    6    0  501  0.23333387448E+02 -0.15464388561E+02 -0.64380187489E+01  0.28723550769E+02  0.00000000000E+00 0.  1.
          5    1    5    5  502    0  0.26432291593E+02  0.18502026620E+01  0.99339491205E+02  0.10291993879E+03  0.47000000000E+01 0. -1.
         13    1    4    4    0    0 -0.26514925949E+02  0.15305021215E+02 -0.17613792406E+02  0.35320399989E+02  0.00000000000E+00 0. -1.
        -14    1    4    4    0    0  0.12757210695E+02 -0.49288664189E+02 -0.23187315269E+01  0.50965629184E+02  0.00000000000E+00 0.  1.
         -5    1    3    3    0  504  0.19652931580E+02  0.13702798655E+02  0.10473248282E+03  0.10754063124E+03  0.47000000000E+01 0.  1.
<mgrwt>
<rscale>  2 0.17666628E+03</rscale>
<asrwt>0</asrwt>
<pdfrwt beam="1">  1       21 0.43212118E-01 0.17746483E+03</pdfrwt>
<pdfrwt beam="2">  1       21 0.16943127E-01 0.17746483E+03</pdfrwt>
<totfact> 0.16239474E+05</totfact>
</mgrwt>
</event>
<event>
12    1  0.1410528E-001  0.1916945E+03  0.7546771E-02  0.1156961E+00
         21   -1    0    0  502  503  0.00000000000E+00  0.00000000000E+00  0.16242639059E+03  0.16242639059E+03  0.00000000000E+00 0.  1.
         21   -1    0    0  503  504 -0.00000000000E+00 -0.00000000000E+00 -0.42548964596E+03  0.42548964596E+03  0.00000000000E+00 0.  1.
         -6    2    1    2    0  504  0.79516994095E+02 -0.25537009692E+02 -0.33276025048E+03  0.38402626993E+03  0.17254477819E+03 0.  0.
        -24    2    3    3    0    0 -0.22499143417E+02 -0.14120219221E+02 -0.11418643836E+03  0.14250145389E+03  0.81009441487E+02 0.  0.
          6    2    1    2  502    0 -0.79516994095E+02  0.25537009692E+02  0.69696995115E+02  0.20388976662E+03  0.17244788949E+03 0.  0.
         24    2    5    5    0    0 -0.52494863603E+02 -0.49476310511E+02  0.57119015738E+02  0.12303502459E+03  0.81678756783E+02 0.  0.
          2    1    6    6  501    0  0.10759182442E+02 -0.36405801576E+02  0.18195694570E+01  0.38005963061E+02  0.00000000000E+00 0. -1.
         -1    1    6    6    0  501 -0.63254046045E+02 -0.13070508935E+02  0.55299446281E+02  0.85029061525E+02  0.00000000000E+00 0.  1.
          5    1    5    5  502    0 -0.27022130492E+02  0.75013320204E+02  0.12577979377E+02  0.80854742035E+02  0.47000000000E+01 0. -1.
         11    1    4    4    0    0 -0.28492577275E+02 -0.12889406408E+02 -0.32996702572E+01  0.31446010575E+02  0.00000000000E+00 0. -1.
        -12    1    4    4    0    0  0.59934338574E+01 -0.12308128129E+01 -0.11088676810E+03  0.11105544331E+03  0.00000000000E+00 0.  1.
         -5    1    3    3    0  504  0.10201613751E+03 -0.11416790472E+02 -0.21857381212E+03  0.24152481604E+03  0.47000000000E+01 0.  1.
<mgrwt>
<rscale>  2 0.19167272E+03</rscale>
<asrwt>0</asrwt>
<pdfrwt beam="1">  1       21 0.24988676E-01 0.19169453E+03</pdfrwt>
<pdfrwt beam="2">  1       21 0.65459945E-01 0.19169453E+03</pdfrwt>
<totfact> 0.32555399E+04</totfact>
</mgrwt>
</event>
<event>
12    1  0.1410528E-001  0.1812819E+03  0.7546771E-02  0.1166945E+00
         21   -1    0    0  502  503  0.00000000000E+00  0.00000000000E+00  0.22420895050E+03  0.22420895050E+03  0.00000000000E+00 0. -1.
         21   -1    0    0  503  504 -0.00000000000E+00 -0.00000000000E+00 -0.15816744354E+03  0.15816744354E+03  0.00000000000E+00 0. -1.
         -6    2    1    2    0  504  0.31903442624E+00 -0.52161317662E+02 -0.21353595792E+02  0.18253521883E+03  0.17361516414E+03 0.  0.
        -24    2    3    3    0    0  0.10481632054E+02  0.75933789480E+01 -0.68736995450E+02  0.10545617680E+03  0.78922155748E+02 0.  0.
          6    2    1    2  502    0 -0.31903442624E+00  0.52161317662E+02  0.87395102758E+02  0.19984117520E+03  0.17198164576E+03 0.  0.
         24    2    5    5    0    0 -0.21154017082E+02 -0.25955988156E+02  0.89124919327E+01  0.87066975263E+02  0.79875026817E+02 0.  0.
          4    1    6    6  501    0 -0.48493639136E+02 -0.26259622614E+02  0.18385461169E+02  0.58131110422E+02  0.00000000000E+00 0. -1.
         -3    1    6    6    0  501  0.27339622054E+02  0.30363445787E+00 -0.94729692362E+01  0.28935864841E+02  0.00000000000E+00 0.  1.
          5    1    5    5  502    0  0.20834982655E+02  0.78117305818E+02  0.78482610826E+02  0.11277419994E+03  0.47000000000E+01 0. -1.
         13    1    4    4    0    0 -0.14172667621E+02  0.92840188820E+01 -0.77428170327E+02  0.79260198550E+02  0.00000000000E+00 0. -1.
        -14    1    4    4    0    0  0.24654299674E+02 -0.16906399339E+01  0.86911748768E+01  0.26195978252E+02  0.00000000000E+00 0.  1.
         -5    1    3    3    0  504 -0.10162597627E+02 -0.59754696610E+02  0.47383399658E+02  0.77079042032E+02  0.47000000000E+01 0.  1.
<mgrwt>
<rscale>  2 0.18088968E+03</rscale>
<asrwt>0</asrwt>
<pdfrwt beam="1">  1       21 0.34493685E-01 0.18128191E+03</pdfrwt>
<pdfrwt beam="2">  1       21 0.24333453E-01 0.18128191E+03</pdfrwt>
<totfact> 0.12967733E+05</totfact>
</mgrwt>
</event>
<event>
12    1  0.1410528E-001  0.1760732E+03  0.7546771E-02  0.1171811E+00
         21   -1    0    0  502  503  0.00000000000E+00  0.00000000000E+00  0.45011679255E+03  0.45011679255E+03  0.00000000000E+00 0.  1.
         21   -1    0    0  503  504 -0.00000000000E+00 -0.00000000000E+00 -0.11175491079E+03  0.11175491079E+03  0.00000000000E+00 0.  1.
         -6    2    1    2    0  504  0.94127185054E+01  0.29692465163E+02 -0.51439578745E+01  0.17614831591E+03  0.17329606787E+03 0.  0.
        -24    2    3    3    0    0  0.24851773629E+02 -0.29421438083E+02  0.41457306823E+02  0.99163993799E+02  0.81434376683E+02 0.  0.
          6    2    1    2  502    0 -0.94127185054E+01 -0.29692465163E+02  0.34350583963E+03  0.38572338743E+03  0.17267318261E+03 0.  0.
         24    2    5    5    0    0 -0.85016355355E+01  0.49191440310E+02  0.15764722427E+03  0.18376048114E+03  0.80144815809E+02 0.  0.
          2    1    6    6  501    0  0.15066326930E+02  0.57590003443E+02  0.14269366166E+03  0.15461268959E+03  0.00000000000E+00 0. -1.
         -1    1    6    6    0  501 -0.23567962465E+02 -0.83985631336E+01  0.14953562613E+02  0.29147791551E+02  0.00000000000E+00 0.  1.
          5    1    5    5  502    0 -0.91108296993E+00 -0.78883905472E+02  0.18585861535E+03  0.20196290629E+03  0.47000000000E+01 0. -1.
         11    1    4    4    0    0 -0.17384086064E+02 -0.24625208648E+02 -0.10603626530E+02  0.31953782950E+02  0.00000000000E+00 0. -1.
        -12    1    4    4    0    0  0.42235859694E+02 -0.47962294357E+01  0.52060933352E+02  0.67210210849E+02  0.00000000000E+00 0.  1.
         -5    1    3    3    0  504 -0.15439055124E+02  0.59113903246E+02 -0.46601264697E+02  0.76984322115E+02  0.47000000000E+01 0.  1.
<mgrwt>
<rscale>  2 0.17591973E+03</rscale>
<asrwt>0</asrwt>
<pdfrwt beam="1">  1       21 0.69248736E-01 0.17607319E+03</pdfrwt>
<pdfrwt beam="2">  1       21 0.17193064E-01 0.17607319E+03</pdfrwt>
<totfact> 0.58423088E+04</totfact>
</mgrwt>
</event>
<event>
12    1  0.1410528E-001  0.2132458E+03  0.7546771E-02  0.1139089E+00
         21   -1    0    0  502  503  0.00000000000E+00  0.00000000000E+00  0.17761594222E+04  0.17761594222E+04  0.00000000000E+00 0.  1.
         21   -1    0    0  503  504 -0.00000000000E+00 -0.00000000000E+00 -0.26044985185E+02  0.26044985185E+02  0.00000000000E+00 0. -1.
         -6    2    1    2    0  504  0.69346936514E+02 -0.10261682534E+03  0.99871378274E+03  0.10212262234E+04  0.17359311331E+03 0.  0.
        -24    2    3    3    0    0  0.81408523763E+01  0.72610456987E+01  0.49833205296E+03  0.50525791350E+03  0.82654267180E+02 0.  0.
          6    2    1    2  502    0 -0.69346936514E+02  0.10261682534E+03  0.75140065431E+03  0.78097818406E+03  0.17316111065E+03 0.  0.
         24    2    5    5    0    0 -0.88438300708E+02  0.33895100887E+02  0.61272664834E+03  0.62496624372E+03  0.78604384780E+02 0.  0.
          4    1    6    6  501    0 -0.63901000562E+02 -0.12190407993E+02  0.24241079693E+03  0.25098792478E+03  0.00000000000E+00 0. -1.
         -3    1    6    6    0  501 -0.24537300146E+02  0.46085508880E+02  0.37031585141E+03  0.37397831893E+03  0.00000000000E+00 0.  1.
          5    1    5    5  502    0  0.19091364194E+02  0.68721724452E+02  0.13867400597E+03  0.15601194035E+03  0.47000000000E+01 0. -1.
         13    1    4    4    0    0  0.19146692031E+02  0.28997489560E+02  0.94409177828E+02  0.10060090991E+03  0.00000000000E+00 0. -1.
        -14    1    4    4    0    0 -0.11005839655E+02 -0.21736443861E+02  0.40392287513E+03  0.40465700359E+03  0.00000000000E+00 0.  1.
         -5    1    3    3    0  504  0.61206084138E+02 -0.10987787104E+03  0.50038172978E+03  0.51596830986E+03  0.47000000000E+01 0.  1.
<mgrwt>
<rscale>  2 0.21315788E+03</rscale>
<asrwt>0</asrwt>
<pdfrwt beam="1">  1       21 0.27325520E+00 0.21324582E+03</pdfrwt>
<pdfrwt beam="2">  1       21 0.40069222E-02 0.21324582E+03</pdfrwt>
<totfact> 0.18666811E+04</totfact>
</mgrwt>
</event>
<event>
12    1  0.1410528E-001  0.2149740E+03  0.7546771E-02  0.1137762E+00
         21   -1    0    0  502  503  0.00000000000E+00  0.00000000000E+00  0.78137250365E+02  0.78137250365E+02  0.00000000000E+00 0. -1.
         21   -1    0    0  503  504 -0.00000000000E+00 -0.00000000000E+00 -0.70264885452E+03  0.70264885452E+03  0.00000000000E+00 0. -1.
         -6    2    1    2    0  504  0.12479235605E+03 -0.21270142433E+02 -0.46855452300E+03  0.51551641079E+03  0.17374774152E+03 0.  0.
        -24    2    3    3    0    0  0.13102488213E+03 -0.42664723656E+02 -0.46685300463E+03  0.49267877406E+03  0.76110762030E+02 0.  0.
          6    2    1    2  502    0 -0.12479235605E+03  0.21270142433E+02 -0.15595708115E+03  0.26526969409E+03  0.17326236854E+03 0.  0.
         24    2    5    5    0    0 -0.13877092880E+02  0.53693353579E+02 -0.87493353013E+02  0.13087165729E+03  0.79979709521E+02 0.  0.
          4    1    6    6  501    0  0.17114349573E+02  0.37835449903E+02 -0.86606466423E+02  0.96047395888E+02  0.00000000000E+00 0. -1.
         -3    1    6    6    0  501 -0.30991442453E+02  0.15857903676E+02 -0.88688658966E+00  0.34824261401E+02  0.00000000000E+00 0.  1.
          5    1    5    5  502    0 -0.11091526317E+03 -0.32423211146E+02 -0.68463728137E+02  0.13439803680E+03  0.47000000000E+01 0. -1.
         11    1    4    4    0    0  0.44193538583E+02  0.16104934970E+02 -0.90503508630E+02  0.10199668062E+03  0.00000000000E+00 0. -1.
        -12    1    4    4    0    0  0.86831343542E+02 -0.58769658626E+02 -0.37634949600E+03  0.39068209344E+03  0.00000000000E+00 0.  1.
         -5    1    3    3    0  504 -0.62325260768E+01  0.21394581223E+02 -0.17015183773E+01  0.22837636738E+02  0.47000000000E+01 0.  1.
<mgrwt>
<rscale>  2 0.21487593E+03</rscale>
<asrwt>0</asrwt>
<pdfrwt beam="1">  1       21 0.12021115E-01 0.21497402E+03</pdfrwt>
<pdfrwt beam="2">  1       21 0.10809983E+00 0.21497402E+03</pdfrwt>
<totfact> 0.39373217E+04</totfact>
</mgrwt>
</event>
<event>
12    1  0.1410528E-001  0.2119530E+03  0.7546771E-02  0.1140161E+00
         21   -1    0    0  502  503  0.00000000000E+00  0.00000000000E+00  0.17311421979E+03  0.17311421979E+03  0.00000000000E+00 0.  1.
         21   -1    0    0  503  504 -0.00000000000E+00 -0.00000000000E+00 -0.31269341598E+03  0.31269341598E+03  0.00000000000E+00 0. -1.
         -6    2    1    2    0  504 -0.96874398433E+02 -0.74749286693E+02 -0.17083402644E+03  0.27222846466E+03  0.17306636717E+03 0.  0.
        -24    2    3    3    0    0 -0.88031767656E+02  0.69207581342E+01 -0.12373888931E+03  0.17742218700E+03  0.91486778845E+02 0.  0.
          6    2    1    2  502    0  0.96874398433E+02  0.74749286693E+02  0.31254830248E+02  0.21357917111E+03  0.17224138001E+03 0.  0.
         24    2    5    5    0    0 -0.12474607133E+02  0.58140365671E+02  0.15566849795E+02  0.10177011957E+03  0.81110495511E+02 0.  0.
          2    1    6    6  501    0 -0.15603306834E+02  0.37164869160E+01 -0.27810286745E+02  0.32104322263E+02  0.00000000000E+00 0. -1.
         -1    1    6    6    0  501  0.31286997005E+01  0.54423878755E+02  0.43377136539E+02  0.69665797310E+02  0.00000000000E+00 0.  1.
          5    1    5    5  502    0  0.10934900557E+03  0.16608921023E+02  0.15687980453E+02  0.11180905154E+03  0.47000000000E+01 0. -1.
         13    1    4    4    0    0  0.35046231655E+00  0.23297281039E+02 -0.67460608731E+02  0.71371001521E+02  0.00000000000E+00 0. -1.
        -14    1    4    4    0    0 -0.88382229972E+02 -0.16376522905E+02 -0.56278280580E+02  0.10605118548E+03  0.00000000000E+00 0.  1.
         -5    1    3    3    0  504 -0.88426307769E+01 -0.81670044827E+02 -0.47095137132E+02  0.94806277654E+02  0.47000000000E+01 0.  1.
<mgrwt>
<rscale>  2 0.21178452E+03</rscale>
<asrwt>0</asrwt>
<pdfrwt beam="1">  1       21 0.26632957E-01 0.21195300E+03</pdfrwt>
<pdfrwt beam="2">  1       21 0.48106679E-01 0.21195300E+03</pdfrwt>
<totfact> 0.54899567E+04</totfact>
</mgrwt>
</event>
<event>
12    1  0.1410528E-001  0.1829304E+03  0.7546771E-02  0.1165175E+00
         21   -1    0    0  502  503  0.00000000000E+00  0.00000000000E+00  0.34993670606E+03  0.34993670606E+03  0.00000000000E+00 0.  1.
         21   -1    0    0  503  504 -0.00000000000E+00 -0.00000000000E+00 -0.10659367162E+03  0.10659367162E+03  0.00000000000E+00 0.  1.
         -6    2    1    2    0  504  0.56040218095E+02 -0.13906654239E+02  0.46931088449E+02  0.18812546456E+03  0.17278530688E+03 0.  0.
        -24    2    3    3    0    0  0.92722757515E+01 -0.58948044446E+02  0.63979782277E+02  0.12082973494E+03  0.83340057983E+02 0.  0.
          6    2    1    2  502    0 -0.56040218095E+02  0.13906654239E+02  0.19641194599E+03  0.26840491312E+03  0.17357892666E+03 0.  0.
         24    2    5    5    0    0 -0.15494691723E+02 -0.38394093294E+02  0.41328130967E+02  0.99726557706E+02  0.80766205997E+02 0.  0.
          4    1    6    6  501    0  0.97937233048E+01 -0.52971732741E+02  0.64629842976E+01  0.54255798324E+02  0.00000000000E+00 0. -1.
         -3    1    6    6    0  501 -0.25288415028E+02  0.14577639447E+02  0.34865146670E+02  0.45470759382E+02  0.00000000000E+00 0.  1.
          5    1    5    5  502    0 -0.40545526372E+02  0.52300747533E+02  0.15508381503E+03  0.16867835541E+03  0.47000000000E+01 0. -1.
         13    1    4    4    0    0  0.44508068733E+02 -0.18468036966E+02  0.23528715745E+02  0.53624966539E+02  0.00000000000E+00 0. -1.
        -14    1    4    4    0    0 -0.35235792982E+02 -0.40480007480E+02  0.40451066531E+02  0.67204768403E+02  0.00000000000E+00 0.  1.
         -5    1    3    3    0  504  0.46767942344E+02  0.45041390207E+02 -0.17048693828E+02  0.67295729613E+02  0.47000000000E+01 0.  1.
<mgrwt>
<rscale>  2 0.18274193E+03</rscale>
<asrwt>0</asrwt>
<pdfrwt beam="1">  1       21 0.53836416E-01 0.18293044E+03</pdfrwt>
<pdfrwt beam="2">  1       21 0.16399027E-01 0.18293044E+03</pdfrwt>
<totfact> 0.10915211E+05</totfact>
</mgrwt>
</event>
<event>
12    1  0.1410528E-001  0.1808202E+03  0.7546771E-02  0.1167221E+00
         21   -1    0    0  502  503  0.00000000000E+00  0.00000000000E+00  0.61920544821E+03  0.61920544821E+03  0.00000000000E+00 0.  1.
         21   -1    0    0  503  504 -0.00000000000E+00 -0.00000000000E+00 -0.76515941031E+02  0.76515941031E+02  0.00000000000E+00 0. -1.
         -6    2    1    2    0  504  0.27424775388E+02 -0.41092379556E+02  0.76213361071E+02  0.19542553826E+03  0.17303746021E+03 0.  0.
        -24    2    3    3    0    0  0.79841234766E+01  0.11880322457E+02  0.10453892569E+03  0.13211302988E+03  0.79502059036E+02 0.  0.
          6    2    1    2  502    0 -0.27424775388E+02  0.41092379556E+02  0.46647614611E+03  0.50029585099E+03  0.17394033938E+03 0.  0.
         24    2    5    5    0    0  0.75128066945E+01 -0.36019916215E+02  0.20902303496E+03  0.22924025661E+03  0.86640576403E+02 0.  0.
          4    1    6    6  501    0  0.29140132119E+02 -0.56094711420E+02  0.12291962498E+03  0.13822083111E+03  0.00000000000E+00 0. -1.
         -3    1    6    6    0  501 -0.21627325425E+02  0.20074795205E+02  0.86103409983E+02  0.91019425500E+02  0.00000000000E+00 0.  1.
          5    1    5    5  502    0 -0.34937582082E+02  0.77112295770E+02  0.25745311115E+03  0.27105559437E+03  0.47000000000E+01 0. -1.
         11    1    4    4    0    0  0.36180770081E+01 -0.12311908309E+02 -0.91731463564E+01  0.15774035043E+02  0.00000000000E+00 0. -1.
        -12    1    4    4    0    0  0.43660464685E+01  0.24192230767E+02  0.11371207205E+03  0.11633899484E+03  0.00000000000E+00 0.  1.
         -5    1    3    3    0  504  0.19440651911E+02 -0.52972702013E+02 -0.28325564621E+02  0.63312508372E+02  0.47000000000E+01 0.  1.
<mgrwt>
<rscale>  2 0.18060272E+03</rscale>
<asrwt>0</asrwt>
<pdfrwt beam="1">  1       21 0.95262373E-01 0.18082020E+03</pdfrwt>
<pdfrwt beam="2">  1       21 0.11771684E-01 0.18082020E+03</pdfrwt>
<totfact> 0.56215120E+04</totfact>
</mgrwt>
</event>
<event>
12    1  0.1410528E-001  0.1886928E+03  0.7546771E-02  0.1159814E+00
         21   -1    0    0  502  503  0.00000000000E+00  0.00000000000E+00  0.40225010138E+03  0.40225010138E+03  0.00000000000E+00 0.  1.
         21   -1    0    0  503  504 -0.00000000000E+00 -0.00000000000E+00 -0.89678297226E+02  0.89678297226E+02  0.00000000000E+00 0.  1.
         -6    2    1    2    0  504 -0.60700830037E+02 -0.43216701559E+02  0.18849803675E+03  0.26671420244E+03  0.17335709349E+03 0.  0.
        -24    2    3    3    0    0 -0.64332904571E+02 -0.90765235057E+02  0.11359312104E+03  0.17779349956E+03  0.79561805114E+02 0.  0.
          6    2    1    2  502    0  0.60700830037E+02  0.43216701559E+02  0.12407376741E+03  0.22521419617E+03  0.17255393457E+03 0.  0.
         24    2    5    5    0    0 -0.51485171386E+01  0.48641217909E+02  0.11739742551E+02  0.94804898027E+02  0.80359640531E+02 0.  0.
          4    1    6    6  501    0 -0.12954564266E+02  0.63437652440E+02 -0.11913159890E+02  0.65833728901E+02  0.00000000000E+00 0. -1.
         -3    1    6    6    0  501  0.78060471271E+01 -0.14796434532E+02  0.23652902442E+02  0.28971169126E+02  0.00000000000E+00 0.  1.
          5    1    5    5  502    0  0.65849347176E+02 -0.54245163498E+01  0.11233402486E+03  0.13040929814E+03  0.47000000000E+01 0. -1.
         13    1    4    4    0    0 -0.44811225419E+02 -0.90900926784E+00  0.36874184133E+02  0.58039449316E+02  0.00000000000E+00 0. -1.
        -14    1    4    4    0    0 -0.19521679152E+02 -0.89856225789E+02  0.76718936903E+02  0.11975405024E+03  0.00000000000E+00 0.  1.
         -5    1    3    3    0  504  0.36320745344E+01  0.47548533498E+02  0.74904915710E+02  0.88920702881E+02  0.47000000000E+01 0.  1.
<mgrwt>
<rscale>  2 0.18850808E+03</rscale>
<asrwt>0</asrwt>
<pdfrwt beam="1">  1       21 0.61884630E-01 0.18869276E+03</pdfrwt>
<pdfrwt beam="2">  1       21 0.13796661E-01 0.18869276E+03</pdfrwt>
<totfact> 0.11085033E+05</totfact>
</mgrwt>
</event>
<event>
12    1  0.1410528E-001  0.3632821E+03  0.7546771E-02  0.1057444E+00
         21   -1    0    0  502  503  0.00000000000E+00  0.00000000000E+00  0.12243313206E+03  0.12243313206E+03  0.00000000000E+00 0.  1.
         21   -1    0    0  503  504 -0.00000000000E+00 -0.00000000000E+00 -0.15195987055E+04  0.15195987055E+04  0.00000000000E+00 0.  1.
         -6    2    1    2    0  504  0.20381740392E+03 -0.24534716785E+03 -0.11424491316E+04  0.11983491520E+04  0.17062797257E+03 0.  0.
        -24    2    3    3    0    0  0.71546123059E+02 -0.51137679595E+02 -0.29736820495E+03  0.32119644034E+03  0.83698231624E+02 0.  0.
          6    2    1    2  502    0 -0.20381740392E+03  0.24534716785E+03 -0.25471644186E+03  0.44368268552E+03  0.17388816165E+03 0.  0.
         24    2    5    5    0    0 -0.17452863895E+03  0.26398770764E+03 -0.24274338728E+03  0.40665910502E+03  0.79356915446E+02 0.  0.
          4    1    6    6  501    0 -0.15055290045E+03  0.25627749572E+03 -0.20418646516E+03  0.36060566164E+03  0.00000000000E+00 0. -1.
         -3    1    6    6    0  501 -0.23975738507E+02  0.77102119167E+01 -0.38556922115E+02  0.46053443386E+02  0.00000000000E+00 0.  1.
          5    1    5    5  502    0 -0.29288764969E+02 -0.18640539787E+02 -0.11973054580E+02  0.37023580499E+02  0.47000000000E+01 0. -1.
         11    1    4    4    0    0 -0.65734511005E+01 -0.43151941764E+01  0.21378344497E+01  0.81487113267E+01  0.00000000000E+00 0. -1.
        -12    1    4    4    0    0  0.78119574160E+02 -0.46822485419E+02 -0.29950603940E+03  0.31304772902E+03  0.00000000000E+00 0.  1.
         -5    1    3    3    0  504  0.13227128086E+03 -0.19420948826E+03 -0.84508092660E+03  0.87715271166E+03  0.47000000000E+01 0.  1.
<mgrwt>
<rscale>  2 0.36289415E+03</rscale>
<asrwt>0</asrwt>
<pdfrwt beam="1">  1       21 0.18835866E-01 0.36328207E+03</pdfrwt>
<pdfrwt beam="2">  1       21 0.23378442E+00 0.36328207E+03</pdfrwt>
<totfact> 0.18697507E+03</totfact>
</mgrwt>
</event>
<event>
12    1  0.1410528E-001  0.1819916E+03  0.7546771E-02  0.1165936E+00
         21   -1    0    0  502  503  0.00000000000E+00  0.00000000000E+00  0.53112308227E+02  0.53112308227E+02  0.00000000000E+00 0. -1.
         21   -1    0    0  503  504 -0.00000000000E+00 -0.00000000000E+00 -0.73029029556E+03  0.73029029556E+03  0.00000000000E+00 0.  1.
         -6    2    1    2    0  504  0.41712606057E+02 -0.32008430788E+02 -0.18824420015E+03  0.26169657726E+03  0.17402510886E+03 0.  0.
        -24    2    3    3    0    0  0.24413761574E+02 -0.25259529069E+02 -0.16685508903E+02  0.89071920165E+02  0.80133171606E+02 0.  0.
          6    2    1    2  502    0 -0.41712606057E+02  0.32008430788E+02 -0.48893378719E+03  0.52170602653E+03  0.17423102111E+03 0.  0.
         24    2    5    5    0    0  0.21490724766E+01  0.30079687751E+02 -0.46356894496E+03  0.47078420297E+03  0.76368795394E+02 0.  0.
          2    1    6    6  501    0 -0.61149100928E+01 -0.23636386089E+02 -0.88802569988E+02  0.92097596653E+02  0.00000000000E+00 0. -1.
         -1    1    6    6    0  501  0.82639825695E+01  0.53716073840E+02 -0.37476637497E+03  0.37868660632E+03  0.00000000000E+00 0.  1.
          5    1    5    5  502    0 -0.43861678533E+02  0.19287430373E+01 -0.25364842235E+02  0.50921823564E+02  0.47000000000E+01 0. -1.
         11    1    4    4    0    0 -0.18259626341E+02 -0.38030465975E+02 -0.22461352249E+01  0.42246602464E+02  0.00000000000E+00 0. -1.
        -12    1    4    4    0    0  0.42673387915E+02  0.12770936906E+02 -0.14439373678E+02  0.46825317701E+02  0.00000000000E+00 0.  1.
         -5    1    3    3    0  504  0.17298844482E+02 -0.67489017195E+01 -0.17155869124E+03  0.17262465709E+03  0.47000000000E+01 0.  1.
<mgrwt>
<rscale>  2 0.18194226E+03</rscale>
<asrwt>0</asrwt>
<pdfrwt beam="1">  1       21 0.81711247E-02 0.18199157E+03</pdfrwt>
<pdfrwt beam="2">  1       21 0.11235235E+00 0.18199157E+03</pdfrwt>
<totfact> 0.72115756E+04</totfact>
</mgrwt>
</event>
<event>
12    1  0.1410528E-001  0.1823227E+03  0.7546771E-02  0.1166739E+00
         21   -1    0    0  502  503  0.00000000000E+00  0.00000000000E+00  0.15965161042E+02  0.15965161042E+02  0.00000000000E+00 0.  1.
         21   -1    0    0  503  504 -0.00000000000E+00 -0.00000000000E+00 -0.20328944958E+04  0.20328944958E+04  0.00000000000E+00 0.  1.
         -6    2    1    2    0  504  0.37925949439E+02  0.11282123570E+02 -0.10752208977E+04  0.10905693684E+04  0.17797725837E+03 0.  0.
        -24    2    3    3    0    0  0.51212344118E+02  0.64776909847E+02 -0.88350364716E+03  0.89103036320E+03  0.80855805997E+02 0.  0.
          6    2    1    2  502    0 -0.37925949439E+02 -0.11282123570E+02 -0.94170843708E+03  0.95829028846E+03  0.17303130507E+03 0.  0.
         24    2    5    5    0    0  0.39047586014E+01 -0.65491387308E+02 -0.66554105552E+03  0.67372225609E+03  0.81562324721E+02 0.  0.
          4    1    6    6  501    0 -0.14240967877E+02 -0.70995273809E+02 -0.62239954772E+03  0.62659742345E+03  0.00000000000E+00 0. -1.
         -3    1    6    6    0  501  0.18145726479E+02  0.55038865009E+01 -0.43141507797E+02  0.47124832637E+02  0.00000000000E+00 0.  1.
          5    1    5    5  502    0 -0.41830708041E+02  0.54209263738E+02 -0.27616738157E+03  0.28456803238E+03  0.47000000000E+01 0. -1.
         11    1    4    4    0    0  0.44839635673E+02 -0.42029799710E+01 -0.41426908157E+03  0.41670988698E+03  0.00000000000E+00 0. -1.
        -12    1    4    4    0    0  0.63727084446E+01  0.68979889818E+02 -0.46923456560E+03  0.47432047622E+03  0.00000000000E+00 0.  1.
         -5    1    3    3    0  504 -0.13286394679E+02 -0.53494786277E+02 -0.19171725053E+03  0.19953900519E+03  0.47000000000E+01 0.  1.
<mgrwt>
<rscale>  2 0.18110434E+03</rscale>
<asrwt>0</asrwt>
<pdfrwt beam="1">  1       21 0.24561782E-02 0.18232270E+03</pdfrwt>
<pdfrwt beam="2">  1       21 0.31275306E+00 0.18232270E+03</pdfrwt>
<totfact> 0.25627191E+04</totfact>
</mgrwt>
</event>
<event>
12    1  0.1410528E-001  0.1982938E+03  0.7546771E-02  0.1151811E+00
         21   -1    0    0  502  503  0.00000000000E+00  0.00000000000E+00  0.57711346488E+03  0.57711346488E+03  0.00000000000E+00 0. -1.
         21   -1    0    0  503  504 -0.00000000000E+00 -0.00000000000E+00 -0.10615314438E+03  0.10615314438E+03  0.00000000000E+00 0. -1.
         -6    2    1    2    0  504 -0.22927529232E+02  0.88596299095E+02  0.27270041259E+02  0.19728154044E+03  0.17263074824E+03 0.  0.
        -24    2    3    3    0    0 -0.81110748158E+02  0.64887498225E+02  0.78355129965E+01  0.13134835386E+03  0.80010336248E+02 0.  0.
          6    2    1    2  502    0  0.22927529232E+02 -0.88596299095E+02  0.44369027925E+03  0.48598506882E+03  0.17591318146E+03 0.  0.
         24    2    5    5    0    0 -0.15304208769E+02 -0.11925414028E+03  0.28848405003E+03  0.32315806675E+03  0.82172502717E+02 0.  0.
          2    1    6    6  501    0  0.89223073601E+01 -0.98503067457E+02  0.26691687118E+03  0.28465255661E+03  0.00000000000E+00 0. -1.
         -1    1    6    6    0  501 -0.24226516130E+02 -0.20751072824E+02  0.21567178851E+02  0.38505510134E+02  0.00000000000E+00 0.  1.
          5    1    5    5  502    0  0.38231738002E+02  0.30657841186E+02  0.15520622922E+03  0.16282700208E+03  0.47000000000E+01 0. -1.
         13    1    4    4    0    0 -0.51290801395E+02 -0.83949840803E+01  0.18820246061E+01  0.52007346424E+02  0.00000000000E+00 0. -1.
        -14    1    4    4    0    0 -0.29819946763E+02  0.73282482305E+02  0.59534883904E+01  0.79341007441E+02  0.00000000000E+00 0.  1.
         -5    1    3    3    0  504  0.58183218926E+02  0.23708800871E+02  0.19434528263E+02  0.65933186576E+02  0.47000000000E+01 0.  1.
<mgrwt>
<rscale>  2 0.19756323E+03</rscale>
<asrwt>0</asrwt>
<pdfrwt beam="1">  1       21 0.88786685E-01 0.19829378E+03</pdfrwt>
<pdfrwt beam="2">  1       21 0.16331253E-01 0.19829378E+03</pdfrwt>
<totfact> 0.36295288E+04</totfact>
</mgrwt>
</event>
<event>
12    1  0.1410528E-001  0.1833506E+03  0.7546771E-02  0.1165089E+00
         21   -1    0    0  502  503  0.00000000000E+00  0.00000000000E+00  0.14391619407E+03  0.14391619407E+03  0.00000000000E+00 0.  1.
         21   -1    0    0  503  504 -0.00000000000E+00 -0.00000000000E+00 -0.30945639013E+03  0.30945639013E+03  0.00000000000E+00 0.  1.
         -6    2    1    2    0  504  0.55647660770E+01  0.57922797428E+02 -0.19728046361E+03  0.26932700664E+03  0.17387190141E+03 0.  0.
        -24    2    3    3    0    0  0.26512205226E+02  0.87044191771E+02 -0.19919401360E+03  0.23309715032E+03  0.79852602269E+02 0.  0.
          6    2    1    2  502    0 -0.55647660770E+01 -0.57922797428E+02  0.31740267549E+02  0.18404557756E+03  0.17169540748E+03 0.  0.
         24    2    5    5    0    0 -0.40495447703E+02 -0.88862548756E+02  0.50617591265E+01  0.13008954413E+03  0.85797635347E+02 0.  0.
          2    1    6    6  501    0 -0.61081319586E+02 -0.52208275848E+02 -0.17705832995E+02  0.82280788714E+02  0.00000000000E+00 0. -1.
         -1    1    6    6    0  501  0.20585871883E+02 -0.36654272909E+02  0.22767592121E+02  0.47808755418E+02  0.00000000000E+00 0.  1.
          5    1    5    5  502    0  0.34930681626E+02  0.30939751328E+02  0.26678508423E+02  0.53956033424E+02  0.47000000000E+01 0. -1.
         11    1    4    4    0    0  0.51294910882E+02  0.35984995199E+02 -0.85246050418E+02  0.10579686609E+03  0.00000000000E+00 0. -1.
        -12    1    4    4    0    0 -0.24782705656E+02  0.51059196572E+02 -0.11394796318E+03  0.12730028424E+03  0.00000000000E+00 0.  1.
         -5    1    3    3    0  504 -0.20947439149E+02 -0.29121394343E+02  0.19135499839E+01  0.36229856320E+02  0.47000000000E+01 0.  1.
<mgrwt>
<rscale>  2 0.18283278E+03</rscale>
<asrwt>0</asrwt>
<pdfrwt beam="1">  1       21 0.22140953E-01 0.18335063E+03</pdfrwt>
<pdfrwt beam="2">  1       21 0.47608675E-01 0.18335063E+03</pdfrwt>
<totfact> 0.80765601E+04</totfact>
</mgrwt>
</event>
<event>
12    1  0.1410528E-001  0.1845993E+03  0.7546771E-02  0.1165013E+00
         21   -1    0    0  502  503  0.00000000000E+00  0.00000000000E+00  0.81551436669E+02  0.81551436669E+02  0.00000000000E+00 0.  1.
         21   -1    0    0  503  504 -0.00000000000E+00 -0.00000000000E+00 -0.44183897037E+03  0.44183897037E+03  0.00000000000E+00 0. -1.
         -6    2    1    2    0  504 -0.37883233455E+02 -0.15577155337E+02 -0.25477197934E+03  0.31076295511E+03  0.17316773853E+03 0.  0.
        -24    2    3    3    0    0 -0.87545421661E+02 -0.15836524016E+02 -0.13387189636E+03  0.17997564581E+03  0.80960188389E+02 0.  0.
          6    2    1    2  502    0  0.37883233455E+02  0.15577155337E+02 -0.10551555437E+03  0.21262745193E+03  0.17999753875E+03 0.  0.
         24    2    5    5    0    0 -0.45903609218E+00  0.14779144310E+02  0.18462306992E+02  0.82768426204E+02  0.79316592060E+02 0.  0.
          4    1    6    6  501    0 -0.31786662101E+02  0.29142899221E+02  0.21471163017E+02  0.48173761571E+02  0.00000000000E+00 0. -1.
         -3    1    6    6    0  501  0.31327626009E+02 -0.14363754911E+02 -0.30088560244E+01  0.34594664633E+02  0.00000000000E+00 0.  1.
          5    1    5    5  502    0  0.38342269547E+02  0.79801102696E+00 -0.12397786136E+03  0.12985902573E+03  0.47000000000E+01 0. -1.
         11    1    4    4    0    0  0.13929015701E+02 -0.85923729617E+01 -0.82535881924E+01  0.18329431785E+02  0.00000000000E+00 0. -1.
        -12    1    4    4    0    0 -0.10147443736E+03 -0.72441510548E+01 -0.12561830817E+03  0.16164621403E+03  0.00000000000E+00 0.  1.
         -5    1    3    3    0  504  0.49662188206E+02  0.25936867912E+00 -0.12090008298E+03  0.13078730930E+03  0.47000000000E+01 0.  1.
<mgrwt>
<rscale>  2 0.18291306E+03</rscale>
<asrwt>0</asrwt>
<pdfrwt beam="1">  1       21 0.12546375E-01 0.18459930E+03</pdfrwt>
<pdfrwt beam="2">  1       21 0.67975226E-01 0.18459930E+03</pdfrwt>
<totfact> 0.10741270E+05</totfact>
</mgrwt>
</event>
<event>
12    1  0.1410528E-001  0.1783386E+03  0.7546771E-02  0.1169940E+00
         21   -1    0    0  502  503  0.00000000000E+00  0.00000000000E+00  0.12871822680E+03  0.12871822680E+03  0.00000000000E+00 0.  1.
         21   -1    0    0  503  504 -0.00000000000E+00 -0.00000000000E+00 -0.24679109850E+03  0.24679109850E+03  0.00000000000E+00 0.  1.
         -6    2    1    2    0  504  0.67611608745E+01  0.37235138567E+02 -0.78714147425E+02  0.19493734398E+03  0.17427702726E+03 0.  0.
        -24    2    3    3    0    0  0.17979553870E+02 -0.43266253611E+02 -0.61698136721E+02  0.11176306247E+03  0.80554881907E+02 0.  0.
          6    2    1    2  502    0 -0.67611608745E+01 -0.37235138567E+02 -0.39358724279E+02  0.18057198132E+03  0.17211903561E+03 0.  0.
         24    2    5    5    0    0 -0.13421052047E+02  0.40297538608E+02 -0.41340566014E+01  0.95023530756E+02  0.84902089005E+02 0.  0.
          4    1    6    6  501    0 -0.19088931006E+02  0.51484055027E+02 -0.32642351199E+02  0.63878934718E+02  0.00000000000E+00 0. -1.
         -3    1    6    6    0  501  0.56678789595E+01 -0.11186516419E+02  0.28508294597E+02  0.31144596038E+02  0.00000000000E+00 0.  1.
          5    1    5    5  502    0  0.66598911723E+01 -0.77532677175E+02 -0.35224667678E+02  0.85548450560E+02  0.47000000000E+01 0. -1.
         11    1    4    4    0    0  0.57804049737E+00 -0.59011902968E+02 -0.17223759400E+02  0.61476798149E+02  0.00000000000E+00 0. -1.
        -12    1    4    4    0    0  0.17401513373E+02  0.15745649357E+02 -0.44474377321E+02  0.50286264321E+02  0.00000000000E+00 0.  1.
         -5    1    3    3    0  504 -0.11218392996E+02  0.80501392178E+02 -0.17016010704E+02  0.83174281508E+02  0.47000000000E+01 0.  1.
<mgrwt>
<rscale>  2 0.17780917E+03</rscale>
<asrwt>0</asrwt>
<pdfrwt beam="1">  1       21 0.19802804E-01 0.17833859E+03</pdfrwt>
<pdfrwt beam="2">  1       21 0.37967861E-01 0.17833859E+03</pdfrwt>
<totfact> 0.15802013E+05</totfact>
</mgrwt>
</event>
<event>
12    1  0.1410528E-001  0.2588586E+03  0.7546771E-02  0.1108261E+00
         21   -1    0    0  502  503  0.00000000000E+00  0.00000000000E+00  0.37205200199E+03  0.37205200199E+03  0.00000000000E+00 0.  1.
         21   -1    0    0  503  504 -0.00000000000E+00 -0.00000000000E+00 -0.19346961303E+03  0.19346961303E+03  0.00000000000E+00 0.  1.
         -6    2    1    2    0  504 -0.10513706303E+03 -0.15587612148E+03  0.92425991152E+01  0.25619373134E+03  0.17377754477E+03 0.  0.
        -24    2    3    3    0    0 -0.76546829285E+02 -0.44140565538E+02  0.47678214856E+02  0.13453181254E+03  0.89542111960E+02 0.  0.
          6    2    1    2  502    0  0.10513706303E+03  0.15587612148E+03  0.16933978985E+03  0.30932788367E+03  0.17792303932E+03 0.  0.
         24    2    5    5    0    0  0.24975233938E+02  0.15639919646E+03  0.10620132900E+03  0.20717727090E+03  0.80989063051E+02 0.  0.
          4    1    6    6  501    0  0.27715013030E+01  0.47299110266E+02 -0.75831414133E+01  0.47983237544E+02  0.00000000000E+00 0. -1.
         -3    1    6    6    0  501  0.22203732635E+02  0.10910008619E+03  0.11378447041E+03  0.15919403336E+03  0.00000000000E+00 0.  1.
          5    1    5    5  502    0  0.80161829097E+02 -0.52307497733E+00  0.63138460850E+02  0.10215061277E+03  0.47000000000E+01 0. -1.
         13    1    4    4    0    0 -0.52045488434E+02  0.20766634694E+02  0.26558191686E+02  0.62010672699E+02  0.00000000000E+00 0. -1.
        -14    1    4    4    0    0 -0.24501340851E+02 -0.64907200232E+02  0.21120023170E+02  0.72521139843E+02  0.00000000000E+00 0.  1.
         -5    1    3    3    0  504 -0.28590233749E+02 -0.11173555594E+03 -0.38435615741E+02  0.12166191880E+03  0.47000000000E+01 0.  1.
<mgrwt>
<rscale>  2 0.25814777E+03</rscale>
<asrwt>0</asrwt>
<pdfrwt beam="1">  1       21 0.57238769E-01 0.25885860E+03</pdfrwt>
<pdfrwt beam="2">  1       21 0.29764556E-01 0.25885860E+03</pdfrwt>
<totfact> 0.30018095E+04</totfact>
</mgrwt>
</event>
<event>
12    1  0.1410528E-001  0.1916562E+03  0.7546771E-02  0.1157583E+00
         21   -1    0    0  502  503  0.00000000000E+00  0.00000000000E+00  0.14523609642E+03  0.14523609642E+03  0.00000000000E+00 0. -1.
         21   -1    0    0  503  504 -0.00000000000E+00 -0.00000000000E+00 -0.10525710729E+04  0.10525710729E+04  0.00000000000E+00 0. -1.
         -6    2    1    2    0  504  0.76424405999E+02  0.20887983953E+02 -0.97607524680E+03  0.99419644181E+03  0.17154206419E+03 0.  0.
        -24    2    3    3    0    0  0.10556744044E+03  0.24553803396E+02 -0.53489584440E+03  0.55201535923E+03  0.82825230023E+02 0.  0.
          6    2    1    2  502    0 -0.76424405999E+02 -0.20887983953E+02  0.68740270363E+02  0.20361072746E+03  0.17451391309E+03 0.  0.
         24    2    5    5    0    0 -0.11739211980E+03 -0.10675500223E+02  0.73733300047E+02  0.16083610012E+03  0.80850327582E+02 0.  0.
          2    1    6    6  501    0 -0.10175209815E+03  0.23405294086E+02  0.45476157597E+02  0.11388317777E+03  0.00000000000E+00 0. -1.
         -1    1    6    6    0  501 -0.15640021653E+02 -0.34080794309E+02  0.28257142450E+02  0.46952922353E+02  0.00000000000E+00 0.  1.
          5    1    5    5  502    0  0.40967713805E+02 -0.10212483730E+02 -0.49930296840E+01  0.42774627337E+02  0.47000000000E+01 0. -1.
         13    1    4    4    0    0  0.17492001029E+02  0.12483327712E+00 -0.29149123037E+03  0.29201562127E+03  0.00000000000E+00 0. -1.
        -14    1    4    4    0    0  0.88075439411E+02  0.24428970118E+02 -0.24340461403E+03  0.25999973796E+03  0.00000000000E+00 0.  1.
         -5    1    3    3    0  504 -0.29143034441E+02 -0.36658194422E+01 -0.44117940240E+03  0.44218108258E+03  0.47000000000E+01 0.  1.
<mgrwt>
<rscale>  2 0.19097710E+03</rscale>
<asrwt>0</asrwt>
<pdfrwt beam="1">  1       21 0.22344014E-01 0.19165621E+03</pdfrwt>
<pdfrwt beam="2">  1       21 0.16193402E+00 0.19165621E+03</pdfrwt>
<totfact> 0.45717521E+03</totfact>
</mgrwt>
</event>
<event>
12    1  0.1410528E-001  0.2246415E+03  0.7546771E-02  0.1130493E+00
         21   -1    0    0  502  503  0.00000000000E+00  0.00000000000E+00  0.17826341281E+03  0.17826341281E+03  0.00000000000E+00 0.  1.
         21   -1    0    0  503  504 -0.00000000000E+00 -0.00000000000E+00 -0.47089498560E+03  0.47089498560E+03  0.00000000000E+00 0.  1.
         -6    2    1    2    0  504  0.13102029969E+03  0.57704352334E+02 -0.35141273275E+03  0.41707877117E+03  0.17311175989E+03 0.  0.
        -24    2    3    3    0    0 -0.11574435762E+01 -0.22025085359E-01 -0.11114511998E+03  0.13680407340E+03  0.79754477253E+02 0.  0.
          6    2    1    2  502    0 -0.13102029969E+03 -0.57704352334E+02  0.58781159965E+02  0.23207962724E+03  0.17294397187E+03 0.  0.
         24    2    5    5    0    0 -0.94351828165E+02 -0.74630441561E+02 -0.19281361603E+02  0.14406305736E+03  0.76879277476E+02 0.  0.
          2    1    6    6  501    0 -0.73715836932E+02 -0.36661246156E+02 -0.44949197611E+02  0.93800330224E+02  0.00000000000E+00 0. -1.
         -1    1    6    6    0  501 -0.20635991233E+02 -0.37969195405E+02  0.25667836008E+02  0.50262727137E+02  0.00000000000E+00 0.  1.
          5    1    5    5  502    0 -0.36668471523E+02  0.16926089227E+02  0.78062521568E+02  0.88016569883E+02  0.47000000000E+01 0. -1.
         13    1    4    4    0    0 -0.39154694208E+01 -0.67417622140E+01 -0.12281285798E+03  0.12306006803E+03  0.00000000000E+00 0. -1.
        -14    1    4    4    0    0  0.27580258446E+01  0.67197371286E+01  0.11667737997E+02  0.13744005369E+02  0.00000000000E+00 0.  1.
         -5    1    3    3    0  504  0.13217774326E+03  0.57726377419E+02 -0.24026761277E+03  0.28027469777E+03  0.47000000000E+01 0.  1.
<mgrwt>
<rscale>  2 0.22460915E+03</rscale>
<asrwt>0</asrwt>
<pdfrwt beam="1">  1       21 0.27425141E-01 0.22464148E+03</pdfrwt>
<pdfrwt beam="2">  1       21 0.72445382E-01 0.22464148E+03</pdfrwt>
<totfact> 0.21383285E+04</totfact>
</mgrwt>
</event>
<event>
12    1  0.1410528E-001  0.2601648E+03  0.7546771E-02  0.1107153E+00
         21   -1    0    0  502  503  0.00000000000E+00  0.00000000000E+00  0.72088924132E+03  0.72088924132E+03  0.00000000000E+00 0.  1.
         21   -1    0    0  503  504 -0.00000000000E+00 -0.00000000000E+00 -0.11648583083E+03  0.11648583083E+03  0.00000000000E+00 0.  1.
         -6    2    1    2    0  504 -0.55271261038E+02  0.18733961158E+03  0.11708267019E+03  0.28529649745E+03  0.17185661883E+03 0.  0.
        -24    2    3    3    0    0  0.79761871100E+01  0.16205844290E+03  0.43805856237E+02  0.18514182383E+03  0.77665844568E+02 0.  0.
          6    2    1    2  502    0  0.55271261038E+02 -0.18733961158E+03  0.48732074031E+03  0.55207857469E+03  0.17075774166E+03 0.  0.
         24    2    5    5    0    0  0.64681564174E+02 -0.20868470501E+03  0.46496875360E+03  0.51943093882E+03  0.76678207683E+02 0.  0.
          4    1    6    6  501    0  0.34012337576E+02 -0.46860067997E+02  0.65986247930E+02  0.87788894491E+02  0.00000000000E+00 0. -1.
         -3    1    6    6    0  501  0.30669226598E+02 -0.16182463701E+03  0.39898250567E+03  0.43164204433E+03  0.00000000000E+00 0.  1.
          5    1    5    5  502    0 -0.94103031368E+01  0.21345093422E+02  0.22351986707E+02  0.32647635873E+02  0.47000000000E+01 0. -1.
         13    1    4    4    0    0  0.11211612303E+02  0.48108317715E-01 -0.93548036440E+01  0.14601880566E+02  0.00000000000E+00 0. -1.
        -14    1    4    4    0    0 -0.32354251930E+01  0.16201033458E+03  0.53160659881E+02  0.17053994326E+03  0.00000000000E+00 0.  1.
         -5    1    3    3    0  504 -0.63247448148E+02  0.25281168683E+02  0.73276813950E+02  0.10015467363E+03  0.47000000000E+01 0.  1.
<mgrwt>
<rscale>  2 0.25998350E+03</rscale>
<asrwt>0</asrwt>
<pdfrwt beam="1">  1       21 0.11090603E+00 0.26016483E+03</pdfrwt>
<pdfrwt beam="2">  1       21 0.17920898E-01 0.26016483E+03</pdfrwt>
<totfact> 0.17434127E+04</totfact>
</mgrwt>
</event>
<event>
12    1  0.1410528E-001  0.2388342E+03  0.7546771E-02  0.1120629E+00
         21   -1    0    0  502  503  0.00000000000E+00  0.00000000000E+00  0.13103199352E+03  0.13103199352E+03  0.00000000000E+00 0.  1.
         21   -1    0    0  503  504 -0.00000000000E+00 -0.00000000000E+00 -0.99612518305E+03  0.99612518305E+03  0.00000000000E+00 0.  1.
         -6    2    1    2    0  504  0.91596110617E+02  0.13681365490E+03 -0.85577687669E+03  0.88847951070E+03  0.17301431911E+03 0.  0.
        -24    2    3    3    0    0 -0.74853404461E+01  0.14760371931E+02 -0.35551342172E+03  0.36407532288E+03  0.76727757730E+02 0.  0.
          6    2    1    2  502    0 -0.91596110617E+02 -0.13681365490E+03 -0.93163128363E+01  0.23867766587E+03  0.17254683670E+03 0.  0.
         24    2    5    5    0    0 -0.33214837762E+02 -0.12194433760E+02 -0.42148167755E+02  0.97120808055E+02  0.80025331301E+02 0.  0.
          2    1    6    6  501    0  0.28378088962E+01  0.30989018617E+02 -0.17513867006E+02  0.35708654017E+02  0.00000000000E+00 0. -1.
         -1    1    6    6    0  501 -0.36052646658E+02 -0.43183452377E+02 -0.24634300749E+02  0.61412154038E+02  0.00000000000E+00 0.  1.
          5    1    5    5  502    0 -0.58381272856E+02 -0.12461922114E+03  0.32831854919E+02  0.14155685781E+03  0.47000000000E+01 0. -1.
         13    1    4    4    0    0  0.48904351483E+01 -0.14410221003E+02 -0.29817985401E+03  0.29856790880E+03  0.00000000000E+00 0. -1.
        -14    1    4    4    0    0 -0.12375775594E+02  0.29170592934E+02 -0.57333567710E+02  0.65507414085E+02  0.00000000000E+00 0.  1.
         -5    1    3    3    0  504  0.99081451063E+02  0.12205328297E+03 -0.50026345497E+03  0.52440418782E+03  0.47000000000E+01 0.  1.
<mgrwt>
<rscale>  2 0.23874955E+03</rscale>
<asrwt>0</asrwt>
<pdfrwt beam="1">  1       21 0.20158768E-01 0.23883421E+03</pdfrwt>
<pdfrwt beam="2">  1       21 0.15325003E+00 0.23883421E+03</pdfrwt>
<totfact> 0.62034340E+03</totfact>
</mgrwt>
</event>
<event>
12    1  0.1410528E-001  0.2275901E+03  0.7546771E-02  0.1128496E+00
         21   -1    0    0  502  503  0.00000000000E+00  0.00000000000E+00  0.92736014653E+02  0.92736014653E+02  0.00000000000E+00 0. -1.
         21   -1    0    0  503  504 -0.00000000000E+00 -0.00000000000E+00 -0.56442166513E+03  0.56442166513E+03  0.00000000000E+00 0. -1.
         -6    2    1    2    0  504  0.69571420583E+01  0.14685356984E+03 -0.27515944094E+03  0.35708540445E+03  0.17373225185E+03 0.  0.
        -24    2    3    3    0    0 -0.15794029696E+02  0.66004309581E+02 -0.48263869439E+02  0.11509798935E+03  0.79448887986E+02 0.  0.
          6    2    1    2  502    0 -0.69571420583E+01 -0.14685356984E+03 -0.19652620954E+03  0.30007227533E+03  0.17264543604E+03 0.  0.
         24    2    5    5    0    0  0.42195144050E+01 -0.37112647235E+02 -0.16287543717E+03  0.18464934769E+03  0.78560936115E+02 0.  0.
          2    1    6    6  501    0  0.12689771165E+02  0.81770877116E+01  0.29439300709E+00  0.15099063643E+02  0.00000000000E+00 0. -1.
         -1    1    6    6    0  501 -0.84702567601E+01 -0.45289734947E+02 -0.16316983017E+03  0.16955028405E+03  0.00000000000E+00 0.  1.
          5    1    5    5  502    0 -0.11176656463E+02 -0.10974092261E+03 -0.33650772373E+02  0.11542292764E+03  0.47000000000E+01 0. -1.
         11    1    4    4    0    0  0.21041886046E+02  0.16802636699E+02 -0.46351286155E+02  0.53605328995E+02  0.00000000000E+00 0. -1.
        -12    1    4    4    0    0 -0.36835915741E+02  0.49201672882E+02 -0.19125832839E+01  0.61492660357E+02  0.00000000000E+00 0.  1.
         -5    1    3    3    0  504  0.22751171754E+02  0.80849260261E+02 -0.22689557150E+03  0.24198741510E+03  0.47000000000E+01 0.  1.
<mgrwt>
<rscale>  2 0.22738271E+03</rscale>
<asrwt>0</asrwt>
<pdfrwt beam="1">  1       21 0.14267079E-01 0.22759013E+03</pdfrwt>
<pdfrwt beam="2">  1       21 0.86834104E-01 0.22759013E+03</pdfrwt>
<totfact> 0.48201138E+04</totfact>
</mgrwt>
</event>
<event>
12    1  0.1410528E-001  0.3229234E+03  0.7546771E-02  0.1074380E+00
         21   -1    0    0  502  503  0.00000000000E+00  0.00000000000E+00  0.10540491161E+04  0.10540491161E+04  0.00000000000E+00 0.  1.
         21   -1    0    0  503  504 -0.00000000000E+00 -0.00000000000E+00 -0.33291499627E+03  0.33291499627E+03  0.00000000000E+00 0.  1.
         -6    2    1    2    0  504  0.48538566199E+02 -0.26749448898E+03 -0.22114065829E+03  0.39089118394E+03  0.17315724903E+03 0.  0.
        -24    2    3    3    0    0  0.20867470639E+01 -0.36087897905E+02 -0.59753326623E+02  0.10492834944E+03  0.78312244157E+02 0.  0.
          6    2    1    2  502    0 -0.48538566199E+02  0.26749448898E+03  0.94227477809E+03  0.99607292838E+03  0.17427055745E+03 0.  0.
         24    2    5    5    0    0 -0.31734301773E+02  0.28443645329E+03  0.84747705444E+03  0.89820509982E+03  0.81510009692E+02 0.  0.
          4    1    6    6  501    0 -0.43589837793E+02  0.76390420794E+02  0.21542217780E+03  0.23268494803E+03  0.00000000000E+00 0. -1.
         -3    1    6    6    0  501  0.11855536019E+02  0.20804603250E+03  0.63205487663E+03  0.66552015180E+03  0.00000000000E+00 0.  1.
          5    1    5    5  502    0 -0.16804264426E+02 -0.16941964314E+02  0.94797723648E+02  0.97867828557E+02  0.47000000000E+01 0. -1.
         11    1    4    4    0    0 -0.68227822074E+01 -0.47865673750E+02 -0.54534806416E+01  0.48656073944E+02  0.00000000000E+00 0. -1.
        -12    1    4    4    0    0  0.89095292713E+01  0.11777775845E+02 -0.54299845982E+02  0.56272275495E+02  0.00000000000E+00 0.  1.
         -5    1    3    3    0  504  0.46451819135E+02 -0.23140659107E+03 -0.16138733167E+03  0.28596283450E+03  0.47000000000E+01 0.  1.
<mgrwt>
<rscale>  2 0.32277343E+03</rscale>
<asrwt>0</asrwt>
<pdfrwt beam="1">  1       21 0.16216140E+00 0.32292340E+03</pdfrwt>
<pdfrwt beam="2">  1       21 0.51217692E-01 0.32292340E+03</pdfrwt>
<totfact> 0.78853253E+02</totfact>
</mgrwt>
</event>
<event>
12    1  0.1410528E-001  0.1937913E+03  0.7546771E-02  0.1155564E+00
         21   -1    0    0  502  503  0.00000000000E+00  0.00000000000E+00  0.34654195289E+03  0.34654195289E+03  0.00000000000E+00 0.  1.
         21   -1    0    0  503  504 -0.00000000000E+00 -0.00000000000E+00 -0.17622769989E+03  0.17622769989E+03  0.00000000000E+00 0.  1.
         -6    2    1    2    0  504  0.78666950000E+02 -0.21985420584E+02 -0.78181526560E+02  0.20896753354E+03  0.17573625476E+03 0.  0.
        -24    2    3    3    0    0  0.55668776413E+02  0.30704184585E+02  0.12150376567E+02  0.10178986234E+03  0.78560707776E+02 0.  0.
          6    2    1    2  502    0 -0.78666950000E+02  0.21985420584E+02  0.24849577956E+03  0.31380211923E+03  0.17334869435E+03 0.  0.
         24    2    5    5    0    0 -0.64055931707E+02  0.31477795276E+02  0.26717843007E+03  0.28782677587E+03  0.79786749725E+02 0.  0.
          4    1    6    6  501    0 -0.40809463577E+02  0.41481283965E+02  0.25130286629E+03  0.25795201074E+03  0.00000000000E+00 0. -1.
         -3    1    6    6    0  501 -0.23246468131E+02 -0.10003488690E+02  0.15875563777E+02  0.29874765133E+02  0.00000000000E+00 0.  1.
          5    1    5    5  502    0 -0.14611018293E+02 -0.94923746914E+01 -0.18682650507E+02  0.25975343363E+02  0.47000000000E+01 0. -1.
         11    1    4    4    0    0 -0.70001043680E+01  0.36292096111E+02  0.12038862126E+02  0.38872251061E+02  0.00000000000E+00 0. -1.
        -12    1    4    4    0    0  0.62668880781E+02 -0.55879115263E+01  0.11151444085E+00  0.62917611279E+02  0.00000000000E+00 0.  1.
         -5    1    3    3    0  504  0.22998173587E+02 -0.52689605169E+02 -0.90331903128E+02  0.10717767120E+03  0.47000000000E+01 0.  1.
<mgrwt>
<rscale>  2 0.19324843E+03</rscale>
<asrwt>0</asrwt>
<pdfrwt beam="1">  1       21 0.53314147E-01 0.19379133E+03</pdfrwt>
<pdfrwt beam="2">  1       21 0.27111954E-01 0.19379133E+03</pdfrwt>
<totfact> 0.43166255E+04</totfact>
</mgrwt>
</event>
<event>
12    1  0.1410528E-001  0.2572931E+03  0.7546771E-02  0.1108857E+00
         21   -1    0    0  502  503  0.00000000000E+00  0.00000000000E+00  0.77412185181E+03  0.77412185181E+03  0.00000000000E+00 0.  1.
         21   -1    0    0  503  504 -0.00000000000E+00 -0.00000000000E+00 -0.85387219424E+02  0.85387219424E+02  0.00000000000E+00 0. -1.
         -6    2    1    2    0  504 -0.18179104682E+03 -0.55601783871E+02  0.35309989474E+03  0.43660194394E+03  0.17263307539E+03 0.  0.
        -24    2    3    3    0    0 -0.55851182958E+02  0.12282996643E+02  0.77717445147E+02  0.12623639128E+03  0.81396551276E+02 0.  0.
          6    2    1    2  502    0  0.18179104682E+03  0.55601783871E+02  0.33563473765E+03  0.42290712729E+03  0.17337882837E+03 0.  0.
         24    2    5    5    0    0  0.89386251062E+02 -0.36446237726E+02  0.15206125088E+03  0.19766770001E+03  0.81435038434E+02 0.  0.
          2    1    6    6  501    0  0.91922208103E+02 -0.30470988380E+01  0.12100120931E+03  0.15198772914E+03  0.00000000000E+00 0. -1.
         -1    1    6    6    0  501 -0.25359570413E+01 -0.33399138888E+02  0.31060041571E+02  0.45679970873E+02  0.00000000000E+00 0.  1.
          5    1    5    5  502    0  0.92404795755E+02  0.92048021597E+02  0.18357348676E+03  0.22523942728E+03  0.47000000000E+01 0. -1.
         11    1    4    4    0    0 -0.63545213657E+01  0.40303956060E+02  0.44478507643E+02  0.60358317223E+02  0.00000000000E+00 0. -1.
        -12    1    4    4    0    0 -0.49496661592E+02 -0.28020959417E+02  0.33238937505E+02  0.65878074060E+02  0.00000000000E+00 0.  1.
         -5    1    3    3    0  504 -0.12593986386E+03 -0.67884780514E+02  0.27538244959E+03  0.31036555266E+03  0.47000000000E+01 0.  1.
<mgrwt>
<rscale>  2 0.25716757E+03</rscale>
<asrwt>0</asrwt>
<pdfrwt beam="1">  1       21 0.11909566E+00 0.25729314E+03</pdfrwt>
<pdfrwt beam="2">  1       21 0.13136496E-01 0.25729314E+03</pdfrwt>
<totfact> 0.25916736E+04</totfact>
</mgrwt>
</event>
<event>
12    1  0.1410528E-001  0.1880130E+03  0.7546771E-02  0.1160412E+00
         21   -1    0    0  502  503  0.00000000000E+00  0.00000000000E+00  0.63799443801E+03  0.63799443801E+03  0.00000000000E+00 0. -1.
         21   -1    0    0  503  504 -0.00000000000E+00 -0.00000000000E+00 -0.74576171397E+02  0.74576171397E+02  0.00000000000E+00 0.  1.
         -6    2    1    2    0  504 -0.56763668089E+02  0.43935057998E+02  0.99835914886E+02  0.21231318194E+03  0.17308169744E+03 0.  0.
        -24    2    3    3    0    0  0.10481915335E+02 -0.47707285849E+00  0.10351350289E+03  0.13150463963E+03  0.80425908865E+02 0.  0.
          6    2    1    2  502    0  0.56763668089E+02 -0.43935057998E+02  0.46358235173E+03  0.50025742747E+03  0.17377138304E+03 0.  0.
         24    2    5    5    0    0 -0.32914831398E+01 -0.62885029741E+02  0.38910110725E+03  0.40260872856E+03  0.82028993806E+02 0.  0.
          4    1    6    6  501    0  0.25319632500E+02 -0.67326682837E+02  0.23318658234E+03  0.24402858069E+03  0.00000000000E+00 0. -1.
         -3    1    6    6    0  501 -0.28611115640E+02  0.44416530960E+01  0.15591452490E+03  0.15858014786E+03  0.00000000000E+00 0.  1.
          5    1    5    5  502    0  0.60055151229E+02  0.18949971743E+02  0.74481244485E+02  0.97648698907E+02  0.47000000000E+01 0. -1.
         13    1    4    4    0    0  0.11922052519E+02 -0.33039677150E+02  0.16935626277E+02  0.38994500123E+02  0.00000000000E+00 0. -1.
        -14    1    4    4    0    0 -0.14401371839E+01  0.32562604292E+02  0.86577876611E+02  0.92510139508E+02  0.00000000000E+00 0.  1.
         -5    1    3    3    0  504 -0.67245583425E+02  0.44412130856E+02 -0.36775880014E+01  0.80808542313E+02  0.47000000000E+01 0.  1.
<mgrwt>
<rscale>  2 0.18785351E+03</rscale>
<asrwt>0</asrwt>
<pdfrwt beam="1">  1       21 0.98152987E-01 0.18801302E+03</pdfrwt>
<pdfrwt beam="2">  1       21 0.11473258E-01 0.18801302E+03</pdfrwt>
<totfact> 0.54671409E+04</totfact>
</mgrwt>
</event>
<event>
12    1  0.1410528E-001  0.2145831E+03  0.7546771E-02  0.1138544E+00
         21   -1    0    0  502  503  0.00000000000E+00  0.00000000000E+00  0.44754778209E+03  0.44754778209E+03  0.00000000000E+00 0. -1.
         21   -1    0    0  503  504 -0.00000000000E+00 -0.00000000000E+00 -0.11232675630E+03  0.11232675630E+03  0.00000000000E+00 0. -1.
         -6    2    1    2    0  504 -0.43703219984E+02 -0.11702264762E+03  0.81773617012E+02  0.22963630089E+03  0.17447531273E+03 0.  0.
        -24    2    3    3    0    0 -0.44231673388E+02 -0.12864455283E+03  0.11219864093E+02  0.15797550272E+03  0.79526801804E+02 0.  0.
          6    2    1    2  502    0  0.43703219984E+02  0.11702264762E+03  0.25344740877E+03  0.33023823750E+03  0.17093107675E+03 0.  0.
         24    2    5    5    0    0  0.79571237984E+02  0.53553816343E+02  0.99006860486E+02  0.15939099516E+03  0.80022107916E+02 0.  0.
          2    1    6    6  501    0  0.24244440512E+01  0.28920458638E+02  0.65701191266E+02  0.71825604004E+02  0.00000000000E+00 0. -1.
         -1    1    6    6    0  501  0.77146793933E+02  0.24633357705E+02  0.33305669220E+02  0.87565391155E+02  0.00000000000E+00 0.  1.
          5    1    5    5  502    0 -0.35868018000E+02  0.63468831280E+02  0.15444054829E+03  0.17084724234E+03  0.47000000000E+01 0. -1.
         13    1    4    4    0    0 -0.55500614950E+01 -0.31930242501E+02 -0.31683210082E+02  0.45322945291E+02  0.00000000000E+00 0. -1.
        -14    1    4    4    0    0 -0.38681611893E+02 -0.96714310331E+02  0.42903074175E+02  0.11265255743E+03  0.00000000000E+00 0.  1.
         -5    1    3    3    0  504  0.52845340366E+00  0.11621905209E+02  0.70553752919E+02  0.71660798171E+02  0.47000000000E+01 0.  1.
<mgrwt>
<rscale>  2 0.21386154E+03</rscale>
<asrwt>0</asrwt>
<pdfrwt beam="1">  1       21 0.68853504E-01 0.21458310E+03</pdfrwt>
<pdfrwt beam="2">  1       21 0.17281040E-01 0.21458310E+03</pdfrwt>
<totfact> 0.57567727E+04</totfact>
</mgrwt>
</event>
<event>
12    1  0.1410528E-001  0.1746939E+03  0.7546771E-02  0.1173117E+00
         21   -1    0    0  502  503  0.00000000000E+00  0.00000000000E+00  0.24843312579E+02  0.24843312579E+02  0.00000000000E+00 0. -1.
         21   -1    0    0  503  504 -0.00000000000E+00 -0.00000000000E+00 -0.12676108287E+04  0.12676108287E+04  0.00000000000E+00 0. -1.
         -6    2    1    2    0  504  0.24913874219E+02 -0.67460620017E+00 -0.73862899422E+03  0.75900643048E+03  0.17290695240E+03 0.  0.
        -24    2    3    3    0    0  0.82258288874E+02  0.62647934226E+01 -0.54203972434E+03  0.55405285479E+03  0.79761077014E+02 0.  0.
          6    2    1    2  502    0 -0.24913874219E+02  0.67460620017E+00 -0.50413852192E+03  0.53344771081E+03  0.17259679797E+03 0.  0.
         24    2    5    5    0    0 -0.70766080706E+02 -0.32307569507E+02 -0.39054011897E+03  0.40649521613E+03  0.81640424950E+02 0.  0.
          4    1    6    6  501    0 -0.55101516331E+02 -0.41484750522E+01 -0.10065894924E+03  0.11482861582E+03  0.00000000000E+00 0. -1.
         -3    1    6    6    0  501 -0.15664564375E+02 -0.28159094455E+02 -0.28988116972E+03  0.29166660031E+03  0.00000000000E+00 0.  1.
          5    1    5    5  502    0  0.45852206486E+02  0.32982175707E+02 -0.11359840295E+03  0.12695249468E+03  0.47000000000E+01 0. -1.
         13    1    4    4    0    0  0.60356003092E+02  0.34230816543E+02 -0.45138701154E+03  0.45668898618E+03  0.00000000000E+00 0. -1.
        -14    1    4    4    0    0  0.21902285781E+02 -0.27966023121E+02 -0.90652712802E+02  0.97363868606E+02  0.00000000000E+00 0.  1.
         -5    1    3    3    0  504 -0.57344414654E+02 -0.69393996228E+01 -0.19658926987E+03  0.20495357569E+03  0.47000000000E+01 0.  1.
<mgrwt>
<rscale>  2 0.17461714E+03</rscale>
<asrwt>0</asrwt>
<pdfrwt beam="1">  1       21 0.38220486E-02 0.17469393E+03</pdfrwt>
<pdfrwt beam="2">  1       21 0.19501702E+00 0.17469393E+03</pdfrwt>
<totfact> 0.61846195E+04</totfact>
</mgrwt>
</event>
<event>
12    1  0.1410528E-001  0.2229381E+03  0.7546771E-02  0.1132095E+00
         21   -1    0    0  502  503  0.00000000000E+00  0.00000000000E+00  0.15521915701E+03  0.15521915701E+03  0.00000000000E+00 0. -1.
         21   -1    0    0  503  504 -0.00000000000E+00 -0.00000000000E+00 -0.49358841869E+03  0.49358841869E+03  0.00000000000E+00 0.  1.
         -6    2    1    2    0  504  0.32503053699E+02  0.13481056135E+03 -0.36361305394E+03  0.42651595367E+03  0.17455964534E+03 0.  0.
        -24    2    3    3    0    0  0.66900402471E+02  0.83104315766E+02 -0.13311235456E+03  0.18774959119E+03  0.78415680224E+02 0.  0.
          6    2    1    2  502    0 -0.32503053699E+02 -0.13481056135E+03  0.25243792255E+02  0.22229162203E+03  0.17188944187E+03 0.  0.
         24    2    5    5    0    0 -0.45919590377E+01  0.58278815796E+00  0.23677642497E+02  0.83962553783E+02  0.80421725632E+02 0.  0.
          4    1    6    6  501    0 -0.37431571575E+02 -0.18697046965E+02  0.17632210545E+02  0.45404812129E+02  0.00000000000E+00 0. -1.
         -3    1    6    6    0  501  0.32839612537E+02  0.19279835123E+02  0.60454319529E+01  0.38557741654E+02  0.00000000000E+00 0.  1.
          5    1    5    5  502    0 -0.27911094662E+02 -0.13539334951E+03  0.15661497577E+01  0.13832906825E+03  0.47000000000E+01 0. -1.
         11    1    4    4    0    0  0.36743995681E+02  0.60149301713E+02 -0.27701442029E+02  0.75732619166E+02  0.00000000000E+00 0. -1.
        -12    1    4    4    0    0  0.30156406790E+02  0.22955014053E+02 -0.10541091253E+03  0.11201697202E+03  0.00000000000E+00 0.  1.
         -5    1    3    3    0  504 -0.34397348771E+02  0.51706245588E+02 -0.23050069939E+03  0.23876636248E+03  0.47000000000E+01 0.  1.
<mgrwt>
<rscale>  2 0.22241516E+03</rscale>
<asrwt>0</asrwt>
<pdfrwt beam="1">  1       21 0.23879870E-01 0.22293812E+03</pdfrwt>
<pdfrwt beam="2">  1       21 0.75936679E-01 0.22293812E+03</pdfrwt>
<totfact> 0.25131280E+04</totfact>
</mgrwt>
</event>
<event>
12    1  0.1410528E-001  0.2002388E+03  0.7546771E-02  0.1149568E+00
         21   -1    0    0  502  503  0.00000000000E+00  0.00000000000E+00  0.59278782468E+02  0.59278782468E+02  0.00000000000E+00 0. -1.
         21   -1    0    0  503  504 -0.00000000000E+00 -0.00000000000E+00 -0.67694591904E+03  0.67694591904E+03  0.00000000000E+00 0.  1.
         -6    2    1    2    0  504  0.88954685212E+02  0.46266223432E+02 -0.32315052310E+03  0.38008483318E+03  0.17316096669E+03 0.  0.
        -24    2    3    3    0    0  0.45131999329E+02  0.35648145393E+02 -0.31996661421E+03  0.33463817593E+03  0.79349775975E+02 0.  0.
          6    2    1    2  502    0 -0.88954685212E+02 -0.46266223432E+02 -0.29451661347E+03  0.35613986832E+03  0.17332648600E+03 0.  0.
         24    2    5    5    0    0 -0.70304810633E+02 -0.69657303629E+02 -0.29942424103E+03  0.32546194038E+03  0.80471685522E+02 0.  0.
          2    1    6    6  501    0 -0.42069117368E+02 -0.64487968675E+02 -0.11237403219E+03  0.13622199474E+03  0.00000000000E+00 0. -1.
         -1    1    6    6    0  501 -0.28235693265E+02 -0.51693349536E+01 -0.18705020884E+03  0.18923994564E+03  0.00000000000E+00 0.  1.
          5    1    5    5  502    0 -0.18649874580E+02  0.23391080197E+02  0.49076275641E+01  0.30677927943E+02  0.47000000000E+01 0. -1.
         11    1    4    4    0    0  0.36183328858E+02 -0.16106494308E+02 -0.83613330801E+02  0.92519411659E+02  0.00000000000E+00 0. -1.
        -12    1    4    4    0    0  0.89486704715E+01  0.51754639701E+02 -0.23635328341E+03  0.24211876428E+03  0.00000000000E+00 0.  1.
         -5    1    3    3    0  504  0.43822685883E+02  0.10618078039E+02 -0.31839088862E+01  0.45446657248E+02  0.47000000000E+01 0.  1.
<mgrwt>
<rscale>  2 0.20020296E+03</rscale>
<asrwt>0</asrwt>
<pdfrwt beam="1">  1       21 0.91198125E-02 0.20023878E+03</pdfrwt>
<pdfrwt beam="2">  1       21 0.10414553E+00 0.20023878E+03</pdfrwt>
<totfact> 0.70854292E+04</totfact>
</mgrwt>
</event>
<event>
12    1  0.1410528E-001  0.1784377E+03  0.7546771E-02  0.1169734E+00
         21   -1    0    0  502  503  0.00000000000E+00  0.00000000000E+00  0.39983305100E+03  0.39983305100E+03  0.00000000000E+00 0. -1.
         21   -1    0    0  503  504 -0.00000000000E+00 -0.00000000000E+00 -0.79092952697E+02  0.79092952697E+02  0.00000000000E+00 0. -1.
         -6    2    1    2    0  504 -0.66337148475E+01  0.34947829702E+02  0.14899611239E+03  0.23246474413E+03  0.17485610880E+03 0.  0.
        -24    2    3    3    0    0  0.20996769924E+02  0.81545087328E+02  0.70737294375E+02  0.13716899027E+03  0.81982324077E+02 0.  0.
          6    2    1    2  502    0  0.66337148475E+01 -0.34947829702E+02  0.17174398591E+03  0.24646125957E+03  0.17315253044E+03 0.  0.
         24    2    5    5    0    0  0.12186567578E+02 -0.90293988037E+02  0.11504805819E+03  0.16689650835E+03  0.79478752516E+02 0.  0.
          4    1    6    6  501    0  0.25952086786E+02 -0.57543957526E+02  0.11521047179E+03  0.13137073748E+03  0.00000000000E+00 0. -1.
         -3    1    6    6    0  501 -0.13765519208E+02 -0.32750030511E+02 -0.16241360357E+00  0.35525770867E+02  0.00000000000E+00 0.  1.
          5    1    5    5  502    0 -0.55528527310E+01  0.55346158335E+02  0.56695927727E+02  0.79564751220E+02  0.47000000000E+01 0. -1.
         13    1    4    4    0    0 -0.22131259351E+02  0.59063096062E+02  0.60640815155E+02  0.87496002306E+02  0.00000000000E+00 0. -1.
        -14    1    4    4    0    0  0.43128029275E+02  0.22481991266E+02  0.10096479219E+02  0.49672987962E+02  0.00000000000E+00 0.  1.
         -5    1    3    3    0  504 -0.27630484772E+02 -0.46597257626E+02  0.78258818018E+02  0.95295753864E+02  0.47000000000E+01 0.  1.
<mgrwt>
<rscale>  2 0.17801897E+03</rscale>
<asrwt>0</asrwt>
<pdfrwt beam="1">  1       21 0.61512776E-01 0.17843771E+03</pdfrwt>
<pdfrwt beam="2">  1       21 0.12168147E-01 0.17843771E+03</pdfrwt>
<totfact> 0.14125906E+05</totfact>
</mgrwt>
</event>
<event>
12    1  0.1410528E-001  0.1902181E+03  0.7546771E-02  0.1158618E+00
         21   -1    0    0  502  503  0.00000000000E+00  0.00000000000E+00  0.64505135347E+03  0.64505135347E+03  0.00000000000E+00 0.  1.
         21   -1    0    0  503  504 -0.00000000000E+00 -0.00000000000E+00 -0.10181968498E+03  0.10181968498E+03  0.00000000000E+00 0.  1.
         -6    2    1    2    0  504  0.68638007475E+01  0.76686539107E+02  0.20718443150E+02  0.19134312517E+03  0.17393964650E+03 0.  0.
        -24    2    3    3    0    0  0.12164237586E+02  0.11980768723E+03  0.95875775992E+01  0.14624862202E+03  0.82431105800E+02 0.  0.
          6    2    1    2  502    0 -0.68638007475E+01 -0.76686539107E+02  0.52251322534E+03  0.55552791328E+03  0.17223023757E+03 0.  0.
         24    2    5    5    0    0 -0.56344839603E+01 -0.11807399160E+03  0.35221694923E+03  0.38020722396E+03  0.80793186139E+02 0.  0.
          4    1    6    6  501    0  0.21426052687E+00 -0.75358475744E+02  0.10491210795E+03  0.12917235064E+03  0.00000000000E+00 0. -1.
         -3    1    6    6    0  501 -0.58487444871E+01 -0.42715515860E+02  0.24730484127E+03  0.25103487332E+03  0.00000000000E+00 0.  1.
          5    1    5    5  502    0 -0.12293167872E+01  0.41387452498E+02  0.17029627612E+03  0.17532068932E+03  0.47000000000E+01 0. -1.
         13    1    4    4    0    0 -0.22480878718E+02  0.21329006788E+02 -0.21036280538E+02  0.37454526260E+02  0.00000000000E+00 0. -1.
        -14    1    4    4    0    0  0.34645116303E+02  0.98478680444E+02  0.30623858137E+02  0.10879409576E+03  0.00000000000E+00 0.  1.
         -5    1    3    3    0  504 -0.53004368383E+01 -0.43121148126E+02  0.11130865551E+02  0.45094503149E+02  0.47000000000E+01 0.  1.
<mgrwt>
<rscale>  2 0.18982646E+03</rscale>
<asrwt>0</asrwt>
<pdfrwt beam="1">  1       21 0.99238667E-01 0.19021813E+03</pdfrwt>
<pdfrwt beam="2">  1       21 0.15664567E-01 0.19021813E+03</pdfrwt>
<totfact> 0.30341655E+04</totfact>
</mgrwt>
</event>
<event>
12    1  0.1410528E-001  0.1940062E+03  0.7546771E-02  0.1154941E+00
         21   -1    0    0  502  503  0.00000000000E+00  0.00000000000E+00  0.18006816019E+03  0.18006816019E+03  0.00000000000E+00 0. -1.
         21   -1    0    0  503  504 -0.00000000000E+00 -0.00000000000E+00 -0.36791178438E+03  0.36791178438E+03  0.00000000000E+00 0. -1.
         -6    2    1    2    0  504 -0.85765056971E+02 -0.14189237681E+02 -0.27412812773E+03  0.33583422794E+03  0.17343995728E+03 0.  0.
        -24    2    3    3    0    0 -0.71147150409E+02 -0.71239396330E+02 -0.15161093267E+03  0.19981600534E+03  0.82483892272E+02 0.  0.
          6    2    1    2  502    0  0.85765056971E+02  0.14189237681E+02  0.86284503542E+02  0.21214571663E+03  0.17321607913E+03 0.  0.
         24    2    5    5    0    0 -0.14638235016E+02  0.37656971018E+02  0.45722897497E+02  0.10124535849E+03  0.80794268792E+02 0.  0.
          4    1    6    6  501    0  0.10408557367E+01  0.20101659195E+02  0.66728097780E+02  0.69697913285E+02  0.00000000000E+00 0. -1.
         -3    1    6    6    0  501 -0.15679090753E+02  0.17555311823E+02 -0.21005200282E+02  0.31547445205E+02  0.00000000000E+00 0.  1.
          5    1    5    5  502    0  0.10040329199E+03 -0.23467733337E+02  0.40561606045E+02  0.11090035814E+03  0.47000000000E+01 0. -1.
         13    1    4    4    0    0 -0.80930767599E+02 -0.69837306052E+02 -0.97093103583E+02  0.14440951916E+03  0.00000000000E+00 0. -1.
        -14    1    4    4    0    0  0.97836171895E+01 -0.14020902778E+01 -0.54517829087E+02  0.55406486180E+02  0.00000000000E+00 0.  1.
         -5    1    3    3    0  504 -0.14617906562E+02  0.57050158649E+02 -0.12251719506E+03  0.13601822260E+03  0.47000000000E+01 0.  1.
<mgrwt>
<rscale>  2 0.19395613E+03</rscale>
<asrwt>0</asrwt>
<pdfrwt beam="1">  1       21 0.27702794E-01 0.19400618E+03</pdfrwt>
<pdfrwt beam="2">  1       21 0.56601813E-01 0.19400618E+03</pdfrwt>
<totfact> 0.36479577E+04</totfact>
</mgrwt>
</event>
<event>
12    1  0.1410528E-001  0.2263814E+03  0.7546771E-02  0.1129262E+00
         21   -1    0    0  502  503  0.00000000000E+00  0.00000000000E+00  0.20491497744E+03  0.20491497744E+03  0.00000000000E+00 0. -1.
         21   -1    0    0  503  504 -0.00000000000E+00 -0.00000000000E+00 -0.26054514751E+03  0.26054514751E+03  0.00000000000E+00 0.  1.
         -6    2    1    2    0  504  0.12880804354E+03  0.67427044170E+02  0.19470620813E+02  0.22694666676E+03  0.17316976097E+03 0.  0.
        -24    2    3    3    0    0  0.96249536566E+02  0.35629251947E+02 -0.47937108226E+02  0.14547858773E+03  0.91283274811E+02 0.  0.
          6    2    1    2  502    0 -0.12880804354E+03 -0.67427044170E+02 -0.75100790878E+02  0.23851345819E+03  0.17352412680E+03 0.  0.
         24    2    5    5    0    0 -0.92643302156E+02 -0.25115199496E+02  0.17167735943E+02  0.13065358724E+03  0.86960186416E+02 0.  0.
          4    1    6    6  501    0 -0.54969772598E+02 -0.23279688353E+02  0.52107600244E+02  0.79239016857E+02  0.00000000000E+00 0. -1.
         -3    1    6    6    0  501 -0.37673529557E+02 -0.18355111421E+01 -0.34939864300E+02  0.51414570384E+02  0.00000000000E+00 0.  1.
          5    1    5    5  502    0 -0.36164741380E+02 -0.42311844674E+02 -0.92268526822E+02  0.10785987095E+03  0.47000000000E+01 0. -1.
         11    1    4    4    0    0  0.92293393892E+02  0.19196159125E+02  0.40211587270E+00  0.94269426531E+02  0.00000000000E+00 0. -1.
        -12    1    4    4    0    0  0.39561426738E+01  0.16433092822E+02 -0.48339224098E+02  0.51209161202E+02  0.00000000000E+00 0.  1.
         -5    1    3    3    0  504  0.32558506970E+02  0.31797792223E+02  0.67407729039E+02  0.81468079028E+02  0.47000000000E+01 0.  1.
<mgrwt>
<rscale>  2 0.22631350E+03</rscale>
<asrwt>0</asrwt>
<pdfrwt beam="1">  1       21 0.31525381E-01 0.22638141E+03</pdfrwt>
<pdfrwt beam="2">  1       21 0.40083869E-01 0.22638141E+03</pdfrwt>
<totfact> 0.57135295E+04</totfact>
</mgrwt>
</event>
<event>
12    1  0.1410528E-001  0.1873542E+03  0.7546771E-02  0.1160982E+00
         21   -1    0    0  502  503  0.00000000000E+00  0.00000000000E+00  0.68488324709E+03  0.68488324709E+03  0.00000000000E+00 0.  1.
         21   -1    0    0  503  504 -0.00000000000E+00 -0.00000000000E+00 -0.59641175696E+02  0.59641175696E+02  0.00000000000E+00 0. -1.
         -6    2    1    2    0  504 -0.20606888949E+02  0.63573382309E+02  0.17154455832E+03  0.25366492716E+03  0.17450541818E+03 0.  0.
        -24    2    3    3    0    0 -0.56190726479E+02  0.14514820991E+02  0.30847993972E+02  0.10039860617E+03  0.75896005280E+02 0.  0.
          6    2    1    2  502    0  0.20606888949E+02 -0.63573382309E+02  0.45369751307E+03  0.49085949563E+03  0.17502968967E+03 0.  0.
         24    2    5    5    0    0 -0.36583882299E+02  0.18613467859E+02  0.19006071997E+03  0.20881001178E+03  0.76116372197E+02 0.  0.
          2    1    6    6  501    0 -0.12428388591E+02 -0.29556047051E+02  0.82351268708E+02  0.88372825110E+02  0.00000000000E+00 0. -1.
         -1    1    6    6    0  501 -0.24155493708E+02  0.48169514910E+02  0.10770945126E+03  0.12043718667E+03  0.00000000000E+00 0.  1.
          5    1    5    5  502    0  0.57190771247E+02 -0.82186850168E+02  0.26363679311E+03  0.28204948384E+03  0.47000000000E+01 0. -1.
         13    1    4    4    0    0 -0.19487314777E+02  0.11987572154E+02 -0.24766192850E+02  0.33716785607E+02  0.00000000000E+00 0. -1.
        -14    1    4    4    0    0 -0.36703411702E+02  0.25272488370E+01  0.55614186822E+02  0.66681820560E+02  0.00000000000E+00 0.  1.
         -5    1    3    3    0  504  0.35583837530E+02  0.49058561317E+02  0.14069656435E+03  0.15326632100E+03  0.47000000000E+01 0.  1.
<mgrwt>
<rscale>  2 0.18723170E+03</rscale>
<asrwt>0</asrwt>
<pdfrwt beam="1">  1       21 0.10536665E+00 0.18735424E+03</pdfrwt>
<pdfrwt beam="2">  1       21 0.91755660E-02 0.18735424E+03</pdfrwt>
<totfact> 0.68580655E+04</totfact>
</mgrwt>
</event>
<event>
12    1  0.1410528E-001  0.1945671E+03  0.7546771E-02  0.1154476E+00
         21   -1    0    0  502  503  0.00000000000E+00  0.00000000000E+00  0.71390858626E+02  0.71390858626E+02  0.00000000000E+00 0.  1.
         21   -1    0    0  503  504 -0.00000000000E+00 -0.00000000000E+00 -0.15464157926E+04  0.15464157926E+04  0.00000000000E+00 0.  1.
         -6    2    1    2    0  504  0.53557168977E+02  0.71154532370E+02 -0.13932962572E+04  0.14067712353E+04  0.17262534709E+03 0.  0.
        -24    2    3    3    0    0  0.56352088056E+02  0.99658444560E+02 -0.79426123165E+03  0.80703351233E+03  0.85701939983E+02 0.  0.
          6    2    1    2  502    0 -0.53557168977E+02 -0.71154532370E+02 -0.81728676863E+02  0.21103541596E+03  0.17298853240E+03 0.  0.
         24    2    5    5    0    0 -0.81584517617E+02 -0.74999177942E+02 -0.17636235672E+02  0.14081971552E+03  0.85077877635E+02 0.  0.
          4    1    6    6  501    0 -0.43099417214E+02  0.10042945924E+02  0.56523594720E+01  0.44613559537E+02  0.00000000000E+00 0. -1.
         -3    1    6    6    0  501 -0.38485100403E+02 -0.85042123866E+02 -0.23288595144E+02  0.96206155980E+02  0.00000000000E+00 0.  1.
          5    1    5    5  502    0  0.28027348639E+02  0.38446455718E+01 -0.64092441191E+02  0.70215700446E+02  0.47000000000E+01 0. -1.
         13    1    4    4    0    0  0.22412305611E+02  0.56298071531E+02 -0.17239683078E+03  0.18273601606E+03  0.00000000000E+00 0. -1.
        -14    1    4    4    0    0  0.33939782445E+02  0.43360373028E+02 -0.62186440087E+03  0.62429749627E+03  0.00000000000E+00 0.  1.
         -5    1    3    3    0  504 -0.27949190788E+01 -0.28503912190E+02 -0.59903502551E+03  0.59973772298E+03  0.47000000000E+01 0.  1.
<mgrwt>
<rscale>  2 0.19448638E+03</rscale>
<asrwt>0</asrwt>
<pdfrwt beam="1">  1       21 0.10983209E-01 0.19456714E+03</pdfrwt>
<pdfrwt beam="2">  1       21 0.23791012E+00 0.19456714E+03</pdfrwt>
<totfact> 0.53775155E+03</totfact>
</mgrwt>
</event>
<event>
12    1  0.1410528E-001  0.2180890E+03  0.7546771E-02  0.1135552E+00
         21   -1    0    0  502  503  0.00000000000E+00  0.00000000000E+00  0.23085376024E+03  0.23085376024E+03  0.00000000000E+00 0.  1.
         21   -1    0    0  503  504 -0.00000000000E+00 -0.00000000000E+00 -0.20616187797E+03  0.20616187797E+03  0.00000000000E+00 0. -1.
         -6    2    1    2    0  504 -0.13253336679E+03 -0.21457441512E+02 -0.50468378237E+01  0.21814740215E+03  0.17186420041E+03 0.  0.
        -24    2    3    3    0    0 -0.13634800839E+02 -0.32567774363E+02  0.27715717014E+02  0.94228947184E+02  0.82851468285E+02 0.  0.
          6    2    1    2  502    0  0.13253336679E+03  0.21457441512E+02  0.29738720096E+02  0.21886823605E+03  0.17027447892E+03 0.  0.
         24    2    5    5    0    0  0.58506996878E+02 -0.49603790681E+02  0.34332536667E+02  0.11604413715E+03  0.80024458513E+02 0.  0.
          2    1    6    6  501    0  0.75874661712E+02 -0.48952887016E+02  0.17753003950E+02  0.92024554258E+02  0.00000000000E+00 0. -1.
         -1    1    6    6    0  501 -0.17367664834E+02 -0.65090366431E+00  0.16579532717E+02  0.24019582896E+02  0.00000000000E+00 0.  1.
          5    1    5    5  502    0  0.74026369915E+02  0.71061232193E+02 -0.45938165702E+01  0.10282409890E+03  0.47000000000E+01 0. -1.
         11    1    4    4    0    0 -0.20882996850E+02  0.30131084902E+01 -0.23413286489E+02  0.31517619904E+02  0.00000000000E+00 0. -1.
        -12    1    4    4    0    0  0.72481960107E+01 -0.35580882853E+02  0.51129003503E+02  0.62711327280E+02  0.00000000000E+00 0.  1.
         -5    1    3    3    0  504 -0.11889856595E+03  0.11110332851E+02 -0.32762554838E+02  0.12391845497E+03  0.47000000000E+01 0.  1.
<mgrwt>
<rscale>  2 0.21777570E+03</rscale>
<asrwt>0</asrwt>
<pdfrwt beam="1">  1       21 0.35515963E-01 0.21808902E+03</pdfrwt>
<pdfrwt beam="2">  1       21 0.31717212E-01 0.21808902E+03</pdfrwt>
<totfact> 0.72258122E+04</totfact>
</mgrwt>
</event>
<event>
12    1  0.1410528E-001  0.1853315E+03  0.7546771E-02  0.1162817E+00
         21   -1    0    0  502  503  0.00000000000E+00  0.00000000000E+00  0.36785412348E+03  0.36785412348E+03  0.00000000000E+00 0.  1.
         21   -1    0    0  503  504 -0.00000000000E+00 -0.00000000000E+00 -0.96791653465E+02  0.96791653465E+02  0.00000000000E+00 0.  1.
         -6    2    1    2    0  504 -0.64814216486E+02  0.12679213962E+02  0.90944422959E+02  0.20644288822E+03  0.17316504527E+03 0.  0.
        -24    2    3    3    0    0  0.20145840504E+01  0.28036927089E+02 -0.83449723301E+01  0.85685188879E+02  0.80512018982E+02 0.  0.
          6    2    1    2  502    0  0.64814216486E+02 -0.12679213962E+02  0.18011804705E+03  0.25820288872E+03  0.17281370242E+03 0.  0.
         24    2    5    5    0    0 -0.33770534124E+01  0.34370471547E+02  0.43818795869E+02  0.98630654074E+02  0.81333789088E+02 0.  0.
          2    1    6    6  501    0 -0.37126072397E+02 -0.38568634179E+01  0.20045056583E+02  0.42367734663E+02  0.00000000000E+00 0. -1.
         -1    1    6    6    0  501  0.33749018985E+02  0.38227334965E+02  0.23773739286E+02  0.56262919411E+02  0.00000000000E+00 0.  1.
          5    1    5    5  502    0  0.68191269898E+02 -0.47049685509E+02  0.13629925118E+03  0.15957223465E+03  0.47000000000E+01 0. -1.
         13    1    4    4    0    0 -0.33162958536E+01  0.49550773631E+02  0.16556062926E+02  0.52348640911E+02  0.00000000000E+00 0. -1.
        -14    1    4    4    0    0  0.53308799040E+01 -0.21513846542E+02 -0.24901035256E+02  0.33336547968E+02  0.00000000000E+00 0.  1.
         -5    1    3    3    0  504 -0.66828800536E+02 -0.15357713127E+02  0.99289395289E+02  0.12075769934E+03  0.47000000000E+01 0.  1.
<mgrwt>
<rscale>  2 0.18524942E+03</rscale>
<asrwt>0</asrwt>
<pdfrwt beam="1">  1       21 0.56592941E-01 0.18533154E+03</pdfrwt>
<pdfrwt beam="2">  1       21 0.14891024E-01 0.18533154E+03</pdfrwt>
<totfact> 0.11701865E+05</totfact>
</mgrwt>
</event>
<event>
12    1  0.1410528E-001  0.2640883E+03  0.7546771E-02  0.1104740E+00
         21   -1    0    0  502  503  0.00000000000E+00  0.00000000000E+00  0.45048981946E+03  0.45048981946E+03  0.00000000000E+00 0.  1.
         21   -1    0    0  503  504 -0.00000000000E+00 -0.00000000000E+00 -0.30187186676E+03  0.30187186676E+03  0.00000000000E+00 0. -1.
         -6    2    1    2    0  504  0.72197170360E+02 -0.18599000872E+03 -0.18836744775E+03  0.32422408677E+03  0.17272593412E+03 0.  0.
        -24    2    3    3    0    0  0.97629831097E+02 -0.17772262911E+03 -0.11441741069E+03  0.24544675641E+03  0.77690730119E+02 0.  0.
          6    2    1    2  502    0 -0.72197170360E+02  0.18599000872E+03  0.33698540045E+03  0.42813759944E+03  0.17302580497E+03 0.  0.
         24    2    5    5    0    0 -0.68755880656E+02  0.11130083429E+03  0.10854511201E+03  0.18772676226E+03  0.79649539162E+02 0.  0.
          2    1    6    6  501    0 -0.51876880579E+02  0.11284019377E+03  0.63266684118E+02  0.13938003224E+03  0.00000000000E+00 0. -1.
         -1    1    6    6    0  501 -0.16879000077E+02 -0.15393594748E+01  0.45278427897E+02  0.48346730024E+02  0.00000000000E+00 0.  1.
          5    1    5    5  502    0 -0.34412897039E+01  0.74689174432E+02  0.22844028844E+03  0.24041083718E+03  0.47000000000E+01 0. -1.
         13    1    4    4    0    0  0.62048172079E+02 -0.16390702902E+03 -0.75168355023E+02  0.19069811592E+03  0.00000000000E+00 0. -1.
        -14    1    4    4    0    0  0.35581659019E+02 -0.13815600090E+02 -0.39249055670E+02  0.54748640489E+02  0.00000000000E+00 0.  1.
         -5    1    3    3    0  504 -0.25432660737E+02 -0.82673796124E+01 -0.73950037057E+02  0.78777330360E+02  0.47000000000E+01 0.  1.
<mgrwt>
<rscale>  2 0.26403922E+03</rscale>
<asrwt>0</asrwt>
<pdfrwt beam="1">  1       21 0.69306126E-01 0.26408833E+03</pdfrwt>
<pdfrwt beam="2">  1       21 0.46441826E-01 0.26408833E+03</pdfrwt>
<totfact> 0.80413109E+03</totfact>
</mgrwt>
</event>
<event>
12    1  0.1410528E-001  0.1831984E+03  0.7546771E-02  0.1165334E+00
         21   -1    0    0  502  503  0.00000000000E+00  0.00000000000E+00  0.22404168954E+03  0.22404168954E+03  0.00000000000E+00 0.  1.
         21   -1    0    0  503  504 -0.00000000000E+00 -0.00000000000E+00 -0.59035393245E+03  0.59035393245E+03  0.00000000000E+00 0.  1.
         -6    2    1    2    0  504 -0.61471036858E+02  0.10378002011E+02 -0.53540928784E+03  0.56508561263E+03  0.16962385681E+03 0.  0.
        -24    2    3    3    0    0 -0.56819474988E+02 -0.50724024677E+02 -0.25267222399E+03  0.27574596452E+03  0.79945010830E+02 0.  0.
          6    2    1    2  502    0  0.61471036858E+02 -0.10378002011E+02  0.16909704493E+03  0.24931000936E+03  0.17226514118E+03 0.  0.
         24    2    5    5    0    0 -0.31443702802E+01  0.46738900978E+02  0.64443135880E+02  0.11361910279E+03  0.81005992539E+02 0.  0.
          4    1    6    6  501    0 -0.38548946591E+02  0.35289513570E+02  0.20756144507E+02  0.56233340521E+02  0.00000000000E+00 0. -1.
         -3    1    6    6    0  501  0.35404576311E+02  0.11449387408E+02  0.43686991373E+02  0.57385762267E+02  0.00000000000E+00 0.  1.
          5    1    5    5  502    0  0.64615407138E+02 -0.57116902989E+02  0.10465390905E+03  0.13569090657E+03  0.47000000000E+01 0. -1.
         11    1    4    4    0    0 -0.60258259754E+02 -0.36450026586E+01 -0.11012384943E+03  0.12558505535E+03  0.00000000000E+00 0. -1.
        -12    1    4    4    0    0  0.34387847659E+01 -0.47079022019E+02 -0.14254837455E+03  0.15016090917E+03  0.00000000000E+00 0.  1.
         -5    1    3    3    0  504 -0.46515618693E+01  0.61102026689E+02 -0.28273706385E+03  0.28933964811E+03  0.47000000000E+01 0.  1.
<mgrwt>
<rscale>  2 0.18257491E+03</rscale>
<asrwt>0</asrwt>
<pdfrwt beam="1">  1       21 0.34467952E-01 0.18319844E+03</pdfrwt>
<pdfrwt beam="2">  1       21 0.90823683E-01 0.18319844E+03</pdfrwt>
<totfact> 0.84018191E+03</totfact>
</mgrwt>
</event>
<event>
12    1  0.1410528E-001  0.2104923E+03  0.7546771E-02  0.1141180E+00
         21   -1    0    0  502  503  0.00000000000E+00  0.00000000000E+00  0.35111998974E+03  0.35111998974E+03  0.00000000000E+00 0.  1.
         21   -1    0    0  503  504 -0.00000000000E+00 -0.00000000000E+00 -0.31803825667E+03  0.31803825667E+03  0.00000000000E+00 0.  1.
         -6    2    1    2    0  504 -0.11351517081E+03 -0.39756067860E+02 -0.24332608631E+03  0.32172727376E+03  0.17272699692E+03 0.  0.
        -24    2    3    3    0    0 -0.10383616586E+03  0.23642567368E+02 -0.10738862536E+03  0.17134724392E+03  0.80539684679E+02 0.  0.
          6    2    1    2  502    0  0.11351517081E+03  0.39756067860E+02  0.27640781938E+03  0.34743097265E+03  0.17274478055E+03 0.  0.
         24    2    5    5    0    0 -0.14029748317E+01  0.47322028579E+02  0.13373854515E+03  0.16401877085E+03  0.82309270475E+02 0.  0.
          2    1    6    6  501    0 -0.22569330738E+02 -0.14129149290E+02  0.21100053503E+02  0.33973810611E+02  0.00000000000E+00 0. -1.
         -1    1    6    6    0  501  0.21166355907E+02  0.61451177868E+02  0.11263849164E+03  0.13004496024E+03  0.00000000000E+00 0.  1.
          5    1    5    5  502    0  0.11491814564E+03 -0.75659607182E+01  0.14266927423E+03  0.18341220180E+03  0.47000000000E+01 0. -1.
         11    1    4    4    0    0 -0.88127765036E+01  0.33080791973E+02 -0.11741295811E+02  0.36192013685E+02  0.00000000000E+00 0. -1.
        -12    1    4    4    0    0 -0.95023389361E+02 -0.94382246051E+01 -0.95647329549E+02  0.13515523023E+03  0.00000000000E+00 0.  1.
         -5    1    3    3    0  504 -0.96790049458E+01 -0.63398635228E+02 -0.13593746095E+03  0.15038002984E+03  0.47000000000E+01 0.  1.
<mgrwt>
<rscale>  2 0.21048863E+03</rscale>
<asrwt>0</asrwt>
<pdfrwt beam="1">  1       21 0.54018460E-01 0.21049228E+03</pdfrwt>
<pdfrwt beam="2">  1       21 0.48928962E-01 0.21049228E+03</pdfrwt>
<totfact> 0.12766844E+04</totfact>
</mgrwt>
</event>
<event>
12    1  0.1410528E-001  0.2169930E+03  0.7546771E-02  0.1136218E+00
         21   -1    0    0  502  503  0.00000000000E+00  0.00000000000E+00  0.69653548206E+03  0.69653548206E+03  0.00000000000E+00 0. -1.
         21   -1    0    0  503  504 -0.00000000000E+00 -0.00000000000E+00 -0.87247531943E+02  0.87247531943E+02  0.00000000000E+00 0. -1.
         -6    2    1    2    0  504 -0.13034184912E+03 -0.82436575612E+01  0.11789984191E+03  0.24661614795E+03  0.17280681754E+03 0.  0.
        -24    2    3    3    0    0 -0.10698667248E+03  0.26674156394E+02  0.14461074263E+03  0.19661334578E+03  0.74745449020E+02 0.  0.
          6    2    1    2  502    0  0.13034184912E+03  0.82436575612E+01  0.49138810821E+03  0.53716686605E+03  0.17328881547E+03 0.  0.
         24    2    5    5    0    0 -0.35870282276E+01 -0.29876895387E+01  0.16629640748E+03  0.18535755515E+03  0.81738210481E+02 0.  0.
          2    1    6    6  501    0 -0.14950348314E+02 -0.34789069765E+02  0.41972292240E+02  0.56528449525E+02  0.00000000000E+00 0. -1.
         -1    1    6    6    0  501  0.11363320086E+02  0.31801380227E+02  0.12432411524E+03  0.12882910563E+03  0.00000000000E+00 0.  1.
          5    1    5    5  502    0  0.13392887735E+03  0.11231347100E+02  0.32509170074E+03  0.35180931090E+03  0.47000000000E+01 0. -1.
         13    1    4    4    0    0 -0.30081068161E+00  0.24691684997E+02  0.15665337758E+02  0.29243334320E+02  0.00000000000E+00 0. -1.
        -14    1    4    4    0    0 -0.10668586180E+03  0.19824713969E+01  0.12894540487E+03  0.16737001146E+03  0.00000000000E+00 0.  1.
         -5    1    3    3    0  504 -0.23355176646E+02 -0.34917813955E+02 -0.26710900722E+02  0.50002802171E+02  0.47000000000E+01 0.  1.
<mgrwt>
<rscale>  2 0.21689677E+03</rscale>
<asrwt>0</asrwt>
<pdfrwt beam="1">  1       21 0.10715930E+00 0.21699302E+03</pdfrwt>
<pdfrwt beam="2">  1       21 0.13422698E-01 0.21699302E+03</pdfrwt>
<totfact> 0.32933266E+04</totfact>
</mgrwt>
</event>
<event>
12    1  0.1410528E-001  0.2044230E+03  0.7546771E-02  0.1146241E+00
         21   -1    0    0  502  503  0.00000000000E+00  0.00000000000E+00  0.10013303637E+03  0.10013303637E+03  0.00000000000E+00 0. -1.
         21   -1    0    0  503  504 -0.00000000000E+00 -0.00000000000E+00 -0.63402342265E+03  0.63402342265E+03  0.00000000000E+00 0. -1.
         -6    2    1    2    0  504 -0.93916144893E+02 -0.57022008639E+02 -0.48280717628E+03  0.52430097746E+03  0.17238617623E+03 0.  0.
        -24    2    3    3    0    0 -0.69697117996E+02  0.32273833451E+02 -0.28252110326E+03  0.30362721435E+03  0.80448883919E+02 0.  0.
          6    2    1    2  502    0  0.93916144893E+02  0.57022008639E+02 -0.51083210001E+02  0.20985548157E+03  0.17134198861E+03 0.  0.
         24    2    5    5    0    0  0.57628564998E+02  0.68959106417E+02  0.31319121673E+02  0.11890760077E+03  0.71286185729E+02 0.  0.
          2    1    6    6  501    0  0.54301833803E+02  0.17813860484E+02  0.35836240187E+02  0.67455606813E+02  0.00000000000E+00 0. -1.
         -1    1    6    6    0  501  0.33267311945E+01  0.51145245933E+02 -0.45171185145E+01  0.51451993952E+02  0.00000000000E+00 0.  1.
          5    1    5    5  502    0  0.36287579895E+02 -0.11937097778E+02 -0.82402331674E+02  0.90947880807E+02  0.47000000000E+01 0. -1.
         11    1    4    4    0    0 -0.16508229054E+02 -0.11135066364E+02 -0.17451847830E+03  0.17565082009E+03  0.00000000000E+00 0. -1.
        -12    1    4    4    0    0 -0.53188888942E+02  0.43408899815E+02 -0.10800262497E+03  0.12797639427E+03  0.00000000000E+00 0.  1.
         -5    1    3    3    0  504 -0.24219026897E+02 -0.89295842091E+02 -0.20028607302E+03  0.22067376310E+03  0.47000000000E+01 0.  1.
<mgrwt>
<rscale>  2 0.20420266E+03</rscale>
<asrwt>0</asrwt>
<pdfrwt beam="1">  1       21 0.15405082E-01 0.20442296E+03</pdfrwt>
<pdfrwt beam="2">  1       21 0.97542066E-01 0.20442296E+03</pdfrwt>
<totfact> 0.32320660E+04</totfact>
</mgrwt>
</event>
<event>
12    1  0.1410528E-001  0.2614019E+03  0.7546771E-02  0.1106518E+00
         21   -1    0    0  502  503  0.00000000000E+00  0.00000000000E+00  0.98282857020E+03  0.98282857020E+03  0.00000000000E+00 0. -1.
         21   -1    0    0  503  504 -0.00000000000E+00 -0.00000000000E+00 -0.18658869472E+03  0.18658869472E+03  0.00000000000E+00 0.  1.
         -6    2    1    2    0  504  0.33585335978E+02  0.19061613033E+03 -0.65362111530E+02  0.26944974272E+03  0.17569426369E+03 0.  0.
        -24    2    3    3    0    0 -0.50631490502E+01  0.18954392399E+02 -0.35511537191E+00  0.81807910457E+02  0.79419793735E+02 0.  0.
          6    2    1    2  502    0 -0.33585335978E+02 -0.19061613033E+03  0.86160198701E+03  0.89996752220E+03  0.17355423669E+03 0.  0.
         24    2    5    5    0    0  0.19003296963E+02 -0.61094216290E+02  0.44357251953E+03  0.45915892858E+03  0.99883497409E+02 0.  0.
          2    1    6    6  501    0 -0.16868759009E+02 -0.76839674232E+02  0.27046778019E+03  0.28167660657E+03  0.00000000000E+00 0. -1.
         -1    1    6    6    0  501  0.35872055973E+02  0.15745457943E+02  0.17310473933E+03  0.17748232201E+03  0.00000000000E+00 0.  1.
          5    1    5    5  502    0 -0.52588632942E+02 -0.12952191404E+03  0.41802946748E+03  0.44080859362E+03  0.47000000000E+01 0. -1.
         11    1    4    4    0    0  0.10139895448E+02  0.35906610513E+02  0.27118093670E+02  0.46124756504E+02  0.00000000000E+00 0. -1.
        -12    1    4    4    0    0 -0.15203044498E+02 -0.16952218114E+02 -0.27473209042E+02  0.35683153953E+02  0.00000000000E+00 0.  1.
         -5    1    3    3    0  504  0.38648485029E+02  0.17166173794E+03 -0.65006996158E+02  0.18764183226E+03  0.47000000000E+01 0.  1.
<mgrwt>
<rscale>  2 0.26104279E+03</rscale>
<asrwt>0</asrwt>
<pdfrwt beam="1">  1       21 0.15120439E+00 0.26140191E+03</pdfrwt>
<pdfrwt beam="2">  1       21 0.28705954E-01 0.26140191E+03</pdfrwt>
<totfact> 0.32191845E+03</totfact>
</mgrwt>
</event>
<event>
12    1  0.1410528E-001  0.1775310E+03  0.7546771E-02  0.1170364E+00
         21   -1    0    0  502  503  0.00000000000E+00  0.00000000000E+00  0.58134915198E+02  0.58134915198E+02  0.00000000000E+00 0. -1.
         21   -1    0    0  503  504 -0.00000000000E+00 -0.00000000000E+00 -0.59030019434E+03  0.59030019434E+03  0.00000000000E+00 0. -1.
         -6    2    1    2    0  504 -0.25597800570E+02  0.26081290064E+02 -0.17130089638E+03  0.24626556554E+03  0.17311051552E+03 0.  0.
        -24    2    3    3    0    0 -0.37342363501E+02  0.79821686869E+02 -0.13583851065E+03  0.18064822173E+03  0.80098222400E+02 0.  0.
          6    2    1    2  502    0  0.25597800570E+02 -0.26081290064E+02 -0.36086438277E+03  0.40216954400E+03  0.17372897941E+03 0.  0.
         24    2    5    5    0    0 -0.32252687054E+02  0.19336507529E+02 -0.11808584214E+03  0.14845126510E+03  0.81727447360E+02 0.  0.
          4    1    6    6  501    0 -0.52744823829E+02  0.19220988534E+02 -0.11467269787E+03  0.12767650715E+03  0.00000000000E+00 0. -1.
         -3    1    6    6    0  501  0.20492136775E+02  0.11551899513E+00 -0.34131442653E+01  0.20774757953E+02  0.00000000000E+00 0.  1.
          5    1    5    5  502    0  0.57850487623E+02 -0.45417797593E+02 -0.24277854063E+03  0.25371827890E+03  0.47000000000E+01 0. -1.
         11    1    4    4    0    0 -0.57396927715E+02  0.52817239699E+02 -0.62456657422E+02  0.99924482370E+02  0.00000000000E+00 0. -1.
        -12    1    4    4    0    0  0.20054564214E+02  0.27004447170E+02 -0.73381853231E+02  0.80723739361E+02  0.00000000000E+00 0.  1.
         -5    1    3    3    0  504  0.11744562931E+02 -0.53740396805E+02 -0.35462385723E+02  0.65617343807E+02  0.47000000000E+01 0.  1.
<mgrwt>
<rscale>  2 0.17737947E+03</rscale>
<asrwt>0</asrwt>
<pdfrwt beam="1">  1       21 0.89438328E-02 0.17753095E+03</pdfrwt>
<pdfrwt beam="2">  1       21 0.90815417E-01 0.17753095E+03</pdfrwt>
<totfact> 0.10223046E+05</totfact>
</mgrwt>
</event>
<event>
12    1  0.1410528E-001  0.1884898E+03  0.7546771E-02  0.1160597E+00
         21   -1    0    0  502  503  0.00000000000E+00  0.00000000000E+00  0.44441894235E+03  0.44441894235E+03  0.00000000000E+00 0.  1.
         21   -1    0    0  503  504 -0.00000000000E+00 -0.00000000000E+00 -0.82172748787E+02  0.82172748787E+02  0.00000000000E+00 0. -1.
         -6    2    1    2    0  504 -0.62539787374E+02 -0.35980752007E+02  0.12727642370E+03  0.22743725876E+03  0.17413379661E+03 0.  0.
        -24    2    3    3    0    0  0.33158816564E+02 -0.22679128646E+02  0.61073654249E+02  0.11021928802E+03  0.82489091501E+02 0.  0.
          6    2    1    2  502    0  0.62539787374E+02  0.35980752007E+02  0.23496976986E+03  0.29915443238E+03  0.17051903748E+03 0.  0.
         24    2    5    5    0    0  0.46792702005E+02  0.44168031102E+02  0.25377660633E+03  0.27287156087E+03  0.76915218792E+02 0.  0.
          2    1    6    6  501    0 -0.13404455408E+02  0.36991766612E+02  0.11056289883E+03  0.11735512268E+03  0.00000000000E+00 0. -1.
         -1    1    6    6    0  501  0.60197157413E+02  0.71762644902E+01  0.14321370750E+03  0.15551643819E+03  0.00000000000E+00 0.  1.
          5    1    5    5  502    0  0.15747085369E+02 -0.81872790948E+01 -0.18806836469E+02  0.26282871505E+02  0.47000000000E+01 0. -1.
         13    1    4    4    0    0  0.30121986974E+02 -0.45025579515E+02  0.10966707109E+02  0.55271200229E+02  0.00000000000E+00 0. -1.
        -14    1    4    4    0    0  0.30368295908E+01  0.22346450870E+02  0.50106947140E+02  0.54948087793E+02  0.00000000000E+00 0.  1.
         -5    1    3    3    0  504 -0.95698603938E+02 -0.13301623362E+02  0.66202769454E+02  0.11721797073E+03  0.47000000000E+01 0.  1.
<mgrwt>
<rscale>  2 0.18765068E+03</rscale>
<asrwt>0</asrwt>
<pdfrwt beam="1">  1       21 0.68372143E-01 0.18848984E+03</pdfrwt>
<pdfrwt beam="2">  1       21 0.12641962E-01 0.18848984E+03</pdfrwt>
<totfact> 0.10446397E+05</totfact>
</mgrwt>
</event>
<event>
12    1  0.1410528E-001  0.1841488E+03  0.7546771E-02  0.1163877E+00
         21   -1    0    0  502  503  0.00000000000E+00  0.00000000000E+00  0.63783963896E+03  0.63783963896E+03  0.00000000000E+00 0. -1.
         21   -1    0    0  503  504 -0.00000000000E+00 -0.00000000000E+00 -0.90688354366E+02  0.90688354366E+02  0.00000000000E+00 0. -1.
         -6    2    1    2    0  504 -0.35776880813E+02 -0.52768905162E+02  0.39207274506E+02  0.18827637071E+03  0.17276064031E+03 0.  0.
        -24    2    3    3    0    0 -0.70999231276E+02 -0.73498142466E+02  0.22945749184E+01  0.13300474469E+03  0.85100700638E+02 0.  0.
          6    2    1    2  502    0  0.35776880813E+02  0.52768905162E+02  0.50794401009E+03  0.54025162262E+03  0.17262721629E+03 0.  0.
         24    2    5    5    0    0 -0.20902697807E+02  0.77336874172E+02  0.24704702161E+03  0.27209963525E+03  0.81166900482E+02 0.  0.
          2    1    6    6  501    0 -0.47225785750E+02  0.44356326943E+02  0.19265930518E+03  0.20326181750E+03  0.00000000000E+00 0. -1.
         -1    1    6    6    0  501  0.26323087943E+02  0.32980547228E+02  0.54387716429E+02  0.68837817751E+02  0.00000000000E+00 0.  1.
          5    1    5    5  502    0  0.56679578620E+02 -0.24567969010E+02  0.26089698847E+03  0.26815198736E+03  0.47000000000E+01 0. -1.
         11    1    4    4    0    0 -0.56317124522E+02 -0.33562171734E+02  0.39452043186E+02  0.76514714908E+02  0.00000000000E+00 0. -1.
        -12    1    4    4    0    0 -0.14682106755E+02 -0.39935970732E+02 -0.37157468268E+02  0.56490029785E+02  0.00000000000E+00 0.  1.
         -5    1    3    3    0  504  0.35222350463E+02  0.20729237304E+02  0.36912699587E+02  0.55271626013E+02  0.47000000000E+01 0.  1.
<mgrwt>
<rscale>  2 0.18411750E+03</rscale>
<asrwt>0</asrwt>
<pdfrwt beam="1">  1       21 0.98129172E-01 0.18414880E+03</pdfrwt>
<pdfrwt beam="2">  1       21 0.13952055E-01 0.18414880E+03</pdfrwt>
<totfact> 0.38580247E+04</totfact>
</mgrwt>
</event>
<event>
12    1  0.1410528E-001  0.4942185E+03  0.7546771E-02  0.1015391E+00
         21   -1    0    0  502  503  0.00000000000E+00  0.00000000000E+00  0.22059822323E+03  0.22059822323E+03  0.00000000000E+00 0. -1.
         21   -1    0    0  503  504 -0.00000000000E+00 -0.00000000000E+00 -0.20468320900E+04  0.20468320900E+04  0.00000000000E+00 0.  1.
         -6    2    1    2    0  504  0.43733588424E+03  0.14726916029E+03 -0.16832004164E+04  0.17542564036E+04  0.17692090530E+03 0.  0.
        -24    2    3    3    0    0  0.97170305338E+02  0.53796669950E+02 -0.58141160441E+03  0.59735951812E+03  0.80391480895E+02 0.  0.
          6    2    1    2  502    0 -0.43733588424E+03 -0.14726916029E+03 -0.14303345037E+03  0.51317390959E+03  0.17302604528E+03 0.  0.
         24    2    5    5    0    0 -0.23204237612E+03 -0.22953234331E+02 -0.31942269394E+02  0.24866830584E+03  0.80281395586E+02 0.  0.
          2    1    6    6  501    0  0.10536112383E+01  0.49743200995E+01 -0.12032243958E+02  0.13062497914E+02  0.00000000000E+00 0. -1.
         -1    1    6    6    0  501 -0.23309598735E+03 -0.27927554430E+02 -0.19910025436E+02  0.23560580793E+03  0.00000000000E+00 0.  1.
          5    1    5    5  502    0 -0.20529350812E+03 -0.12431592596E+03 -0.11109118097E+03  0.26450560374E+03  0.47000000000E+01 0. -1.
         11    1    4    4    0    0  0.63818645923E+02  0.74089983733E+02 -0.43232383376E+03  0.44324490126E+03  0.00000000000E+00 0. -1.
        -12    1    4    4    0    0  0.33351659415E+02 -0.20293313783E+02 -0.14908777065E+03  0.15411461685E+03  0.00000000000E+00 0.  1.
         -5    1    3    3    0  504  0.34016557890E+03  0.93472490335E+02 -0.11017888120E+04  0.11568968855E+04  0.47000000000E+01 0.  1.
<mgrwt>
<rscale>  2 0.49387288E+03</rscale>
<asrwt>0</asrwt>
<pdfrwt beam="1">  1       21 0.33938188E-01 0.49421846E+03</pdfrwt>
<pdfrwt beam="2">  1       21 0.31489724E+00 0.49421846E+03</pdfrwt>
<totfact> 0.17755050E+02</totfact>
</mgrwt>
</event>
<event>
12    1  0.1410528E-001  0.1743451E+03  0.7546771E-02  0.1173584E+00
         21   -1    0    0  502  503  0.00000000000E+00  0.00000000000E+00  0.43783464802E+02  0.43783464802E+02  0.00000000000E+00 0. -1.
         21   -1    0    0  503  504 -0.00000000000E+00 -0.00000000000E+00 -0.87264374340E+03  0.87264374340E+03  0.00000000000E+00 0. -1.
         -6    2    1    2    0  504  0.47374632023E+01  0.11596200347E+02 -0.62264775407E+03  0.64639050397E+03  0.17312868787E+03 0.  0.
        -24    2    3    3    0    0  0.35486516338E+02  0.29001907916E+02 -0.59403354662E+03  0.60068136055E+03  0.76431923299E+02 0.  0.
          6    2    1    2  502    0 -0.47374632023E+01 -0.11596200347E+02 -0.20621252453E+03  0.27003670423E+03  0.17389451094E+03 0.  0.
         24    2    5    5    0    0 -0.25921598717E+02 -0.73054442356E+02 -0.13463597786E+03  0.17323187407E+03  0.76639120765E+02 0.  0.
          2    1    6    6  501    0 -0.35095095141E+02 -0.27719738829E+02 -0.18818593400E+02  0.48519986410E+02  0.00000000000E+00 0. -1.
         -1    1    6    6    0  501  0.91734964238E+01 -0.45334703527E+02 -0.11581738446E+03  0.12471188766E+03  0.00000000000E+00 0.  1.
          5    1    5    5  502    0  0.21184135515E+02  0.61458242009E+02 -0.71576546667E+02  0.96804830154E+02  0.47000000000E+01 0. -1.
         11    1    4    4    0    0  0.29985223587E+02 -0.15679152885E+02 -0.12521716364E+03  0.12970847134E+03  0.00000000000E+00 0. -1.
        -12    1    4    4    0    0  0.55012927508E+01  0.44681060801E+02 -0.46881638298E+03  0.47097288920E+03  0.00000000000E+00 0.  1.
         -5    1    3    3    0  504 -0.30749053135E+02 -0.17405707569E+02 -0.28614207449E+02  0.45709143425E+02  0.47000000000E+01 0.  1.
<mgrwt>
<rscale>  2 0.17415383E+03</rscale>
<asrwt>0</asrwt>
<pdfrwt beam="1">  1       21 0.67359175E-02 0.17434511E+03</pdfrwt>
<pdfrwt beam="2">  1       21 0.13425289E+00 0.17434511E+03</pdfrwt>
<totfact> 0.65006896E+04</totfact>
</mgrwt>
</event>
<event>
12    1  0.1410528E-001  0.2203046E+03  0.7546771E-02  0.1133744E+00
         21   -1    0    0  502  503  0.00000000000E+00  0.00000000000E+00  0.20348744552E+03  0.20348744552E+03  0.00000000000E+00 0.  1.
         21   -1    0    0  503  504 -0.00000000000E+00 -0.00000000000E+00 -0.23824329071E+03  0.23824329071E+03  0.00000000000E+00 0. -1.
         -6    2    1    2    0  504 -0.96003063999E+01  0.13680659617E+03 -0.10392313839E+02  0.22054960367E+03  0.17241205542E+03 0.  0.
        -24    2    3    3    0    0  0.11221699849E+02  0.31941424666E+02 -0.53838904604E+02  0.10505087472E+03  0.83611467358E+02 0.  0.
          6    2    1    2  502    0  0.96003063999E+01 -0.13680659617E+03 -0.24363531352E+02  0.22118113256E+03  0.17181181886E+03 0.  0.
         24    2    5    5    0    0 -0.17247570888E+01 -0.15490945168E+03  0.16737173004E+02  0.17462655878E+03  0.78831396449E+02 0.  0.
          4    1    6    6  501    0 -0.34661558899E+02 -0.11857650040E+03  0.21350608886E+02  0.12537008659E+03  0.00000000000E+00 0. -1.
         -3    1    6    6    0  501  0.32936801810E+02 -0.36332951282E+02 -0.46134358824E+01  0.49256472194E+02  0.00000000000E+00 0.  1.
          5    1    5    5  502    0  0.11325063489E+02  0.18102855506E+02 -0.41100704356E+02  0.46554573772E+02  0.47000000000E+01 0. -1.
         11    1    4    4    0    0  0.31644699584E+02  0.22780128009E+02 -0.68126835330E+02  0.78495776548E+02  0.00000000000E+00 0. -1.
        -12    1    4    4    0    0 -0.20422999735E+02  0.91612966569E+01  0.14287930726E+02  0.26555098174E+02  0.00000000000E+00 0.  1.
         -5    1    3    3    0  504 -0.20822006249E+02  0.10486517151E+03  0.43446590765E+02  0.11549872895E+03  0.47000000000E+01 0.  1.
<mgrwt>
<rscale>  2 0.22018717E+03</rscale>
<asrwt>0</asrwt>
<pdfrwt beam="1">  1       21 0.31305761E-01 0.22030462E+03</pdfrwt>
<pdfrwt beam="2">  1       21 0.36652814E-01 0.22030462E+03</pdfrwt>
<totfact> 0.69549360E+04</totfact>
</mgrwt>
</event>
<event>
12    1  0.1410528E-001  0.1794897E+03  0.7546771E-02  0.1169497E+00
         21   -1    0    0  502  503  0.00000000000E+00  0.00000000000E+00  0.32614032050E+03  0.32614032050E+03  0.00000000000E+00 0. -1.
         21   -1    0    0  503  504 -0.00000000000E+00 -0.00000000000E+00 -0.14593646019E+03  0.14593646019E+03  0.00000000000E+00 0.  1.
         -6    2    1    2    0  504  0.29580252961E+02 -0.14231712199E+02 -0.46978733567E+02  0.18553582864E+03  0.17646248696E+03 0.  0.
        -24    2    3    3    0    0  0.42022453447E+02  0.33984738807E+02 -0.79001068641E+02  0.12614597728E+03  0.82163189277E+02 0.  0.
          6    2    1    2  502    0 -0.29580252961E+02  0.14231712199E+02  0.22718259388E+03  0.28654095205E+03  0.17151167086E+03 0.  0.
         24    2    5    5    0    0 -0.66789525715E+02 -0.14895037739E+02  0.21173191063E+03  0.23660388011E+03  0.80425687501E+02 0.  0.
          4    1    6    6  501    0 -0.63501414781E+02 -0.41660427805E+02  0.17720291424E+03  0.19279235913E+03  0.00000000000E+00 0. -1.
         -3    1    6    6    0  501 -0.32881109346E+01  0.26765390066E+02  0.34528996393E+02  0.43811520983E+02  0.00000000000E+00 0.  1.
          5    1    5    5  502    0  0.37209272754E+02  0.29126749937E+02  0.15450683249E+02  0.49937071937E+02  0.47000000000E+01 0. -1.
         13    1    4    4    0    0  0.44324894316E+02 -0.23628398976E+01 -0.63003338276E+01  0.44832727721E+02  0.00000000000E+00 0. -1.
        -14    1    4    4    0    0 -0.23024408692E+01  0.36347578704E+02 -0.72700734813E+02  0.81313249560E+02  0.00000000000E+00 0.  1.
         -5    1    3    3    0  504 -0.12442200486E+02 -0.48216451005E+02  0.32022335074E+02  0.59389851356E+02  0.47000000000E+01 0.  1.
<mgrwt>
<rscale>  2 0.17826087E+03</rscale>
<asrwt>0</asrwt>
<pdfrwt beam="1">  1       21 0.50175434E-01 0.17948967E+03</pdfrwt>
<pdfrwt beam="2">  1       21 0.22451763E-01 0.17948967E+03</pdfrwt>
<totfact> 0.70665066E+04</totfact>
</mgrwt>
</event>
<event>
12    1  0.1410528E-001  0.2001083E+03  0.7546771E-02  0.1149742E+00
         21   -1    0    0  502  503  0.00000000000E+00  0.00000000000E+00  0.14898743819E+04  0.14898743819E+04  0.00000000000E+00 0.  1.
         21   -1    0    0  503  504 -0.00000000000E+00 -0.00000000000E+00 -0.77001463489E+02  0.77001463489E+02  0.00000000000E+00 0.  1.
         -6    2    1    2    0  504  0.83780750520E+02  0.52393114193E+02  0.74242301290E+02  0.21343672100E+03  0.17400879863E+03 0.  0.
        -24    2    3    3    0    0  0.85894953568E+02 -0.22289851906E+02  0.67042363398E+02  0.13823070804E+03  0.82086963699E+02 0.  0.
          6    2    1    2  502    0 -0.83780750520E+02 -0.52393114193E+02  0.13386306171E+04  0.13534391244E+04  0.17349720963E+03 0.  0.
         24    2    5    5    0    0 -0.58886468104E+02 -0.30504935275E+02  0.12919454598E+04  0.12959899156E+04  0.77901367854E+02 0.  0.
          2    1    6    6  501    0  0.67094866037E+01 -0.35630183572E+02  0.50370369427E+03  0.50500687007E+03  0.00000000000E+00 0. -1.
         -1    1    6    6    0  501 -0.65595954708E+02  0.51252482972E+01  0.78824176551E+03  0.79098304554E+03  0.00000000000E+00 0.  1.
          5    1    5    5  502    0 -0.24894282416E+02 -0.21888178918E+02  0.46685157360E+02  0.57449208794E+02  0.47000000000E+01 0. -1.
         11    1    4    4    0    0  0.60111989137E+02  0.25863813261E+02  0.28482995336E+02  0.71369945339E+02  0.00000000000E+00 0. -1.
        -12    1    4    4    0    0  0.25782964431E+02 -0.48153665167E+02  0.38559368062E+02  0.66860762703E+02  0.00000000000E+00 0.  1.
         -5    1    3    3    0  504 -0.21142030487E+01  0.74682966100E+02  0.71999378920E+01  0.75206012962E+02  0.47000000000E+01 0.  1.
<mgrwt>
<rscale>  2 0.19999699E+03</rscale>
<asrwt>0</asrwt>
<pdfrwt beam="1">  1       21 0.22921142E+00 0.20010826E+03</pdfrwt>
<pdfrwt beam="2">  1       21 0.11846380E-01 0.20010826E+03</pdfrwt>
<totfact> 0.52710951E+03</totfact>
</mgrwt>
</event>
<event>
12    1  0.1410528E-001  0.2487571E+03  0.7546771E-02  0.1114204E+00
         21   -1    0    0  502  503  0.00000000000E+00  0.00000000000E+00  0.14479180504E+03  0.14479180504E+03  0.00000000000E+00 0.  1.
         21   -1    0    0  503  504 -0.00000000000E+00 -0.00000000000E+00 -0.52550019424E+03  0.52550019424E+03  0.00000000000E+00 0. -1.
         -6    2    1    2    0  504  0.81432971769E+02  0.16028748757E+03 -0.33584166853E+03  0.41752107833E+03  0.17091172274E+03 0.  0.
        -24    2    3    3    0    0  0.78948964758E+02  0.17533209425E+03 -0.34172808281E+03  0.40051371657E+03  0.81601913415E+02 0.  0.
          6    2    1    2  502    0 -0.81432971769E+02 -0.16028748757E+03 -0.44866720673E+02  0.25277092095E+03  0.17192064533E+03 0.  0.
         24    2    5    5    0    0 -0.11432440019E+03 -0.15313983355E+03 -0.59088965614E+02  0.21592940534E+03  0.81314974846E+02 0.  0.
          2    1    6    6  501    0 -0.81075308126E+02 -0.10884486365E+03 -0.79040591362E+02  0.15705994083E+03  0.00000000000E+00 0. -1.
         -1    1    6    6    0  501 -0.33249092063E+02 -0.44294969901E+02  0.19951625748E+02  0.58869464509E+02  0.00000000000E+00 0.  1.
          5    1    5    5  502    0  0.32891428421E+02 -0.71476540214E+01  0.14222244941E+02  0.36841515614E+02  0.47000000000E+01 0. -1.
         13    1    4    4    0    0  0.42752690227E+01  0.10815191299E+03 -0.16840071990E+03  0.20018470639E+03  0.00000000000E+00 0. -1.
        -14    1    4    4    0    0  0.74673695736E+02  0.67180181256E+02 -0.17332736291E+03  0.20032901019E+03  0.00000000000E+00 0.  1.
         -5    1    3    3    0  504  0.24840070104E+01 -0.15044606677E+02  0.58864142819E+01  0.17007361759E+02  0.47000000000E+01 0.  1.
<mgrwt>
<rscale>  2 0.24858291E+03</rscale>
<asrwt>0</asrwt>
<pdfrwt beam="1">  1       21 0.22275662E-01 0.24875714E+03</pdfrwt>
<pdfrwt beam="2">  1       21 0.80846184E-01 0.24875714E+03</pdfrwt>
<totfact> 0.24577295E+04</totfact>
</mgrwt>
</event>
<event>
12    1  0.1410528E-001  0.3145716E+03  0.7546771E-02  0.1078315E+00
         21   -1    0    0  502  503  0.00000000000E+00  0.00000000000E+00  0.33555468137E+03  0.33555468137E+03  0.00000000000E+00 0.  1.
         21   -1    0    0  503  504 -0.00000000000E+00 -0.00000000000E+00 -0.48833258011E+03  0.48833258011E+03  0.00000000000E+00 0.  1.
         -6    2    1    2    0  504  0.18872015042E+03  0.18031654827E+03 -0.33648272452E+03  0.46062560026E+03  0.17557325241E+03 0.  0.
        -24    2    3    3    0    0  0.11837329915E+03  0.18418565345E+03 -0.20077100860E+03  0.30764387162E+03  0.79994755870E+02 0.  0.
          6    2    1    2  502    0 -0.18872015042E+03 -0.18031654827E+03  0.18370482578E+03  0.36326166122E+03  0.17344226342E+03 0.  0.
         24    2    5    5    0    0 -0.15575103649E+03 -0.20147115545E+03  0.13019930414E+03  0.29678301258E+03  0.79241945420E+02 0.  0.
          2    1    6    6  501    0  0.46276783320E+01 -0.32381377997E+02  0.24576263335E+02  0.40914077861E+02  0.00000000000E+00 0. -1.
         -1    1    6    6    0  501 -0.16037871483E+03 -0.16908977745E+03  0.10562304080E+03  0.25586893472E+03  0.00000000000E+00 0.  1.
          5    1    5    5  502    0 -0.32969113929E+02  0.21154607178E+02  0.53505521642E+02  0.66478648635E+02  0.47000000000E+01 0. -1.
         13    1    4    4    0    0  0.37545386824E+01  0.29161042431E+02 -0.15104055215E+00  0.29402138862E+02  0.00000000000E+00 0. -1.
        -14    1    4    4    0    0  0.11461876047E+03  0.15502461102E+03 -0.20061996805E+03  0.27824173276E+03  0.00000000000E+00 0.  1.
         -5    1    3    3    0  504  0.70346851273E+02 -0.38691051815E+01 -0.13571171592E+03  0.15298172864E+03  0.47000000000E+01 0.  1.
<mgrwt>
<rscale>  2 0.31427513E+03</rscale>
<asrwt>0</asrwt>
<pdfrwt beam="1">  1       21 0.51623797E-01 0.31457164E+03</pdfrwt>
<pdfrwt beam="2">  1       21 0.75128089E-01 0.31457164E+03</pdfrwt>
<totfact> 0.52393330E+03</totfact>
</mgrwt>
</event>
<event>
12    1  0.1410528E-001  0.1919752E+03  0.7546771E-02  0.1158211E+00
         21   -1    0    0  502  503  0.00000000000E+00  0.00000000000E+00  0.58066616036E+03  0.58066616036E+03  0.00000000000E+00 0. -1.
         21   -1    0    0  503  504 -0.00000000000E+00 -0.00000000000E+00 -0.69178929262E+02  0.69178929262E+02  0.00000000000E+00 0. -1.
         -6    2    1    2    0  504 -0.15591447363E+02 -0.81284251825E+02  0.14190074361E+03  0.23337340148E+03  0.16576218102E+03 0.  0.
        -24    2    3    3    0    0 -0.57827653975E+02 -0.96192083660E+02  0.88970866139E+02  0.16387662078E+03  0.79641555065E+02 0.  0.
          6    2    1    2  502    0  0.15591447363E+02  0.81284251825E+02  0.36958648749E+03  0.41647168814E+03  0.17321741386E+03 0.  0.
         24    2    5    5    0    0  0.59560602365E+02  0.16457823281E+01  0.18260612821E+03  0.20848294525E+03  0.81055329531E+02 0.  0.
          4    1    6    6  501    0  0.84278521845E-01 -0.31308806277E+02  0.42915792415E+02  0.53122628813E+02  0.00000000000E+00 0. -1.
         -3    1    6    6    0  501  0.59476323843E+02  0.32954588605E+02  0.13969033580E+03  0.15536031644E+03  0.00000000000E+00 0.  1.
          5    1    5    5  502    0 -0.43969155002E+02  0.79638469497E+02  0.18698035928E+03  0.20798874290E+03  0.47000000000E+01 0. -1.
         11    1    4    4    0    0  0.10972268909E+02 -0.39964130678E+02  0.54736709495E+02  0.68655879517E+02  0.00000000000E+00 0. -1.
        -12    1    4    4    0    0 -0.68799922883E+02 -0.56227952983E+02  0.34234156644E+02  0.95220741262E+02  0.00000000000E+00 0.  1.
         -5    1    3    3    0  504  0.42236206612E+02  0.14907831835E+02  0.52929877473E+02  0.69496780704E+02  0.47000000000E+01 0.  1.
<mgrwt>
<rscale>  2 0.19027815E+03</rscale>
<asrwt>0</asrwt>
<pdfrwt beam="1">  1       21 0.89333252E-01 0.19197525E+03</pdfrwt>
<pdfrwt beam="2">  1       21 0.10642913E-01 0.19197525E+03</pdfrwt>
<totfact> 0.77696793E+04</totfact>
</mgrwt>
</event>
<event>
12    1  0.1410528E-001  0.2308776E+03  0.7546771E-02  0.1126076E+00
         21   -1    0    0  502  503  0.00000000000E+00  0.00000000000E+00  0.73152053419E+02  0.73152053419E+02  0.00000000000E+00 0. -1.
         21   -1    0    0  503  504 -0.00000000000E+00 -0.00000000000E+00 -0.97682083113E+03  0.97682083113E+03  0.00000000000E+00 0. -1.
         -6    2    1    2    0  504  0.14455676353E+03 -0.50006237682E+02 -0.71671895933E+03  0.75289593047E+03  0.17253676061E+03 0.  0.
        -24    2    3    3    0    0  0.14903653756E+03 -0.76606157196E+02 -0.47946868276E+03  0.51407087352E+03  0.79361529767E+02 0.  0.
          6    2    1    2  502    0 -0.14455676353E+03  0.50006237682E+02 -0.18694981838E+03  0.29707695408E+03  0.17293698379E+03 0.  0.
         24    2    5    5    0    0 -0.12546487025E+03  0.99102736205E+02 -0.14333565369E+03  0.22852586424E+03  0.78205978147E+02 0.  0.
          4    1    6    6  501    0 -0.13146185445E+03  0.98329560958E+02 -0.11722474355E+03  0.20172397536E+03  0.00000000000E+00 0. -1.
         -3    1    6    6    0  501  0.59969841981E+01  0.77317524681E+00 -0.26110910138E+02  0.26801888883E+02  0.00000000000E+00 0.  1.
          5    1    5    5  502    0 -0.19091893279E+02 -0.49096498523E+02 -0.43614164691E+02  0.68551089837E+02  0.47000000000E+01 0. -1.
         13    1    4    4    0    0  0.83613231951E+02  0.12546379169E+00 -0.24366115272E+03  0.25760812418E+03  0.00000000000E+00 0. -1.
        -14    1    4    4    0    0  0.65423305606E+02 -0.76731620988E+02 -0.23580753004E+03  0.25646274934E+03  0.00000000000E+00 0.  1.
         -5    1    3    3    0  504 -0.44797740236E+01  0.26599919514E+02 -0.23725027657E+03  0.23882505695E+03  0.47000000000E+01 0.  1.
<mgrwt>
<rscale>  2 0.23080269E+03</rscale>
<asrwt>0</asrwt>
<pdfrwt beam="1">  1       21 0.11254162E-01 0.23087763E+03</pdfrwt>
<pdfrwt beam="2">  1       21 0.15028013E+00 0.23087763E+03</pdfrwt>
<totfact> 0.19096012E+04</totfact>
</mgrwt>
</event>
<event>
12    1  0.1410528E-001  0.2247445E+03  0.7546771E-02  0.1131954E+00
         21   -1    0    0  502  503  0.00000000000E+00  0.00000000000E+00  0.32934861154E+03  0.32934861154E+03  0.00000000000E+00 0.  1.
         21   -1    0    0  503  504 -0.00000000000E+00 -0.00000000000E+00 -0.25476256398E+03  0.25476256398E+03  0.00000000000E+00 0.  1.
         -6    2    1    2    0  504  0.70911156310E+01 -0.13164368515E+03 -0.15163085523E+03  0.27111249552E+03  0.18201572792E+03 0.  0.
        -24    2    3    3    0    0  0.18763400259E+02 -0.51638716232E+02 -0.86948904079E+00  0.99974782510E+02  0.83519931294E+02 0.  0.
          6    2    1    2  502    0 -0.70911156310E+01  0.13164368515E+03  0.22621690279E+03  0.31299868001E+03  0.17150435218E+03 0.  0.
         24    2    5    5    0    0  0.24447661953E+02  0.13374124503E+03  0.10954269539E+03  0.19202738208E+03  0.79940631472E+02 0.  0.
          2    1    6    6  501    0 -0.22180646099E+01  0.95932641196E+02  0.30946855108E+02  0.10082509260E+03  0.00000000000E+00 0. -1.
         -1    1    6    6    0  501  0.26665726563E+02  0.37808603832E+02  0.78595840281E+02  0.91202289479E+02  0.00000000000E+00 0.  1.
          5    1    5    5  502    0 -0.31538777584E+02 -0.20975598794E+01  0.11667420740E+03  0.12097129792E+03  0.47000000000E+01 0. -1.
         13    1    4    4    0    0  0.44529596849E+02 -0.37767097398E+01 -0.71443593533E+01  0.45256937618E+02  0.00000000000E+00 0. -1.
        -14    1    4    4    0    0 -0.25766196590E+02 -0.47862006492E+02  0.62748703125E+01  0.54717844892E+02  0.00000000000E+00 0.  1.
         -5    1    3    3    0  504 -0.11672284628E+02 -0.80004968916E+02 -0.15076136619E+03  0.17113771301E+03  0.47000000000E+01 0.  1.
<mgrwt>
<rscale>  2 0.22260792E+03</rscale>
<asrwt>0</asrwt>
<pdfrwt beam="1">  1       21 0.50669017E-01 0.22474445E+03</pdfrwt>
<pdfrwt beam="2">  1       21 0.39194241E-01 0.22474445E+03</pdfrwt>
<totfact> 0.22844850E+04</totfact>
</mgrwt>
</event>
<event>
12    1  0.1410528E-001  0.1931897E+03  0.7546771E-02  0.1155977E+00
         21   -1    0    0  502  503  0.00000000000E+00  0.00000000000E+00  0.30539718502E+03  0.30539718502E+03  0.00000000000E+00 0. -1.
         21   -1    0    0  503  504 -0.00000000000E+00 -0.00000000000E+00 -0.76437794075E+03  0.76437794075E+03  0.00000000000E+00 0. -1.
         -6    2    1    2    0  504  0.49516429379E+02 -0.64642889101E+02 -0.72030384164E+03  0.74576128557E+03  0.17519044179E+03 0.  0.
        -24    2    3    3    0    0  0.34102414300E+02  0.70226092376E+01 -0.58770427185E+03  0.59417543062E+03  0.80223684197E+02 0.  0.
          6    2    1    2  502    0 -0.49516429379E+02  0.64642889101E+02  0.26132308591E+03  0.32401384020E+03  0.17339156127E+03 0.  0.
         24    2    5    5    0    0 -0.66317587513E+02  0.36314706409E+02  0.70619085503E+02  0.13042956754E+03  0.79423148614E+02 0.  0.
          2    1    6    6  501    0  0.88270959564E+01  0.11202602687E+02 -0.99815978086E+01  0.17408280351E+02  0.00000000000E+00 0. -1.
         -1    1    6    6    0  501 -0.75144683470E+02  0.25112103722E+02  0.80600683312E+02  0.11302128719E+03  0.00000000000E+00 0.  1.
          5    1    5    5  502    0  0.16801158135E+02  0.28328182692E+02  0.19070400041E+03  0.19358427266E+03  0.47000000000E+01 0. -1.
         11    1    4    4    0    0 -0.19879005261E+02  0.19992818903E+02 -0.28764043580E+03  0.28901887129E+03  0.00000000000E+00 0. -1.
        -12    1    4    4    0    0  0.53981419561E+02 -0.12970209666E+02 -0.30006383605E+03  0.30515655933E+03  0.00000000000E+00 0.  1.
         -5    1    3    3    0  504  0.15414015079E+02 -0.71665498339E+02 -0.13259956979E+03  0.15158585495E+03  0.47000000000E+01 0.  1.
<mgrwt>
<rscale>  2 0.19278099E+03</rscale>
<asrwt>0</asrwt>
<pdfrwt beam="1">  1       21 0.46984183E-01 0.19318973E+03</pdfrwt>
<pdfrwt beam="2">  1       21 0.11759661E+00 0.19318973E+03</pdfrwt>
<totfact> 0.24058608E+03</totfact>
</mgrwt>
</event>
<event>
12    1  0.1410528E-001  0.2332522E+03  0.7546771E-02  0.1124391E+00
         21   -1    0    0  502  503  0.00000000000E+00  0.00000000000E+00  0.14316404404E+04  0.14316404404E+04  0.00000000000E+00 0.  1.
         21   -1    0    0  503  504 -0.00000000000E+00 -0.00000000000E+00 -0.38399821759E+02  0.38399821759E+02  0.00000000000E+00 0.  1.
         -6    2    1    2    0  504 -0.13965983078E+03 -0.70026562839E+02  0.77289904574E+03  0.80729576138E+03  0.17304601583E+03 0.  0.
        -24    2    3    3    0    0 -0.37236177031E+02 -0.36303041296E+02  0.54819548360E+03  0.55801346840E+03  0.90312230574E+02 0.  0.
          6    2    1    2  502    0  0.13965983078E+03  0.70026562839E+02  0.62034157292E+03  0.66274450080E+03  0.17319936032E+03 0.  0.
         24    2    5    5    0    0  0.16975692808E+03  0.49512588172E+02  0.48834256423E+03  0.52573177614E+03  0.81526249727E+02 0.  0.
          2    1    6    6  501    0  0.82812168484E+02  0.50474671681E+02  0.16989336493E+03  0.19562541547E+03  0.00000000000E+00 0. -1.
         -1    1    6    6    0  501  0.86944759592E+02 -0.96208350957E+00  0.31844919929E+03  0.33010636067E+03  0.00000000000E+00 0.  1.
          5    1    5    5  502    0 -0.30097097300E+02  0.20513974667E+02  0.13199900869E+03  0.13701272466E+03  0.47000000000E+01 0. -1.
         11    1    4    4    0    0  0.56904583845E+01  0.23524748042E+02  0.67440160340E+02  0.71651729314E+02  0.00000000000E+00 0. -1.
        -12    1    4    4    0    0 -0.42926635415E+02 -0.59827789338E+02  0.48075532326E+03  0.48636173909E+03  0.00000000000E+00 0.  1.
         -5    1    3    3    0  504 -0.10242365375E+03 -0.33723521543E+02  0.22470356214E+03  0.24928229297E+03  0.47000000000E+01 0.  1.
<mgrwt>
<rscale>  2 0.23322377E+03</rscale>
<asrwt>0</asrwt>
<pdfrwt beam="1">  1       21 0.22025233E+00 0.23325224E+03</pdfrwt>
<pdfrwt beam="2">  1       21 0.59076660E-02 0.23325224E+03</pdfrwt>
<totfact> 0.19683163E+04</totfact>
</mgrwt>
</event>
<event>
12    1  0.1410528E-001  0.1857056E+03  0.7546771E-02  0.1162493E+00
         21   -1    0    0  502  503  0.00000000000E+00  0.00000000000E+00  0.25023623892E+03  0.25023623892E+03  0.00000000000E+00 0. -1.
         21   -1    0    0  503  504 -0.00000000000E+00 -0.00000000000E+00 -0.17420199972E+03  0.17420199972E+03  0.00000000000E+00 0. -1.
         -6    2    1    2    0  504  0.33309743477E+02  0.57743209933E+02 -0.59432041601E+02  0.19457372066E+03  0.17286685020E+03 0.  0.
        -24    2    3    3    0    0  0.87684329999E+02  0.54076679527E+02 -0.38452436497E+02  0.13598811718E+03  0.80008431715E+02 0.  0.
          6    2    1    2  502    0 -0.33309743477E+02 -0.57743209933E+02  0.13546628080E+03  0.22986451798E+03  0.17332849186E+03 0.  0.
         24    2    5    5    0    0  0.38733640432E+02 -0.61700468047E+02  0.52557497715E+02  0.11985603936E+03  0.79346940371E+02 0.  0.
          2    1    6    6  501    0  0.31924662900E+02 -0.15235424340E+02 -0.14298961653E+02  0.38154456626E+02  0.00000000000E+00 0. -1.
         -1    1    6    6    0  501  0.68089775316E+01 -0.46465043707E+02  0.66856459368E+02  0.81701582732E+02  0.00000000000E+00 0.  1.
          5    1    5    5  502    0 -0.72043383909E+02  0.39572581143E+01  0.82908783083E+02  0.11000847862E+03  0.47000000000E+01 0. -1.
         11    1    4    4    0    0 -0.35561294596E+01 -0.14210701426E+02 -0.12139186734E+02  0.19024982164E+02  0.00000000000E+00 0. -1.
        -12    1    4    4    0    0  0.91240459458E+02  0.68287380954E+02 -0.26313249763E+02  0.11696313502E+03  0.00000000000E+00 0.  1.
         -5    1    3    3    0  504 -0.54374586522E+02  0.36665304057E+01 -0.20979605104E+02  0.58585603478E+02  0.47000000000E+01 0.  1.
<mgrwt>
<rscale>  2 0.18559784E+03</rscale>
<asrwt>0</asrwt>
<pdfrwt beam="1">  1       21 0.38497883E-01 0.18570564E+03</pdfrwt>
<pdfrwt beam="2">  1       21 0.26800308E-01 0.18570564E+03</pdfrwt>
<totfact> 0.86492704E+04</totfact>
</mgrwt>
</event>
<event>
12    1  0.1410528E-001  0.1831642E+03  0.7546771E-02  0.1164951E+00
         21   -1    0    0  502  503  0.00000000000E+00  0.00000000000E+00  0.14678162280E+03  0.14678162280E+03  0.00000000000E+00 0.  1.
         21   -1    0    0  503  504 -0.00000000000E+00 -0.00000000000E+00 -0.23014662052E+03  0.23014662052E+03  0.00000000000E+00 0.  1.
         -6    2    1    2    0  504  0.11582790334E+02 -0.57907699948E+02 -0.61431900234E+02  0.19319163630E+03  0.17338300732E+03 0.  0.
        -24    2    3    3    0    0 -0.37805414544E+02  0.74898745858E+01  0.21612293380E+01  0.89354197658E+02  0.80586314823E+02 0.  0.
          6    2    1    2  502    0 -0.11582790334E+02  0.57907699948E+02 -0.21933097486E+02  0.18373660701E+03  0.17259958645E+03 0.  0.
         24    2    5    5    0    0 -0.75074545699E+02  0.41880434292E+02 -0.55565135467E+01  0.11607303671E+03  0.77794066739E+02 0.  0.
          2    1    6    6  501    0 -0.41919212950E+02  0.15353539886E+02  0.35478675911E+02  0.57023574474E+02  0.00000000000E+00 0. -1.
         -1    1    6    6    0  501 -0.33155332749E+02  0.26526894406E+02 -0.41035189457E+02  0.59049462236E+02  0.00000000000E+00 0.  1.
          5    1    5    5  502    0  0.63491755366E+02  0.16027265655E+02 -0.16376583940E+02  0.67663570297E+02  0.47000000000E+01 0. -1.
         11    1    4    4    0    0 -0.16626120061E+02  0.34305229676E+02 -0.25098687330E+02  0.45642313231E+02  0.00000000000E+00 0. -1.
        -12    1    4    4    0    0 -0.21179294483E+02 -0.26815355090E+02  0.27259916668E+02  0.43711884427E+02  0.00000000000E+00 0.  1.
         -5    1    3    3    0  504  0.49388204878E+02 -0.65397574533E+02 -0.63593129572E+02  0.10383743865E+03  0.47000000000E+01 0.  1.
<mgrwt>
<rscale>  2 0.18297858E+03</rscale>
<asrwt>0</asrwt>
<pdfrwt beam="1">  1       21 0.22581788E-01 0.18316422E+03</pdfrwt>
<pdfrwt beam="2">  1       21 0.35407172E-01 0.18316422E+03</pdfrwt>
<totfact> 0.14175805E+05</totfact>
</mgrwt>
</event>
<event>
12    1  0.1410528E-001  0.1895633E+03  0.7546771E-02  0.1159727E+00
         21   -1    0    0  502  503  0.00000000000E+00  0.00000000000E+00  0.17105560298E+03  0.17105560298E+03  0.00000000000E+00 0. -1.
         21   -1    0    0  503  504 -0.00000000000E+00 -0.00000000000E+00 -0.21697525398E+03  0.21697525398E+03  0.00000000000E+00 0. -1.
         -6    2    1    2    0  504 -0.17355873094E+02 -0.72309794722E+02  0.21148037753E+02  0.18695294351E+03  0.17021818599E+03 0.  0.
        -24    2    3    3    0    0  0.20444903520E+02 -0.28846012699E+02 -0.46477112970E+02  0.97996493095E+02  0.78696277550E+02 0.  0.
          6    2    1    2  502    0  0.17355873094E+02  0.72309794722E+02 -0.67067688758E+02  0.20107791345E+03  0.17436834477E+03 0.  0.
         24    2    5    5    0    0 -0.15039850139E+02  0.10915836428E+03 -0.31065723513E+02  0.14004078161E+03  0.80651074089E+02 0.  0.
          2    1    6    6  501    0  0.53340390642E+00  0.90566990093E+02 -0.55005270431E+02  0.10596340873E+03  0.00000000000E+00 0. -1.
         -1    1    6    6    0  501 -0.15573254045E+02  0.18591374185E+02  0.23939546918E+02  0.34077372878E+02  0.00000000000E+00 0.  1.
          5    1    5    5  502    0  0.32395723233E+02 -0.36848569555E+02 -0.36001965245E+02  0.61037131842E+02  0.47000000000E+01 0. -1.
         13    1    4    4    0    0 -0.15549281724E+02  0.19483854312E+02 -0.67732353645E+01  0.25831714195E+02  0.00000000000E+00 0. -1.
        -14    1    4    4    0    0  0.35994185243E+02 -0.48329867011E+02 -0.39703877606E+02  0.72164778899E+02  0.00000000000E+00 0.  1.
         -5    1    3    3    0  504 -0.37800776614E+02 -0.43463782023E+02  0.67625150724E+02  0.88956450417E+02  0.47000000000E+01 0.  1.
<mgrwt>
<rscale>  2 0.18860347E+03</rscale>
<asrwt>0</asrwt>
<pdfrwt beam="1">  1       21 0.26316247E-01 0.18956332E+03</pdfrwt>
<pdfrwt beam="2">  1       21 0.33380808E-01 0.18956332E+03</pdfrwt>
<totfact> 0.11879524E+05</totfact>
</mgrwt>
</event>
<event>
12    1  0.1410528E-001  0.1821514E+03  0.7546771E-02  0.1165894E+00
         21   -1    0    0  502  503  0.00000000000E+00  0.00000000000E+00  0.22101902861E+03  0.22101902861E+03  0.00000000000E+00 0. -1.
         21   -1    0    0  503  504 -0.00000000000E+00 -0.00000000000E+00 -0.18458768557E+03  0.18458768557E+03  0.00000000000E+00 0. -1.
         -6    2    1    2    0  504  0.20528494334E+02 -0.49422030053E+02 -0.70080250103E+02  0.19516752266E+03  0.17411250476E+03 0.  0.
        -24    2    3    3    0    0  0.70949904478E+02 -0.11589526798E+01 -0.22681664060E+02  0.11066687653E+03  0.81838056914E+02 0.  0.
          6    2    1    2  502    0 -0.20528494334E+02  0.49422030053E+02  0.10651159314E+03  0.21043919152E+03  0.17342427085E+03 0.  0.
         24    2    5    5    0    0 -0.56741933330E+02  0.82963673647E+02  0.62137785820E+02  0.14389912994E+03  0.82117215170E+02 0.  0.
          4    1    6    6  501    0 -0.67266320327E+02  0.38582891582E+02  0.60332633065E+02  0.98251839605E+02  0.00000000000E+00 0. -1.
         -3    1    6    6    0  501  0.10524386997E+02  0.44380782065E+02  0.18051527553E+01  0.45647290334E+02  0.00000000000E+00 0.  1.
          5    1    5    5  502    0  0.36213438996E+02 -0.33541643594E+02  0.44373807319E+02  0.66540061578E+02  0.47000000000E+01 0. -1.
         11    1    4    4    0    0  0.29496514153E+02  0.27063440163E+02 -0.40977018958E+02  0.57285165822E+02  0.00000000000E+00 0. -1.
        -12    1    4    4    0    0  0.41453390325E+02 -0.28222392842E+02  0.18295354898E+02  0.53381710707E+02  0.00000000000E+00 0.  1.
         -5    1    3    3    0  504 -0.50421410143E+02 -0.48263077374E+02 -0.47398586043E+02  0.84500646135E+02  0.47000000000E+01 0.  1.
<mgrwt>
<rscale>  2 0.18198671E+03</rscale>
<asrwt>0</asrwt>
<pdfrwt beam="1">  1       21 0.34002927E-01 0.18215137E+03</pdfrwt>
<pdfrwt beam="2">  1       21 0.28398105E-01 0.18215137E+03</pdfrwt>
<totfact> 0.99180965E+04</totfact>
</mgrwt>
</event>
<event>
12    1  0.1410528E-001  0.2105697E+03  0.7546771E-02  0.1141151E+00
         21   -1    0    0  502  503  0.00000000000E+00  0.00000000000E+00  0.12105846093E+03  0.12105846093E+03  0.00000000000E+00 0.  1.
         21   -1    0    0  503  504 -0.00000000000E+00 -0.00000000000E+00 -0.37141120955E+03  0.37141120955E+03  0.00000000000E+00 0. -1.
         -6    2    1    2    0  504  0.19607690230E+02 -0.11651736399E+03 -0.15508723362E+03  0.26151799866E+03  0.17429531252E+03 0.  0.
        -24    2    3    3    0    0  0.17291601307E+02 -0.13174363499E+03 -0.17644690660E+03  0.23476862061E+03  0.79545015795E+02 0.  0.
          6    2    1    2  502    0 -0.19607690230E+02  0.11651736399E+03 -0.95265514994E+02  0.23095167182E+03  0.17407584193E+03 0.  0.
         24    2    5    5    0    0  0.33570319079E+02  0.10180193776E+03 -0.15873019004E+02  0.13415444633E+03  0.79087684786E+02 0.  0.
          4    1    6    6  501    0 -0.11085597493E+02  0.61339944724E+02 -0.34289708453E+02  0.71142556858E+02  0.00000000000E+00 0. -1.
         -3    1    6    6    0  501  0.44655916572E+02  0.40461993032E+02  0.18416689449E+02  0.63011889476E+02  0.00000000000E+00 0.  1.
          5    1    5    5  502    0 -0.53178009310E+02  0.14715426230E+02 -0.79392495990E+02  0.96797225491E+02  0.47000000000E+01 0. -1.
         13    1    4    4    0    0  0.28066032472E+02 -0.17828979171E+02 -0.74235348691E+02  0.81341635540E+02  0.00000000000E+00 0. -1.
        -14    1    4    4    0    0 -0.10774431166E+02 -0.11391465582E+03 -0.10221155791E+03  0.15342698507E+03  0.00000000000E+00 0.  1.
         -5    1    3    3    0  504  0.23160889233E+01  0.15226271003E+02  0.21359672977E+02  0.26749378054E+02  0.47000000000E+01 0.  1.
<mgrwt>
<rscale>  2 0.21052431E+03</rscale>
<asrwt>0</asrwt>
<pdfrwt beam="1">  1       21 0.18624379E-01 0.21056974E+03</pdfrwt>
<pdfrwt beam="2">  1       21 0.57140186E-01 0.21056974E+03</pdfrwt>
<totfact> 0.75226063E+04</totfact>
</mgrwt>
</event>
<event>
12    1  0.1410528E-001  0.1909963E+03  0.7546771E-02  0.1157588E+00
         21   -1    0    0  502  503  0.00000000000E+00  0.00000000000E+00  0.83878794197E+03  0.83878794197E+03  0.00000000000E+00 0. -1.
         21   -1    0    0  503  504 -0.00000000000E+00 -0.00000000000E+00 -0.45606534449E+03  0.45606534449E+03  0.00000000000E+00 0. -1.
         -6    2    1    2    0  504  0.79565042847E+02 -0.17862954895E+02 -0.42444378000E+03  0.46539734080E+03  0.17260498616E+03 0.  0.
        -24    2    3    3    0    0  0.36620575188E+02 -0.76941118097E+02 -0.23261603282E+03  0.26008189750E+03  0.79191997725E+02 0.  0.
          6    2    1    2  502    0 -0.79565042847E+02  0.17862954895E+02  0.80716637747E+03  0.82945594566E+03  0.17271341482E+03 0.  0.
         24    2    5    5    0    0 -0.34263361895E+02  0.73811862163E+02  0.46962293583E+03  0.48428904759E+03  0.85837117825E+02 0.  0.
          4    1    6    6  501    0 -0.31817214160E+02  0.57216127517E+02  0.46062311964E+03  0.46525227427E+03  0.00000000000E+00 0. -1.
         -3    1    6    6    0  501 -0.24461477342E+01  0.16595734646E+02  0.89998161905E+01  0.19036773325E+02  0.00000000000E+00 0.  1.
          5    1    5    5  502    0 -0.45301680953E+02 -0.55948907268E+02  0.33754344165E+03  0.34516689807E+03  0.47000000000E+01 0. -1.
         13    1    4    4    0    0  0.13588021200E+02 -0.31112890926E+02 -0.19110658714E+03  0.19409887674E+03  0.00000000000E+00 0. -1.
        -14    1    4    4    0    0  0.23032553988E+02 -0.45828227172E+02 -0.41509445675E+02  0.65983020764E+02  0.00000000000E+00 0.  1.
         -5    1    3    3    0  504  0.42944467659E+02  0.59078163202E+02 -0.19182774718E+03  0.20531544330E+03  0.47000000000E+01 0.  1.
<mgrwt>
<rscale>  2 0.19097183E+03</rscale>
<asrwt>0</asrwt>
<pdfrwt beam="1">  1       21 0.12904430E+00 0.19099635E+03</pdfrwt>
<pdfrwt beam="2">  1       21 0.70163899E-01 0.19099635E+03</pdfrwt>
<totfact> 0.81322832E+02</totfact>
</mgrwt>
</event>
<event>
12    1  0.1410528E-001  0.1765150E+03  0.7546771E-02  0.1171836E+00
         21   -1    0    0  502  503  0.00000000000E+00  0.00000000000E+00  0.17289370876E+03  0.17289370876E+03  0.00000000000E+00 0.  1.
         21   -1    0    0  503  504 -0.00000000000E+00 -0.00000000000E+00 -0.20546866846E+03  0.20546866846E+03  0.00000000000E+00 0.  1.
         -6    2    1    2    0  504 -0.32627124371E+01 -0.31252656886E+02 -0.85930462103E+02  0.19632010692E+03  0.17369561367E+03 0.  0.
        -24    2    3    3    0    0  0.53720174734E+02  0.82263925372E+01 -0.18501789867E+02  0.99498825096E+02  0.81266040014E+02 0.  0.
          6    2    1    2  502    0  0.32627124371E+01  0.31252656886E+02  0.53355502401E+02  0.18204227031E+03  0.17118763006E+03 0.  0.
         24    2    5    5    0    0 -0.99830078800E+01 -0.49580150601E+01 -0.32924860600E+02  0.87421696914E+02  0.80213865922E+02 0.  0.
          2    1    6    6  501    0 -0.27613875770E+02  0.30452817531E+01 -0.52807194746E+02  0.59669084901E+02  0.00000000000E+00 0. -1.
         -1    1    6    6    0  501  0.17630867890E+02 -0.80032968132E+01  0.19882334146E+02  0.27752612013E+02  0.00000000000E+00 0.  1.
          5    1    5    5  502    0  0.13245720317E+02  0.36210671947E+02  0.86280363001E+02  0.94620573393E+02  0.47000000000E+01 0. -1.
         11    1    4    4    0    0  0.50296414249E+01  0.22841006834E+02 -0.38354762144E+02  0.44923230796E+02  0.00000000000E+00 0. -1.
        -12    1    4    4    0    0  0.48690533309E+02 -0.14614614297E+02  0.19852972277E+02  0.54575594300E+02  0.00000000000E+00 0.  1.
         -5    1    3    3    0  504 -0.56982887171E+02 -0.39479049424E+02 -0.67428672236E+02  0.96821281820E+02  0.47000000000E+01 0.  1.
<mgrwt>
<rscale>  2 0.17589489E+03</rscale>
<asrwt>0</asrwt>
<pdfrwt beam="1">  1       21 0.26599032E-01 0.17651499E+03</pdfrwt>
<pdfrwt beam="2">  1       21 0.31610564E-01 0.17651499E+03</pdfrwt>
<totfact> 0.13012168E+05</totfact>
</mgrwt>
</event>
<event>
12    1  0.1410528E-001  0.2392674E+03  0.7546771E-02  0.1120674E+00
         21   -1    0    0  502  503  0.00000000000E+00  0.00000000000E+00  0.12630124477E+03  0.12630124477E+03  0.00000000000E+00 0. -1.
         21   -1    0    0  503  504 -0.00000000000E+00 -0.00000000000E+00 -0.85198512425E+03  0.85198512425E+03  0.00000000000E+00 0.  1.
         -6    2    1    2    0  504 -0.14561811807E+03  0.76871817521E+02 -0.70023729288E+03  0.73998726218E+03  0.17359426603E+03 0.  0.
        -24    2    3    3    0    0 -0.55939015918E+02 -0.28158210534E+02 -0.28183142949E+03  0.29935226052E+03  0.79124982859E+02 0.  0.
          6    2    1    2  502    0  0.14561811807E+03 -0.76871817521E+02 -0.25446586588E+02  0.23829910685E+03  0.17036731763E+03 0.  0.
         24    2    5    5    0    0  0.14488217065E+03 -0.11282639458E+03 -0.28809894702E+02  0.20187555579E+03  0.78759706107E+02 0.  0.
          4    1    6    6  501    0  0.21388282815E+02 -0.50884370112E+02 -0.31768682558E+02  0.63686159838E+02  0.00000000000E+00 0. -1.
         -3    1    6    6    0  501  0.12349388783E+03 -0.61942024469E+02  0.29587878558E+01  0.13818939595E+03  0.00000000000E+00 0.  1.
          5    1    5    5  502    0  0.73594741763E+00  0.35954577060E+02  0.33633081144E+01  0.36423551058E+02  0.47000000000E+01 0. -1.
         11    1    4    4    0    0  0.48099824982E+01 -0.23304162868E+02 -0.21789320239E+02  0.32264445061E+02  0.00000000000E+00 0. -1.
        -12    1    4    4    0    0 -0.60748998416E+02 -0.48540476660E+01 -0.26004210925E+03  0.26708781546E+03  0.00000000000E+00 0.  1.
         -5    1    3    3    0  504 -0.89679102147E+02  0.10503002806E+03 -0.41840586340E+03  0.44063500165E+03  0.47000000000E+01 0.  1.
<mgrwt>
<rscale>  2 0.23868254E+03</rscale>
<asrwt>0</asrwt>
<pdfrwt beam="1">  1       21 0.19430961E-01 0.23926739E+03</pdfrwt>
<pdfrwt beam="2">  1       21 0.13107463E+00 0.23926739E+03</pdfrwt>
<totfact> 0.99915057E+03</totfact>
</mgrwt>
</event>
<event>
12    1  0.1410528E-001  0.1921576E+03  0.7546771E-02  0.1156627E+00
         21   -1    0    0  502  503  0.00000000000E+00  0.00000000000E+00  0.60784469616E+02  0.60784469616E+02  0.00000000000E+00 0. -1.
         21   -1    0    0  503  504 -0.00000000000E+00 -0.00000000000E+00 -0.81244282566E+03  0.81244282566E+03  0.00000000000E+00 0. -1.
         -6    2    1    2    0  504 -0.21084633459E+02  0.80458583670E+02 -0.59555330943E+03  0.62565241353E+03  0.17273984117E+03 0.  0.
        -24    2    3    3    0    0 -0.48801807482E+02  0.57086750153E+02 -0.57140874378E+03  0.58183992229E+03  0.79932654482E+02 0.  0.
          6    2    1    2  502    0  0.21084633459E+02 -0.80458583670E+02 -0.15610504662E+03  0.24757488175E+03  0.17322352912E+03 0.  0.
         24    2    5    5    0    0  0.50850496628E+02 -0.23748347123E+02 -0.15611644050E+03  0.18335535459E+03  0.78083839957E+02 0.  0.
          4    1    6    6  501    0  0.39913770249E+02  0.22040793537E+02 -0.52432714206E+02  0.69484495783E+02  0.00000000000E+00 0. -1.
         -3    1    6    6    0  501  0.10936726379E+02 -0.45789140659E+02 -0.10368372630E+03  0.11387085880E+03  0.00000000000E+00 0.  1.
          5    1    5    5  502    0 -0.29765863169E+02 -0.56710236547E+02  0.11393881948E-01  0.64219527165E+02  0.47000000000E+01 0. -1.
         11    1    4    4    0    0 -0.53611445176E+02  0.15735820220E+01 -0.30264369145E+03  0.30735950805E+03  0.00000000000E+00 0. -1.
        -12    1    4    4    0    0  0.48096376936E+01  0.55513168131E+02 -0.26876505232E+03  0.27448041424E+03  0.00000000000E+00 0.  1.
         -5    1    3    3    0  504  0.27717174023E+02  0.23371833516E+02 -0.24144565651E+02  0.43812491235E+02  0.47000000000E+01 0.  1.
<mgrwt>
<rscale>  2 0.19204851E+03</rscale>
<asrwt>0</asrwt>
<pdfrwt beam="1">  1       21 0.93514567E-02 0.19215758E+03</pdfrwt>
<pdfrwt beam="2">  1       21 0.12499121E+00 0.19215758E+03</pdfrwt>
<totfact> 0.43585767E+04</totfact>
</mgrwt>
</event>
<event>
12    1  0.1410528E-001  0.1985419E+03  0.7546771E-02  0.1151406E+00
         21   -1    0    0  502  503  0.00000000000E+00  0.00000000000E+00  0.10318889977E+03  0.10318889977E+03  0.00000000000E+00 0. -1.
         21   -1    0    0  503  504 -0.00000000000E+00 -0.00000000000E+00 -0.38103274912E+03  0.38103274912E+03  0.00000000000E+00 0. -1.
         -6    2    1    2    0  504 -0.74211175643E+02  0.58356073390E+02 -0.16071331511E+03  0.25543619201E+03  0.17466009459E+03 0.  0.
        -24    2    3    3    0    0  0.45614874549E+01 -0.25561165414E+02 -0.73807199239E+02  0.11113789542E+03  0.78930024673E+02 0.  0.
          6    2    1    2  502    0  0.74211175643E+02 -0.58356073390E+02 -0.11713053423E+03  0.22878545688E+03  0.17236732097E+03 0.  0.
         24    2    5    5    0    0  0.34172720836E+02 -0.95919071855E+02 -0.11553460642E+03  0.17366110924E+03  0.80260154431E+02 0.  0.
          4    1    6    6  501    0  0.17708461557E+02  0.97306730960E+01 -0.32551661539E+02  0.38313004040E+02  0.00000000000E+00 0. -1.
         -3    1    6    6    0  501  0.16464259279E+02 -0.10564974495E+03 -0.82982944877E+02  0.13534810520E+03  0.00000000000E+00 0.  1.
          5    1    5    5  502    0  0.40038454808E+02  0.37562998466E+02 -0.15959278170E+01  0.55124347640E+02  0.47000000000E+01 0. -1.
         11    1    4    4    0    0  0.21222706559E+02 -0.13327637539E+02 -0.84307706566E+02  0.87953502389E+02  0.00000000000E+00 0. -1.
        -12    1    4    4    0    0 -0.16661219104E+02 -0.12233527875E+02  0.10500507327E+02  0.23184393036E+02  0.00000000000E+00 0.  1.
         -5    1    3    3    0  504 -0.78772663098E+02  0.83917238804E+02 -0.86906115875E+02  0.14429829658E+03  0.47000000000E+01 0.  1.
<mgrwt>
<rscale>  2 0.19803646E+03</rscale>
<asrwt>0</asrwt>
<pdfrwt beam="1">  1       21 0.15875215E-01 0.19854188E+03</pdfrwt>
<pdfrwt beam="2">  1       21 0.58620424E-01 0.19854188E+03</pdfrwt>
<totfact> 0.96106142E+04</totfact>
</mgrwt>
</event>
<event>
12    1  0.1410528E-001  0.1850764E+03  0.7546771E-02  0.1163396E+00
         21   -1    0    0  502  503  0.00000000000E+00  0.00000000000E+00  0.26876126289E+03  0.26876126289E+03  0.00000000000E+00 0.  1.
         21   -1    0    0  503  504 -0.00000000000E+00 -0.00000000000E+00 -0.12968522601E+03  0.12968522601E+03  0.00000000000E+00 0.  1.
         -6    2    1    2    0  504  0.25466749866E+02  0.59379785330E+02  0.36674610243E+02  0.18692980435E+03  0.17153195173E+03 0.  0.
        -24    2    3    3    0    0  0.48188560709E+02  0.20872656287E+02  0.79059058187E+02  0.12514298454E+03  0.81563636103E+02 0.  0.
          6    2    1    2  502    0 -0.25466749866E+02 -0.59379785330E+02  0.10240142663E+03  0.21151668455E+03  0.17343223867E+03 0.  0.
         24    2    5    5    0    0  0.65515987100E+01  0.32027652037E+02  0.38714587761E+02  0.95505488120E+02  0.80955450804E+02 0.  0.
          2    1    6    6  501    0 -0.15650962620E+02 -0.15865488588E+02 -0.92979721701E+01  0.24147849709E+02  0.00000000000E+00 0. -1.
         -1    1    6    6    0  501  0.22202561330E+02  0.47893140625E+02  0.48012559931E+02  0.71357638412E+02  0.00000000000E+00 0.  1.
          5    1    5    5  502    0 -0.32018348576E+02 -0.91407437367E+02  0.63686838870E+02  0.11601119643E+03  0.47000000000E+01 0. -1.
         13    1    4    4    0    0  0.51590688875E+02  0.17386422301E+02  0.93194894625E+01  0.55233501997E+02  0.00000000000E+00 0. -1.
        -14    1    4    4    0    0 -0.34021281661E+01  0.34862339860E+01  0.69739568725E+02  0.69909482542E+02  0.00000000000E+00 0.  1.
         -5    1    3    3    0  504 -0.22721810843E+02  0.38507129043E+02 -0.42384447944E+02  0.61786819814E+02  0.47000000000E+01 0.  1.
<mgrwt>
<rscale>  2 0.18462986E+03</rscale>
<asrwt>0</asrwt>
<pdfrwt beam="1">  1       21 0.41347886E-01 0.18507635E+03</pdfrwt>
<pdfrwt beam="2">  1       21 0.19951573E-01 0.18507635E+03</pdfrwt>
<totfact> 0.13094171E+05</totfact>
</mgrwt>
</event>
<event>
12    1  0.1410528E-001  0.2309131E+03  0.7546771E-02  0.1126315E+00
         21   -1    0    0  502  503  0.00000000000E+00  0.00000000000E+00  0.64903350335E+03  0.64903350335E+03  0.00000000000E+00 0.  1.
         21   -1    0    0  503  504 -0.00000000000E+00 -0.00000000000E+00 -0.11038176923E+03  0.11038176923E+03  0.00000000000E+00 0.  1.
         -6    2    1    2    0  504 -0.14937065776E+03 -0.29670547910E+02  0.75928873064E+02  0.24307621317E+03  0.17357683264E+03 0.  0.
        -24    2    3    3    0    0 -0.17772508614E+03 -0.13087238778E+02  0.56470906946E+02  0.20460957573E+03  0.83178321032E+02 0.  0.
          6    2    1    2  502    0  0.14937065776E+03  0.29670547910E+02  0.46272286106E+03  0.51633905941E+03  0.17117722777E+03 0.  0.
         24    2    5    5    0    0  0.10544669434E+03  0.33230711768E+01  0.15321666708E+03  0.20258807820E+03  0.80228013871E+02 0.  0.
          2    1    6    6  501    0  0.78396134509E+02 -0.16417371775E+02  0.50829598059E+02  0.94863755148E+02  0.00000000000E+00 0. -1.
         -1    1    6    6    0  501  0.27050559830E+02  0.19740442952E+02  0.10238706902E+03  0.10772432305E+03  0.00000000000E+00 0.  1.
          5    1    5    5  502    0  0.43923963426E+02  0.26347476734E+02  0.30950619398E+03  0.31375098121E+03  0.47000000000E+01 0. -1.
         11    1    4    4    0    0 -0.40763758624E+02 -0.16780632777E+02  0.51108790912E+02  0.67493571265E+02  0.00000000000E+00 0. -1.
        -12    1    4    4    0    0 -0.13696132751E+03  0.36933939987E+01  0.53621160333E+01  0.13711600447E+03  0.00000000000E+00 0.  1.
         -5    1    3    3    0  504  0.28354428373E+02 -0.16583309132E+02  0.19457966119E+02  0.38466637435E+02  0.47000000000E+01 0.  1.
<mgrwt>
<rscale>  2 0.23046219E+03</rscale>
<asrwt>0</asrwt>
<pdfrwt beam="1">  1       21 0.99851306E-01 0.23091308E+03</pdfrwt>
<pdfrwt beam="2">  1       21 0.16981811E-01 0.23091308E+03</pdfrwt>
<totfact> 0.25204031E+04</totfact>
</mgrwt>
</event>
<event>
12    1  0.1410528E-001  0.1886460E+03  0.7546771E-02  0.1159813E+00
         21   -1    0    0  502  503  0.00000000000E+00  0.00000000000E+00  0.12558512451E+04  0.12558512451E+04  0.00000000000E+00 0. -1.
         21   -1    0    0  503  504 -0.00000000000E+00 -0.00000000000E+00 -0.55226986574E+02  0.55226986574E+02  0.00000000000E+00 0. -1.
         -6    2    1    2    0  504  0.67051853022E+02  0.34859334352E+02  0.14174737648E+03  0.23552834080E+03  0.17225027256E+03 0.  0.
        -24    2    3    3    0    0 -0.27466817225E+02  0.70854328458E+01  0.41115227129E+02  0.94623805341E+02  0.80365248885E+02 0.  0.
          6    2    1    2  502    0 -0.67051853022E+02 -0.34859334352E+02  0.10588768821E+04  0.10755498909E+04  0.17284730902E+03 0.  0.
         24    2    5    5    0    0 -0.36879029244E+02 -0.85904924186E+02  0.82863902832E+03  0.83775247536E+03  0.80292290518E+02 0.  0.
          4    1    6    6  501    0 -0.30926225732E+02 -0.46727610407E+02  0.71885394388E+03  0.72103459948E+03  0.00000000000E+00 0. -1.
         -3    1    6    6    0  501 -0.59528035120E+01 -0.39177313779E+02  0.10978508444E+03  0.11671787588E+03  0.00000000000E+00 0.  1.
          5    1    5    5  502    0 -0.30172823779E+02  0.51045589834E+02  0.23023785374E+03  0.23779741553E+03  0.47000000000E+01 0. -1.
         13    1    4    4    0    0 -0.20733824591E+02  0.41558769931E+02  0.95835837182E+01  0.47422230201E+02  0.00000000000E+00 0. -1.
        -14    1    4    4    0    0 -0.67329926336E+01 -0.34473337085E+02  0.31531643410E+02  0.47201575140E+02  0.00000000000E+00 0.  1.
         -5    1    3    3    0  504  0.94518670247E+02  0.27773901507E+02  0.10063214935E+03  0.14090453546E+03  0.47000000000E+01 0.  1.
<mgrwt>
<rscale>  2 0.18850914E+03</rscale>
<asrwt>0</asrwt>
<pdfrwt beam="1">  1       21 0.19320786E+00 0.18864601E+03</pdfrwt>
<pdfrwt beam="2">  1       21 0.84964604E-02 0.18864601E+03</pdfrwt>
<totfact> 0.16103631E+04</totfact>
</mgrwt>
</event>
<event>
12    1  0.1410528E-001  0.1926666E+03  0.7546771E-02  0.1156596E+00
         21   -1    0    0  502  503  0.00000000000E+00  0.00000000000E+00  0.63222130473E+03  0.63222130473E+03  0.00000000000E+00 0.  1.
         21   -1    0    0  503  504 -0.00000000000E+00 -0.00000000000E+00 -0.29916292183E+03  0.29916292183E+03  0.00000000000E+00 0.  1.
         -6    2    1    2    0  504 -0.41867554009E+02  0.75271307106E+02 -0.25177807319E+03  0.31562932434E+03  0.16973806436E+03 0.  0.
        -24    2    3    3    0    0 -0.75631753835E+02  0.43645047921E+01 -0.12082380526E+03  0.16285856113E+03  0.78646728635E+02 0.  0.
          6    2    1    2  502    0  0.41867554009E+02 -0.75271307106E+02  0.58483645608E+03  0.61575490222E+03  0.17234197831E+03 0.  0.
         24    2    5    5    0    0  0.84022677007E+02 -0.16426873331E+02  0.41767289045E+03  0.43353122248E+03  0.78543141198E+02 0.  0.
          4    1    6    6  501    0  0.17384238849E+02  0.29966340848E+02  0.11016329029E+03  0.11548222318E+03  0.00000000000E+00 0. -1.
         -3    1    6    6    0  501  0.66638438158E+02 -0.46393214180E+02  0.30750960016E+03  0.31804899930E+03  0.00000000000E+00 0.  1.
          5    1    5    5  502    0 -0.42155122997E+02 -0.58844433775E+02  0.16716356564E+03  0.18222367974E+03  0.47000000000E+01 0. -1.
         11    1    4    4    0    0 -0.10614328452E+02 -0.15865329569E+02 -0.82588978419E+02  0.84766219729E+02  0.00000000000E+00 0. -1.
        -12    1    4    4    0    0 -0.65017425384E+02  0.20229834361E+02 -0.38234826844E+02  0.78092341402E+02  0.00000000000E+00 0.  1.
         -5    1    3    3    0  504  0.33764199826E+02  0.70906802314E+02 -0.13095426792E+03  0.15277076321E+03  0.47000000000E+01 0.  1.
<mgrwt>
<rscale>  2 0.19208253E+03</rscale>
<asrwt>0</asrwt>
<pdfrwt beam="1">  1       21 0.97264816E-01 0.19266660E+03</pdfrwt>
<pdfrwt beam="2">  1       21 0.46025065E-01 0.19266660E+03</pdfrwt>
<totfact> 0.39656474E+03</totfact>
</mgrwt>
</event>
<event>
12    1  0.1410528E-001  0.2141205E+03  0.7546771E-02  0.1138463E+00
         21   -1    0    0  502  503  0.00000000000E+00  0.00000000000E+00  0.52059220510E+03  0.52059220510E+03  0.00000000000E+00 0. -1.
         21   -1    0    0  503  504 -0.00000000000E+00 -0.00000000000E+00 -0.89884691765E+02  0.89884691765E+02  0.00000000000E+00 0. -1.
         -6    2    1    2    0  504 -0.93301357780E+02 -0.84859654027E+02  0.16933748594E+03  0.27298858134E+03  0.17303547946E+03 0.  0.
        -24    2    3    3    0    0 -0.10647160483E+03 -0.89559645678E+01  0.12769383007E+03  0.18528961011E+03  0.81302604147E+02 0.  0.
          6    2    1    2  502    0  0.93301357780E+02  0.84859654027E+02  0.26137002740E+03  0.33748831552E+03  0.17227236473E+03 0.  0.
         24    2    5    5    0    0 -0.10728220924E+02  0.27585904094E+02  0.63464826835E+02  0.10663989321E+03  0.80425156197E+02 0.  0.
          4    1    6    6  501    0  0.14385588904E+02  0.10658296599E+01 -0.14556143572E+02  0.20492986036E+02  0.00000000000E+00 0. -1.
         -3    1    6    6    0  501 -0.25113809827E+02  0.26520074434E+02  0.78020970407E+02  0.86146907172E+02  0.00000000000E+00 0.  1.
          5    1    5    5  502    0  0.10402957870E+03  0.57273749933E+02  0.19790520056E+03  0.23084842232E+03  0.47000000000E+01 0. -1.
         11    1    4    4    0    0 -0.58837749679E+02 -0.24632223372E+02  0.20588856340E+02  0.67026324835E+02  0.00000000000E+00 0. -1.
        -12    1    4    4    0    0 -0.47633855147E+02  0.15676258804E+02  0.10710497373E+03  0.11826328527E+03  0.00000000000E+00 0.  1.
         -5    1    3    3    0  504  0.13170247046E+02 -0.75903689459E+02  0.41643655869E+02  0.87698971230E+02  0.47000000000E+01 0.  1.
<mgrwt>
<rscale>  2 0.21396626E+03</rscale>
<asrwt>0</asrwt>
<pdfrwt beam="1">  1       21 0.80091107E-01 0.21412048E+03</pdfrwt>
<pdfrwt beam="2">  1       21 0.13828414E-01 0.21412048E+03</pdfrwt>
<totfact> 0.61751734E+04</totfact>
</mgrwt>
</event>
<event>
12    1  0.1410528E-001  0.1901139E+03  0.7546771E-02  0.1159270E+00
         21   -1    0    0  502  503  0.00000000000E+00  0.00000000000E+00  0.76580627736E+02  0.76580627736E+02  0.00000000000E+00 0. -1.
         21   -1    0    0  503  504 -0.00000000000E+00 -0.00000000000E+00 -0.47567746521E+03  0.47567746521E+03  0.00000000000E+00 0. -1.
         -6    2    1    2    0  504 -0.10758244807E+02 -0.64938391898E+02 -0.15082075364E+03  0.23955328523E+03  0.17408659386E+03 0.  0.
        -24    2    3    3    0    0 -0.50537872829E+02  0.15905622322E+02 -0.90046821894E+02  0.13077031680E+03  0.78647188196E+02 0.  0.
          6    2    1    2  502    0  0.10758244807E+02  0.64938391898E+02 -0.24827608383E+03  0.31270480771E+03  0.17835511877E+03 0.  0.
         24    2    5    5    0    0 -0.55072964373E+02  0.21267833903E+02 -0.18979796977E+03  0.21430437295E+03  0.80110815578E+02 0.  0.
          4    1    6    6  501    0 -0.50474553176E+02  0.49578921142E+02 -0.13107052343E+03  0.14894707803E+03  0.00000000000E+00 0. -1.
         -3    1    6    6    0  501 -0.45984111974E+01 -0.28311087239E+02 -0.58727446331E+02  0.65357294917E+02  0.00000000000E+00 0.  1.
          5    1    5    5  502    0  0.65831209180E+02  0.43670557996E+02 -0.58478114068E+02  0.98400434769E+02  0.47000000000E+01 0. -1.
         11    1    4    4    0    0 -0.16237582409E+02 -0.15429219473E+02 -0.80214118558E+02  0.83282799617E+02  0.00000000000E+00 0. -1.
        -12    1    4    4    0    0 -0.34300290420E+02  0.31334841795E+02 -0.98327033354E+01  0.47487517182E+02  0.00000000000E+00 0.  1.
         -5    1    3    3    0  504  0.39779628022E+02 -0.80844014220E+02 -0.60773931744E+02  0.10878296843E+03  0.47000000000E+01 0.  1.
<mgrwt>
<rscale>  2 0.18910622E+03</rscale>
<asrwt>0</asrwt>
<pdfrwt beam="1">  1       21 0.11781635E-01 0.19011387E+03</pdfrwt>
<pdfrwt beam="2">  1       21 0.73181149E-01 0.19011387E+03</pdfrwt>
<totfact> 0.10193624E+05</totfact>
</mgrwt>
</event>
<event>
12    1  0.1410528E-001  0.2847480E+03  0.7546771E-02  0.1093639E+00
         21   -1    0    0  502  503  0.00000000000E+00  0.00000000000E+00  0.12102589407E+03  0.12102589407E+03  0.00000000000E+00 0. -1.
         21   -1    0    0  503  504 -0.00000000000E+00 -0.00000000000E+00 -0.66140372520E+03  0.66140372520E+03  0.00000000000E+00 0. -1.
         -6    2    1    2    0  504  0.21003850787E+03  0.69278535543E+02 -0.28193069609E+03  0.40070732707E+03  0.17934813713E+03 0.  0.
        -24    2    3    3    0    0  0.18042327285E+03 -0.56584977165E+01 -0.19553928877E+03  0.28247794680E+03  0.94729092650E+02 0.  0.
          6    2    1    2  502    0 -0.21003850787E+03 -0.69278535543E+02 -0.25844713504E+03  0.38172229220E+03  0.17320882332E+03 0.  0.
         24    2    5    5    0    0 -0.14110049953E+03 -0.91016854674E+02 -0.11020190404E+03  0.21672610428E+03  0.81439092709E+02 0.  0.
          2    1    6    6  501    0 -0.10799470991E+03 -0.79480610439E+02 -0.42804847087E+02  0.14075610018E+03  0.00000000000E+00 0. -1.
         -1    1    6    6    0  501 -0.33105789621E+02 -0.11536244234E+02 -0.67397056950E+02  0.75970004100E+02  0.00000000000E+00 0.  1.
          5    1    5    5  502    0 -0.68938008340E+02  0.21738319131E+02 -0.14824523100E+03  0.16499618792E+03  0.47000000000E+01 0. -1.
         11    1    4    4    0    0  0.16129723032E+03  0.28319880592E+02 -0.16888602082E+03  0.23524731704E+03  0.00000000000E+00 0. -1.
        -12    1    4    4    0    0  0.19126042530E+02 -0.33978378309E+02 -0.26653267948E+02  0.47230629761E+02  0.00000000000E+00 0.  1.
         -5    1    3    3    0  504  0.29615235021E+02  0.74937033259E+02 -0.86391407324E+02  0.11822938027E+03  0.47000000000E+01 0.  1.
<mgrwt>
<rscale>  2 0.28378659E+03</rscale>
<asrwt>0</asrwt>
<pdfrwt beam="1">  1       21 0.18619369E-01 0.28474804E+03</pdfrwt>
<pdfrwt beam="2">  1       21 0.10175442E+00 0.28474804E+03</pdfrwt>
<totfact> 0.19785788E+04</totfact>
</mgrwt>
</event>
<event>
12    1  0.1410528E-001  0.1840993E+03  0.7546771E-02  0.1165155E+00
         21   -1    0    0  502  503  0.00000000000E+00  0.00000000000E+00  0.46295314742E+02  0.46295314742E+02  0.00000000000E+00 0. -1.
         21   -1    0    0  503  504 -0.00000000000E+00 -0.00000000000E+00 -0.10233794815E+04  0.10233794815E+04  0.00000000000E+00 0. -1.
         -6    2    1    2    0  504  0.37612365357E+01  0.44038095098E+02 -0.77895893227E+03  0.79921935552E+03  0.17326586320E+03 0.  0.
        -24    2    3    3    0    0 -0.30430990036E+01  0.86123337954E+02 -0.37832735941E+03  0.39629850247E+03  0.80587979187E+02 0.  0.
          6    2    1    2  502    0 -0.37612365357E+01 -0.44038095098E+02 -0.19812523449E+03  0.27045544073E+03  0.17871495785E+03 0.  0.
         24    2    5    5    0    0 -0.26545384876E+02 -0.52545850911E+02 -0.21738819356E+03  0.23907629293E+03  0.80212986712E+02 0.  0.
          4    1    6    6  501    0 -0.41469410806E+02 -0.66171198387E+02 -0.18620729797E+03  0.20191953186E+03  0.00000000000E+00 0. -1.
         -3    1    6    6    0  501  0.14924025930E+02  0.13625347476E+02 -0.31180895591E+02  0.37156761076E+02  0.00000000000E+00 0.  1.
          5    1    5    5  502    0  0.22784148340E+02  0.85077558121E+01  0.19262959066E+02  0.31379147798E+02  0.47000000000E+01 0. -1.
         11    1    4    4    0    0  0.33673195897E+02  0.51463175525E+02 -0.26800116511E+03  0.27496721088E+03  0.00000000000E+00 0. -1.
        -12    1    4    4    0    0 -0.36716294900E+02  0.34660162429E+02 -0.11032619430E+03  0.12133129159E+03  0.00000000000E+00 0.  1.
         -5    1    3    3    0  504  0.68043355393E+01 -0.42085242856E+02 -0.40063157286E+03  0.40292085305E+03  0.47000000000E+01 0.  1.
<mgrwt>
<rscale>  2 0.18276356E+03</rscale>
<asrwt>0</asrwt>
<pdfrwt beam="1">  1       21 0.71223556E-02 0.18409926E+03</pdfrwt>
<pdfrwt beam="2">  1       21 0.15744301E+00 0.18409926E+03</pdfrwt>
<totfact> 0.38785660E+04</totfact>
</mgrwt>
</event>
<event>
12    1  0.1410528E-001  0.2638505E+03  0.7546771E-02  0.1105093E+00
         21   -1    0    0  502  503  0.00000000000E+00  0.00000000000E+00  0.41151402641E+03  0.41151402641E+03  0.00000000000E+00 0.  1.
         21   -1    0    0  503  504 -0.00000000000E+00 -0.00000000000E+00 -0.24194956786E+03  0.24194956786E+03  0.00000000000E+00 0. -1.
         -6    2    1    2    0  504 -0.18818590810E+03  0.66134681089E+02 -0.95874128899E+02  0.27919799812E+03  0.17021146117E+03 0.  0.
        -24    2    3    3    0    0 -0.87904404146E+02  0.29889457908E+02 -0.11807657156E+03  0.17017903327E+03  0.79989140830E+02 0.  0.
          6    2    1    2  502    0  0.18818590810E+03 -0.66134681089E+02  0.26543858745E+03  0.37426559615E+03  0.17271178508E+03 0.  0.
         24    2    5    5    0    0  0.15491000094E+03 -0.10658006406E+01  0.12030768584E+03  0.21170387310E+03  0.79663958541E+02 0.  0.
          2    1    6    6  501    0  0.19034775292E+02  0.15838155840E+02  0.54345150080E+02  0.59720726621E+02  0.00000000000E+00 0. -1.
         -1    1    6    6    0  501  0.13587522565E+03 -0.16903956481E+02  0.65962535763E+02  0.15198314648E+03  0.00000000000E+00 0.  1.
          5    1    5    5  502    0  0.33275907160E+02 -0.65068880448E+02  0.14513090160E+03  0.16256172305E+03  0.47000000000E+01 0. -1.
         11    1    4    4    0    0 -0.53853826697E+02  0.40252248148E+02 -0.27104933088E+02  0.72492451528E+02  0.00000000000E+00 0. -1.
        -12    1    4    4    0    0 -0.34050577450E+02 -0.10362790240E+02 -0.90971638468E+02  0.97686581739E+02  0.00000000000E+00 0.  1.
         -5    1    3    3    0  504 -0.10028150395E+03  0.36245223181E+02  0.22202442658E+02  0.10901896486E+03  0.47000000000E+01 0.  1.
<mgrwt>
<rscale>  2 0.26344210E+03</rscale>
<asrwt>0</asrwt>
<pdfrwt beam="1">  1       21 0.63309850E-01 0.26385051E+03</pdfrwt>
<pdfrwt beam="2">  1       21 0.37223011E-01 0.26385051E+03</pdfrwt>
<totfact> 0.15437843E+04</totfact>
</mgrwt>
</event>
<event>
12    1  0.1410528E-001  0.2255436E+03  0.7546771E-02  0.1130045E+00
         21   -1    0    0  502  503  0.00000000000E+00  0.00000000000E+00  0.32521345824E+03  0.32521345824E+03  0.00000000000E+00 0. -1.
         21   -1    0    0  503  504 -0.00000000000E+00 -0.00000000000E+00 -0.29638795176E+03  0.29638795176E+03  0.00000000000E+00 0.  1.
         -6    2    1    2    0  504  0.14304623714E+03  0.18845524686E+02 -0.19985637444E+03  0.30040780411E+03  0.17171167288E+03 0.  0.
        -24    2    3    3    0    0  0.12925933261E+02 -0.14636578234E+02 -0.11645795363E+03  0.14219993044E+03  0.79227874385E+02 0.  0.
          6    2    1    2  502    0 -0.14304623714E+03 -0.18845524686E+02  0.22868188092E+03  0.32119360589E+03  0.17335671329E+03 0.  0.
         24    2    5    5    0    0 -0.23795500681E+02  0.68781812247E+01  0.40672309954E+02  0.97023723953E+02  0.84533017119E+02 0.  0.
          2    1    6    6  501    0  0.11452955080E+02 -0.11719178765E+02  0.52865260150E+02  0.55346590335E+02  0.00000000000E+00 0. -1.
         -1    1    6    6    0  501 -0.35248455761E+02  0.18597359990E+02 -0.12192950196E+02  0.41677133618E+02  0.00000000000E+00 0.  1.
          5    1    5    5  502    0 -0.11925073646E+03 -0.25723705911E+02  0.18800957097E+03  0.22416988194E+03  0.47000000000E+01 0. -1.
         11    1    4    4    0    0  0.29281974264E+02 -0.15477971119E+02 -0.10155106957E+02  0.34642860794E+02  0.00000000000E+00 0. -1.
        -12    1    4    4    0    0 -0.16356041003E+02  0.84139288445E+00 -0.10630284667E+03  0.10755706964E+03  0.00000000000E+00 0.  1.
         -5    1    3    3    0  504  0.13012030388E+03  0.33482102921E+02 -0.83398420812E+02  0.15820787367E+03  0.47000000000E+01 0.  1.
<mgrwt>
<rscale>  2 0.22522748E+03</rscale>
<asrwt>0</asrwt>
<pdfrwt beam="1">  1       21 0.50032840E-01 0.22554363E+03</pdfrwt>
<pdfrwt beam="2">  1       21 0.45598147E-01 0.22554363E+03</pdfrwt>
<totfact> 0.17209557E+04</totfact>
</mgrwt>
</event>
<event>
12    1  0.1410528E-001  0.2064045E+03  0.7546771E-02  0.1144679E+00
         21   -1    0    0  502  503  0.00000000000E+00  0.00000000000E+00  0.19063475594E+03  0.19063475594E+03  0.00000000000E+00 0. -1.
         21   -1    0    0  503  504 -0.00000000000E+00 -0.00000000000E+00 -0.51915797683E+03  0.51915797683E+03  0.00000000000E+00 0. -1.
         -6    2    1    2    0  504 -0.52174302452E+02 -0.96590854740E+02 -0.43285242647E+03  0.47954565974E+03  0.17478805914E+03 0.  0.
        -24    2    3    3    0    0 -0.74834637538E+02 -0.12667928862E+03 -0.37079835527E+03  0.40680225872E+03  0.79679309039E+02 0.  0.
          6    2    1    2  502    0  0.52174302452E+02  0.96590854740E+02  0.10432920558E+03  0.23024707303E+03  0.17342773840E+03 0.  0.
         24    2    5    5    0    0  0.84388840336E+02  0.43328864515E+02  0.11050813926E+03  0.16751840913E+03  0.82773798274E+02 0.  0.
          2    1    6    6  501    0  0.95035208556E+02  0.52091591145E+02  0.10889800792E+03  0.15363593610E+03  0.00000000000E+00 0. -1.
         -1    1    6    6    0  501 -0.10646368220E+02 -0.87627266303E+01  0.16101313355E+01  0.13882473022E+02  0.00000000000E+00 0.  1.
          5    1    5    5  502    0 -0.32214537884E+02  0.53261990225E+02 -0.61789336764E+01  0.62728663904E+02  0.47000000000E+01 0. -1.
         11    1    4    4    0    0 -0.45567493368E+02 -0.42066348097E+02 -0.24282651204E+03  0.25062060777E+03  0.00000000000E+00 0. -1.
        -12    1    4    4    0    0 -0.29267144170E+02 -0.84612940518E+02 -0.12797184323E+03  0.15618165094E+03  0.00000000000E+00 0.  1.
         -5    1    3    3    0  504  0.22660335086E+02  0.30088433876E+02 -0.62054071199E+02  0.72743401018E+02  0.47000000000E+01 0.  1.
<mgrwt>
<rscale>  2 0.20611623E+03</rscale>
<asrwt>0</asrwt>
<pdfrwt beam="1">  1       21 0.29328424E-01 0.20640450E+03</pdfrwt>
<pdfrwt beam="2">  1       21 0.79870458E-01 0.20640450E+03</pdfrwt>
<totfact> 0.15238069E+04</totfact>
</mgrwt>
</event>
<event>
12    1  0.1410528E-001  0.1901588E+03  0.7546771E-02  0.1163377E+00
         21   -1    0    0  502  503  0.00000000000E+00  0.00000000000E+00  0.47806452065E+03  0.47806452065E+03  0.00000000000E+00 0.  1.
         21   -1    0    0  503  504 -0.00000000000E+00 -0.00000000000E+00 -0.14834431199E+03  0.14834431199E+03  0.00000000000E+00 0.  1.
         -6    2    1    2    0  504  0.73910566796E+02  0.20553887403E+01 -0.61797814909E+02  0.19994834491E+03  0.17519524593E+03 0.  0.
        -24    2    3    3    0    0  0.65836369781E+02  0.28326648699E+02  0.23353724249E+02  0.11034786289E+03  0.80588012725E+02 0.  0.
          6    2    1    2  502    0 -0.73910566796E+02 -0.20553887403E+01  0.39151802357E+03  0.42646048773E+03  0.15203679920E+03 0.  0.
         24    2    5    5    0    0 -0.37746106459E+02 -0.53657178792E+02  0.27544623278E+03  0.29430390052E+03  0.80251463018E+02 0.  0.
          4    1    6    6  501    0 -0.31994032307E+02 -0.53394526157E+02  0.93848985007E+02  0.11261538755E+03  0.00000000000E+00 0. -1.
         -3    1    6    6    0  501 -0.57520741525E+01 -0.26265263548E+00  0.18159724778E+03  0.18168851297E+03  0.00000000000E+00 0.  1.
          5    1    5    5  502    0 -0.36164460336E+02  0.51601790052E+02  0.11607179079E+03  0.13215658721E+03  0.47000000000E+01 0. -1.
         13    1    4    4    0    0  0.69233851710E+01  0.38140669141E+02  0.31657706082E+02  0.50048519050E+02  0.00000000000E+00 0. -1.
        -14    1    4    4    0    0  0.58912984610E+02 -0.98140204418E+01 -0.83039818328E+01  0.60299343837E+02  0.00000000000E+00 0.  1.
         -5    1    3    3    0  504  0.80741970147E+01 -0.26271259959E+02 -0.85151539158E+02  0.89600482020E+02  0.47000000000E+01 0.  1.
<mgrwt>
<rscale>  2 0.18464998E+03</rscale>
<asrwt>0</asrwt>
<pdfrwt beam="1">  1       21 0.73548387E-01 0.19015880E+03</pdfrwt>
<pdfrwt beam="2">  1       21 0.22822202E-01 0.19015880E+03</pdfrwt>
<totfact> 0.29952443E+04</totfact>
</mgrwt>
</event>
<event>
12    1  0.1410528E-001  0.1875523E+03  0.7546771E-02  0.1160781E+00
         21   -1    0    0  502  503  0.00000000000E+00  0.00000000000E+00  0.60013315383E+02  0.60013315383E+02  0.00000000000E+00 0.  1.
         21   -1    0    0  503  504 -0.00000000000E+00 -0.00000000000E+00 -0.10435439136E+04  0.10435439136E+04  0.00000000000E+00 0.  1.
         -6    2    1    2    0  504 -0.64082372852E+02 -0.33368558664E+02 -0.85728423084E+03  0.87747312504E+03  0.17263493710E+03 0.  0.
        -24    2    3    3    0    0 -0.51782562002E+02  0.34240306356E+02 -0.31363649728E+03  0.32947933659E+03  0.79592389763E+02 0.  0.
          6    2    1    2  502    0  0.64082372852E+02  0.33368558664E+02 -0.12624636739E+03  0.22608410395E+03  0.17307762872E+03 0.  0.
         24    2    5    5    0    0  0.60176159476E+02 -0.32973427648E+02 -0.11771547733E+03  0.15891726886E+03  0.81788432190E+02 0.  0.
          2    1    6    6  501    0 -0.15067175500E+02 -0.26301611592E+02 -0.24758009599E+02  0.39137623703E+02  0.00000000000E+00 0. -1.
         -1    1    6    6    0  501  0.75243334976E+02 -0.66718160566E+01 -0.92957467732E+02  0.11977964516E+03  0.00000000000E+00 0.  1.
          5    1    5    5  502    0  0.39062133759E+01  0.66341986312E+02 -0.85308900617E+01  0.67166835090E+02  0.47000000000E+01 0. -1.
         13    1    4    4    0    0 -0.11628673862E+02  0.52836125564E+01 -0.24236406288E+03  0.24270039471E+03  0.00000000000E+00 0. -1.
        -14    1    4    4    0    0 -0.40153888140E+02  0.28956693800E+02 -0.71272434399E+02  0.86778941879E+02  0.00000000000E+00 0.  1.
         -5    1    3    3    0  504 -0.12299810850E+02 -0.67608865020E+02 -0.54364773356E+03  0.54799378845E+03  0.47000000000E+01 0.  1.
<mgrwt>
<rscale>  2 0.18745014E+03</rscale>
<asrwt>0</asrwt>
<pdfrwt beam="1">  1       21 0.92328182E-02 0.18755233E+03</pdfrwt>
<pdfrwt beam="2">  1       21 0.16054521E+00 0.18755233E+03</pdfrwt>
<totfact> 0.23372722E+04</totfact>
</mgrwt>
</event>
<event>
12    1  0.1410528E-001  0.1981403E+03  0.7546771E-02  0.1151560E+00
         21   -1    0    0  502  503  0.00000000000E+00  0.00000000000E+00  0.44883653926E+02  0.44883653926E+02  0.00000000000E+00 0. -1.
         21   -1    0    0  503  504 -0.00000000000E+00 -0.00000000000E+00 -0.87725872419E+03  0.87725872419E+03  0.00000000000E+00 0.  1.
         -6    2    1    2    0  504  0.30079280228E+02  0.92156045183E+02 -0.46014779941E+03  0.50099457690E+03  0.17280644960E+03 0.  0.
        -24    2    3    3    0    0 -0.91619559723E+01  0.97715266422E+02 -0.43657517831E+03  0.45464225199E+03  0.80433054468E+02 0.  0.
          6    2    1    2  502    0 -0.30079280228E+02 -0.92156045183E+02 -0.37222727085E+03  0.42114780121E+03  0.17150752035E+03 0.  0.
         24    2    5    5    0    0 -0.84495326215E+02 -0.66247396250E+02 -0.22630575362E+03  0.26319988783E+03  0.80818990150E+02 0.  0.
          2    1    6    6  501    0 -0.82605028984E+02 -0.82474821767E+02 -0.18461582919E+03  0.21842319343E+03  0.00000000000E+00 0. -1.
         -1    1    6    6    0  501 -0.18902972316E+01  0.16227425517E+02 -0.41689924429E+02  0.44776694401E+02  0.00000000000E+00 0.  1.
          5    1    5    5  502    0  0.54416045987E+02 -0.25908648934E+02 -0.14592151724E+03  0.15794791339E+03  0.47000000000E+01 0. -1.
         13    1    4    4    0    0  0.14336836488E+01 -0.14289467441E+02 -0.46549335411E+02  0.48714319822E+02  0.00000000000E+00 0. -1.
        -14    1    4    4    0    0 -0.10595639621E+02  0.11200473386E+03 -0.39002584290E+03  0.40592793217E+03  0.00000000000E+00 0.  1.
         -5    1    3    3    0  504  0.39241236201E+02 -0.55592212384E+01 -0.23572621102E+02  0.46352324915E+02  0.47000000000E+01 0.  1.
<mgrwt>
<rscale>  2 0.19785671E+03</rscale>
<asrwt>0</asrwt>
<pdfrwt beam="1">  1       21 0.69051778E-02 0.19814028E+03</pdfrwt>
<pdfrwt beam="2">  1       21 0.13496288E+00 0.19814028E+03</pdfrwt>
<totfact> 0.60705666E+04</totfact>
</mgrwt>
</event>
<event>
12    1  0.1410528E-001  0.1824047E+03  0.7546771E-02  0.1165536E+00
         21   -1    0    0  502  503  0.00000000000E+00  0.00000000000E+00  0.34290731812E+03  0.34290731812E+03  0.00000000000E+00 0. -1.
         21   -1    0    0  503  504 -0.00000000000E+00 -0.00000000000E+00 -0.32810286963E+03  0.32810286963E+03  0.00000000000E+00 0. -1.
         -6    2    1    2    0  504 -0.37577146560E+02 -0.45040893721E+02 -0.27421123103E+03  0.32933762559E+03  0.17271580229E+03 0.  0.
        -24    2    3    3    0    0 -0.34333129350E+02 -0.95976891047E+02 -0.19641210784E+03  0.23617221870E+03  0.82518321588E+02 0.  0.
          6    2    1    2  502    0  0.37577146560E+02  0.45040893721E+02  0.28901567952E+03  0.34167256216E+03  0.17253797458E+03 0.  0.
         24    2    5    5    0    0  0.87113269851E+02  0.52023397775E+02  0.18890936767E+03  0.22966387256E+03  0.82241044890E+02 0.  0.
          4    1    6    6  501    0  0.97161192173E+02  0.60372601050E+02  0.18179134289E+03  0.21478649997E+03  0.00000000000E+00 0. -1.
         -3    1    6    6    0  501 -0.10047922322E+02 -0.83492032742E+01  0.71180247890E+01  0.14877372590E+02  0.00000000000E+00 0.  1.
          5    1    5    5  502    0 -0.49536123292E+02 -0.69825040542E+01  0.10010631184E+03  0.11200868959E+03  0.47000000000E+01 0. -1.
         13    1    4    4    0    0 -0.46114592553E+02 -0.27844610618E+02 -0.12814078031E+03  0.13900337249E+03  0.00000000000E+00 0. -1.
        -14    1    4    4    0    0  0.11781463203E+02 -0.68132280429E+02 -0.68271327529E+02  0.97168846212E+02  0.00000000000E+00 0.  1.
         -5    1    3    3    0  504 -0.32440172098E+01  0.50935997326E+02 -0.77799123193E+02  0.93165406889E+02  0.47000000000E+01 0.  1.
<mgrwt>
<rscale>  2 0.18236259E+03</rscale>
<asrwt>0</asrwt>
<pdfrwt beam="1">  1       21 0.52754972E-01 0.18240469E+03</pdfrwt>
<pdfrwt beam="2">  1       21 0.50477365E-01 0.18240469E+03</pdfrwt>
<totfact> 0.12808182E+04</totfact>
</mgrwt>
</event>
<event>
12    1  0.1410528E-001  0.1830863E+03  0.7546771E-02  0.1165250E+00
         21   -1    0    0  502  503  0.00000000000E+00  0.00000000000E+00  0.52244412647E+03  0.52244412647E+03  0.00000000000E+00 0.  1.
         21   -1    0    0  503  504 -0.00000000000E+00 -0.00000000000E+00 -0.13849467414E+03  0.13849467414E+03  0.00000000000E+00 0.  1.
         -6    2    1    2    0  504 -0.44570198154E+02 -0.35138007442E+02 -0.51496007472E+02  0.18856887189E+03  0.17229393063E+03 0.  0.
        -24    2    3    3    0    0 -0.24190096327E+00  0.37801901401E+02 -0.10182929758E+02  0.93626317557E+02  0.85047945390E+02 0.  0.
          6    2    1    2  502    0  0.44570198154E+02  0.35138007442E+02  0.43544545981E+03  0.47236992871E+03  0.17406728284E+03 0.  0.
         24    2    5    5    0    0  0.30026839362E+02 -0.41817101715E+02  0.16404896065E+03  0.18986019815E+03  0.80526717754E+02 0.  0.
          2    1    6    6  501    0  0.38810462242E+02 -0.10839690314E+02  0.25654098421E+02  0.47769065632E+02  0.00000000000E+00 0. -1.
         -1    1    6    6    0  501 -0.87836228796E+01 -0.30977411401E+02  0.13839486223E+03  0.14209113252E+03  0.00000000000E+00 0.  1.
          5    1    5    5  502    0  0.14543358792E+02  0.76955109157E+02  0.27139649915E+03  0.28250973056E+03  0.47000000000E+01 0. -1.
         11    1    4    4    0    0  0.24910459973E+02 -0.16465244068E+02  0.83542248402E+01  0.31006908116E+02  0.00000000000E+00 0. -1.
        -12    1    4    4    0    0 -0.25152360936E+02  0.54267145469E+02 -0.18537154598E+02  0.62619409440E+02  0.00000000000E+00 0.  1.
         -5    1    3    3    0  504 -0.44328297191E+02 -0.72939908844E+02 -0.41313077714E+02  0.94942554337E+02  0.47000000000E+01 0.  1.
<mgrwt>
<rscale>  2 0.18266357E+03</rscale>
<asrwt>0</asrwt>
<pdfrwt beam="1">  1       21 0.80376018E-01 0.18308632E+03</pdfrwt>
<pdfrwt beam="2">  1       21 0.21306873E-01 0.18308632E+03</pdfrwt>
<totfact> 0.28049120E+04</totfact>
</mgrwt>
</event>
<event>
12    1  0.1410528E-001  0.2353586E+03  0.7546771E-02  0.1123009E+00
         21   -1    0    0  502  503  0.00000000000E+00  0.00000000000E+00  0.15581142372E+04  0.15581142372E+04  0.00000000000E+00 0. -1.
         21   -1    0    0  503  504 -0.00000000000E+00 -0.00000000000E+00 -0.45504347645E+02  0.45504347645E+02  0.00000000000E+00 0. -1.
         -6    2    1    2    0  504 -0.15906100423E+03  0.30078088375E+01  0.37929364206E+03  0.44612154894E+03  0.17277534413E+03 0.  0.
        -24    2    3    3    0    0 -0.16661540061E+03 -0.25252256164E+02  0.36670183217E+03  0.41392925398E+03  0.92026221363E+02 0.  0.
          6    2    1    2  502    0  0.15906100423E+03 -0.30078088375E+01  0.11333162475E+04  0.11574970359E+04  0.17344803635E+03 0.  0.
         24    2    5    5    0    0  0.96660602572E+01  0.13212815528E+02  0.32113942880E+03  0.33152171378E+03  0.80672813021E+02 0.  0.
          2    1    6    6  501    0 -0.96293513774E+01 -0.18005176087E+02  0.25553769865E+03  0.25635215272E+03  0.00000000000E+00 0. -1.
         -1    1    6    6    0  501  0.19295411635E+02  0.31217991615E+02  0.65601730153E+02  0.75169561059E+02  0.00000000000E+00 0.  1.
          5    1    5    5  502    0  0.14939494397E+03 -0.16220624366E+02  0.81217681867E+03  0.82597532211E+03  0.47000000000E+01 0. -1.
         13    1    4    4    0    0 -0.96306932251E+02  0.21659739627E+02  0.13460439049E+03  0.16692067415E+03  0.00000000000E+00 0. -1.
        -14    1    4    4    0    0 -0.70308468362E+02 -0.46911995791E+02  0.23209744168E+03  0.24700857982E+03  0.00000000000E+00 0.  1.
         -5    1    3    3    0  504  0.75543963820E+01  0.28260065001E+02  0.12591809891E+02  0.32192294962E+02  0.47000000000E+01 0.  1.
<mgrwt>
<rscale>  2 0.23523468E+03</rscale>
<asrwt>0</asrwt>
<pdfrwt beam="1">  1       21 0.23970984E+00 0.23535860E+03</pdfrwt>
<pdfrwt beam="2">  1       21 0.70006701E-02 0.23535860E+03</pdfrwt>
<totfact> 0.11155975E+04</totfact>
</mgrwt>
</event>
<event>
12    1  0.1410528E-001  0.2127123E+03  0.7546771E-02  0.1140738E+00
         21   -1    0    0  502  503  0.00000000000E+00  0.00000000000E+00  0.18405778715E+03  0.18405778715E+03  0.00000000000E+00 0. -1.
         21   -1    0    0  503  504 -0.00000000000E+00 -0.00000000000E+00 -0.48040382123E+03  0.48040382123E+03  0.00000000000E+00 0.  1.
         -6    2    1    2    0  504 -0.71894718145E+02  0.89980361142E+02 -0.38286184342E+03  0.43482821941E+03  0.17095927398E+03 0.  0.
        -24    2    3    3    0    0  0.18207973844E+01  0.10737170835E+03 -0.24365380496E+03  0.27628042170E+03  0.73700038563E+02 0.  0.
          6    2    1    2  502    0  0.71894718145E+02 -0.89980361142E+02  0.86515809334E+02  0.22963338898E+03  0.17883286102E+03 0.  0.
         24    2    5    5    0    0  0.45332610703E+02 -0.67100625304E+02  0.13013843140E+03  0.17347245042E+03  0.81235092273E+02 0.  0.
          4    1    6    6  501    0  0.94974324333E+01 -0.76952372047E+02  0.87542004027E+02  0.11694217056E+03  0.00000000000E+00 0. -1.
         -3    1    6    6    0  501  0.35835178270E+02  0.98517467431E+01  0.42596427375E+02  0.56530279856E+02  0.00000000000E+00 0.  1.
          5    1    5    5  502    0  0.26562107442E+02 -0.22879735839E+02 -0.43622622067E+02  0.56160938559E+02  0.47000000000E+01 0. -1.
         13    1    4    4    0    0  0.35491138396E+02  0.38771567993E+02 -0.80855382513E+02  0.96438831757E+02  0.00000000000E+00 0. -1.
        -14    1    4    4    0    0 -0.33670341012E+02  0.68600140356E+02 -0.16279842245E+03  0.17984158994E+03  0.00000000000E+00 0.  1.
         -5    1    3    3    0  504 -0.73715515529E+02 -0.17391347207E+02 -0.13920803846E+03  0.15854779771E+03  0.47000000000E+01 0.  1.
<mgrwt>
<rscale>  2 0.21104900E+03</rscale>
<asrwt>0</asrwt>
<pdfrwt beam="1">  1       21 0.28316583E-01 0.21271227E+03</pdfrwt>
<pdfrwt beam="2">  1       21 0.73908279E-01 0.21271227E+03</pdfrwt>
<totfact> 0.19349339E+04</totfact>
</mgrwt>
</event>
<event>
12    1  0.1410528E-001  0.1757366E+03  0.7546771E-02  0.1172001E+00
         21   -1    0    0  502  503  0.00000000000E+00  0.00000000000E+00  0.13853180913E+03  0.13853180913E+03  0.00000000000E+00 0.  1.
         21   -1    0    0  503  504 -0.00000000000E+00 -0.00000000000E+00 -0.22801996362E+03  0.22801996362E+03  0.00000000000E+00 0.  1.
         -6    2    1    2    0  504 -0.30299196825E+02 -0.10310266863E+02 -0.72211120633E+02  0.18996797594E+03  0.17276875588E+03 0.  0.
        -24    2    3    3    0    0  0.10675731471E+02 -0.66774482780E+02 -0.31899758553E+02  0.10925708237E+03  0.79666257968E+02 0.  0.
          6    2    1    2  502    0  0.30299196825E+02  0.10310266863E+02 -0.17277033864E+02  0.17658379681E+03  0.17279756499E+03 0.  0.
         24    2    5    5    0    0  0.85951972463E+02  0.50813729817E+01 -0.13575163237E+02  0.12036665873E+03  0.83007743953E+02 0.  0.
          4    1    6    6  501    0  0.27462175437E+02  0.40393835531E+02 -0.17615462453E+02  0.51924344445E+02  0.00000000000E+00 0. -1.
         -3    1    6    6    0  501  0.58489797026E+02 -0.35312462549E+02  0.40402992162E+01  0.68442314288E+02  0.00000000000E+00 0.  1.
          5    1    5    5  502    0 -0.55652775638E+02  0.52288938809E+01 -0.37018706267E+01  0.56217138077E+02  0.47000000000E+01 0. -1.
         11    1    4    4    0    0  0.51625160414E+01 -0.60334894206E+02 -0.56755913820E+02  0.82995088916E+02  0.00000000000E+00 0. -1.
        -12    1    4    4    0    0  0.55132154293E+01 -0.64395885747E+01  0.24856155267E+02  0.26261993451E+02  0.00000000000E+00 0.  1.
         -5    1    3    3    0  504 -0.40974928296E+02  0.56464215918E+02 -0.40311362080E+02  0.80710893570E+02  0.47000000000E+01 0.  1.
<mgrwt>
<rscale>  2 0.17572949E+03</rscale>
<asrwt>0</asrwt>
<pdfrwt beam="1">  1       21 0.21312586E-01 0.17573657E+03</pdfrwt>
<pdfrwt beam="2">  1       21 0.35079994E-01 0.17573657E+03</pdfrwt>
<totfact> 0.16138104E+05</totfact>
</mgrwt>
</event>
<event>
12    1  0.1410528E-001  0.1836746E+03  0.7546771E-02  0.1164545E+00
         21   -1    0    0  502  503  0.00000000000E+00  0.00000000000E+00  0.38096170989E+03  0.38096170989E+03  0.00000000000E+00 0. -1.
         21   -1    0    0  503  504 -0.00000000000E+00 -0.00000000000E+00 -0.88190663914E+02  0.88190663914E+02  0.00000000000E+00 0. -1.
         -6    2    1    2    0  504  0.32247380365E+02 -0.50293239534E+02  0.15640207380E+03  0.24124258448E+03  0.17368670759E+03 0.  0.
        -24    2    3    3    0    0  0.53837268361E+02 -0.84704912769E+02  0.72549162229E+02  0.14794903005E+03  0.80945418900E+02 0.  0.
          6    2    1    2  502    0 -0.32247380365E+02  0.50293239534E+02  0.13636897217E+03  0.22790978932E+03  0.17256034311E+03 0.  0.
         24    2    5    5    0    0  0.39854663356E+02 -0.69315797762E+01  0.68761935056E+02  0.11360236996E+03  0.80875544873E+02 0.  0.
          2    1    6    6  501    0 -0.16265432754E+02 -0.26399072591E+02  0.22454536383E+02  0.38284220515E+02  0.00000000000E+00 0. -1.
         -1    1    6    6    0  501  0.56120096110E+02  0.19467492814E+02  0.46307398673E+02  0.75318149445E+02  0.00000000000E+00 0.  1.
          5    1    5    5  502    0 -0.72102043721E+02  0.57224819310E+02  0.67607037116E+02  0.11430741936E+03  0.47000000000E+01 0. -1.
         13    1    4    4    0    0  0.34952700765E+02 -0.96054259576E+02  0.73496365322E+02  0.12589609918E+03  0.00000000000E+00 0. -1.
        -14    1    4    4    0    0  0.18884567595E+02  0.11349346807E+02 -0.94720309336E+00  0.22052930869E+02  0.00000000000E+00 0.  1.
         -5    1    3    3    0  504 -0.21589887996E+02  0.34411673236E+02  0.83852911576E+02  0.93293554431E+02  0.47000000000E+01 0.  1.
<mgrwt>
<rscale>  2 0.18340788E+03</rscale>
<asrwt>0</asrwt>
<pdfrwt beam="1">  1       21 0.58609493E-01 0.18367465E+03</pdfrwt>
<pdfrwt beam="2">  1       21 0.13567795E-01 0.18367465E+03</pdfrwt>
<totfact> 0.12862472E+05</totfact>
</mgrwt>
</event>
<event>
12    1  0.1410528E-001  0.2020141E+03  0.7546771E-02  0.1149698E+00
         21   -1    0    0  502  503  0.00000000000E+00  0.00000000000E+00  0.20185181155E+03  0.20185181155E+03  0.00000000000E+00 0. -1.
         21   -1    0    0  503  504 -0.00000000000E+00 -0.00000000000E+00 -0.22241138455E+03  0.22241138455E+03  0.00000000000E+00 0. -1.
         -6    2    1    2    0  504 -0.32488817526E+02  0.81288222706E+02 -0.85594613653E+02  0.21939949893E+03  0.18206153857E+03 0.  0.
        -24    2    3    3    0    0 -0.42772213891E+02  0.35612146326E+02  0.23257457473E+02  0.10081233443E+03  0.80774564055E+02 0.  0.
          6    2    1    2  502    0  0.32488817526E+02 -0.81288222706E+02  0.65035040650E+02  0.20486369717E+03  0.17342514088E+03 0.  0.
         24    2    5    5    0    0  0.37145069419E+02 -0.75506558737E+02 -0.21748285705E+02  0.11763672856E+03  0.79274304664E+02 0.  0.
          2    1    6    6  501    0  0.52489967237E+02 -0.82981327753E+02 -0.21745008055E+02  0.10056810027E+03  0.00000000000E+00 0. -1.
         -1    1    6    6    0  501 -0.15344897818E+02  0.74747690166E+01 -0.32776499225E-02  0.17068628288E+02  0.00000000000E+00 0.  1.
          5    1    5    5  502    0 -0.46562518938E+01 -0.57816639692E+01  0.86783326355E+02  0.87226968612E+02  0.47000000000E+01 0. -1.
         11    1    4    4    0    0 -0.26225382370E+02  0.37479558403E+02 -0.23321965828E+02  0.51345906055E+02  0.00000000000E+00 0. -1.
        -12    1    4    4    0    0 -0.16546831520E+02 -0.18674120775E+01  0.46579423301E+02  0.49466428376E+02  0.00000000000E+00 0.  1.
         -5    1    3    3    0  504  0.10283396365E+02  0.45676076380E+02 -0.10885207113E+03  0.11858716449E+03  0.47000000000E+01 0.  1.
<mgrwt>
<rscale>  2 0.20004878E+03</rscale>
<asrwt>0</asrwt>
<pdfrwt beam="1">  1       21 0.31054125E-01 0.20201411E+03</pdfrwt>
<pdfrwt beam="2">  1       21 0.34217136E-01 0.20201411E+03</pdfrwt>
<totfact> 0.81656324E+04</totfact>
</mgrwt>
</event>
<event>
12    1  0.1410528E-001  0.1848255E+03  0.7546771E-02  0.1163307E+00
         21   -1    0    0  502  503  0.00000000000E+00  0.00000000000E+00  0.78297540441E+03  0.78297540441E+03  0.00000000000E+00 0. -1.
         21   -1    0    0  503  504 -0.00000000000E+00 -0.00000000000E+00 -0.49706555646E+02  0.49706555646E+02  0.00000000000E+00 0.  1.
         -6    2    1    2    0  504  0.60845053080E+02 -0.20491406014E+02  0.22026815957E+03  0.28753871307E+03  0.17331598654E+03 0.  0.
        -24    2    3    3    0    0  0.31238764157E+02  0.12049288678E+02  0.30426506894E+02  0.92609566342E+02  0.80806643988E+02 0.  0.
          6    2    1    2  502    0 -0.60845053080E+02  0.20491406014E+02  0.51300068920E+03  0.54514324699E+03  0.17288561077E+03 0.  0.
         24    2    5    5    0    0 -0.11923530263E+02  0.68982244521E+02  0.38144431560E+03  0.39657055014E+03  0.82871676115E+02 0.  0.
          2    1    6    6  501    0  0.14010173883E+02 -0.50696277736E+01  0.17638111556E+03  0.17700927667E+03  0.00000000000E+00 0. -1.
         -1    1    6    6    0  501 -0.25933704146E+02  0.74051872294E+02  0.20506320004E+03  0.21956127348E+03  0.00000000000E+00 0.  1.
          5    1    5    5  502    0 -0.48921522817E+02 -0.48490838507E+02  0.13155637360E+03  0.14857269684E+03  0.47000000000E+01 0. -1.
         11    1    4    4    0    0  0.29417617569E+02  0.33704031240E+02  0.47293860597E+02  0.65100439288E+02  0.00000000000E+00 0. -1.
        -12    1    4    4    0    0  0.18211465881E+01 -0.21654742563E+02 -0.16867353703E+02  0.27509127055E+02  0.00000000000E+00 0.  1.
         -5    1    3    3    0  504  0.29606288923E+02 -0.32540694691E+02  0.18984165267E+03  0.19492914673E+03  0.47000000000E+01 0.  1.
<mgrwt>
<rscale>  2 0.18472450E+03</rscale>
<asrwt>0</asrwt>
<pdfrwt beam="1">  1       21 0.12045775E+00 0.18482546E+03</pdfrwt>
<pdfrwt beam="2">  1       21 0.76471630E-02 0.18482546E+03</pdfrwt>
<totfact> 0.68152679E+04</totfact>
</mgrwt>
</event>
<event>
12    1  0.1410528E-001  0.1839676E+03  0.7546771E-02  0.1164694E+00
         21   -1    0    0  502  503  0.00000000000E+00  0.00000000000E+00  0.21781434264E+03  0.21781434264E+03  0.00000000000E+00 0.  1.
         21   -1    0    0  503  504 -0.00000000000E+00 -0.00000000000E+00 -0.15652959116E+03  0.15652959116E+03  0.00000000000E+00 0.  1.
         -6    2    1    2    0  504 -0.14601813866E+01 -0.57448996821E+02  0.26976434935E+01  0.18398740450E+03  0.17476146134E+03 0.  0.
        -24    2    3    3    0    0 -0.62972250684E+02 -0.14749225956E+02 -0.21608416688E+02  0.10512119081E+03  0.80003106580E+02 0.  0.
          6    2    1    2  502    0  0.14601813866E+01  0.57448996821E+02  0.58587107992E+02  0.19035652930E+03  0.17175750248E+03 0.  0.
         24    2    5    5    0    0 -0.65061319404E+02  0.49395298282E+02  0.28404560439E+02  0.11671518015E+03  0.78375655970E+02 0.  0.
          2    1    6    6  501    0 -0.14846206461E+02  0.49072474543E+02  0.40178737211E+02  0.65137151671E+02  0.00000000000E+00 0. -1.
         -1    1    6    6    0  501 -0.50215112943E+02  0.32282373928E+00 -0.11774176772E+02  0.51578028479E+02  0.00000000000E+00 0.  1.
          5    1    5    5  502    0  0.66521500791E+02  0.80536985387E+01  0.30182547553E+02  0.73641349148E+02  0.47000000000E+01 0. -1.
         11    1    4    4    0    0 -0.21804661001E+02 -0.14856132175E+02  0.29445417661E+02  0.39537077861E+02  0.00000000000E+00 0. -1.
        -12    1    4    4    0    0 -0.41167589683E+02  0.10690621840E+00 -0.51053834349E+02  0.65584112947E+02  0.00000000000E+00 0.  1.
         -5    1    3    3    0  504  0.61512069297E+02 -0.42699770864E+02  0.24306060182E+02  0.78866213695E+02  0.47000000000E+01 0.  1.
<mgrwt>
<rscale>  2 0.18325065E+03</rscale>
<asrwt>0</asrwt>
<pdfrwt beam="1">  1       21 0.33509899E-01 0.18396763E+03</pdfrwt>
<pdfrwt beam="2">  1       21 0.24081476E-01 0.18396763E+03</pdfrwt>
<totfact> 0.13992110E+05</totfact>
</mgrwt>
</event>
<event>
12    1  0.1410528E-001  0.2196678E+03  0.7546771E-02  0.1134402E+00
         21   -1    0    0  502  503  0.00000000000E+00  0.00000000000E+00  0.16202339294E+03  0.16202339294E+03  0.00000000000E+00 0.  1.
         21   -1    0    0  503  504 -0.00000000000E+00 -0.00000000000E+00 -0.30674238620E+03  0.30674238620E+03  0.00000000000E+00 0.  1.
         -6    2    1    2    0  504  0.12904536808E+03  0.27366203163E+02 -0.27993536207E+02  0.22001135725E+03  0.17383826722E+03 0.  0.
        -24    2    3    3    0    0  0.12114517647E+03 -0.21385764171E+02 -0.61993848173E+02  0.15986754161E+03  0.81122678436E+02 0.  0.
          6    2    1    2  502    0 -0.12904536808E+03 -0.27366203163E+02 -0.11672545705E+03  0.24875442188E+03  0.17564826781E+03 0.  0.
         24    2    5    5    0    0 -0.14922203547E+03 -0.31855709047E+02 -0.50859565298E+02  0.17956150847E+03  0.79835066688E+02 0.  0.
          4    1    6    6  501    0 -0.88102946969E+02  0.19454971848E+02 -0.41166711254E+02  0.99173198545E+02  0.00000000000E+00 0. -1.
         -3    1    6    6    0  501 -0.61119088501E+02 -0.51310680895E+02 -0.96928540435E+01  0.80388309925E+02  0.00000000000E+00 0.  1.
          5    1    5    5  502    0  0.20176667387E+02  0.44895058845E+01 -0.65865891755E+02  0.69192913413E+02  0.47000000000E+01 0. -1.
         13    1    4    4    0    0 -0.19566207964E+01 -0.11622071333E+02  0.11248815916E+02  0.16292230250E+02  0.00000000000E+00 0. -1.
        -14    1    4    4    0    0  0.12310179727E+03 -0.97636928376E+01 -0.73242664088E+02  0.14357531136E+03  0.00000000000E+00 0.  1.
         -5    1    3    3    0  504  0.79001916108E+01  0.48751967334E+02  0.34000311966E+02  0.60143815644E+02  0.47000000000E+01 0.  1.
<mgrwt>
<rscale>  2 0.21930573E+03</rscale>
<asrwt>0</asrwt>
<pdfrwt beam="1">  1       21 0.24926676E-01 0.21966777E+03</pdfrwt>
<pdfrwt beam="2">  1       21 0.47191136E-01 0.21966777E+03</pdfrwt>
<totfact> 0.64662030E+04</totfact>
</mgrwt>
</event>
<event>
12    1  0.1410528E-001  0.2180808E+03  0.7546771E-02  0.1135539E+00
         21   -1    0    0  502  503  0.00000000000E+00  0.00000000000E+00  0.55694339084E+02  0.55694339084E+02  0.00000000000E+00 0.  1.
         21   -1    0    0  503  504 -0.00000000000E+00 -0.00000000000E+00 -0.85200260423E+03  0.85200260423E+03  0.00000000000E+00 0.  1.
         -6    2    1    2    0  504 -0.91132262646E+02  0.95734994916E+02 -0.37224183433E+03  0.43084103822E+03  0.17201668069E+03 0.  0.
        -24    2    3    3    0    0  0.48544804196E+01  0.82621557370E+02 -0.15193947801E+03  0.19013242746E+03  0.78834302639E+02 0.  0.
          6    2    1    2  502    0  0.91132262646E+02 -0.95734994916E+02 -0.42406643082E+03  0.47685590510E+03  0.17346163247E+03 0.  0.
         24    2    5    5    0    0  0.12218276231E+03 -0.93165785180E+02 -0.28057856669E+03  0.32994916080E+03  0.80830846194E+02 0.  0.
          2    1    6    6  501    0  0.38970082145E+02  0.91741796783E+01 -0.47355706203E+02  0.62011255310E+02  0.00000000000E+00 0. -1.
         -1    1    6    6    0  501  0.83212680165E+02 -0.10233996486E+03 -0.23322286049E+03  0.26793790549E+03  0.00000000000E+00 0.  1.
          5    1    5    5  502    0 -0.31050499664E+02 -0.25692097361E+01 -0.14348786413E+03  0.14690674430E+03  0.47000000000E+01 0. -1.
         13    1    4    4    0    0  0.92638592245E+01 -0.36137163581E+01  0.49068207428E+01  0.11088504112E+02  0.00000000000E+00 0. -1.
        -14    1    4    4    0    0 -0.44093788049E+01  0.86235273728E+02 -0.15684629875E+03  0.17904392335E+03  0.00000000000E+00 0.  1.
         -5    1    3    3    0  504 -0.95986743066E+02  0.13113437546E+02 -0.22030235633E+03  0.24070861075E+03  0.47000000000E+01 0.  1.
<mgrwt>
<rscale>  2 0.21779330E+03</rscale>
<asrwt>0</asrwt>
<pdfrwt beam="1">  1       21 0.85683599E-02 0.21808076E+03</pdfrwt>
<pdfrwt beam="2">  1       21 0.13107732E+00 0.21808076E+03</pdfrwt>
<totfact> 0.44450959E+04</totfact>
</mgrwt>
</event>
<event>
12    1  0.1410528E-001  0.2207383E+03  0.7546771E-02  0.1134514E+00
         21   -1    0    0  502  503  0.00000000000E+00  0.00000000000E+00  0.24743444559E+03  0.24743444559E+03  0.00000000000E+00 0. -1.
         21   -1    0    0  503  504 -0.00000000000E+00 -0.00000000000E+00 -0.29129011931E+03  0.29129011931E+03  0.00000000000E+00 0.  1.
         -6    2    1    2    0  504 -0.99108469437E+02  0.80851504483E+02 -0.17988064345E+03  0.28474979009E+03  0.17990537117E+03 0.  0.
        -24    2    3    3    0    0 -0.20532888945E+02  0.30855136246E+02 -0.16890350179E+03  0.19085438911E+03  0.80767357049E+02 0.  0.
          6    2    1    2  502    0  0.99108469437E+02 -0.80851504483E+02  0.13602496972E+03  0.25397477481E+03  0.17216544183E+03 0.  0.
         24    2    5    5    0    0  0.13073240364E+03 -0.68638319630E+02  0.74643863218E+02  0.18369700212E+03  0.79816677376E+02 0.  0.
          2    1    6    6  501    0  0.83400143163E+02 -0.48368789774E+02  0.87966678522E+02  0.13051153295E+03  0.00000000000E+00 0. -1.
         -1    1    6    6    0  501  0.47332260476E+02 -0.20269529856E+02 -0.13322815304E+02  0.53185469162E+02  0.00000000000E+00 0.  1.
          5    1    5    5  502    0 -0.31623934202E+02 -0.12213184852E+02  0.61381106506E+02  0.70277772692E+02  0.47000000000E+01 0. -1.
         13    1    4    4    0    0 -0.47304602243E+01 -0.12666628012E+02 -0.12906917577E+03  0.12977547092E+03  0.00000000000E+00 0. -1.
        -14    1    4    4    0    0 -0.15802428720E+02  0.43521764258E+02 -0.39834326020E+02  0.61078918188E+02  0.00000000000E+00 0.  1.
         -5    1    3    3    0  504 -0.78575580492E+02  0.49996368237E+02 -0.10977141663E+02  0.93895400982E+02  0.47000000000E+01 0.  1.
<mgrwt>
<rscale>  2 0.21915605E+03</rscale>
<asrwt>0</asrwt>
<pdfrwt beam="1">  1       21 0.38066838E-01 0.22073830E+03</pdfrwt>
<pdfrwt beam="2">  1       21 0.44813865E-01 0.22073830E+03</pdfrwt>
<totfact> 0.31337792E+04</totfact>
</mgrwt>
</event>
<event>
12    1  0.1410528E-001  0.1881095E+03  0.7546771E-02  0.1160860E+00
         21   -1    0    0  502  503  0.00000000000E+00  0.00000000000E+00  0.24060629690E+03  0.24060629690E+03  0.00000000000E+00 0.  1.
         21   -1    0    0  503  504 -0.00000000000E+00 -0.00000000000E+00 -0.14482425458E+03  0.14482425458E+03  0.00000000000E+00 0.  1.
         -6    2    1    2    0  504 -0.42430908831E+02 -0.40875474046E+02  0.44185512834E+02  0.19322924240E+03  0.17864488286E+03 0.  0.
        -24    2    3    3    0    0 -0.13295406177E+02  0.28034315814E+02  0.71872700026E+02  0.11331612090E+03  0.81927819193E+02 0.  0.
          6    2    1    2  502    0  0.42430908831E+02  0.40875474046E+02  0.51596529481E+02  0.19220130908E+03  0.17552195007E+03 0.  0.
         24    2    5    5    0    0  0.10584270975E+02 -0.48012525995E+02  0.22212361057E+02  0.93202297732E+02  0.76000328119E+02 0.  0.
          4    1    6    6  501    0 -0.30240636233E+02 -0.35915013369E+02  0.18489182865E+02  0.50460223424E+02  0.00000000000E+00 0. -1.
         -3    1    6    6    0  501  0.40824907208E+02 -0.12097512626E+02  0.37231781923E+01  0.42742074307E+02  0.00000000000E+00 0.  1.
          5    1    5    5  502    0  0.31846637856E+02  0.88888000042E+02  0.29384168424E+02  0.98999011349E+02  0.47000000000E+01 0. -1.
         11    1    4    4    0    0 -0.27546132241E+00  0.20415401229E+02 -0.14878362966E+02  0.25263217745E+02  0.00000000000E+00 0. -1.
        -12    1    4    4    0    0 -0.13019944855E+02  0.76189145854E+01  0.86751062992E+02  0.88052903153E+02  0.00000000000E+00 0.  1.
         -5    1    3    3    0  504 -0.29135502654E+02 -0.68909789861E+02 -0.27687187191E+02  0.79913121502E+02  0.47000000000E+01 0.  1.
<mgrwt>
<rscale>  2 0.18736427E+03</rscale>
<asrwt>0</asrwt>
<pdfrwt beam="1">  1       21 0.37016353E-01 0.18810949E+03</pdfrwt>
<pdfrwt beam="2">  1       21 0.22280655E-01 0.18810949E+03</pdfrwt>
<totfact> 0.13286294E+05</totfact>
</mgrwt>
</event>
<event>
12    1  0.1410528E-001  0.3297527E+03  0.7546771E-02  0.1071273E+00
         21   -1    0    0  502  503  0.00000000000E+00  0.00000000000E+00  0.65117250433E+03  0.65117250433E+03  0.00000000000E+00 0. -1.
         21   -1    0    0  503  504 -0.00000000000E+00 -0.00000000000E+00 -0.18337569934E+03  0.18337569934E+03  0.00000000000E+00 0. -1.
         -6    2    1    2    0  504 -0.13704729915E+03 -0.24550719109E+03  0.10861371232E+03  0.34695272227E+03  0.17182406672E+03 0.  0.
        -24    2    3    3    0    0 -0.49850790454E+02 -0.95033896761E+02  0.11204343050E+03  0.17294325011E+03  0.76413968598E+02 0.  0.
          6    2    1    2  502    0  0.13704729915E+03  0.24550719109E+03  0.35918309266E+03  0.48759548140E+03  0.17228208363E+03 0.  0.
         24    2    5    5    0    0  0.73361625219E+02  0.50585425604E+02  0.17110346607E+03  0.20930355613E+03  0.81183552351E+02 0.  0.
          2    1    6    6  501    0  0.29338585083E+02  0.34521899675E+02  0.15215305814E+03  0.15875473925E+03  0.00000000000E+00 0. -1.
         -1    1    6    6    0  501  0.44023040136E+02  0.16063525929E+02  0.18950407924E+02  0.50548816886E+02  0.00000000000E+00 0.  1.
          5    1    5    5  502    0  0.63685673936E+02  0.19492176549E+03  0.18807962660E+03  0.27829192526E+03  0.47000000000E+01 0. -1.
         13    1    4    4    0    0 -0.48498706146E+02 -0.10750939037E+03  0.93284524944E+02  0.15037418698E+03  0.00000000000E+00 0. -1.
        -14    1    4    4    0    0 -0.13520843074E+01  0.12475493610E+02  0.18758905558E+02  0.22569063129E+02  0.00000000000E+00 0.  1.
         -5    1    3    3    0  504 -0.87196508701E+02 -0.15047329433E+03 -0.34297181790E+01  0.17400947217E+03  0.47000000000E+01 0.  1.
<mgrwt>
<rscale>  2 0.32969294E+03</rscale>
<asrwt>0</asrwt>
<pdfrwt beam="1">  1       21 0.10018038E+00 0.32975272E+03</pdfrwt>
<pdfrwt beam="2">  1       21 0.28211646E-01 0.32975272E+03</pdfrwt>
<totfact> 0.90972171E+03</totfact>
</mgrwt>
</event>
<event>
12    1  0.1410528E-001  0.1787339E+03  0.7546771E-02  0.1170129E+00
         21   -1    0    0  502  503  0.00000000000E+00  0.00000000000E+00  0.70723937423E+03  0.70723937423E+03  0.00000000000E+00 0. -1.
         21   -1    0    0  503  504 -0.00000000000E+00 -0.00000000000E+00 -0.15432205106E+03  0.15432205106E+03  0.00000000000E+00 0. -1.
         -6    2    1    2    0  504 -0.11036796769E+02  0.29522492934E+02 -0.86675397238E+02  0.19864145678E+03  0.17593298552E+03 0.  0.
        -24    2    3    3    0    0 -0.66963498181E+02  0.32141179723E+02 -0.14019800565E+02  0.10679604764E+03  0.75443193609E+02 0.  0.
          6    2    1    2  502    0  0.11036796769E+02 -0.29522492934E+02  0.63959272042E+03  0.66291996851E+03  0.17143700933E+03 0.  0.
         24    2    5    5    0    0  0.56414583659E+02 -0.14016594191E+02  0.56588379008E+03  0.57485934819E+03  0.82823524255E+02 0.  0.
          2    1    6    6  501    0  0.44285126587E+02 -0.39892325630E+02  0.22436491615E+03  0.23214690539E+03  0.00000000000E+00 0. -1.
         -1    1    6    6    0  501  0.12129457072E+02  0.25875731439E+02  0.34151887392E+03  0.34271244280E+03  0.00000000000E+00 0.  1.
          5    1    5    5  502    0 -0.45377786889E+02 -0.15505898743E+02  0.73708930338E+02  0.88060620316E+02  0.47000000000E+01 0. -1.
         11    1    4    4    0    0  0.65816917101E+00  0.33989386807E+02 -0.19037498245E+02  0.38963289666E+02  0.00000000000E+00 0. -1.
        -12    1    4    4    0    0 -0.67621667352E+02 -0.18482070839E+01  0.50176976806E+01  0.67832757978E+02  0.00000000000E+00 0.  1.
         -5    1    3    3    0  504  0.55926701411E+02 -0.26186867887E+01 -0.72655596674E+02  0.91845409135E+02  0.47000000000E+01 0.  1.
<mgrwt>
<rscale>  2 0.17761755E+03</rscale>
<asrwt>0</asrwt>
<pdfrwt beam="1">  1       21 0.10880606E+00 0.17873389E+03</pdfrwt>
<pdfrwt beam="2">  1       21 0.23741854E-01 0.17873389E+03</pdfrwt>
<totfact> 0.11316753E+04</totfact>
</mgrwt>
</event>
<event>
12    1  0.1410528E-001  0.3594088E+03  0.7546771E-02  0.1059758E+00
         21   -1    0    0  502  503  0.00000000000E+00  0.00000000000E+00  0.11103360153E+04  0.11103360153E+04  0.00000000000E+00 0. -1.
         21   -1    0    0  503  504 -0.00000000000E+00 -0.00000000000E+00 -0.35980369221E+03  0.35980369221E+03  0.00000000000E+00 0.  1.
         -6    2    1    2    0  504 -0.27426159058E+02 -0.30269779483E+03 -0.23465594785E+03  0.42144021599E+03  0.17369597750E+03 0.  0.
        -24    2    3    3    0    0 -0.72137820171E+02 -0.12547063951E+03 -0.89588657714E+02  0.18804097459E+03  0.79915793518E+02 0.  0.
          6    2    1    2  502    0  0.27426159058E+02  0.30269779483E+03  0.98518827092E+03  0.10486994915E+04  0.19182425573E+03 0.  0.
         24    2    5    5    0    0  0.23093188448E+02  0.11886286222E+03  0.23549325592E+03  0.27676765343E+03  0.80508291718E+02 0.  0.
          2    1    6    6  501    0 -0.27130256659E+01  0.11702617507E+03  0.17051245881E+03  0.20682597702E+03  0.00000000000E+00 0. -1.
         -1    1    6    6    0  501  0.25806214114E+02  0.18366871455E+01  0.64980797103E+02  0.69941676408E+02  0.00000000000E+00 0.  1.
          5    1    5    5  502    0  0.43329706098E+01  0.18383493261E+03  0.74969501500E+03  0.77193183805E+03  0.47000000000E+01 0. -1.
         11    1    4    4    0    0 -0.88158302663E+02 -0.11775420117E+03 -0.84043529327E+02  0.16941444166E+03  0.00000000000E+00 0. -1.
        -12    1    4    4    0    0  0.16020482491E+02 -0.77164383388E+01 -0.55451283869E+01  0.18626532923E+02  0.00000000000E+00 0.  1.
         -5    1    3    3    0  504  0.44711661113E+02 -0.17722715532E+03 -0.14506729014E+03  0.23339924141E+03  0.47000000000E+01 0.  1.
<mgrwt>
<rscale>  2 0.35705080E+03</rscale>
<asrwt>0</asrwt>
<pdfrwt beam="1">  1       21 0.17082092E+00 0.35940881E+03</pdfrwt>
<pdfrwt beam="2">  1       21 0.55354415E-01 0.35940881E+03</pdfrwt>
<totfact> 0.56468972E+02</totfact>
</mgrwt>
</event>
<event>
12    1  0.1410528E-001  0.2212347E+03  0.7546771E-02  0.1133378E+00
         21   -1    0    0  502  503  0.00000000000E+00  0.00000000000E+00  0.34268289187E+03  0.34268289187E+03  0.00000000000E+00 0.  1.
         21   -1    0    0  503  504 -0.00000000000E+00 -0.00000000000E+00 -0.16094643637E+03  0.16094643637E+03  0.00000000000E+00 0. -1.
         -6    2    1    2    0  504  0.11814602187E+03 -0.69766954948E+02  0.27187897006E+01  0.21903818475E+03  0.17071738070E+03 0.  0.
        -24    2    3    3    0    0  0.13983653334E+03 -0.52368531592E+02 -0.33438675162E+02  0.17318367910E+03  0.81103159957E+02 0.  0.
          6    2    1    2  502    0 -0.11814602187E+03  0.69766954948E+02  0.17901766580E+03  0.28459114349E+03  0.17354792940E+03 0.  0.
         24    2    5    5    0    0 -0.12137011728E+03  0.43447319629E+01  0.16487585161E+03  0.21741567952E+03  0.73047581705E+02 0.  0.
          4    1    6    6  501    0 -0.72502320604E+02  0.37783822918E+02  0.10652998359E+03  0.13428641469E+03  0.00000000000E+00 0. -1.
         -3    1    6    6    0  501 -0.48867796677E+02 -0.33439090955E+02  0.58345868014E+02  0.83129264825E+02  0.00000000000E+00 0.  1.
          5    1    5    5  502    0  0.32240954065E+01  0.65422222985E+02  0.14141814190E+02  0.67175463974E+02  0.47000000000E+01 0. -1.
         13    1    4    4    0    0  0.59681443889E+02 -0.64077106444E+02 -0.28258581150E+02  0.92012486780E+02  0.00000000000E+00 0. -1.
        -14    1    4    4    0    0  0.80155089447E+02  0.11708574852E+02 -0.51800940119E+01  0.81171192324E+02  0.00000000000E+00 0.  1.
         -5    1    3    3    0  504 -0.21690511461E+02 -0.17398423356E+02  0.36157464863E+02  0.45854505646E+02  0.47000000000E+01 0.  1.
<mgrwt>
<rscale>  2 0.22067927E+03</rscale>
<asrwt>0</asrwt>
<pdfrwt beam="1">  1       21 0.52720445E-01 0.22123470E+03</pdfrwt>
<pdfrwt beam="2">  1       21 0.24760990E-01 0.22123470E+03</pdfrwt>
<totfact> 0.51910857E+04</totfact>
</mgrwt>
</event>
<event>
12    1  0.1410528E-001  0.1839121E+03  0.7546771E-02  0.1164416E+00
         21   -1    0    0  502  503  0.00000000000E+00  0.00000000000E+00  0.38594793312E+03  0.38594793312E+03  0.00000000000E+00 0. -1.
         21   -1    0    0  503  504 -0.00000000000E+00 -0.00000000000E+00 -0.14415242078E+03  0.14415242078E+03  0.00000000000E+00 0.  1.
         -6    2    1    2    0  504  0.18415551949E+02 -0.59515576691E+02 -0.45787336153E+02  0.18952613294E+03  0.17303883522E+03 0.  0.
        -24    2    3    3    0    0  0.64753900554E+02  0.46771747176E+01 -0.97276395480E+01  0.10240355490E+03  0.78593367947E+02 0.  0.
          6    2    1    2  502    0 -0.18415551949E+02  0.59515576691E+02  0.28758284850E+03  0.34057422096E+03  0.17148081179E+03 0.  0.
         24    2    5    5    0    0 -0.57170117050E+02  0.86821376531E+02  0.23496869077E+03  0.26959631866E+03  0.81642609521E+02 0.  0.
          2    1    6    6  501    0 -0.72324458504E+02  0.48208216257E+02  0.12665100080E+03  0.15360773228E+03  0.00000000000E+00 0. -1.
         -1    1    6    6    0  501  0.15154341454E+02  0.38613160274E+02  0.10831768997E+03  0.11598858638E+03  0.00000000000E+00 0.  1.
          5    1    5    5  502    0  0.38754565101E+02 -0.27305799841E+02  0.52614157729E+02  0.70977902298E+02  0.47000000000E+01 0. -1.
         13    1    4    4    0    0  0.45006786010E+02 -0.34262882249E+02  0.38078966927E+01  0.56692644710E+02  0.00000000000E+00 0. -1.
        -14    1    4    4    0    0  0.19747114544E+02  0.38940056966E+02 -0.13535536241E+02  0.45710910193E+02  0.00000000000E+00 0.  1.
         -5    1    3    3    0  504 -0.46338348605E+02 -0.64192751408E+02 -0.36059696605E+02  0.87122578038E+02  0.47000000000E+01 0.  1.
<mgrwt>
<rscale>  2 0.18354475E+03</rscale>
<asrwt>0</asrwt>
<pdfrwt beam="1">  1       21 0.59376605E-01 0.18391214E+03</pdfrwt>
<pdfrwt beam="2">  1       21 0.22177296E-01 0.18391214E+03</pdfrwt>
<totfact> 0.50590679E+04</totfact>
</mgrwt>
</event>
<event>
12    1  0.1410528E-001  0.2425051E+03  0.7546771E-02  0.1118361E+00
         21   -1    0    0  502  503  0.00000000000E+00  0.00000000000E+00  0.19497048440E+04  0.19497048440E+04  0.00000000000E+00 0.  1.
         21   -1    0    0  503  504 -0.00000000000E+00 -0.00000000000E+00 -0.38569812179E+02  0.38569812179E+02  0.00000000000E+00 0.  1.
         -6    2    1    2    0  504 -0.16769416506E+03 -0.18033422833E+02  0.14222622565E+04  0.14425592556E+04  0.17233903382E+03 0.  0.
        -24    2    3    3    0    0 -0.19570485323E+03 -0.18342543715E+02  0.12362719902E+04  0.12544126019E+04  0.80905521118E+02 0.  0.
          6    2    1    2  502    0  0.16769416506E+03  0.18033422833E+02  0.48887277535E+03  0.54571540052E+03  0.17424744058E+03 0.  0.
         24    2    5    5    0    0  0.13349769458E+03  0.26077184960E+02  0.18543793282E+03  0.24021761924E+03  0.69394694554E+02 0.  0.
          2    1    6    6  501    0  0.75087293410E+02  0.49000535096E+02  0.10173324010E+03  0.13560533254E+03  0.00000000000E+00 0. -1.
         -1    1    6    6    0  501  0.58410401171E+02 -0.22923350136E+02  0.83704692719E+02  0.10461228671E+03  0.00000000000E+00 0.  1.
          5    1    5    5  502    0  0.34196470482E+02 -0.80437621274E+01  0.30343484253E+03  0.30549778127E+03  0.47000000000E+01 0. -1.
         11    1    4    4    0    0 -0.77381924264E+02  0.31629792488E+02  0.53099848656E+03  0.53753864857E+03  0.00000000000E+00 0. -1.
        -12    1    4    4    0    0 -0.11832292896E+03 -0.49972336203E+02  0.70527350369E+03  0.71687395329E+03  0.00000000000E+00 0.  1.
         -5    1    3    3    0  504  0.28010688162E+02  0.30912088228E+00  0.18599026621E+03  0.18814665379E+03  0.47000000000E+01 0.  1.
<mgrwt>
<rscale>  2 0.24216244E+03</rscale>
<asrwt>0</asrwt>
<pdfrwt beam="1">  1       21 0.29995452E+00 0.24250507E+03</pdfrwt>
<pdfrwt beam="2">  1       21 0.59338188E-02 0.24250507E+03</pdfrwt>
<totfact> 0.65255249E+03</totfact>
</mgrwt>
</event>
<event>
12    1  0.1410528E-001  0.2011010E+03  0.7546771E-02  0.1149044E+00
         21   -1    0    0  502  503  0.00000000000E+00  0.00000000000E+00  0.38661431595E+03  0.38661431595E+03  0.00000000000E+00 0.  1.
         21   -1    0    0  503  504 -0.00000000000E+00 -0.00000000000E+00 -0.16733465540E+03  0.16733465540E+03  0.00000000000E+00 0.  1.
         -6    2    1    2    0  504 -0.96480775357E+02 -0.26343897032E+02 -0.60901427006E+02  0.20906774199E+03  0.17319871826E+03 0.  0.
        -24    2    3    3    0    0 -0.10753887074E+03  0.31806051470E+02 -0.50946197343E+02  0.14886064456E+03  0.83592720038E+02 0.  0.
          6    2    1    2  502    0  0.96480775357E+02  0.26343897032E+02  0.28018108756E+03  0.34488122936E+03  0.17446799023E+03 0.  0.
         24    2    5    5    0    0  0.22778062360E+01  0.62100140021E+02  0.15308976812E+03  0.18262525325E+03  0.77806749275E+02 0.  0.
          4    1    6    6  501    0  0.41058546108E+01 -0.94451816118E+01  0.78798655099E+02  0.79468846368E+02  0.00000000000E+00 0. -1.
         -3    1    6    6    0  501 -0.18280483748E+01  0.71545321632E+02  0.74291113017E+02  0.10315640689E+03  0.00000000000E+00 0.  1.
          5    1    5    5  502    0  0.94202969121E+02 -0.35756242989E+02  0.12709131944E+03  0.16225597610E+03  0.47000000000E+01 0. -1.
         11    1    4    4    0    0 -0.13787866193E+02  0.24162893779E+02 -0.47121357868E+02  0.54720864917E+02  0.00000000000E+00 0. -1.
        -12    1    4    4    0    0 -0.93751004549E+02  0.76431576905E+01 -0.38248394749E+01  0.94139779639E+02  0.00000000000E+00 0.  1.
         -5    1    3    3    0  504  0.11058095384E+02 -0.58149948501E+02 -0.99552296624E+01  0.60207097438E+02  0.47000000000E+01 0.  1.
<mgrwt>
<rscale>  2 0.20082541E+03</rscale>
<asrwt>0</asrwt>
<pdfrwt beam="1">  1       21 0.59479125E-01 0.20110102E+03</pdfrwt>
<pdfrwt beam="2">  1       21 0.25743793E-01 0.20110102E+03</pdfrwt>
<totfact> 0.37641848E+04</totfact>
</mgrwt>
</event>
<event>
12    1  0.1410528E-001  0.1763999E+03  0.7546771E-02  0.1172579E+00
         21   -1    0    0  502  503  0.00000000000E+00  0.00000000000E+00  0.64224715690E+02  0.64224715690E+02  0.00000000000E+00 0. -1.
         21   -1    0    0  503  504 -0.00000000000E+00 -0.00000000000E+00 -0.62100139264E+03  0.62100139264E+03  0.00000000000E+00 0.  1.
         -6    2    1    2    0  504 -0.36763253212E+02 -0.45556646635E+01 -0.44374436869E+03  0.47571896962E+03  0.16741320871E+03 0.  0.
        -24    2    3    3    0    0 -0.63859821591E+02 -0.38508671824E+02 -0.19678617892E+03  0.22492529305E+03  0.79407761731E+02 0.  0.
          6    2    1    2  502    0  0.36763253212E+02  0.45556646635E+01 -0.11303230827E+03  0.20950713871E+03  0.17246636655E+03 0.  0.
         24    2    5    5    0    0  0.14574767683E+01  0.30608094138E+02 -0.75054649521E-01  0.88236127844E+02  0.82744359073E+02 0.  0.
          2    1    6    6  501    0 -0.34242648671E+02  0.32353472692E+02  0.15006383023E+02  0.49441861966E+02  0.00000000000E+00 0. -1.
         -1    1    6    6    0  501  0.35700125439E+02 -0.17453785545E+01 -0.15081437673E+02  0.38794265877E+02  0.00000000000E+00 0.  1.
          5    1    5    5  502    0  0.35305776444E+02 -0.26052429474E+02 -0.11295725362E+03  0.12127101087E+03  0.47000000000E+01 0. -1.
         11    1    4    4    0    0 -0.44303956232E+01 -0.33124719719E+02 -0.13481162836E+03  0.13889222657E+03  0.00000000000E+00 0. -1.
        -12    1    4    4    0    0 -0.59429425968E+02 -0.53839521051E+01 -0.61974550560E+02  0.86033066482E+02  0.00000000000E+00 0.  1.
         -5    1    3    3    0  504  0.27096568379E+02  0.33953007160E+02 -0.24695818977E+03  0.25079367657E+03  0.47000000000E+01 0.  1.
<mgrwt>
<rscale>  2 0.17515247E+03</rscale>
<asrwt>0</asrwt>
<pdfrwt beam="1">  1       21 0.98807258E-02 0.17639994E+03</pdfrwt>
<pdfrwt beam="2">  1       21 0.95538673E-01 0.17639994E+03</pdfrwt>
<totfact> 0.76317171E+04</totfact>
</mgrwt>
</event>
<event>
12    1  0.1410528E-001  0.2812668E+03  0.7546771E-02  0.1095378E+00
         21   -1    0    0  502  503  0.00000000000E+00  0.00000000000E+00  0.37190734529E+03  0.37190734529E+03  0.00000000000E+00 0. -1.
         21   -1    0    0  503  504 -0.00000000000E+00 -0.00000000000E+00 -0.28871922670E+03  0.28871922670E+03  0.00000000000E+00 0.  1.
         -6    2    1    2    0  504 -0.17080215078E+03 -0.14169294051E+03 -0.13034610687E+03  0.30748654412E+03  0.16824863488E+03 0.  0.
        -24    2    3    3    0    0 -0.17300651205E+03 -0.86735954759E+02 -0.60005516462E+02  0.21807167874E+03  0.80623917064E+02 0.  0.
          6    2    1    2  502    0  0.17080215078E+03  0.14169294051E+03  0.21353422547E+03  0.35314002787E+03  0.17280263231E+03 0.  0.
         24    2    5    5    0    0  0.10467339780E+03  0.10080383713E+03  0.52067055959E+02  0.17386742099E+03  0.80006049645E+02 0.  0.
          4    1    6    6  501    0  0.70324848462E+02  0.10578209979E+03  0.56223656821E+02  0.13891197404E+03  0.00000000000E+00 0. -1.
         -3    1    6    6    0  501  0.34348549337E+02 -0.49782626588E+01 -0.41566008624E+01  0.34955446949E+02  0.00000000000E+00 0.  1.
          5    1    5    5  502    0  0.66128752981E+02  0.40889103383E+02  0.16146716951E+03  0.17927260688E+03  0.47000000000E+01 0. -1.
         13    1    4    4    0    0 -0.14435427931E+03 -0.44832698325E+02 -0.69600663091E+02  0.16641027942E+03  0.00000000000E+00 0. -1.
        -14    1    4    4    0    0 -0.28652232742E+02 -0.41903256434E+02  0.95951466298E+01  0.51661399320E+02  0.00000000000E+00 0.  1.
         -5    1    3    3    0  504  0.22043612723E+01 -0.54956985750E+02 -0.70340590413E+02  0.89414865381E+02  0.47000000000E+01 0.  1.
<mgrwt>
<rscale>  2 0.28057055E+03</rscale>
<asrwt>0</asrwt>
<pdfrwt beam="1">  1       21 0.57216515E-01 0.28126680E+03</pdfrwt>
<pdfrwt beam="2">  1       21 0.44418343E-01 0.28126680E+03</pdfrwt>
<totfact> 0.13290925E+04</totfact>
</mgrwt>
</event>
<event>
12    1  0.1410528E-001  0.2866296E+03  0.7546771E-02  0.1092136E+00
         21   -1    0    0  502  503  0.00000000000E+00  0.00000000000E+00  0.12613492578E+04  0.12613492578E+04  0.00000000000E+00 0.  1.
         21   -1    0    0  503  504 -0.00000000000E+00 -0.00000000000E+00 -0.98287802350E+02  0.98287802350E+02  0.00000000000E+00 0. -1.
         -6    2    1    2    0  504 -0.18404131786E+03  0.13448061473E+03  0.18663052555E+03  0.34203428705E+03  0.17378221436E+03 0.  0.
        -24    2    3    3    0    0 -0.19719528391E+03  0.95342747784E+02  0.11732535059E+03  0.26122527314E+03  0.80605123199E+02 0.  0.
          6    2    1    2  502    0  0.18404131786E+03 -0.13448061473E+03  0.97643092991E+03  0.10176027731E+04  0.17361394113E+03 0.  0.
         24    2    5    5    0    0  0.11554397144E+03 -0.16155375092E+03  0.71622674174E+03  0.74713438179E+03  0.76019833511E+02 0.  0.
          4    1    6    6  501    0  0.69787097094E+02 -0.12244768937E+03  0.37440264690E+03  0.40005126867E+03  0.00000000000E+00 0. -1.
         -3    1    6    6    0  501  0.45756874342E+02 -0.39106061544E+02  0.34182409484E+03  0.34708311312E+03  0.00000000000E+00 0.  1.
          5    1    5    5  502    0  0.68497346426E+02  0.27073136191E+02  0.26020418816E+03  0.27046839133E+03  0.47000000000E+01 0. -1.
         13    1    4    4    0    0 -0.13835770121E+03  0.10502375489E+03  0.89981816674E+02  0.19562609720E+03  0.00000000000E+00 0. -1.
        -14    1    4    4    0    0 -0.58837582699E+02 -0.96810071084E+01  0.27343533914E+02  0.65599175935E+02  0.00000000000E+00 0.  1.
         -5    1    3    3    0  504  0.13153966045E+02  0.39137866942E+02  0.69305174966E+02  0.80809013906E+02  0.47000000000E+01 0.  1.
<mgrwt>
<rscale>  2 0.28660405E+03</rscale>
<asrwt>0</asrwt>
<pdfrwt beam="1">  1       21 0.19405372E+00 0.28662955E+03</pdfrwt>
<pdfrwt beam="2">  1       21 0.15121201E-01 0.28662955E+03</pdfrwt>
<totfact> 0.52837201E+03</totfact>
</mgrwt>
</event>
<event>
12    1  0.1410528E-001  0.2023400E+03  0.7546771E-02  0.1148296E+00
         21   -1    0    0  502  503  0.00000000000E+00  0.00000000000E+00  0.45612559479E+03  0.45612559479E+03  0.00000000000E+00 0. -1.
         21   -1    0    0  503  504 -0.00000000000E+00 -0.00000000000E+00 -0.15700390605E+03  0.15700390605E+03  0.00000000000E+00 0. -1.
         -6    2    1    2    0  504  0.56392588807E+02 -0.76690475452E+02 -0.53208481576E+02  0.20683154764E+03  0.17574582069E+03 0.  0.
        -24    2    3    3    0    0  0.70782238442E+02 -0.98276335634E+02  0.53420979015E+01  0.14261884069E+03  0.75121450237E+02 0.  0.
          6    2    1    2  502    0 -0.56392588807E+02  0.76690475452E+02  0.35233017032E+03  0.40629795320E+03  0.17854950227E+03 0.  0.
         24    2    5    5    0    0 -0.44240656348E+01 -0.45385327869E+01  0.84268583150E+02  0.12138044989E+03  0.87131216402E+02 0.  0.
          4    1    6    6  501    0 -0.43732973889E+02 -0.14866903047E+02  0.38148588862E+02  0.59907534114E+02  0.00000000000E+00 0. -1.
         -3    1    6    6    0  501  0.39308908255E+02  0.10328370260E+02  0.46119994288E+02  0.61472915772E+02  0.00000000000E+00 0.  1.
          5    1    5    5  502    0 -0.51968523172E+02  0.81229008239E+02  0.26806158717E+03  0.28491750331E+03  0.47000000000E+01 0. -1.
         11    1    4    4    0    0  0.56414854198E+02 -0.37481500306E+02 -0.26219676263E+02  0.72628989135E+02  0.00000000000E+00 0. -1.
        -12    1    4    4    0    0  0.14367384244E+02 -0.60794835327E+02  0.31561774165E+02  0.69989851557E+02  0.00000000000E+00 0.  1.
         -5    1    3    3    0  504 -0.14389649635E+02  0.21585860182E+02 -0.58550579477E+02  0.64212706947E+02  0.47000000000E+01 0.  1.
<mgrwt>
<rscale>  2 0.20171974E+03</rscale>
<asrwt>0</asrwt>
<pdfrwt beam="1">  1       21 0.70173168E-01 0.20234001E+03</pdfrwt>
<pdfrwt beam="2">  1       21 0.24154447E-01 0.20234001E+03</pdfrwt>
<totfact> 0.29644001E+04</totfact>
</mgrwt>
</event>
<event>
12    1  0.1410528E-001  0.2377546E+03  0.7546771E-02  0.1121471E+00
         21   -1    0    0  502  503  0.00000000000E+00  0.00000000000E+00  0.12022518584E+04  0.12022518584E+04  0.00000000000E+00 0. -1.
         21   -1    0    0  503  504 -0.00000000000E+00 -0.00000000000E+00 -0.57288414468E+02  0.57288414468E+02  0.00000000000E+00 0.  1.
         -6    2    1    2    0  504 -0.97382369404E+02 -0.13047816748E+03  0.30422370535E+03  0.38610789066E+03  0.17326096579E+03 0.  0.
        -24    2    3    3    0    0 -0.79846217460E+01 -0.75835390787E+02  0.23728359909E+03  0.26168579391E+03  0.79757053977E+02 0.  0.
          6    2    1    2  502    0  0.97382369404E+02  0.13047816748E+03  0.84073973862E+03  0.87343238226E+03  0.17185150628E+03 0.  0.
         24    2    5    5    0    0  0.13429685949E+03  0.90218466498E+02  0.66038843542E+03  0.68493249985E+03  0.82732252122E+02 0.  0.
          2    1    6    6  501    0  0.80948665572E+02  0.17041872440E+02  0.41962950238E+03  0.42770554257E+03  0.00000000000E+00 0. -1.
         -1    1    6    6    0  501  0.53348193918E+02  0.73176594058E+02  0.24075893304E+03  0.25722695728E+03  0.00000000000E+00 0.  1.
          5    1    5    5  502    0 -0.36914490086E+02  0.40259700984E+02  0.18035130320E+03  0.18849988241E+03  0.47000000000E+01 0. -1.
         11    1    4    4    0    0  0.14971934286E+02  0.10480334850E+02  0.21941054851E+02  0.28555316892E+02  0.00000000000E+00 0. -1.
        -12    1    4    4    0    0 -0.22956556032E+02 -0.86315725637E+02  0.21534254424E+03  0.23313047702E+03  0.00000000000E+00 0.  1.
         -5    1    3    3    0  504 -0.89397747658E+02 -0.54642776696E+02  0.66940106264E+02  0.12442209674E+03  0.47000000000E+01 0.  1.
<mgrwt>
<rscale>  2 0.23749787E+03</rscale>
<asrwt>0</asrwt>
<pdfrwt beam="1">  1       21 0.18496181E+00 0.23775458E+03</pdfrwt>
<pdfrwt beam="2">  1       21 0.88136031E-02 0.23775458E+03</pdfrwt>
<totfact> 0.16539360E+04</totfact>
</mgrwt>
</event>
<event>
12    1  0.1410528E-001  0.1958366E+03  0.7546771E-02  0.1154170E+00
         21   -1    0    0  502  503  0.00000000000E+00  0.00000000000E+00  0.12520832072E+03  0.12520832072E+03  0.00000000000E+00 0. -1.
         21   -1    0    0  503  504 -0.00000000000E+00 -0.00000000000E+00 -0.40711354736E+03  0.40711354736E+03  0.00000000000E+00 0. -1.
         -6    2    1    2    0  504  0.21624181969E+02 -0.80794038047E+02 -0.27632721715E+03  0.33640583389E+03  0.17267562742E+03 0.  0.
        -24    2    3    3    0    0  0.60174558426E+02  0.14915251572E+01 -0.14951121542E+03  0.18032433680E+03  0.80870642246E+02 0.  0.
          6    2    1    2  502    0 -0.21624181969E+02  0.80794038047E+02 -0.55780094899E+01  0.19591603419E+03  0.17707822123E+03 0.  0.
         24    2    5    5    0    0  0.46227504356E+02  0.33632998198E+02 -0.40728112777E+02  0.10599587640E+03  0.79424089020E+02 0.  0.
          4    1    6    6  501    0  0.76082813674E-01 -0.18109675477E+02  0.94327547000E+01  0.20419182052E+02  0.00000000000E+00 0. -1.
         -3    1    6    6    0  501  0.46151421543E+02  0.51742673675E+02 -0.50160867477E+02  0.85576694348E+02  0.00000000000E+00 0.  1.
          5    1    5    5  502    0 -0.67851686325E+02  0.47161039848E+02  0.35150103287E+02  0.89920157795E+02  0.47000000000E+01 0. -1.
         13    1    4    4    0    0  0.15119446229E+02  0.25235802549E+02 -0.11524584187E+03  0.11894136140E+03  0.00000000000E+00 0. -1.
        -14    1    4    4    0    0  0.45055112197E+02 -0.23744277392E+02 -0.34265373550E+02  0.61382975396E+02  0.00000000000E+00 0.  1.
         -5    1    3    3    0  504 -0.38550376457E+02 -0.82285563204E+02 -0.12681600174E+03  0.15608149709E+03  0.47000000000E+01 0.  1.
<mgrwt>
<rscale>  2 0.19483605E+03</rscale>
<asrwt>0</asrwt>
<pdfrwt beam="1">  1       21 0.19262819E-01 0.19583661E+03</pdfrwt>
<pdfrwt beam="2">  1       21 0.62632854E-01 0.19583661E+03</pdfrwt>
<totfact> 0.58394943E+04</totfact>
</mgrwt>
</event>
<event>
12    1  0.1410528E-001  0.1757968E+03  0.7546771E-02  0.1172261E+00
         21   -1    0    0  502  503  0.00000000000E+00  0.00000000000E+00  0.27615383447E+04  0.27615383447E+04  0.00000000000E+00 0. -1.
         21   -1    0    0  503  504 -0.00000000000E+00 -0.00000000000E+00 -0.24581093829E+02  0.24581093829E+02  0.00000000000E+00 0. -1.
         -6    2    1    2    0  504  0.84256446786E+01  0.28513071286E+02  0.33484557081E+03  0.37758356560E+03  0.17194128649E+03 0.  0.
        -24    2    3    3    0    0  0.48669987855E+02  0.49334901355E+01  0.31094515630E+03  0.32496300290E+03  0.80752436411E+02 0.  0.
          6    2    1    2  502    0 -0.84256446786E+01 -0.28513071286E+02  0.24021116800E+04  0.24085358729E+04  0.17326436728E+03 0.  0.
         24    2    5    5    0    0 -0.19878555135E+02 -0.56700574706E+02  0.82423182421E+03  0.83035570767E+03  0.80761309394E+02 0.  0.
          2    1    6    6  501    0 -0.32822221599E+02 -0.28111947343E+02  0.72484151236E+03  0.72612863727E+03  0.00000000000E+00 0. -1.
         -1    1    6    6    0  501  0.12943666464E+02 -0.28588627363E+02  0.99390311848E+02  0.10422707041E+03  0.00000000000E+00 0.  1.
          5    1    5    5  502    0  0.11452910456E+02  0.28187503420E+02  0.15778798558E+04  0.15781801652E+04  0.47000000000E+01 0. -1.
         11    1    4    4    0    0  0.15286966685E+02 -0.36165875534E+01  0.41626628293E+01  0.16251117432E+02  0.00000000000E+00 0. -1.
        -12    1    4    4    0    0  0.33383021170E+02  0.85500776888E+01  0.30678249347E+03  0.30871188547E+03  0.00000000000E+00 0.  1.
         -5    1    3    3    0  504 -0.40244343176E+02  0.23579581150E+02  0.23900414506E+02  0.52620562696E+02  0.47000000000E+01 0.  1.
<mgrwt>
<rscale>  2 0.17546996E+03</rscale>
<asrwt>0</asrwt>
<pdfrwt beam="1">  1       21 0.42485181E+00 0.17579684E+03</pdfrwt>
<pdfrwt beam="2">  1       21 0.37817089E-02 0.17579684E+03</pdfrwt>
<totfact> 0.26816907E+03</totfact>
</mgrwt>
</event>
<event>
12    1  0.1410528E-001  0.2765642E+03  0.7546771E-02  0.1097897E+00
         21   -1    0    0  502  503  0.00000000000E+00  0.00000000000E+00  0.50527304745E+03  0.50527304745E+03  0.00000000000E+00 0.  1.
         21   -1    0    0  503  504 -0.00000000000E+00 -0.00000000000E+00 -0.21570040758E+03  0.21570040758E+03  0.00000000000E+00 0.  1.
         -6    2    1    2    0  504 -0.20758818589E+03 -0.57979803886E+02 -0.53540269524E+02  0.28169894156E+03  0.17330095393E+03 0.  0.
        -24    2    3    3    0    0 -0.56172670086E+02 -0.60989984606E+02 -0.58970259115E+02  0.13008332758E+03  0.81049574752E+02 0.  0.
          6    2    1    2  502    0  0.20758818589E+03  0.57979803886E+02  0.34311290939E+03  0.43927451348E+03  0.16964998384E+03 0.  0.
         24    2    5    5    0    0  0.36392049154E+02 -0.49237631272E+01  0.78742850251E+02  0.11806026387E+03  0.79932251032E+02 0.  0.
          4    1    6    6  501    0 -0.74049179789E+01 -0.23722648064E+02 -0.13183105479E+01  0.24886437755E+02  0.00000000000E+00 0. -1.
         -3    1    6    6    0  501  0.43796967133E+02  0.18798884937E+02  0.80061160799E+02  0.93173826118E+02  0.00000000000E+00 0.  1.
          5    1    5    5  502    0  0.17119613674E+03  0.62903567013E+02  0.26437005914E+03  0.32121424960E+03  0.47000000000E+01 0. -1.
         11    1    4    4    0    0  0.17289508141E+02 -0.38086081747E+01  0.34002781064E+01  0.18027603257E+02  0.00000000000E+00 0. -1.
        -12    1    4    4    0    0 -0.73462178227E+02 -0.57181376431E+02 -0.62370537221E+02  0.11205572432E+03  0.00000000000E+00 0.  1.
         -5    1    3    3    0  504 -0.15141551581E+03  0.30101807200E+01  0.54299895911E+01  0.15161561398E+03  0.47000000000E+01 0.  1.
<mgrwt>
<rscale>  2 0.27599414E+03</rscale>
<asrwt>0</asrwt>
<pdfrwt beam="1">  1       21 0.77734315E-01 0.27656416E+03</pdfrwt>
<pdfrwt beam="2">  1       21 0.33184678E-01 0.27656416E+03</pdfrwt>
<totfact> 0.12228646E+04</totfact>
</mgrwt>
</event>
<event>
12    1  0.1410528E-001  0.1842166E+03  0.7546771E-02  0.1164739E+00
         21   -1    0    0  502  503  0.00000000000E+00  0.00000000000E+00  0.21558868915E+03  0.21558868915E+03  0.00000000000E+00 0. -1.
         21   -1    0    0  503  504 -0.00000000000E+00 -0.00000000000E+00 -0.15806048035E+03  0.15806048035E+03  0.00000000000E+00 0. -1.
         -6    2    1    2    0  504 -0.42768316725E+02 -0.32491273662E+02  0.58429673909E+02  0.18943032328E+03  0.17200293255E+03 0.  0.
        -24    2    3    3    0    0 -0.67843239697E+02  0.15363088801E+02  0.78138336508E+02  0.13173012267E+03  0.80053081870E+02 0.  0.
          6    2    1    2  502    0  0.42768316725E+02  0.32491273662E+02 -0.90146510191E+00  0.18421884622E+03  0.17621282270E+03 0.  0.
         24    2    5    5    0    0 -0.28466823284E+01  0.67747014824E+01  0.61828565781E+02  0.10237010159E+03  0.81258020970E+02 0.  0.
          2    1    6    6  501    0  0.38850467057E+02  0.87397789239E+01  0.31448056051E+02  0.50741725981E+02  0.00000000000E+00 0. -1.
         -1    1    6    6    0  501 -0.41697149386E+02 -0.19650774415E+01  0.30380509730E+02  0.51628375606E+02  0.00000000000E+00 0.  1.
          5    1    5    5  502    0  0.45614999053E+02  0.25716572180E+02 -0.62730030883E+02  0.81848744632E+02  0.47000000000E+01 0. -1.
         11    1    4    4    0    0 -0.35424047520E+02 -0.15241197620E+02 -0.34890753852E+01  0.38721194385E+02  0.00000000000E+00 0. -1.
        -12    1    4    4    0    0 -0.32419192177E+02  0.30604286421E+02  0.81627411893E+02  0.93008928287E+02  0.00000000000E+00 0.  1.
         -5    1    3    3    0  504  0.25074922972E+02 -0.47854362463E+02 -0.19708662599E+02  0.57700200609E+02  0.47000000000E+01 0.  1.
<mgrwt>
<rscale>  2 0.18320260E+03</rscale>
<asrwt>0</asrwt>
<pdfrwt beam="1">  1       21 0.33167491E-01 0.18421664E+03</pdfrwt>
<pdfrwt beam="2">  1       21 0.24316997E-01 0.18421664E+03</pdfrwt>
<totfact> 0.14015396E+05</totfact>
</mgrwt>
</event>
<event>
12    1  0.1410528E-001  0.1871416E+03  0.7546771E-02  0.1163595E+00
         21   -1    0    0  502  503  0.00000000000E+00  0.00000000000E+00  0.15594515728E+04  0.15594515728E+04  0.00000000000E+00 0.  1.
         21   -1    0    0  503  504 -0.00000000000E+00 -0.00000000000E+00 -0.80266774357E+02  0.80266774357E+02  0.00000000000E+00 0.  1.
         -6    2    1    2    0  504  0.28094101254E+02 -0.11809828876E+02  0.42075445090E+02  0.19181324245E+03  0.18464351144E+03 0.  0.
        -24    2    3    3    0    0  0.79469117413E+02  0.11811866090E+02  0.64821195042E+02  0.13068357781E+03  0.80134570442E+02 0.  0.
          6    2    1    2  502    0 -0.28094101254E+02  0.11809828876E+02  0.14371093534E+04  0.14479051048E+04  0.17383080323E+03 0.  0.
         24    2    5    5    0    0  0.17689204261E+02  0.34328220748E+02  0.12632675598E+04  0.12666697654E+04  0.84356577625E+02 0.  0.
          4    1    6    6  501    0  0.46470546356E+02  0.42373953883E+02  0.85261271548E+03  0.85492894806E+03  0.00000000000E+00 0. -1.
         -3    1    6    6    0  501 -0.28781342094E+02 -0.80457331352E+01  0.41065484431E+03  0.41174081730E+03  0.00000000000E+00 0.  1.
          5    1    5    5  502    0 -0.45783305516E+02 -0.22518391873E+02  0.17384179362E+03  0.18123533939E+03  0.47000000000E+01 0. -1.
         11    1    4    4    0    0  0.12640470278E+02  0.11918900730E+02  0.61352411142E+02  0.63764880902E+02  0.00000000000E+00 0. -1.
        -12    1    4    4    0    0  0.66828647135E+02 -0.10703463987E+00  0.34687838993E+01  0.66918696909E+02  0.00000000000E+00 0.  1.
         -5    1    3    3    0  504 -0.51375016159E+02 -0.23621694966E+02 -0.22745749952E+02  0.61129664642E+02  0.47000000000E+01 0.  1.
<mgrwt>
<rscale>  2 0.18441781E+03</rscale>
<asrwt>0</asrwt>
<pdfrwt beam="1">  1       21 0.23991560E+00 0.18714160E+03</pdfrwt>
<pdfrwt beam="2">  1       21 0.12348736E-01 0.18714160E+03</pdfrwt>
<totfact> 0.42767828E+03</totfact>
</mgrwt>
</event>
<event>
12    1  0.1410528E-001  0.2693449E+03  0.7546771E-02  0.1101714E+00
         21   -1    0    0  502  503  0.00000000000E+00  0.00000000000E+00  0.10219778475E+03  0.10219778475E+03  0.00000000000E+00 0. -1.
         21   -1    0    0  503  504 -0.00000000000E+00 -0.00000000000E+00 -0.70978442290E+03  0.70978442290E+03  0.00000000000E+00 0. -1.
         -6    2    1    2    0  504  0.44668066217E+02 -0.20126086140E+03 -0.28873165593E+03  0.39485776752E+03  0.17333642711E+03 0.  0.
        -24    2    3    3    0    0  0.64171386839E+02 -0.12884328786E+03 -0.10308766685E+03  0.19458179504E+03  0.80724520368E+02 0.  0.
          6    2    1    2  502    0 -0.44668066217E+02  0.20126086140E+03 -0.31885498223E+03  0.41712444013E+03  0.17269374160E+03 0.  0.
         24    2    5    5    0    0 -0.96069439084E+02  0.13087132644E+03 -0.22116578036E+03  0.28612040230E+03  0.81203084928E+02 0.  0.
          4    1    6    6  501    0 -0.10365632301E+03  0.10846646837E+03 -0.21409583107E+03  0.26143188968E+03  0.00000000000E+00 0. -1.
         -3    1    6    6    0  501  0.75868839244E+01  0.22404858067E+02 -0.70699492972E+01  0.24688512627E+02  0.00000000000E+00 0.  1.
          5    1    5    5  502    0  0.51401372867E+02  0.70389534964E+02 -0.97689201863E+02  0.13100403782E+03  0.47000000000E+01 0. -1.
         13    1    4    4    0    0 -0.13152595015E+02 -0.44878128476E+02 -0.11305292372E+02  0.48112854901E+02  0.00000000000E+00 0. -1.
        -14    1    4    4    0    0  0.77323981854E+02 -0.83965159384E+02 -0.91782374480E+02  0.14646894014E+03  0.00000000000E+00 0.  1.
         -5    1    3    3    0  504 -0.19503320622E+02 -0.72417573540E+02 -0.18564398908E+03  0.20027597248E+03  0.47000000000E+01 0.  1.
<mgrwt>
<rscale>  2 0.26924158E+03</rscale>
<asrwt>0</asrwt>
<pdfrwt beam="1">  1       21 0.15722736E-01 0.26934492E+03</pdfrwt>
<pdfrwt beam="2">  1       21 0.10919761E+00 0.26934492E+03</pdfrwt>
<totfact> 0.22971893E+04</totfact>
</mgrwt>
</event>
<event>
12    1  0.1410528E-001  0.1979670E+03  0.7546771E-02  0.1151997E+00
         21   -1    0    0  502  503  0.00000000000E+00  0.00000000000E+00  0.42331596906E+03  0.42331596906E+03  0.00000000000E+00 0. -1.
         21   -1    0    0  503  504 -0.00000000000E+00 -0.00000000000E+00 -0.16773173089E+03  0.16773173089E+03  0.00000000000E+00 0. -1.
         -6    2    1    2    0  504  0.83056276500E+02 -0.45162477869E+02 -0.71963362760E+02  0.20832278258E+03  0.17111885252E+03 0.  0.
        -24    2    3    3    0    0  0.51106173557E+02 -0.94644499236E+02 -0.64376984025E+02  0.14874994767E+03  0.80079514538E+02 0.  0.
          6    2    1    2  502    0 -0.83056276500E+02  0.45162477869E+02  0.32754760093E+03  0.38272491737E+03  0.17393371446E+03 0.  0.
         24    2    5    5    0    0  0.18612045646E+02  0.60605975791E+01  0.10037200550E+03  0.13074030289E+03  0.81457646830E+02 0.  0.
          2    1    6    6  501    0  0.39542277716E+02  0.31198267690E+02  0.68907283627E+02  0.85353016178E+02  0.00000000000E+00 0. -1.
         -1    1    6    6    0  501 -0.20930232070E+02 -0.25137670110E+02  0.31464721871E+02  0.45387286716E+02  0.00000000000E+00 0.  1.
          5    1    5    5  502    0 -0.10166832215E+03  0.39101880290E+02  0.22717559544E+03  0.25198461448E+03  0.47000000000E+01 0. -1.
         13    1    4    4    0    0  0.12508603478E+02 -0.36925405586E+02 -0.68902191393E+02  0.79167308388E+02  0.00000000000E+00 0. -1.
        -14    1    4    4    0    0  0.38597570078E+02 -0.57719093651E+02  0.45252073682E+01  0.69582639283E+02  0.00000000000E+00 0.  1.
         -5    1    3    3    0  504  0.31950102944E+02  0.49482021368E+02 -0.75863787352E+01  0.59572834909E+02  0.47000000000E+01 0.  1.
<mgrwt>
<rscale>  2 0.19734696E+03</rscale>
<asrwt>0</asrwt>
<pdfrwt beam="1">  1       21 0.65125534E-01 0.19796700E+03</pdfrwt>
<pdfrwt beam="2">  1       21 0.25804882E-01 0.19796700E+03</pdfrwt>
<totfact> 0.30850693E+04</totfact>
</mgrwt>
</event>
<event>
12    1  0.1410528E-001  0.2020455E+03  0.7546771E-02  0.1148162E+00
         21   -1    0    0  502  503  0.00000000000E+00  0.00000000000E+00  0.23113449943E+03  0.23113449943E+03  0.00000000000E+00 0.  1.
         21   -1    0    0  503  504 -0.00000000000E+00 -0.00000000000E+00 -0.20885316297E+03  0.20885316297E+03  0.00000000000E+00 0.  1.
         -6    2    1    2    0  504 -0.82207042957E+02  0.63794987063E+02 -0.76073423085E+02  0.21527444012E+03  0.17241844618E+03 0.  0.
        -24    2    3    3    0    0  0.46732206736E+01  0.41467607621E+02  0.12270802487E+02  0.89284423562E+02  0.77972650486E+02 0.  0.
          6    2    1    2  502    0  0.82207042957E+02 -0.63794987063E+02  0.98354759547E+02  0.22471322227E+03  0.17318942015E+03 0.  0.
         24    2    5    5    0    0  0.69587536508E+02  0.20304102826E+02  0.24089495750E+02  0.11171176976E+03  0.81514010258E+02 0.  0.
          4    1    6    6  501    0 -0.74774383726E+01  0.24228005603E+02 -0.10124187920E+02  0.27302152317E+02  0.00000000000E+00 0. -1.
         -3    1    6    6    0  501  0.77064974881E+02 -0.39239027776E+01  0.34213683670E+02  0.84409617442E+02  0.00000000000E+00 0.  1.
          5    1    5    5  502    0  0.12619506448E+02 -0.84099089889E+02  0.74265263797E+02  0.11300145251E+03  0.47000000000E+01 0. -1.
         11    1    4    4    0    0  0.31057509054E+02  0.39126106080E+02 -0.14101578486E+02  0.51906411563E+02  0.00000000000E+00 0. -1.
        -12    1    4    4    0    0 -0.26384288380E+02  0.23415015409E+01  0.26372380973E+02  0.37378011999E+02  0.00000000000E+00 0.  1.
         -5    1    3    3    0  504 -0.86880263630E+02  0.22327379442E+02 -0.88344225572E+02  0.12599001656E+03  0.47000000000E+01 0.  1.
<mgrwt>
<rscale>  2 0.20188015E+03</rscale>
<asrwt>0</asrwt>
<pdfrwt beam="1">  1       21 0.35559154E-01 0.20204547E+03</pdfrwt>
<pdfrwt beam="2">  1       21 0.32131256E-01 0.20204547E+03</pdfrwt>
<totfact> 0.70750442E+04</totfact>
</mgrwt>
</event>
<event>
12    1  0.1410528E-001  0.2730717E+03  0.7546771E-02  0.1099548E+00
         21   -1    0    0  502  503  0.00000000000E+00  0.00000000000E+00  0.22426927846E+03  0.22426927846E+03  0.00000000000E+00 0.  1.
         21   -1    0    0  503  504 -0.00000000000E+00 -0.00000000000E+00 -0.71118206978E+03  0.71118206978E+03  0.00000000000E+00 0. -1.
         -6    2    1    2    0  504 -0.96276409055E+02 -0.18720009764E+03 -0.58483254980E+03  0.64544346755E+03  0.17394003277E+03 0.  0.
        -24    2    3    3    0    0  0.87772511353E+01 -0.71219371592E+02 -0.16225862613E+03  0.19480102470E+03  0.80438413971E+02 0.  0.
          6    2    1    2  502    0  0.96276409055E+02  0.18720009764E+03  0.97919758486E+02  0.29000788069E+03  0.17379087508E+03 0.  0.
         24    2    5    5    0    0  0.12780900117E+03  0.17851770884E+03  0.10049108906E+03  0.25686591361E+03  0.87623772136E+02 0.  0.
          4    1    6    6  501    0  0.11553795879E+03  0.11979207528E+03  0.38964304784E+02  0.17093091665E+03  0.00000000000E+00 0. -1.
         -3    1    6    6    0  501  0.12271042383E+02  0.58725633562E+02  0.61526784276E+02  0.85934996956E+02  0.00000000000E+00 0.  1.
          5    1    5    5  502    0 -0.31532592115E+02  0.86823887965E+01 -0.25713305741E+01  0.33141967076E+02  0.47000000000E+01 0. -1.
         11    1    4    4    0    0 -0.17750806807E+02 -0.19856292913E+02 -0.12070086010E+03  0.12360445436E+03  0.00000000000E+00 0. -1.
        -12    1    4    4    0    0  0.26528057942E+02 -0.51363078679E+02 -0.41557766033E+02  0.71196570333E+02  0.00000000000E+00 0.  1.
         -5    1    3    3    0  504 -0.10505366019E+03 -0.11598072605E+03 -0.42257392367E+03  0.45064244285E+03  0.47000000000E+01 0.  1.
<mgrwt>
<rscale>  2 0.27304796E+03</rscale>
<asrwt>0</asrwt>
<pdfrwt beam="1">  1       21 0.34502967E-01 0.27307171E+03</pdfrwt>
<pdfrwt beam="2">  1       21 0.10941262E+00 0.27307171E+03</pdfrwt>
<totfact> 0.50697600E+03</totfact>
</mgrwt>
</event>
<event>
12    1  0.1410528E-001  0.3377150E+03  0.7546771E-02  0.1067872E+00
         21   -1    0    0  502  503  0.00000000000E+00  0.00000000000E+00  0.67357323232E+03  0.67357323232E+03  0.00000000000E+00 0. -1.
         21   -1    0    0  503  504 -0.00000000000E+00 -0.00000000000E+00 -0.20732528003E+03  0.20732528003E+03  0.00000000000E+00 0.  1.
         -6    2    1    2    0  504  0.10468315475E+03 -0.26903143024E+03  0.42257306397E+03  0.54037108674E+03  0.17348326619E+03 0.  0.
        -24    2    3    3    0    0  0.34613816992E+02 -0.21321517492E+03  0.37172703890E+03  0.43725670987E+03  0.79709546082E+02 0.  0.
          6    2    1    2  502    0 -0.10468315475E+03  0.26903143024E+03  0.43674888315E+02  0.34052742561E+03  0.17525683547E+03 0.  0.
         24    2    5    5    0    0 -0.50547475945E+02  0.26101428847E+03  0.57992496094E+02  0.28376449603E+03  0.80471445212E+02 0.  0.
          4    1    6    6  501    0  0.16725763514E+02  0.12406371746E+03  0.25086926994E+02  0.12767502129E+03  0.00000000000E+00 0. -1.
         -3    1    6    6    0  501 -0.67273239459E+02  0.13695057101E+03  0.32905569100E+02  0.15608947474E+03  0.00000000000E+00 0.  1.
          5    1    5    5  502    0 -0.54135678805E+02  0.80171417683E+01 -0.14317607779E+02  0.56762929578E+02  0.47000000000E+01 0. -1.
         13    1    4    4    0    0  0.48273837739E+02 -0.14407826747E+03  0.19656011136E+03  0.24844473821E+03  0.00000000000E+00 0. -1.
        -14    1    4    4    0    0 -0.13660020746E+02 -0.69136907446E+02  0.17516692754E+03  0.18881197166E+03  0.00000000000E+00 0.  1.
         -5    1    3    3    0  504  0.70069337758E+02 -0.55816255321E+02  0.50846025070E+02  0.10311437687E+03  0.47000000000E+01 0.  1.
<mgrwt>
<rscale>  2 0.33748554E+03</rscale>
<asrwt>0</asrwt>
<pdfrwt beam="1">  1       21 0.10362665E+00 0.33771502E+03</pdfrwt>
<pdfrwt beam="2">  1       21 0.31896197E-01 0.33771502E+03</pdfrwt>
<totfact> 0.65540923E+03</totfact>
</mgrwt>
</event>
<event>
12    1  0.1410528E-001  0.2052554E+03  0.7546771E-02  0.1147183E+00
         21   -1    0    0  502  503  0.00000000000E+00  0.00000000000E+00  0.45249570982E+03  0.45249570982E+03  0.00000000000E+00 0.  1.
         21   -1    0    0  503  504 -0.00000000000E+00 -0.00000000000E+00 -0.98531462700E+02  0.98531462700E+02  0.00000000000E+00 0.  1.
         -6    2    1    2    0  504 -0.28959148760E+02  0.88915354026E+02  0.25818379920E+03  0.32452399240E+03  0.17295194418E+03 0.  0.
        -24    2    3    3    0    0  0.16388609936E+02  0.80031140564E+02  0.78685484837E+02  0.13911341200E+03  0.80545427414E+02 0.  0.
          6    2    1    2  502    0  0.28959148760E+02 -0.88915354026E+02  0.95780447920E+02  0.22650318012E+03  0.18271623880E+03 0.  0.
         24    2    5    5    0    0  0.65488850187E+02 -0.11842680745E+03  0.83454144674E+02  0.17772436586E+03  0.79420763878E+02 0.  0.
          2    1    6    6  501    0  0.30922790676E+02 -0.11829045394E+03  0.62682285316E+02  0.13739694090E+03  0.00000000000E+00 0. -1.
         -1    1    6    6    0  501  0.34566059511E+02 -0.13635350713E+00  0.20771859358E+02  0.40327424956E+02  0.00000000000E+00 0.  1.
          5    1    5    5  502    0 -0.36529701427E+02  0.29511453420E+02  0.12326303246E+02  0.48778814264E+02  0.47000000000E+01 0. -1.
         11    1    4    4    0    0 -0.83417568382E+00  0.23478856427E+01 -0.15566886107E+02  0.15765035969E+02  0.00000000000E+00 0. -1.
        -12    1    4    4    0    0  0.17222785619E+02  0.77683254921E+02  0.94252370943E+02  0.12334837603E+03  0.00000000000E+00 0.  1.
         -5    1    3    3    0  504 -0.45347758695E+02  0.88842134619E+01  0.17949831436E+03  0.18541058040E+03  0.47000000000E+01 0.  1.
<mgrwt>
<rscale>  2 0.20306003E+03</rscale>
<asrwt>0</asrwt>
<pdfrwt beam="1">  1       21 0.69614724E-01 0.20525544E+03</pdfrwt>
<pdfrwt beam="2">  1       21 0.15158687E-01 0.20525544E+03</pdfrwt>
<totfact> 0.71769801E+04</totfact>
</mgrwt>
</event>
<event>
12    1  0.1410528E-001  0.2069693E+03  0.7546771E-02  0.1144070E+00
         21   -1    0    0  502  503  0.00000000000E+00  0.00000000000E+00  0.18090640518E+04  0.18090640518E+04  0.00000000000E+00 0. -1.
         21   -1    0    0  503  504 -0.00000000000E+00 -0.00000000000E+00 -0.55257331935E+02  0.55257331935E+02  0.00000000000E+00 0. -1.
         -6    2    1    2    0  504 -0.58766929842E+02  0.96105006237E+02  0.17207485545E+03  0.26915806047E+03  0.17362770911E+03 0.  0.
        -24    2    3    3    0    0 -0.12311931854E+02  0.78403062428E+02  0.18542742717E+03  0.21746853712E+03  0.81305658013E+02 0.  0.
          6    2    1    2  502    0  0.58766929842E+02 -0.96105006237E+02  0.15817318644E+04  0.15951633232E+04  0.17314910546E+03 0.  0.
         24    2    5    5    0    0  0.89807446341E+02 -0.11743482148E+03  0.12876526951E+04  0.12986449891E+04  0.81074223742E+02 0.  0.
          2    1    6    6  501    0  0.57518950089E+02 -0.11250377875E+03  0.11607202826E+04  0.11675774511E+04  0.00000000000E+00 0. -1.
         -1    1    6    6    0  501  0.32288496253E+02 -0.49310427245E+01  0.12693241254E+03  0.13106753803E+03  0.00000000000E+00 0.  1.
          5    1    5    5  502    0 -0.31040516500E+02  0.21329815239E+02  0.29407916924E+03  0.29651833411E+03  0.47000000000E+01 0. -1.
         11    1    4    4    0    0 -0.29087517015E+02  0.77070212607E+02  0.18271056753E+03  0.20042218641E+03  0.00000000000E+00 0. -1.
        -12    1    4    4    0    0  0.16775585161E+02  0.13328498210E+01  0.27168596380E+01  0.17046350707E+02  0.00000000000E+00 0.  1.
         -5    1    3    3    0  504 -0.46454997988E+02  0.17701943808E+02 -0.13352571720E+02  0.51689523351E+02  0.47000000000E+01 0.  1.
<mgrwt>
<rscale>  2 0.20686893E+03</rscale>
<asrwt>0</asrwt>
<pdfrwt beam="1">  1       21 0.27831750E+00 0.20696934E+03</pdfrwt>
<pdfrwt beam="2">  1       21 0.85011294E-02 0.20696934E+03</pdfrwt>
<totfact> 0.48365658E+03</totfact>
</mgrwt>
</event>
<event>
12    1  0.1410528E-001  0.1736056E+03  0.7546771E-02  0.1175248E+00
         21   -1    0    0  502  503  0.00000000000E+00  0.00000000000E+00  0.57240837181E+03  0.57240837181E+03  0.00000000000E+00 0. -1.
         21   -1    0    0  503  504 -0.00000000000E+00 -0.00000000000E+00 -0.58936046088E+02  0.58936046088E+02  0.00000000000E+00 0.  1.
         -6    2    1    2    0  504 -0.12220998225E+02 -0.18536976900E+02  0.14632250101E+03  0.22704442073E+03  0.17217991280E+03 0.  0.
        -24    2    3    3    0    0 -0.58620190213E+02 -0.54824149146E+02  0.96593257818E+02  0.14981274643E+03  0.81679786405E+02 0.  0.
          6    2    1    2  502    0  0.12220998225E+02  0.18536976900E+02  0.36714982471E+03  0.40429999717E+03  0.16782884619E+03 0.  0.
         24    2    5    5    0    0 -0.53290746550E+02  0.14558706711E+02  0.16979016085E+03  0.19626023593E+03  0.81470987940E+02 0.  0.
          2    1    6    6  501    0 -0.58997966584E+02  0.37346675627E+02  0.15033132943E+03  0.16575597380E+03  0.00000000000E+00 0. -1.
         -1    1    6    6    0  501  0.57072200346E+01 -0.22787968916E+02  0.19458831420E+02  0.30504262130E+02  0.00000000000E+00 0.  1.
          5    1    5    5  502    0  0.65511744774E+02  0.39782701892E+01  0.19735966386E+03  0.20803976124E+03  0.47000000000E+01 0. -1.
         13    1    4    4    0    0 -0.24207879626E+02 -0.58670281485E+02  0.96119105139E+02  0.11518292295E+03  0.00000000000E+00 0. -1.
        -14    1    4    4    0    0 -0.34412310587E+02  0.38461323381E+01  0.47415267858E+00  0.34629823486E+02  0.00000000000E+00 0.  1.
         -5    1    3    3    0  504  0.46399191988E+02  0.36287172246E+02  0.49729243193E+02  0.77231674301E+02  0.47000000000E+01 0.  1.
<mgrwt>
<rscale>  2 0.17251677E+03</rscale>
<asrwt>0</asrwt>
<pdfrwt beam="1">  1       21 0.88062823E-01 0.17360557E+03</pdfrwt>
<pdfrwt beam="2">  1       21 0.90670844E-02 0.17360557E+03</pdfrwt>
<totfact> 0.10732209E+05</totfact>
</mgrwt>
</event>
<event>
12    1  0.1410528E-001  0.1952175E+03  0.7546771E-02  0.1153843E+00
         21   -1    0    0  502  503  0.00000000000E+00  0.00000000000E+00  0.64158922433E+02  0.64158922433E+02  0.00000000000E+00 0.  1.
         21   -1    0    0  503  504 -0.00000000000E+00 -0.00000000000E+00 -0.14931038358E+04  0.14931038358E+04  0.00000000000E+00 0. -1.
         -6    2    1    2    0  504 -0.16970376922E+02 -0.86302947054E+02 -0.13187279940E+04  0.13330991683E+04  0.17428045765E+03 0.  0.
        -24    2    3    3    0    0 -0.73871999929E+02 -0.78201286097E+02 -0.10150918991E+04  0.10240354212E+04  0.81636185509E+02 0.  0.
          6    2    1    2  502    0  0.16970376922E+02  0.86302947054E+02 -0.11021691936E+03  0.22416358996E+03  0.17425657344E+03 0.  0.
         24    2    5    5    0    0  0.74362378546E+02  0.49134325493E+02 -0.42407124084E+02  0.12774986368E+03  0.81103133187E+02 0.  0.
          4    1    6    6  501    0  0.53742594073E+02  0.20624702286E+01  0.96039531626E+01  0.54632921554E+02  0.00000000000E+00 0. -1.
         -3    1    6    6    0  501  0.20619784473E+02  0.47071855264E+02 -0.52011077246E+02  0.73116942128E+02  0.00000000000E+00 0.  1.
          5    1    5    5  502    0 -0.57392001624E+02  0.37168621561E+02 -0.67809795281E+02  0.96413726280E+02  0.47000000000E+01 0. -1.
         11    1    4    4    0    0 -0.38451638655E+02 -0.65185725148E+02 -0.89405227363E+03  0.89724978420E+03  0.00000000000E+00 0. -1.
        -12    1    4    4    0    0 -0.35420361274E+02 -0.13015560949E+02 -0.12103962544E+03  0.12678563698E+03  0.00000000000E+00 0.  1.
         -5    1    3    3    0  504  0.56901623007E+02 -0.81016609572E+01 -0.30363609497E+03  0.30906374711E+03  0.47000000000E+01 0.  1.
<mgrwt>
<rscale>  2 0.19521216E+03</rscale>
<asrwt>0</asrwt>
<pdfrwt beam="1">  1       21 0.98706040E-02 0.19521749E+03</pdfrwt>
<pdfrwt beam="2">  1       21 0.22970827E+00 0.19521749E+03</pdfrwt>
<totfact> 0.72735132E+03</totfact>
</mgrwt>
</event>
<event>
12    1  0.1410528E-001  0.1843770E+03  0.7546771E-02  0.1163793E+00
         21   -1    0    0  502  503  0.00000000000E+00  0.00000000000E+00  0.25116482767E+04  0.25116482767E+04  0.00000000000E+00 0.  1.
         21   -1    0    0  503  504 -0.00000000000E+00 -0.00000000000E+00 -0.16753976488E+02  0.16753976488E+02  0.00000000000E+00 0. -1.
         -6    2    1    2    0  504 -0.63795434606E+02  0.11805109021E+02  0.69087757622E+03  0.71505714552E+03  0.17258527736E+03 0.  0.
        -24    2    3    3    0    0 -0.16614234158E+02  0.32789188684E+02  0.16444496806E+03  0.18607720431E+03  0.78939310682E+02 0.  0.
          6    2    1    2  502    0  0.63795434606E+02 -0.11805109021E+02  0.18040167239E+04  0.18133451076E+04  0.17185726921E+03 0.  0.
         24    2    5    5    0    0  0.14211221494E+02  0.72527680936E+01  0.40118286559E+03  0.40949799308E+03  0.80537899325E+02 0.  0.
          4    1    6    6  501    0  0.15560590451E+02 -0.29584923302E+02  0.87689327616E+02  0.93844647368E+02  0.00000000000E+00 0. -1.
         -3    1    6    6    0  501 -0.13493689578E+01  0.36837691395E+02  0.31349353798E+03  0.31565334571E+03  0.00000000000E+00 0.  1.
          5    1    5    5  502    0  0.49584213112E+02 -0.19057877114E+02  0.14028338583E+04  0.14038471145E+04  0.47000000000E+01 0. -1.
         13    1    4    4    0    0 -0.19653699414E+02  0.54352899887E+02  0.14770298895E+03  0.15860857030E+03  0.00000000000E+00 0. -1.
        -14    1    4    4    0    0  0.30394652559E+01 -0.21563711202E+02  0.16741979112E+02  0.27468634012E+02  0.00000000000E+00 0.  1.
         -5    1    3    3    0  504 -0.47181200448E+02 -0.20984079664E+02  0.52643260816E+03  0.52897994121E+03  0.47000000000E+01 0.  1.
<mgrwt>
<rscale>  2 0.18420649E+03</rscale>
<asrwt>0</asrwt>
<pdfrwt beam="1">  1       21 0.38640713E+00 0.18437705E+03</pdfrwt>
<pdfrwt beam="2">  1       21 0.25775368E-02 0.18437705E+03</pdfrwt>
<totfact> 0.86839998E+03</totfact>
</mgrwt>
</event>
<event>
12    1  0.1410528E-001  0.2674260E+03  0.7546771E-02  0.1104226E+00
         21   -1    0    0  502  503  0.00000000000E+00  0.00000000000E+00  0.16371902781E+03  0.16371902781E+03  0.00000000000E+00 0.  1.
         21   -1    0    0  503  504 -0.00000000000E+00 -0.00000000000E+00 -0.43075634904E+03  0.43075634904E+03  0.00000000000E+00 0.  1.
         -6    2    1    2    0  504  0.16590197354E+03  0.11827138992E+03 -0.85855606863E+02  0.27145298928E+03  0.15749270986E+03 0.  0.
        -24    2    3    3    0    0  0.63635166419E+02  0.11594006540E+03 -0.48446525295E+02  0.16243251277E+03  0.80905637763E+02 0.  0.
          6    2    1    2  502    0 -0.16590197354E+03 -0.11827138992E+03 -0.18118171436E+03  0.32302238757E+03  0.17321969506E+03 0.  0.
         24    2    5    5    0    0 -0.14626700129E+03 -0.67991459394E+02 -0.19577828924E+03  0.26690863216E+03  0.83031350490E+02 0.  0.
          2    1    6    6  501    0 -0.14087281463E+02 -0.26580104748E+02 -0.83015074687E+02  0.88297542960E+02  0.00000000000E+00 0. -1.
         -1    1    6    6    0  501 -0.13217971983E+03 -0.41411354647E+02 -0.11276321456E+03  0.17861108920E+03  0.00000000000E+00 0.  1.
          5    1    5    5  502    0 -0.19634972252E+02 -0.50279930523E+02  0.14596574881E+02  0.56113755417E+02  0.47000000000E+01 0. -1.
         13    1    4    4    0    0  0.32130376732E+02  0.16233837704E+02  0.16223001340E+02  0.39485242408E+02  0.00000000000E+00 0. -1.
        -14    1    4    4    0    0  0.31504789687E+02  0.99706227700E+02 -0.64669526635E+02  0.12294727037E+03  0.00000000000E+00 0.  1.
         -5    1    3    3    0  504  0.10226680712E+03  0.23313245128E+01 -0.37409081568E+02  0.10902047650E+03  0.47000000000E+01 0.  1.
<mgrwt>
<rscale>  2 0.26491381E+03</rscale>
<asrwt>0</asrwt>
<pdfrwt beam="1">  1       21 0.25187543E-01 0.26742597E+03</pdfrwt>
<pdfrwt beam="2">  1       21 0.66270207E-01 0.26742597E+03</pdfrwt>
<totfact> 0.30086760E+04</totfact>
</mgrwt>
</event>
<event>
12    1  0.1410528E-001  0.1844233E+03  0.7546771E-02  0.1163748E+00
         21   -1    0    0  502  503  0.00000000000E+00  0.00000000000E+00  0.15442109479E+03  0.15442109479E+03  0.00000000000E+00 0.  1.
         21   -1    0    0  503  504 -0.00000000000E+00 -0.00000000000E+00 -0.25379616302E+03  0.25379616302E+03  0.00000000000E+00 0. -1.
         -6    2    1    2    0  504 -0.60761811918E+02 -0.18860275315E+02 -0.12485163544E+03  0.22271028853E+03  0.17310180234E+03 0.  0.
        -24    2    3    3    0    0  0.30146130895E+02 -0.39207695855E+02 -0.72645191532E+02  0.11581840682E+03  0.75435713585E+02 0.  0.
          6    2    1    2  502    0  0.60761811918E+02  0.18860275315E+02  0.25476567217E+02  0.18550696927E+03  0.17238350385E+03 0.  0.
         24    2    5    5    0    0  0.53274425330E+02  0.27566513292E+02  0.80807190039E+02  0.12880223085E+03  0.80387409842E+02 0.  0.
          4    1    6    6  501    0  0.19161111242E+02 -0.27167139135E+02  0.41879849237E+02  0.53470771501E+02  0.00000000000E+00 0. -1.
         -3    1    6    6    0  501  0.34113314088E+02  0.54733652427E+02  0.38927340802E+02  0.75331459351E+02  0.00000000000E+00 0.  1.
          5    1    5    5  502    0  0.74873865880E+01 -0.87062379770E+01 -0.55330622822E+02  0.56704738422E+02  0.47000000000E+01 0. -1.
         13    1    4    4    0    0  0.12364820896E+02  0.22135593933E+02 -0.28679157080E+02  0.38280117103E+02  0.00000000000E+00 0. -1.
        -14    1    4    4    0    0  0.17781309999E+02 -0.61343289789E+02 -0.43966034452E+02  0.77538289721E+02  0.00000000000E+00 0.  1.
         -5    1    3    3    0  504 -0.90907942813E+02  0.20347420540E+02 -0.52206443913E+02  0.10689188171E+03  0.47000000000E+01 0.  1.
<mgrwt>
<rscale>  2 0.18425453E+03</rscale>
<asrwt>0</asrwt>
<pdfrwt beam="1">  1       21 0.23757092E-01 0.18442327E+03</pdfrwt>
<pdfrwt beam="2">  1       21 0.39045563E-01 0.18442327E+03</pdfrwt>
<totfact> 0.10587748E+05</totfact>
</mgrwt>
</event>
<event>
12    1  0.1410528E-001  0.1899626E+03  0.7546771E-02  0.1160281E+00
         21   -1    0    0  502  503  0.00000000000E+00  0.00000000000E+00  0.17629259260E+03  0.17629259260E+03  0.00000000000E+00 0. -1.
         21   -1    0    0  503  504 -0.00000000000E+00 -0.00000000000E+00 -0.23042264642E+03  0.23042264642E+03  0.00000000000E+00 0. -1.
         -6    2    1    2    0  504 -0.58246177173E+02 -0.37867433068E+01 -0.10563328271E+03  0.21735729582E+03  0.18077291569E+03 0.  0.
        -24    2    3    3    0    0 -0.96268420478E+02  0.75559219786E+01 -0.12321226206E+03  0.17370574880E+03  0.75284293894E+02 0.  0.
          6    2    1    2  502    0  0.58246177173E+02  0.37867433068E+01  0.51503228899E+02  0.18935794320E+03  0.17261776121E+03 0.  0.
         24    2    5    5    0    0  0.43671547287E+02 -0.16906023869E+02 -0.41656802505E+02  0.92706549519E+02  0.68309570657E+02 0.  0.
          2    1    6    6  501    0  0.43418015380E+02 -0.32622889780E+02 -0.71354375405E+01  0.54774916395E+02  0.00000000000E+00 0. -1.
         -1    1    6    6    0  501  0.25353190657E+00  0.15716865911E+02 -0.34521364964E+02  0.37931633124E+02  0.00000000000E+00 0.  1.
          5    1    5    5  502    0  0.14574629886E+02  0.20692767176E+02  0.93160031404E+02  0.96651393683E+02  0.47000000000E+01 0. -1.
         13    1    4    4    0    0 -0.65222207905E+02  0.27866556024E+02 -0.37323615240E+02  0.80146950055E+02  0.00000000000E+00 0. -1.
        -14    1    4    4    0    0 -0.31046212574E+02 -0.20310634046E+02 -0.85888646822E+02  0.93558798749E+02  0.00000000000E+00 0.  1.
         -5    1    3    3    0  504  0.38022243305E+02 -0.11342665285E+02  0.17578979348E+02  0.43651547014E+02  0.47000000000E+01 0.  1.
<mgrwt>
<rscale>  2 0.18799647E+03</rscale>
<asrwt>0</asrwt>
<pdfrwt beam="1">  1       21 0.27121937E-01 0.18996264E+03</pdfrwt>
<pdfrwt beam="2">  1       21 0.35449638E-01 0.18996264E+03</pdfrwt>
<totfact> 0.99509065E+04</totfact>
</mgrwt>
</event>
<event>
12    1  0.1410528E-001  0.4020058E+03  0.7546771E-02  0.1043658E+00
         21   -1    0    0  502  503  0.00000000000E+00  0.00000000000E+00  0.20450469929E+03  0.20450469929E+03  0.00000000000E+00 0.  1.
         21   -1    0    0  503  504 -0.00000000000E+00 -0.00000000000E+00 -0.78035538764E+03  0.78035538764E+03  0.00000000000E+00 0. -1.
         -6    2    1    2    0  504  0.87270291365E+02 -0.35252192316E+03 -0.31599697940E+03  0.50618207272E+03  0.15645571159E+03 0.  0.
        -24    2    3    3    0    0  0.12493446015E+02 -0.27827189841E+03 -0.23986309216E+03  0.37609325090E+03  0.79501539324E+02 0.  0.
          6    2    1    2  502    0 -0.87270291365E+02  0.35252192316E+03 -0.25985370894E+03  0.47867801421E+03  0.17239745118E+03 0.  0.
         24    2    5    5    0    0 -0.70326966684E+02  0.35987384947E+03 -0.22136447640E+03  0.43572876400E+03  0.80014089980E+02 0.  0.
          4    1    6    6  501    0  0.82442149478E+01  0.13001520098E+03 -0.55609692152E+02  0.14164871135E+03  0.00000000000E+00 0. -1.
         -3    1    6    6    0  501 -0.78571181632E+02  0.22985864848E+03 -0.16575478425E+03  0.29408005265E+03  0.00000000000E+00 0.  1.
          5    1    5    5  502    0 -0.16943324681E+02 -0.73519263069E+01 -0.38489232539E+02  0.42949250204E+02  0.47000000000E+01 0. -1.
         13    1    4    4    0    0 -0.22000710657E+02 -0.84577254732E+02 -0.10942153954E+03  0.14003719721E+03  0.00000000000E+00 0. -1.
        -14    1    4    4    0    0  0.34494156672E+02 -0.19369464368E+03 -0.13044155262E+03  0.23605605369E+03  0.00000000000E+00 0.  1.
         -5    1    3    3    0  504  0.74776845350E+02 -0.74250024753E+02 -0.76133887243E+02  0.13008882182E+03  0.47000000000E+01 0.  1.
<mgrwt>
<rscale>  2 0.40035212E+03</rscale>
<asrwt>0</asrwt>
<pdfrwt beam="1">  1       21 0.31462262E-01 0.40200583E+03</pdfrwt>
<pdfrwt beam="2">  1       21 0.12005467E+00 0.40200583E+03</pdfrwt>
<totfact> 0.45562521E+03</totfact>
</mgrwt>
</event>
<event>
12    1  0.1410528E-001  0.1758558E+03  0.7546771E-02  0.1172035E+00
         21   -1    0    0  502  503  0.00000000000E+00  0.00000000000E+00  0.43372942656E+03  0.43372942656E+03  0.00000000000E+00 0. -1.
         21   -1    0    0  503  504 -0.00000000000E+00 -0.00000000000E+00 -0.14830007084E+03  0.14830007084E+03  0.00000000000E+00 0. -1.
         -6    2    1    2    0  504  0.29118605075E+02 -0.10454441230E+01 -0.67208390350E+02  0.18826104787E+03  0.17342510861E+03 0.  0.
        -24    2    3    3    0    0 -0.12187750737E+02 -0.25565465976E+02 -0.10044267504E+03  0.12966024428E+03  0.76947473380E+02 0.  0.
          6    2    1    2  502    0 -0.29118605075E+02  0.10454441230E+01  0.35263774608E+03  0.39376844952E+03  0.17277507276E+03 0.  0.
         24    2    5    5    0    0  0.29867986507E+02 -0.88121429432E+01  0.11009335075E+03  0.14391556538E+03  0.87300593349E+02 0.  0.
          2    1    6    6  501    0  0.12352788937E+02  0.37094752174E+02  0.71285972567E+02  0.81303763247E+02  0.00000000000E+00 0. -1.
         -1    1    6    6    0  501  0.17515197571E+02 -0.45906895117E+02  0.38807378179E+02  0.62611802133E+02  0.00000000000E+00 0.  1.
          5    1    5    5  502    0 -0.58986591582E+02  0.98575870663E+01  0.24254439533E+03  0.24985288414E+03  0.47000000000E+01 0. -1.
         11    1    4    4    0    0 -0.33187970958E+02 -0.37566148434E+02 -0.38632328489E+02  0.63285967868E+02  0.00000000000E+00 0. -1.
        -12    1    4    4    0    0  0.21000220220E+02  0.12000682458E+02 -0.61810346553E+02  0.66374276417E+02  0.00000000000E+00 0.  1.
         -5    1    3    3    0  504  0.41306355812E+02  0.24520021853E+02  0.33234284692E+02  0.58600803588E+02  0.47000000000E+01 0.  1.
<mgrwt>
<rscale>  2 0.17569530E+03</rscale>
<asrwt>0</asrwt>
<pdfrwt beam="1">  1       21 0.66727603E-01 0.17585578E+03</pdfrwt>
<pdfrwt beam="2">  1       21 0.22815396E-01 0.17585578E+03</pdfrwt>
<totfact> 0.37418240E+04</totfact>
</mgrwt>
</event>
<event>
12    1  0.1410528E-001  0.2255500E+03  0.7546771E-02  0.1129814E+00
         21   -1    0    0  502  503  0.00000000000E+00  0.00000000000E+00  0.20998065699E+03  0.20998065699E+03  0.00000000000E+00 0. -1.
         21   -1    0    0  503  504 -0.00000000000E+00 -0.00000000000E+00 -0.76894858293E+03  0.76894858293E+03  0.00000000000E+00 0. -1.
         -6    2    1    2    0  504  0.12848131813E+03 -0.67438285999E+02  0.12560167792E+03  0.25816384915E+03  0.17267721328E+03 0.  0.
        -24    2    3    3    0    0  0.12288677360E+03 -0.53540617673E+02  0.33061116957E+02  0.16430070656E+03  0.89072598788E+02 0.  0.
          6    2    1    2  502    0 -0.12848131813E+03  0.67438285999E+02 -0.68456960386E+03  0.72076539078E+03  0.17266103928E+03 0.  0.
         24    2    5    5    0    0 -0.36841917389E+02 -0.26635825460E+02 -0.24196839620E+03  0.25906674746E+03  0.80623078625E+02 0.  0.
          4    1    6    6  501    0 -0.51035117098E+02 -0.98985875428E+01 -0.78635116616E+02  0.94265830383E+02  0.00000000000E+00 0. -1.
         -3    1    6    6    0  501  0.14193199709E+02 -0.16737237917E+02 -0.16333327958E+03  0.16480091708E+03  0.00000000000E+00 0.  1.
          5    1    5    5  502    0 -0.91639400741E+02  0.94074111459E+02 -0.44260120766E+03  0.46169864331E+03  0.47000000000E+01 0. -1.
         13    1    4    4    0    0  0.28020335966E+02 -0.59498897885E+02  0.10406593757E+02  0.66584947779E+02  0.00000000000E+00 0. -1.
        -14    1    4    4    0    0  0.94866437638E+02  0.59582802111E+01  0.22654523200E+02  0.97715758783E+02  0.00000000000E+00 0.  1.
         -5    1    3    3    0  504  0.55945445266E+01 -0.13897668325E+02  0.92540560963E+02  0.93863142589E+02  0.47000000000E+01 0.  1.
<mgrwt>
<rscale>  2 0.22554688E+03</rscale>
<asrwt>0</asrwt>
<pdfrwt beam="1">  1       21 0.32304716E-01 0.22554998E+03</pdfrwt>
<pdfrwt beam="2">  1       21 0.11829978E+00 0.22554998E+03</pdfrwt>
<totfact> 0.49174676E+03</totfact>
</mgrwt>
</event>
<event>
12    1  0.1410528E-001  0.1689820E+03  0.7546771E-02  0.1180487E+00
         21   -1    0    0  502  503  0.00000000000E+00  0.00000000000E+00  0.32692570720E+03  0.32692570720E+03  0.00000000000E+00 0.  1.
         21   -1    0    0  503  504 -0.00000000000E+00 -0.00000000000E+00 -0.11537584741E+03  0.11537584741E+03  0.00000000000E+00 0.  1.
         -6    2    1    2    0  504  0.36491524092E+01  0.12612164812E+01 -0.75550959662E+01  0.16915082610E+03  0.16893790431E+03 0.  0.
        -24    2    3    3    0    0 -0.43383491484E+02 -0.35606251745E+02 -0.29591682273E+02  0.10528392590E+03  0.84018479491E+02 0.  0.
          6    2    1    2  502    0 -0.36491524092E+01 -0.12612164812E+01  0.21910495576E+03  0.27315072851E+03  0.16306266239E+03 0.  0.
         24    2    5    5    0    0  0.13855884980E+02  0.14535947857E+02  0.23178900550E+03  0.24596705965E+03  0.79814610393E+02 0.  0.
          4    1    6    6  501    0 -0.18639920031E+02  0.61999637996E+01  0.19573833376E+03  0.19672158365E+03  0.00000000000E+00 0. -1.
         -3    1    6    6    0  501  0.32495805011E+02  0.83359840573E+01  0.36050671740E+02  0.49245476000E+02  0.00000000000E+00 0.  1.
          5    1    5    5  502    0 -0.17505037390E+02 -0.15797164338E+02 -0.12684049737E+02  0.27183668863E+02  0.47000000000E+01 0. -1.
         11    1    4    4    0    0  0.11230376266E+02  0.87841139525E+01 -0.31821683008E+02  0.34869779444E+02  0.00000000000E+00 0. -1.
        -12    1    4    4    0    0 -0.54613867751E+02 -0.44390365698E+02  0.22300007346E+01  0.70414146453E+02  0.00000000000E+00 0.  1.
         -5    1    3    3    0  504  0.47032643893E+02  0.36867468227E+02  0.22036586307E+02  0.63866900200E+02  0.47000000000E+01 0.  1.
<mgrwt>
<rscale>  2 0.16749407E+03</rscale>
<asrwt>0</asrwt>
<pdfrwt beam="1">  1       21 0.50296262E-01 0.16898202E+03</pdfrwt>
<pdfrwt beam="2">  1       21 0.17750131E-01 0.16898202E+03</pdfrwt>
<totfact> 0.10940482E+05</totfact>
</mgrwt>
</event>
<event>
12    1  0.1410528E-001  0.2799642E+03  0.7546771E-02  0.1095837E+00
         21   -1    0    0  502  503  0.00000000000E+00  0.00000000000E+00  0.49313823291E+02  0.49313823291E+02  0.00000000000E+00 0. -1.
         21   -1    0    0  503  504 -0.00000000000E+00 -0.00000000000E+00 -0.16866134968E+04  0.16866134968E+04  0.00000000000E+00 0.  1.
         -6    2    1    2    0  504 -0.16914922931E+03  0.14180808056E+03 -0.10339653042E+04  0.10711975529E+04  0.17221775020E+03 0.  0.
        -24    2    3    3    0    0 -0.13767957768E+03  0.29287712502E+02 -0.63915430409E+03  0.65943428592E+03  0.80758385255E+02 0.  0.
          6    2    1    2  502    0  0.16914922931E+03 -0.14180808056E+03 -0.60333436923E+03  0.66472976715E+03  0.17068189346E+03 0.  0.
         24    2    5    5    0    0  0.18135180932E+03 -0.81207936423E+02 -0.42592075463E+03  0.47679637184E+03  0.80268818936E+02 0.  0.
          2    1    6    6  501    0  0.18116028707E+03 -0.74060758512E+02 -0.35382200027E+03  0.40434397911E+03  0.00000000000E+00 0. -1.
         -1    1    6    6    0  501  0.19152224722E+00 -0.71471779112E+01 -0.72098754352E+02  0.72452392728E+02  0.00000000000E+00 0.  1.
          5    1    5    5  502    0 -0.12202580011E+02 -0.60600144134E+02 -0.17741361461E+03  0.18793339532E+03  0.47000000000E+01 0. -1.
         13    1    4    4    0    0 -0.45770141196E+02  0.87254823010E+01 -0.81468750293E+02  0.93851995934E+02  0.00000000000E+00 0. -1.
        -14    1    4    4    0    0 -0.91909436485E+02  0.20562230201E+02 -0.55768555380E+03  0.56558228998E+03  0.00000000000E+00 0.  1.
         -5    1    3    3    0  504 -0.31469651625E+02  0.11252036805E+03 -0.39481100016E+03  0.41176326699E+03  0.47000000000E+01 0.  1.
<mgrwt>
<rscale>  2 0.27972836E+03</rscale>
<asrwt>0</asrwt>
<pdfrwt beam="1">  1       21 0.75867413E-02 0.27996419E+03</pdfrwt>
<pdfrwt beam="2">  1       21 0.25947902E+00 0.27996419E+03</pdfrwt>
<totfact> 0.71492438E+03</totfact>
</mgrwt>
</event>
<event>
12    1  0.1410528E-001  0.2175457E+03  0.7546771E-02  0.1135775E+00
         21   -1    0    0  502  503  0.00000000000E+00  0.00000000000E+00  0.16181025900E+03  0.16181025900E+03  0.00000000000E+00 0.  1.
         21   -1    0    0  503  504 -0.00000000000E+00 -0.00000000000E+00 -0.36419002981E+03  0.36419002981E+03  0.00000000000E+00 0.  1.
         -6    2    1    2    0  504 -0.54481788090E+01  0.13155748158E+03 -0.21812520265E+03  0.30788547558E+03  0.17285198416E+03 0.  0.
        -24    2    3    3    0    0 -0.98846992239E+01 -0.22385009803E+01 -0.10106522553E+03  0.12999175476E+03  0.81123106008E+02 0.  0.
          6    2    1    2  502    0  0.54481788090E+01 -0.13155748158E+03  0.15745431841E+02  0.21811481322E+03  0.17317361090E+03 0.  0.
         24    2    5    5    0    0 -0.37587719904E+02 -0.25007395545E+02  0.42633417469E+02  0.10000442764E+03  0.78390501610E+02 0.  0.
          2    1    6    6  501    0 -0.21211836863E+02  0.55741203909E+01 -0.19171187787E+02  0.29129834919E+02  0.00000000000E+00 0. -1.
         -1    1    6    6    0  501 -0.16375883041E+02 -0.30581515936E+02  0.61804605256E+02  0.70874592719E+02  0.00000000000E+00 0.  1.
          5    1    5    5  502    0  0.43035898713E+02 -0.10655008604E+03 -0.26887985628E+02  0.11811038559E+03  0.47000000000E+01 0. -1.
         11    1    4    4    0    0  0.29669290909E+02 -0.75458594903E+01 -0.12911486400E+02  0.33225190737E+02  0.00000000000E+00 0. -1.
        -12    1    4    4    0    0 -0.39553990133E+02  0.53073585100E+01 -0.88153739132E+02  0.96766564022E+02  0.00000000000E+00 0.  1.
         -5    1    3    3    0  504  0.44365204150E+01  0.13379598256E+03 -0.11705997712E+03  0.17789372082E+03  0.47000000000E+01 0.  1.
<mgrwt>
<rscale>  2 0.21748174E+03</rscale>
<asrwt>0</asrwt>
<pdfrwt beam="1">  1       21 0.24893886E-01 0.21754575E+03</pdfrwt>
<pdfrwt beam="2">  1       21 0.56029235E-01 0.21754575E+03</pdfrwt>
<totfact> 0.45240816E+04</totfact>
</mgrwt>
</event>
<event>
12    1  0.1410528E-001  0.1758525E+03  0.7546771E-02  0.1172640E+00
         21   -1    0    0  502  503  0.00000000000E+00  0.00000000000E+00  0.11927286542E+03  0.11927286542E+03  0.00000000000E+00 0.  1.
         21   -1    0    0  503  504 -0.00000000000E+00 -0.00000000000E+00 -0.26306057601E+03  0.26306057601E+03  0.00000000000E+00 0.  1.
         -6    2    1    2    0  504  0.18663067378E+02  0.22900504794E+02 -0.38684085172E+02  0.18005710090E+03  0.17335327495E+03 0.  0.
        -24    2    3    3    0    0  0.18474544323E+02 -0.15280440164E+02  0.40453659390E+02  0.92064528984E+02  0.79149089062E+02 0.  0.
          6    2    1    2  502    0 -0.18663067378E+02 -0.22900504794E+02 -0.10510362542E+03  0.20227634053E+03  0.17028271391E+03 0.  0.
         24    2    5    5    0    0  0.32648186137E+01 -0.61535350242E+02 -0.15676957514E+02  0.10231283519E+03  0.80155417021E+02 0.  0.
          2    1    6    6  501    0 -0.14722901776E+01 -0.60048649758E+02 -0.43427769933E+02  0.74121381379E+02  0.00000000000E+00 0. -1.
         -1    1    6    6    0  501  0.47371087913E+01 -0.14867004844E+01  0.27750812420E+02  0.28191453811E+02  0.00000000000E+00 0.  1.
          5    1    5    5  502    0 -0.21927885992E+02  0.38634845449E+02 -0.89426667902E+02  0.99963505335E+02  0.47000000000E+01 0. -1.
         13    1    4    4    0    0  0.48961075996E+02 -0.17693938757E+02  0.23805391758E+02  0.57244729960E+02  0.00000000000E+00 0. -1.
        -14    1    4    4    0    0 -0.30486531673E+02  0.24134985928E+01  0.16648267632E+02  0.34819799024E+02  0.00000000000E+00 0.  1.
         -5    1    3    3    0  504  0.18852305467E+00  0.38180944958E+02 -0.79137744562E+02  0.87992571921E+02  0.47000000000E+01 0.  1.
<mgrwt>
<rscale>  2 0.17509103E+03</rscale>
<asrwt>0</asrwt>
<pdfrwt beam="1">  1       21 0.18349672E-01 0.17585250E+03</pdfrwt>
<pdfrwt beam="2">  1       21 0.40470857E-01 0.17585250E+03</pdfrwt>
<totfact> 0.16023088E+05</totfact>
</mgrwt>
</event>
<event>
12    1  0.1410528E-001  0.1974627E+03  0.7546771E-02  0.1152205E+00
         21   -1    0    0  502  503  0.00000000000E+00  0.00000000000E+00  0.67765298568E+03  0.67765298568E+03  0.00000000000E+00 0.  1.
         21   -1    0    0  503  504 -0.00000000000E+00 -0.00000000000E+00 -0.57812058506E+02  0.57812058506E+02  0.00000000000E+00 0. -1.
         -6    2    1    2    0  504  0.44134843396E+02  0.81270744745E+02  0.35115104628E+03  0.40286298904E+03  0.17446693751E+03 0.  0.
        -24    2    3    3    0    0 -0.35870575657E+02  0.30851339654E+02  0.11863040515E+03  0.15180339046E+03  0.82052379454E+02 0.  0.
          6    2    1    2  502    0 -0.44134843396E+02 -0.81270744745E+02  0.26868988090E+03  0.33260205515E+03  0.17284980948E+03 0.  0.
         24    2    5    5    0    0 -0.89619983564E+02 -0.29965300855E+02  0.16594942480E+03  0.20899445882E+03  0.84910608991E+02 0.  0.
          4    1    6    6  501    0 -0.89549122372E+02 -0.16075864212E+02  0.77657665018E+02  0.11961685359E+03  0.00000000000E+00 0. -1.
         -3    1    6    6    0  501 -0.70861191778E-01 -0.13889436643E+02  0.88291759781E+02  0.89377605231E+02  0.00000000000E+00 0.  1.
          5    1    5    5  502    0  0.45485140168E+02 -0.51305443890E+02  0.10274045610E+03  0.12360759632E+03  0.47000000000E+01 0. -1.
         11    1    4    4    0    0 -0.42383033825E+02 -0.10840254175E+02  0.28300213582E+02  0.52103116563E+02  0.00000000000E+00 0. -1.
        -12    1    4    4    0    0  0.65124581680E+01  0.41691593830E+02  0.90330191565E+02  0.99700273899E+02  0.00000000000E+00 0.  1.
         -5    1    3    3    0  504  0.80005419053E+02  0.50419405091E+02  0.23252064113E+03  0.25105959858E+03  0.47000000000E+01 0.  1.
<mgrwt>
<rscale>  2 0.19710493E+03</rscale>
<asrwt>0</asrwt>
<pdfrwt beam="1">  1       21 0.10425430E+00 0.19746273E+03</pdfrwt>
<pdfrwt beam="2">  1       21 0.88941633E-02 0.19746273E+03</pdfrwt>
<totfact> 0.73953750E+04</totfact>
</mgrwt>
</event>
<event>
12    1  0.1410528E-001  0.1794152E+03  0.7546771E-02  0.1169017E+00
         21   -1    0    0  502  503  0.00000000000E+00  0.00000000000E+00  0.52648071442E+03  0.52648071442E+03  0.00000000000E+00 0.  1.
         21   -1    0    0  503  504 -0.00000000000E+00 -0.00000000000E+00 -0.63232238196E+02  0.63232238196E+02  0.00000000000E+00 0. -1.
         -6    2    1    2    0  504 -0.21553335060E+02  0.41339426382E+02  0.16916967569E+03  0.24659317483E+03  0.17325218693E+03 0.  0.
        -24    2    3    3    0    0 -0.60551274484E+02  0.75844663010E+02  0.12038708863E+03  0.17508596237E+03  0.82116827515E+02 0.  0.
          6    2    1    2  502    0  0.21553335060E+02 -0.41339426382E+02  0.29407880054E+03  0.34311977779E+03  0.17051494526E+03 0.  0.
         24    2    5    5    0    0 -0.53569635803E+02 -0.48740009780E+02  0.19620384582E+03  0.21942731178E+03  0.66386004599E+02 0.  0.
          2    1    6    6  501    0  0.66676855665E+01 -0.48249038187E+01 -0.12918611443E+01  0.83310643311E+01  0.00000000000E+00 0. -1.
         -1    1    6    6    0  501 -0.60237321370E+02 -0.43915105962E+02  0.19749570696E+03  0.21109624744E+03  0.00000000000E+00 0.  1.
          5    1    5    5  502    0  0.75122970863E+02  0.74005833984E+01  0.97874954724E+02  0.12369246601E+03  0.47000000000E+01 0. -1.
         11    1    4    4    0    0 -0.62853567316E+02  0.27763181343E+02  0.35114170345E+02  0.77164565195E+02  0.00000000000E+00 0. -1.
        -12    1    4    4    0    0  0.23022928326E+01  0.48081481667E+02  0.85272918288E+02  0.97921397176E+02  0.00000000000E+00 0.  1.
         -5    1    3    3    0  504  0.38997939424E+02 -0.34505236628E+02  0.48782587054E+02  0.71507212460E+02  0.47000000000E+01 0.  1.
<mgrwt>
<rscale>  2 0.17875108E+03</rscale>
<asrwt>0</asrwt>
<pdfrwt beam="1">  1       21 0.80997030E-01 0.17941520E+03</pdfrwt>
<pdfrwt beam="2">  1       21 0.97280370E-02 0.17941520E+03</pdfrwt>
<totfact> 0.11450191E+05</totfact>
</mgrwt>
</event>
<event>
12    1  0.1410528E-001  0.2247924E+03  0.7546771E-02  0.1130410E+00
         21   -1    0    0  502  503  0.00000000000E+00  0.00000000000E+00  0.55233148306E+03  0.55233148306E+03  0.00000000000E+00 0. -1.
         21   -1    0    0  503  504 -0.00000000000E+00 -0.00000000000E+00 -0.14437149051E+03  0.14437149051E+03  0.00000000000E+00 0.  1.
         -6    2    1    2    0  504 -0.26005579691E+02  0.14062825908E+03 -0.71548323027E+01  0.22463100960E+03  0.17307599898E+03 0.  0.
        -24    2    3    3    0    0 -0.31121257263E+02  0.11184854253E+03  0.58594944421E+02  0.15252299770E+03  0.79694844228E+02 0.  0.
          6    2    1    2  502    0  0.26005579691E+02 -0.14062825908E+03  0.41511482485E+03  0.47207196397E+03  0.17343305316E+03 0.  0.
         24    2    5    5    0    0  0.57377096705E+01 -0.11221873523E+03  0.14409941977E+03  0.19877848181E+03  0.78244975579E+02 0.  0.
          2    1    6    6  501    0  0.32988843487E+02 -0.77671447818E+02  0.58969076080E+02  0.10294886854E+03  0.00000000000E+00 0. -1.
         -1    1    6    6    0  501 -0.27251133817E+02 -0.34547287416E+02  0.85130343692E+02  0.95829613269E+02  0.00000000000E+00 0.  1.
          5    1    5    5  502    0  0.20267870021E+02 -0.28409523842E+02  0.27101540507E+03  0.27329348215E+03  0.47000000000E+01 0. -1.
         13    1    4    4    0    0 -0.33951340938E+02  0.10259863616E+03  0.16489844342E+02  0.10932103485E+03  0.00000000000E+00 0. -1.
        -14    1    4    4    0    0  0.28300836747E+01  0.92499063604E+01  0.42105100078E+02  0.43201962848E+02  0.00000000000E+00 0.  1.
         -5    1    3    3    0  504  0.51156775718E+01  0.28779716550E+02 -0.65749776723E+02  0.72108011905E+02  0.47000000000E+01 0.  1.
<mgrwt>
<rscale>  2 0.22472352E+03</rscale>
<asrwt>0</asrwt>
<pdfrwt beam="1">  1       21 0.84974073E-01 0.22479240E+03</pdfrwt>
<pdfrwt beam="2">  1       21 0.22210999E-01 0.22479240E+03</pdfrwt>
<totfact> 0.22317394E+04</totfact>
</mgrwt>
</event>
<event>
12    1  0.1410528E-001  0.3868671E+03  0.7546771E-02  0.1048473E+00
         21   -1    0    0  502  503  0.00000000000E+00  0.00000000000E+00  0.40276678282E+03  0.40276678282E+03  0.00000000000E+00 0. -1.
         21   -1    0    0  503  504 -0.00000000000E+00 -0.00000000000E+00 -0.44234589368E+03  0.44234589368E+03  0.00000000000E+00 0.  1.
         -6    2    1    2    0  504 -0.34236755686E+03 -0.47052774268E+02 -0.18940391742E+03  0.43074349757E+03  0.17388677122E+03 0.  0.
        -24    2    3    3    0    0 -0.33042451782E+03 -0.75207685641E+02 -0.19417706072E+03  0.39943522210E+03  0.83709066332E+02 0.  0.
          6    2    1    2  502    0  0.34236755686E+03  0.47052774268E+02  0.14982480656E+03  0.41436917893E+03  0.17269868623E+03 0.  0.
         24    2    5    5    0    0  0.32446555978E+03  0.65110233496E+02  0.17081781778E+03  0.38106227494E+03  0.80699990817E+02 0.  0.
          4    1    6    6  501    0  0.21557980890E+03  0.66913062133E+02  0.14764322716E+03  0.26972306986E+03  0.00000000000E+00 0. -1.
         -3    1    6    6    0  501  0.10888575089E+03 -0.18028286371E+01  0.23174590622E+02  0.11133920508E+03  0.00000000000E+00 0.  1.
          5    1    5    5  502    0  0.17901997081E+02 -0.18057459227E+02 -0.20993011222E+02  0.33306903990E+02  0.47000000000E+01 0. -1.
         13    1    4    4    0    0 -0.44593386791E+01 -0.68666988356E+01  0.66253151897E+01  0.10532428766E+02  0.00000000000E+00 0. -1.
        -14    1    4    4    0    0 -0.32596517914E+03 -0.68340986805E+02 -0.20080237591E+03  0.38890279333E+03  0.00000000000E+00 0.  1.
         -5    1    3    3    0  504 -0.11943039039E+02  0.28154911372E+02  0.47731432982E+01  0.31308275469E+02  0.47000000000E+01 0.  1.
<mgrwt>
<rscale>  2 0.38673385E+03</rscale>
<asrwt>0</asrwt>
<pdfrwt beam="1">  1       21 0.61964121E-01 0.38686705E+03</pdfrwt>
<pdfrwt beam="2">  1       21 0.68053214E-01 0.38686705E+03</pdfrwt>
<totfact> 0.42767596E+03</totfact>
</mgrwt>
</event>
<event>
12    1  0.1410528E-001  0.1823079E+03  0.7546771E-02  0.1165603E+00
         21   -1    0    0  502  503  0.00000000000E+00  0.00000000000E+00  0.10170980618E+03  0.10170980618E+03  0.00000000000E+00 0.  1.
         21   -1    0    0  503  504 -0.00000000000E+00 -0.00000000000E+00 -0.47747909481E+03  0.47747909481E+03  0.00000000000E+00 0.  1.
         -6    2    1    2    0  504 -0.42910849367E+02  0.38931313464E+02 -0.35066180630E+03  0.39522131731E+03  0.17285600684E+03 0.  0.
        -24    2    3    3    0    0  0.14240909837E+02  0.14043089832E+02 -0.31372991396E+02  0.69870453509E+02  0.59140542772E+02 0.  0.
          6    2    1    2  502    0  0.42910849367E+02 -0.38931313464E+02 -0.25107482339E+02  0.18396758368E+03  0.17279090837E+03 0.  0.
         24    2    5    5    0    0 -0.10742139383E+02 -0.73526217541E+02 -0.42274580358E+02  0.11769353262E+03  0.80889611519E+02 0.  0.
          2    1    6    6  501    0  0.27297426960E+02 -0.19092544580E+02 -0.38879758745E+02  0.51198734528E+02  0.00000000000E+00 0. -1.
         -1    1    6    6    0  501 -0.38039566343E+02 -0.54433672961E+02 -0.33948216134E+01  0.66494798092E+02  0.00000000000E+00 0.  1.
          5    1    5    5  502    0  0.53652988750E+02  0.34594904077E+02  0.17167098019E+02  0.66274051063E+02  0.47000000000E+01 0. -1.
         11    1    4    4    0    0  0.19395723646E+02 -0.45958185055E+01  0.11376132302E+02  0.22950643339E+02  0.00000000000E+00 0. -1.
        -12    1    4    4    0    0 -0.51548138089E+01  0.18638908338E+02 -0.42749123698E+02  0.46919810170E+02  0.00000000000E+00 0.  1.
         -5    1    3    3    0  504 -0.57151759204E+02  0.24888223631E+02 -0.31928881490E+03  0.32535086380E+03  0.47000000000E+01 0.  1.
<mgrwt>
<rscale>  2 0.18229251E+03</rscale>
<asrwt>0</asrwt>
<pdfrwt beam="1">  1       21 0.15647662E-01 0.18230795E+03</pdfrwt>
<pdfrwt beam="2">  1       21 0.73458323E-01 0.18230795E+03</pdfrwt>
<totfact> 0.60761292E+04</totfact>
</mgrwt>
</event>
<event>
12    1  0.1410528E-001  0.1758114E+03  0.7546771E-02  0.1172376E+00
         21   -1    0    0  502  503  0.00000000000E+00  0.00000000000E+00  0.13244260517E+04  0.13244260517E+04  0.00000000000E+00 0. -1.
         21   -1    0    0  503  504 -0.00000000000E+00 -0.00000000000E+00 -0.74005516556E+02  0.74005516556E+02  0.00000000000E+00 0. -1.
         -6    2    1    2    0  504 -0.24878642374E+02  0.11094747486E+02  0.46300481436E+02  0.18180588602E+03  0.17368824181E+03 0.  0.
        -24    2    3    3    0    0  0.17069253547E+02 -0.55698750098E+01 -0.34585639471E+02  0.89058971405E+02  0.80080902878E+02 0.  0.
          6    2    1    2  502    0  0.24878642374E+02 -0.11094747486E+02  0.12041200537E+04  0.12166256822E+04  0.17184558961E+03 0.  0.
         24    2    5    5    0    0 -0.47233553368E+02 -0.25335632497E+02  0.80435478666E+03  0.81013173355E+03  0.80336168975E+02 0.  0.
          4    1    6    6  501    0 -0.22540093230E+02 -0.49384135186E+02  0.63430941590E+03  0.63662805759E+03  0.00000000000E+00 0. -1.
         -3    1    6    6    0  501 -0.24693460137E+02  0.24048502689E+02  0.17004537076E+03  0.17350367596E+03  0.00000000000E+00 0.  1.
          5    1    5    5  502    0  0.72112195741E+02  0.14240885010E+02  0.39976526704E+03  0.40649394867E+03  0.47000000000E+01 0. -1.
         11    1    4    4    0    0  0.38070020143E+01 -0.41826950545E+02 -0.26357629959E+02  0.49585398186E+02  0.00000000000E+00 0. -1.
        -12    1    4    4    0    0  0.13262251532E+02  0.36257075536E+02 -0.82280095127E+01  0.39473573219E+02  0.00000000000E+00 0.  1.
         -5    1    3    3    0  504 -0.41947895920E+02  0.16664622496E+02  0.80886120907E+02  0.92746914614E+02  0.47000000000E+01 0.  1.
<mgrwt>
<rscale>  2 0.17535457E+03</rscale>
<asrwt>0</asrwt>
<pdfrwt beam="1">  1       21 0.20375784E+00 0.17581139E+03</pdfrwt>
<pdfrwt beam="2">  1       21 0.11385465E-01 0.17581139E+03</pdfrwt>
<totfact> 0.83144076E+03</totfact>
</mgrwt>
</event>
<event>
12    1  0.1410528E-001  0.2308902E+03  0.7546771E-02  0.1126059E+00
         21   -1    0    0  502  503  0.00000000000E+00  0.00000000000E+00  0.15443444326E+03  0.15443444326E+03  0.00000000000E+00 0.  1.
         21   -1    0    0  503  504 -0.00000000000E+00 -0.00000000000E+00 -0.64258669649E+03  0.64258669649E+03  0.00000000000E+00 0. -1.
         -6    2    1    2    0  504 -0.14266772426E+03 -0.52745993083E+02 -0.51542539114E+03  0.56477750937E+03  0.17370688507E+03 0.  0.
        -24    2    3    3    0    0 -0.11771898855E+03 -0.85547316042E+02 -0.48499029287E+03  0.51333092145E+03  0.84362000876E+02 0.  0.
          6    2    1    2  502    0  0.14266772426E+03  0.52745993083E+02  0.27273137915E+02  0.23224363038E+03  0.17336972190E+03 0.  0.
         24    2    5    5    0    0  0.70491137663E+00  0.10694744673E+02  0.92620555722E+01  0.83018174039E+02  0.81800715667E+02 0.  0.
          2    1    6    6  501    0 -0.28735632676E+02 -0.23444543681E+02  0.47368507983E+00  0.37089184290E+02  0.00000000000E+00 0. -1.
         -1    1    6    6    0  501  0.29440544053E+02  0.34139288354E+02  0.87883704924E+01  0.45928989749E+02  0.00000000000E+00 0.  1.
          5    1    5    5  502    0  0.14196281288E+03  0.42051248410E+02  0.18011082343E+02  0.14922545635E+03  0.47000000000E+01 0. -1.
         11    1    4    4    0    0  0.67924234472E+01 -0.29223453144E+02 -0.11698162403E+03  0.12076774235E+03  0.00000000000E+00 0. -1.
        -12    1    4    4    0    0 -0.12451141200E+03 -0.56323862899E+02 -0.36800866884E+03  0.39256317911E+03  0.00000000000E+00 0.  1.
         -5    1    3    3    0  504 -0.24948735707E+02  0.32801322960E+02 -0.30435098269E+02  0.51446587913E+02  0.47000000000E+01 0.  1.
<mgrwt>
<rscale>  2 0.23082682E+03</rscale>
<asrwt>0</asrwt>
<pdfrwt beam="1">  1       21 0.23759145E-01 0.23089024E+03</pdfrwt>
<pdfrwt beam="2">  1       21 0.98859491E-01 0.23089024E+03</pdfrwt>
<totfact> 0.13742291E+04</totfact>
</mgrwt>
</event>
<event>
12    1  0.1410528E-001  0.1838106E+03  0.7546771E-02  0.1164264E+00
         21   -1    0    0  502  503  0.00000000000E+00  0.00000000000E+00  0.16182479531E+03  0.16182479531E+03  0.00000000000E+00 0.  1.
         21   -1    0    0  503  504 -0.00000000000E+00 -0.00000000000E+00 -0.38943726050E+03  0.38943726050E+03  0.00000000000E+00 0.  1.
         -6    2    1    2    0  504 -0.61359324096E+02  0.67151085547E+00 -0.30171265185E+03  0.35307735126E+03  0.17282266665E+03 0.  0.
        -24    2    3    3    0    0 -0.10133904766E+03 -0.17891445424E+02 -0.26183076292E+03  0.29344835910E+03  0.83467865930E+02 0.  0.
          6    2    1    2  502    0  0.61359324096E+02 -0.67151085547E+00  0.74100186660E+02  0.19818470455E+03  0.17326546648E+03 0.  0.
         24    2    5    5    0    0  0.52681956690E+02 -0.63678308431E+02  0.24811185965E+02  0.11758291278E+03  0.79873843681E+02 0.  0.
          2    1    6    6  501    0  0.43504893992E+02 -0.48314501156E+01  0.36373718042E+02  0.56912793603E+02  0.00000000000E+00 0. -1.
         -1    1    6    6    0  501  0.91770626977E+01 -0.58846858316E+02 -0.11562532077E+02  0.60670119181E+02  0.00000000000E+00 0.  1.
          5    1    5    5  502    0  0.86773674055E+01  0.63006797576E+02  0.49289000695E+02  0.80601791763E+02  0.47000000000E+01 0. -1.
         13    1    4    4    0    0 -0.10399102382E+03 -0.14240107179E+02 -0.26681905077E+03  0.28672167610E+03  0.00000000000E+00 0. -1.
        -14    1    4    4    0    0  0.26519761571E+01 -0.36513382451E+01  0.49882878501E+01  0.67266830008E+01  0.00000000000E+00 0.  1.
         -5    1    3    3    0  504  0.39979723567E+02  0.18562956279E+02 -0.39881888922E+02  0.59628992163E+02  0.47000000000E+01 0.  1.
<mgrwt>
<rscale>  2 0.18370618E+03</rscale>
<asrwt>0</asrwt>
<pdfrwt beam="1">  1       21 0.24896123E-01 0.18381061E+03</pdfrwt>
<pdfrwt beam="2">  1       21 0.59913424E-01 0.18381061E+03</pdfrwt>
<totfact> 0.39860696E+04</totfact>
</mgrwt>
</event>
<event>
12    1  0.1410528E-001  0.1837159E+03  0.7546771E-02  0.1164398E+00
         21   -1    0    0  502  503  0.00000000000E+00  0.00000000000E+00  0.38086472942E+02  0.38086472942E+02  0.00000000000E+00 0.  1.
         21   -1    0    0  503  504 -0.00000000000E+00 -0.00000000000E+00 -0.11660447424E+04  0.11660447424E+04  0.00000000000E+00 0. -1.
         -6    2    1    2    0  504 -0.53821627361E+02  0.33531713492E+02 -0.86118676953E+03  0.88056469295E+03  0.17242500711E+03 0.  0.
        -24    2    3    3    0    0 -0.63034628445E+02  0.83886930549E+01 -0.29220321951E+03  0.31093198579E+03  0.85160106538E+02 0.  0.
          6    2    1    2  502    0  0.53821627361E+02 -0.33531713492E+02 -0.26677149992E+03  0.32356652238E+03  0.17177636000E+03 0.  0.
         24    2    5    5    0    0  0.26220367268E+02 -0.42704172472E+02 -0.54967086081E+02  0.10972273995E+03  0.80663158284E+02 0.  0.
          4    1    6    6  501    0 -0.27753742253E+02 -0.21547550110E+02 -0.31470885652E+02  0.47169733606E+02  0.00000000000E+00 0. -1.
         -3    1    6    6    0  501  0.53974109521E+02 -0.21156622362E+02 -0.23496200430E+02  0.62553006347E+02  0.00000000000E+00 0.  1.
          5    1    5    5  502    0  0.27601260092E+02  0.91724589793E+01 -0.21180441383E+03  0.21384378243E+03  0.47000000000E+01 0. -1.
         13    1    4    4    0    0 -0.32944571282E+02 -0.34505461736E+02 -0.19221900208E+03  0.19805079255E+03  0.00000000000E+00 0. -1.
        -14    1    4    4    0    0 -0.30090057163E+02  0.42894154790E+02 -0.99984217426E+02  0.11288119325E+03  0.00000000000E+00 0.  1.
         -5    1    3    3    0  504  0.92130010843E+01  0.25143020437E+02 -0.56898355002E+03  0.56963270716E+03  0.47000000000E+01 0.  1.
<mgrwt>
<rscale>  2 0.18356353E+03</rscale>
<asrwt>0</asrwt>
<pdfrwt beam="1">  1       21 0.58594562E-02 0.18371589E+03</pdfrwt>
<pdfrwt beam="2">  1       21 0.17939153E+00 0.18371589E+03</pdfrwt>
<totfact> 0.37939748E+04</totfact>
</mgrwt>
</event>
<event>
12    1  0.1410528E-001  0.2378212E+03  0.7546771E-02  0.1123144E+00
         21   -1    0    0  502  503  0.00000000000E+00  0.00000000000E+00  0.52055128947E+03  0.52055128947E+03  0.00000000000E+00 0.  1.
         21   -1    0    0  503  504 -0.00000000000E+00 -0.00000000000E+00 -0.21364422190E+03  0.21364422190E+03  0.00000000000E+00 0.  1.
         -6    2    1    2    0  504  0.29373365422E+02  0.16142755148E+03 -0.11159703487E+03  0.25283844523E+03  0.15668992381E+03 0.  0.
        -24    2    3    3    0    0  0.10808246736E+02  0.62918898192E+02 -0.11299169280E+03  0.15247583528E+03  0.80038439242E+02 0.  0.
          6    2    1    2  502    0 -0.29373365422E+02 -0.16142755148E+03  0.41850410244E+03  0.48135706614E+03  0.17215485004E+03 0.  0.
         24    2    5    5    0    0 -0.34398901622E+02 -0.10849422329E+03  0.13160909362E+03  0.18953857918E+03  0.75164077546E+02 0.  0.
          2    1    6    6  501    0 -0.10641242526E+02 -0.16474795876E+01 -0.70597084495E+01  0.12875935495E+02  0.00000000000E+00 0. -1.
         -1    1    6    6    0  501 -0.23757659097E+02 -0.10684674371E+03  0.13866880207E+03  0.17666264369E+03  0.00000000000E+00 0.  1.
          5    1    5    5  502    0  0.50255362000E+01 -0.52933328185E+02  0.28689500882E+03  0.29181848696E+03  0.47000000000E+01 0. -1.
         11    1    4    4    0    0 -0.27941604931E+01 -0.19050478357E+02 -0.22858503927E+02  0.29887108597E+02  0.00000000000E+00 0. -1.
        -12    1    4    4    0    0  0.13602407229E+02  0.81969376549E+02 -0.90133188875E+02  0.12258872669E+03  0.00000000000E+00 0.  1.
         -5    1    3    3    0  504  0.18565118687E+02  0.98508653287E+02  0.13946579342E+01  0.10036260995E+03  0.47000000000E+01 0.  1.
<mgrwt>
<rscale>  2 0.23503677E+03</rscale>
<asrwt>0</asrwt>
<pdfrwt beam="1">  1       21 0.80084814E-01 0.23782124E+03</pdfrwt>
<pdfrwt beam="2">  1       21 0.32868342E-01 0.23782124E+03</pdfrwt>
<totfact> 0.11884810E+04</totfact>
</mgrwt>
</event>
<event>
12    1  0.1410528E-001  0.1960160E+03  0.7546771E-02  0.1153653E+00
         21   -1    0    0  502  503  0.00000000000E+00  0.00000000000E+00  0.94292106581E+03  0.94292106581E+03  0.00000000000E+00 0.  1.
         21   -1    0    0  503  504 -0.00000000000E+00 -0.00000000000E+00 -0.45496122484E+02  0.45496122484E+02  0.00000000000E+00 0.  1.
         -6    2    1    2    0  504  0.24607366660E+02  0.82569196365E+02  0.27874707905E+03  0.33942984742E+03  0.17346323115E+03 0.  0.
        -24    2    3    3    0    0  0.10991141320E+02 -0.31815394929E+02  0.11006233625E+03  0.13511178955E+03  0.70770426545E+02 0.  0.
          6    2    1    2  502    0 -0.24607366660E+02 -0.82569196365E+02  0.61867786428E+03  0.64898734088E+03  0.17606553946E+03 0.  0.
         24    2    5    5    0    0 -0.73306614186E+02 -0.93473011877E+02  0.45780684501E+03  0.48048783125E+03  0.84678125930E+02 0.  0.
          4    1    6    6  501    0 -0.28822826568E+02  0.12145468515E+02  0.98605594613E+02  0.10344723788E+03  0.00000000000E+00 0. -1.
         -3    1    6    6    0  501 -0.44483787618E+02 -0.10561848039E+03  0.35920125039E+03  0.37704059337E+03  0.00000000000E+00 0.  1.
          5    1    5    5  502    0  0.48699247526E+02  0.10903815512E+02  0.16087101928E+03  0.16849950963E+03  0.47000000000E+01 0. -1.
         13    1    4    4    0    0  0.35300568290E+02 -0.33655455873E+02  0.94050296759E+02  0.10594469384E+03  0.00000000000E+00 0. -1.
        -14    1    4    4    0    0 -0.24309426969E+02  0.18400609442E+01  0.16012039490E+02  0.29167095716E+02  0.00000000000E+00 0.  1.
         -5    1    3    3    0  504  0.13616225340E+02  0.11438459129E+03  0.16868474280E+03  0.20431805787E+03  0.47000000000E+01 0.  1.
<mgrwt>
<rscale>  2 0.19542985E+03</rscale>
<asrwt>0</asrwt>
<pdfrwt beam="1">  1       21 0.14506476E+00 0.19601599E+03</pdfrwt>
<pdfrwt beam="2">  1       21 0.69994042E-02 0.19601599E+03</pdfrwt>
<totfact> 0.49270607E+04</totfact>
</mgrwt>
</event>
<event>
12    1  0.1410528E-001  0.1821106E+03  0.7546771E-02  0.1166230E+00
         21   -1    0    0  502  503  0.00000000000E+00  0.00000000000E+00  0.18985644196E+03  0.18985644196E+03  0.00000000000E+00 0.  1.
         21   -1    0    0  503  504 -0.00000000000E+00 -0.00000000000E+00 -0.17294385640E+03  0.17294385640E+03  0.00000000000E+00 0.  1.
         -6    2    1    2    0  504  0.50986740386E+02 -0.15139624472E+02  0.47416918024E+01  0.18217232888E+03  0.17417065724E+03 0.  0.
        -24    2    3    3    0    0 -0.62282379921E+01  0.46968361130E+02 -0.15380145495E+02  0.95235950058E+02  0.81169695159E+02 0.  0.
          6    2    1    2  502    0 -0.50986740386E+02  0.15139624472E+02  0.12170893760E+02  0.18062796948E+03  0.17219023427E+03 0.  0.
         24    2    5    5    0    0 -0.10491121255E+03  0.25987043152E+02  0.29421078867E+02  0.12279048962E+03  0.50301247799E+02 0.  0.
          2    1    6    6  501    0 -0.17212558870E+02  0.39803127839E+01  0.27091404376E+02  0.32342839451E+02  0.00000000000E+00 0. -1.
         -1    1    6    6    0  501 -0.87698653677E+02  0.22006730368E+02  0.23296744912E+01  0.90447650171E+02  0.00000000000E+00 0.  1.
          5    1    5    5  502    0  0.53924472161E+02 -0.10847418680E+02 -0.17250185107E+02  0.57837479856E+02  0.47000000000E+01 0. -1.
         11    1    4    4    0    0 -0.83604633503E+01  0.27752893015E+02 -0.48723474782E+02  0.56693010266E+02  0.00000000000E+00 0. -1.
        -12    1    4    4    0    0  0.21322253582E+01  0.19215468114E+02  0.33343329287E+02  0.38542939792E+02  0.00000000000E+00 0.  1.
         -5    1    3    3    0  504  0.57214978378E+02 -0.62107985601E+02  0.20121837297E+02  0.86936378821E+02  0.47000000000E+01 0.  1.
<mgrwt>
<rscale>  2 0.18163547E+03</rscale>
<asrwt>0</asrwt>
<pdfrwt beam="1">  1       21 0.29208684E-01 0.18211061E+03</pdfrwt>
<pdfrwt beam="2">  1       21 0.26606747E-01 0.18211061E+03</pdfrwt>
<totfact> 0.15141108E+05</totfact>
</mgrwt>
</event>
<event>
12    1  0.1410528E-001  0.1973874E+03  0.7546771E-02  0.1152367E+00
         21   -1    0    0  502  503  0.00000000000E+00  0.00000000000E+00  0.42615481733E+02  0.42615481733E+02  0.00000000000E+00 0.  1.
         21   -1    0    0  503  504 -0.00000000000E+00 -0.00000000000E+00 -0.20719758898E+04  0.20719758898E+04  0.00000000000E+00 0. -1.
         -6    2    1    2    0  504 -0.84361622962E+02 -0.34617414327E+02 -0.18100787373E+04  0.18208093867E+04  0.17506152803E+03 0.  0.
        -24    2    3    3    0    0 -0.21843578007E+02 -0.15472881191E+01 -0.43010558670E+03  0.43901702689E+03  0.85238478342E+02 0.  0.
          6    2    1    2  502    0  0.84361622962E+02  0.34617414327E+02 -0.21928167068E+03  0.29378198477E+03  0.17293974290E+03 0.  0.
         24    2    5    5    0    0 -0.18182245333E+02 -0.90056469440E+01 -0.10744128408E+03  0.13583079460E+03  0.80589574482E+02 0.  0.
          4    1    6    6  501    0  0.10575487519E+02 -0.39652497895E+02 -0.50990025206E+02  0.65453374215E+02  0.00000000000E+00 0. -1.
         -3    1    6    6    0  501 -0.28757732852E+02  0.30646850951E+02 -0.56451258873E+02  0.70377420387E+02  0.00000000000E+00 0.  1.
          5    1    5    5  502    0  0.10254386830E+03  0.43623061271E+02 -0.11184038661E+03  0.15795119017E+03  0.47000000000E+01 0. -1.
         13    1    4    4    0    0 -0.10781094262E+02  0.35373857961E+02 -0.32445225025E+03  0.32655291227E+03  0.00000000000E+00 0. -1.
        -14    1    4    4    0    0 -0.11062483745E+02 -0.36921146080E+02 -0.10565333645E+03  0.11246411462E+03  0.00000000000E+00 0.  1.
         -5    1    3    3    0  504 -0.62518044956E+02 -0.33070126208E+02 -0.13799731506E+04  0.13817923598E+04  0.47000000000E+01 0.  1.
<mgrwt>
<rscale>  2 0.19691588E+03</rscale>
<asrwt>0</asrwt>
<pdfrwt beam="1">  1       21 0.65562275E-02 0.19738740E+03</pdfrwt>
<pdfrwt beam="2">  1       21 0.31876554E+00 0.19738740E+03</pdfrwt>
<totfact> 0.44801304E+03</totfact>
</mgrwt>
</event>
<event>
12    1  0.1410528E-001  0.1814118E+03  0.7546771E-02  0.1166834E+00
         21   -1    0    0  502  503  0.00000000000E+00  0.00000000000E+00  0.17862783487E+03  0.17862783487E+03  0.00000000000E+00 0.  1.
         21   -1    0    0  503  504 -0.00000000000E+00 -0.00000000000E+00 -0.19267667582E+03  0.19267667582E+03  0.00000000000E+00 0.  1.
         -6    2    1    2    0  504  0.63783062176E+01 -0.49366986745E+02  0.35468778091E+02  0.18325603361E+03  0.17276272013E+03 0.  0.
        -24    2    3    3    0    0  0.26496265106E+02 -0.72308356382E+02  0.72384931875E+02  0.13513191159E+03  0.84205134637E+02 0.  0.
          6    2    1    2  502    0 -0.63783062176E+01  0.49366986745E+02 -0.49517619036E+02  0.18804847708E+03  0.17444899818E+03 0.  0.
         24    2    5    5    0    0  0.34986388649E+02  0.18457745365E+02 -0.86807907975E+02  0.12418084182E+03  0.79501778808E+02 0.  0.
          2    1    6    6  501    0  0.75798696436E+01 -0.23497895093E+02 -0.87834891448E+00  0.24705808920E+02  0.00000000000E+00 0. -1.
         -1    1    6    6    0  501  0.27406519006E+02  0.41955640457E+02 -0.85929559061E+02  0.99475032901E+02  0.00000000000E+00 0.  1.
          5    1    5    5  502    0 -0.41364694867E+02  0.30909241380E+02  0.37290288939E+02  0.63867635257E+02  0.47000000000E+01 0. -1.
         13    1    4    4    0    0  0.41192083901E+02 -0.62670298086E+02  0.16826526798E+02  0.76860172016E+02  0.00000000000E+00 0. -1.
        -14    1    4    4    0    0 -0.14695818795E+02 -0.96380582958E+01  0.55558405077E+02  0.58271739570E+02  0.00000000000E+00 0.  1.
         -5    1    3    3    0  504 -0.20117958888E+02  0.22941369637E+02 -0.36916153784E+02  0.48124122027E+02  0.47000000000E+01 0.  1.
<mgrwt>
<rscale>  2 0.18100518E+03</rscale>
<asrwt>0</asrwt>
<pdfrwt beam="1">  1       21 0.27481205E-01 0.18141178E+03</pdfrwt>
<pdfrwt beam="2">  1       21 0.29642565E-01 0.18141178E+03</pdfrwt>
<totfact> 0.13829908E+05</totfact>
</mgrwt>
</event>
<event>
12    1  0.1410528E-001  0.2213921E+03  0.7546771E-02  0.1132953E+00
         21   -1    0    0  502  503  0.00000000000E+00  0.00000000000E+00  0.10245192947E+03  0.10245192947E+03  0.00000000000E+00 0. -1.
         21   -1    0    0  503  504 -0.00000000000E+00 -0.00000000000E+00 -0.78219019633E+03  0.78219019633E+03  0.00000000000E+00 0. -1.
         -6    2    1    2    0  504 -0.13318095108E+03  0.30215196654E+02 -0.61632705318E+03  0.65488435404E+03  0.17425371400E+03 0.  0.
        -24    2    3    3    0    0 -0.68910506435E+02  0.84825011134E+02 -0.43332947778E+03  0.45333256294E+03  0.76105426198E+02 0.  0.
          6    2    1    2  502    0  0.13318095108E+03 -0.30215196654E+02 -0.63411213685E+02  0.22975777176E+03  0.17354402273E+03 0.  0.
         24    2    5    5    0    0  0.53477506061E+02  0.51182889970E+02 -0.15412295543E+02  0.10604732840E+03  0.74357011285E+02 0.  0.
          2    1    6    6  501    0 -0.44152975727E-01 -0.12463867365E+02 -0.19099134061E+02  0.22806289945E+02  0.00000000000E+00 0. -1.
         -1    1    6    6    0  501  0.53521659036E+02  0.63646757335E+02  0.36868385179E+01  0.83241038458E+02  0.00000000000E+00 0.  1.
          5    1    5    5  502    0  0.79703445020E+02 -0.81398086623E+02 -0.47998918142E+02  0.12371044336E+03  0.47000000000E+01 0. -1.
         13    1    4    4    0    0 -0.68140612785E+02  0.77035165578E+02 -0.43346951367E+03  0.44550351191E+03  0.00000000000E+00 0. -1.
        -14    1    4    4    0    0 -0.76989364959E+00  0.77898455567E+01  0.14003588187E+00  0.78290510330E+01  0.00000000000E+00 0.  1.
         -5    1    3    3    0  504 -0.64270444646E+02 -0.54609814481E+02 -0.18299757539E+03  0.20155179109E+03  0.47000000000E+01 0.  1.
<mgrwt>
<rscale>  2 0.22125247E+03</rscale>
<asrwt>0</asrwt>
<pdfrwt beam="1">  1       21 0.15761836E-01 0.22139214E+03</pdfrwt>
<pdfrwt beam="2">  1       21 0.12033695E+00 0.22139214E+03</pdfrwt>
<totfact> 0.18459548E+04</totfact>
</mgrwt>
</event>
<event>
12    1  0.1410528E-001  0.2141622E+03  0.7546771E-02  0.1138316E+00
         21   -1    0    0  502  503  0.00000000000E+00  0.00000000000E+00  0.16684770151E+03  0.16684770151E+03  0.00000000000E+00 0.  1.
         21   -1    0    0  503  504 -0.00000000000E+00 -0.00000000000E+00 -0.31272747798E+03  0.31272747798E+03  0.00000000000E+00 0.  1.
         -6    2    1    2    0  504  0.28463936774E+02 -0.12370012476E+03 -0.15637542537E+03  0.26517678005E+03  0.17249212867E+03 0.  0.
        -24    2    3    3    0    0 -0.12346651422E+02 -0.54620170961E+01 -0.97728673214E+02  0.12694767402E+03  0.79890831384E+02 0.  0.
          6    2    1    2  502    0 -0.28463936774E+02  0.12370012476E+03  0.10495648904E+02  0.21439839944E+03  0.17246622416E+03 0.  0.
         24    2    5    5    0    0 -0.34487792841E+02  0.27882901552E+00  0.18757940899E+02  0.90465116767E+02  0.81502094477E+02 0.  0.
          2    1    6    6  501    0 -0.15838579141E+01 -0.37705401966E+02  0.32772538377E+01  0.37880685527E+02  0.00000000000E+00 0. -1.
         -1    1    6    6    0  501 -0.32903934927E+02  0.37984230981E+02  0.15480687062E+02  0.52584431240E+02  0.00000000000E+00 0.  1.
          5    1    5    5  502    0  0.60238560666E+01  0.12342129575E+03 -0.82622919952E+01  0.12393328268E+03  0.47000000000E+01 0. -1.
         11    1    4    4    0    0  0.31769534869E+01  0.25085351097E+02 -0.21086449883E+01  0.25373495163E+02  0.00000000000E+00 0. -1.
        -12    1    4    4    0    0 -0.15523604909E+02 -0.30547368193E+02 -0.95620028226E+02  0.10157417886E+03  0.00000000000E+00 0.  1.
         -5    1    3    3    0  504  0.40810588196E+02 -0.11823810767E+03 -0.58646752154E+02  0.13822910602E+03  0.47000000000E+01 0.  1.
<mgrwt>
<rscale>  2 0.21415699E+03</rscale>
<asrwt>0</asrwt>
<pdfrwt beam="1">  1       21 0.25668877E-01 0.21416221E+03</pdfrwt>
<pdfrwt beam="2">  1       21 0.48111919E-01 0.21416221E+03</pdfrwt>
<totfact> 0.58861066E+04</totfact>
</mgrwt>
</event>
<event>
12    1  0.1410528E-001  0.2563688E+03  0.7546771E-02  0.1109488E+00
         21   -1    0    0  502  503  0.00000000000E+00  0.00000000000E+00  0.23612637831E+04  0.23612637831E+04  0.00000000000E+00 0. -1.
         21   -1    0    0  503  504 -0.00000000000E+00 -0.00000000000E+00 -0.33895467808E+02  0.33895467808E+02  0.00000000000E+00 0.  1.
         -6    2    1    2    0  504 -0.64791258614E+02 -0.17832915157E+03  0.16725764056E+04  0.16919683831E+04  0.17101457053E+03 0.  0.
        -24    2    3    3    0    0 -0.44843188655E+02 -0.44097134390E+02  0.10339991852E+04  0.10391137926E+04  0.81533368175E+02 0.  0.
          6    2    1    2  502    0  0.64791258614E+02  0.17832915157E+03  0.65479190966E+03  0.70319086778E+03  0.17241159497E+03 0.  0.
         24    2    5    5    0    0  0.46374639759E+02  0.75282201404E+02  0.51418237869E+03  0.52783130577E+03  0.80027193736E+02 0.  0.
          2    1    6    6  501    0  0.41313479977E+01  0.10316694565E+02  0.29752644919E+03  0.29773392516E+03  0.00000000000E+00 0. -1.
         -1    1    6    6    0  501  0.42243291761E+02  0.64965506839E+02  0.21665592950E+03  0.23009738061E+03  0.00000000000E+00 0.  1.
          5    1    5    5  502    0  0.18416618855E+02  0.10304695016E+03  0.14060953097E+03  0.17535956201E+03  0.47000000000E+01 0. -1.
         11    1    4    4    0    0 -0.22254787254E+02 -0.56861961731E+02  0.92718870616E+03  0.92919721000E+03  0.00000000000E+00 0. -1.
        -12    1    4    4    0    0 -0.22588401401E+02  0.12764827341E+02  0.10681047908E+03  0.10991658262E+03  0.00000000000E+00 0.  1.
         -5    1    3    3    0  504 -0.19948069960E+02 -0.13423201718E+03  0.63857722038E+03  0.65285459049E+03  0.47000000000E+01 0.  1.
<mgrwt>
<rscale>  2 0.25613410E+03</rscale>
<asrwt>0</asrwt>
<pdfrwt beam="1">  1       21 0.36327122E+00 0.25636878E+03</pdfrwt>
<pdfrwt beam="2">  1       21 0.52146892E-02 0.25636878E+03</pdfrwt>
<totfact> 0.33929042E+03</totfact>
</mgrwt>
</event>
<event>
12    1  0.1410528E-001  0.1851381E+03  0.7546771E-02  0.1163456E+00
         21   -1    0    0  502  503  0.00000000000E+00  0.00000000000E+00  0.10015534310E+04  0.10015534310E+04  0.00000000000E+00 0. -1.
         21   -1    0    0  503  504 -0.00000000000E+00 -0.00000000000E+00 -0.37058583441E+02  0.37058583441E+02  0.00000000000E+00 0.  1.
         -6    2    1    2    0  504 -0.78072400051E+01  0.64516686067E+02  0.63344415612E+03  0.65930912199E+03  0.17092005041E+03 0.  0.
        -24    2    3    3    0    0 -0.52251672351E+02  0.62507796335E+01  0.47724534251E+03  0.48671021471E+03  0.79714532224E+02 0.  0.
          6    2    1    2  502    0  0.78072400051E+01 -0.64516686067E+02  0.33105069146E+03  0.37930289247E+03  0.17335734235E+03 0.  0.
         24    2    5    5    0    0  0.16518098020E+02  0.30482918557E+02  0.11542928531E+03  0.14347353740E+03  0.77837523988E+02 0.  0.
          2    1    6    6  501    0  0.42314342661E+02 -0.34470599702E+01  0.61604376393E+02  0.74816341851E+02  0.00000000000E+00 0. -1.
         -1    1    6    6    0  501 -0.25796244641E+02  0.33929978527E+02  0.53824908916E+02  0.68657195546E+02  0.00000000000E+00 0.  1.
          5    1    5    5  502    0 -0.87108580150E+01 -0.94999604624E+02  0.21562140615E+03  0.23582935507E+03  0.47000000000E+01 0. -1.
         13    1    4    4    0    0 -0.38432535958E+02  0.40682443466E+02  0.33824014612E+03  0.34283890893E+03  0.00000000000E+00 0. -1.
        -14    1    4    4    0    0 -0.13819136394E+02 -0.34431663833E+02  0.13900519639E+03  0.14387130578E+03  0.00000000000E+00 0.  1.
         -5    1    3    3    0  504  0.44444432346E+02  0.58265906434E+02  0.15619881362E+03  0.17259890728E+03  0.47000000000E+01 0.  1.
<mgrwt>
<rscale>  2 0.18456542E+03</rscale>
<asrwt>0</asrwt>
<pdfrwt beam="1">  1       21 0.15408512E+00 0.18513812E+03</pdfrwt>
<pdfrwt beam="2">  1       21 0.57013213E-02 0.18513812E+03</pdfrwt>
<totfact> 0.60149109E+04</totfact>
</mgrwt>
</event>
<event>
12    1  0.1410528E-001  0.2058668E+03  0.7546771E-02  0.1144969E+00
         21   -1    0    0  502  503  0.00000000000E+00  0.00000000000E+00  0.37768164363E+02  0.37768164363E+02  0.00000000000E+00 0. -1.
         21   -1    0    0  503  504 -0.00000000000E+00 -0.00000000000E+00 -0.11230158102E+04  0.11230158102E+04  0.00000000000E+00 0. -1.
         -6    2    1    2    0  504  0.15591558477E+02  0.11014109952E+03 -0.57429488434E+03  0.61007847399E+03  0.17322520530E+03 0.  0.
        -24    2    3    3    0    0  0.23077749348E+02 -0.98390236488E-01 -0.27189933161E+03  0.28809408234E+03  0.92392432347E+02 0.  0.
          6    2    1    2  502    0 -0.15591558477E+02 -0.11014109952E+03 -0.51095276145E+03  0.55070550053E+03  0.17271266710E+03 0.  0.
         24    2    5    5    0    0 -0.74687749363E+02 -0.82949803478E+02 -0.34459865233E+03  0.37202280416E+03  0.84816306387E+02 0.  0.
          2    1    6    6  501    0 -0.68746927617E+02 -0.42954247797E+02 -0.30439069988E+03  0.31499985021E+03  0.00000000000E+00 0. -1.
         -1    1    6    6    0  501 -0.59408217459E+01 -0.39995555681E+02 -0.40207952450E+02  0.57022953953E+02  0.00000000000E+00 0.  1.
          5    1    5    5  502    0  0.59096190886E+02 -0.27191296039E+02 -0.16635410912E+03  0.17868269636E+03  0.47000000000E+01 0. -1.
         13    1    4    4    0    0 -0.25821786602E+02 -0.63692242029E+01 -0.25619033624E+02  0.36927856207E+02  0.00000000000E+00 0. -1.
        -14    1    4    4    0    0  0.48899535950E+02  0.62708339664E+01 -0.24628029798E+03  0.25116622613E+03  0.00000000000E+00 0.  1.
         -5    1    3    3    0  504 -0.74861908714E+01  0.11023948975E+03 -0.30239555274E+03  0.32198439166E+03  0.47000000000E+01 0.  1.
<mgrwt>
<rscale>  2 0.20575892E+03</rscale>
<asrwt>0</asrwt>
<pdfrwt beam="1">  1       21 0.58104872E-02 0.20586678E+03</pdfrwt>
<pdfrwt beam="2">  1       21 0.17277165E+00 0.20586678E+03</pdfrwt>
<totfact> 0.42160799E+04</totfact>
</mgrwt>
</event>
<event>
12    1  0.1410528E-001  0.1982336E+03  0.7546771E-02  0.1151693E+00
         21   -1    0    0  502  503  0.00000000000E+00  0.00000000000E+00  0.28956183664E+03  0.28956183664E+03  0.00000000000E+00 0. -1.
         21   -1    0    0  503  504 -0.00000000000E+00 -0.00000000000E+00 -0.13816180166E+03  0.13816180166E+03  0.00000000000E+00 0. -1.
         -6    2    1    2    0  504  0.83784443372E+02  0.28249698647E+02  0.40174353413E+02  0.20226355075E+03  0.17742234037E+03 0.  0.
        -24    2    3    3    0    0  0.79977192370E+02 -0.30917994452E+02 -0.19489412858E+02  0.11801887096E+03  0.78716853395E+02 0.  0.
          6    2    1    2  502    0 -0.83784443372E+02 -0.28249698647E+02  0.11122568157E+03  0.22546008756E+03  0.17505205059E+03 0.  0.
         24    2    5    5    0    0 -0.20596039697E+02  0.43883717944E+02  0.28639172309E+02  0.98816391862E+02  0.81206524111E+02 0.  0.
          2    1    6    6  501    0 -0.20410232891E+02  0.29506402957E+01 -0.24317070218E+02  0.31884224764E+02  0.00000000000E+00 0. -1.
         -1    1    6    6    0  501 -0.18580680662E+00  0.40933077648E+02  0.52956242526E+02  0.66932167098E+02  0.00000000000E+00 0.  1.
          5    1    5    5  502    0 -0.63188403675E+02 -0.72133416591E+02  0.82586509259E+02  0.12664369570E+03  0.47000000000E+01 0. -1.
         11    1    4    4    0    0  0.38168301384E+02 -0.16073613432E+02  0.30311371926E+02  0.51322115577E+02  0.00000000000E+00 0. -1.
        -12    1    4    4    0    0  0.41808890986E+02 -0.14844381020E+02 -0.49800784784E+02  0.66696755381E+02  0.00000000000E+00 0.  1.
         -5    1    3    3    0  504  0.38072510027E+01  0.59167693099E+02  0.59663766271E+02  0.84244679788E+02  0.47000000000E+01 0.  1.
<mgrwt>
<rscale>  2 0.19770183E+03</rscale>
<asrwt>0</asrwt>
<pdfrwt beam="1">  1       21 0.44547975E-01 0.19823361E+03</pdfrwt>
<pdfrwt beam="2">  1       21 0.21255662E-01 0.19823361E+03</pdfrwt>
<totfact> 0.99410817E+04</totfact>
</mgrwt>
</event>
<event>
12    1  0.1410528E-001  0.2334477E+03  0.7546771E-02  0.1124297E+00
         21   -1    0    0  502  503  0.00000000000E+00  0.00000000000E+00  0.79638798352E+03  0.79638798352E+03  0.00000000000E+00 0. -1.
         21   -1    0    0  503  504 -0.00000000000E+00 -0.00000000000E+00 -0.93021046902E+02  0.93021046902E+02  0.00000000000E+00 0.  1.
         -6    2    1    2    0  504  0.13342112120E+03 -0.82531450260E+02  0.12236751196E+03  0.26326354719E+03  0.17239852502E+03 0.  0.
        -24    2    3    3    0    0  0.78197837692E+02 -0.11909633767E+03  0.10571674639E+03  0.19480962087E+03  0.80473091467E+02 0.  0.
          6    2    1    2  502    0 -0.13342112120E+03  0.82531450260E+02  0.58099942466E+03  0.62614548324E+03  0.17287336076E+03 0.  0.
         24    2    5    5    0    0 -0.12491914386E+03  0.10537010268E+03  0.57092215891E+03  0.59935875241E+03  0.81062639500E+02 0.  0.
          4    1    6    6  501    0 -0.25725621013E+02  0.26033497748E+02  0.27365914085E+03  0.27609577316E+03  0.00000000000E+00 0. -1.
         -3    1    6    6    0  501 -0.99193522844E+02  0.79336604936E+02  0.29726301805E+03  0.32326297926E+03  0.00000000000E+00 0.  1.
          5    1    5    5  502    0 -0.85019773453E+01 -0.22838652425E+02  0.10077265755E+02  0.26786730828E+02  0.47000000000E+01 0. -1.
         11    1    4    4    0    0  0.49886306176E+01 -0.61447414174E+02  0.74138113730E+02  0.96421631658E+02  0.00000000000E+00 0. -1.
        -12    1    4    4    0    0  0.73209207074E+02 -0.57648923501E+02  0.31578632661E+02  0.98387989216E+02  0.00000000000E+00 0.  1.
         -5    1    3    3    0  504  0.55223283511E+02  0.36564887415E+02  0.16650765571E+02  0.68453926312E+02  0.47000000000E+01 0.  1.
<mgrwt>
<rscale>  2 0.23335981E+03</rscale>
<asrwt>0</asrwt>
<pdfrwt beam="1">  1       21 0.12252122E+00 0.23344771E+03</pdfrwt>
<pdfrwt beam="2">  1       21 0.14310931E-01 0.23344771E+03</pdfrwt>
<totfact> 0.20910385E+04</totfact>
</mgrwt>
</event>
<event>
12    1  0.1410528E-001  0.2855012E+03  0.7546771E-02  0.1092818E+00
         21   -1    0    0  502  503  0.00000000000E+00  0.00000000000E+00  0.60976407585E+03  0.60976407585E+03  0.00000000000E+00 0.  1.
         21   -1    0    0  503  504 -0.00000000000E+00 -0.00000000000E+00 -0.13388935166E+03  0.13388935166E+03  0.00000000000E+00 0. -1.
         -6    2    1    2    0  504 -0.93781913832E+02  0.20646556055E+03  0.21434592342E+03  0.35700858405E+03  0.17345858047E+03 0.  0.
        -24    2    3    3    0    0 -0.89043247312E+02  0.22448413404E+03  0.16367762353E+03  0.30281918873E+03  0.81162000279E+02 0.  0.
          6    2    1    2  502    0  0.93781913832E+02 -0.20646556055E+03  0.26152880077E+03  0.38664484346E+03  0.17226098306E+03 0.  0.
         24    2    5    5    0    0  0.10186934855E+02 -0.40990439836E+02  0.57162845964E+02  0.11067805276E+03  0.84841326037E+02 0.  0.
          2    1    6    6  501    0 -0.79911507938E+01 -0.57416861840E+02  0.11854961767E+02  0.59170048446E+02  0.00000000000E+00 0. -1.
         -1    1    6    6    0  501  0.18178085649E+02  0.16426422004E+02  0.45307884197E+02  0.51508004312E+02  0.00000000000E+00 0.  1.
          5    1    5    5  502    0  0.83594978977E+02 -0.16547512072E+03  0.20436595480E+03  0.27596679070E+03  0.47000000000E+01 0. -1.
         13    1    4    4    0    0 -0.54620753387E+02  0.67325072945E+02  0.24505523082E+02  0.90092246110E+02  0.00000000000E+00 0. -1.
        -14    1    4    4    0    0 -0.34422493925E+02  0.15715906110E+03  0.13917210044E+03  0.21272694262E+03  0.00000000000E+00 0.  1.
         -5    1    3    3    0  504 -0.47386665198E+01 -0.18018573487E+02  0.50668299897E+02  0.54189395321E+02  0.47000000000E+01 0.  1.
<mgrwt>
<rscale>  2 0.28531955E+03</rscale>
<asrwt>0</asrwt>
<pdfrwt beam="1">  1       21 0.93809857E-01 0.28550123E+03</pdfrwt>
<pdfrwt beam="2">  1       21 0.20598362E-01 0.28550123E+03</pdfrwt>
<totfact> 0.19855694E+04</totfact>
</mgrwt>
</event>
